Generated by trjconv : CNT in water t= 322.00000
33518
    1C        C    1   2.843   2.771   4.747
    1C        C    2   2.900   2.721   4.866
    1C        C    3   2.846   2.772   4.985
    1C        C    4   2.850   2.773   4.259
    1C        C    5   2.903   2.731   4.383
    1C        C    6   2.847   2.774   4.505
    1C        C    7   3.011   2.637   4.624
    1C        C    8   2.897   2.721   4.626
    1C        C    9   3.074   2.602   4.745
    1C        C   10   3.008   2.630   4.866
    1C        C   11   3.177   2.485   4.974
    1C        C   12   3.056   2.556   4.975
    1C        C   13   2.851   2.772   3.770
    1C        C   14   2.902   2.723   3.892
    1C        C   15   2.850   2.771   4.015
    1C        C   16   3.021   2.644   4.137
    1C        C   17   2.906   2.726   4.137
    1C        C   18   3.083   2.616   4.261
    1C        C   19   3.021   2.652   4.383
    1C        C   20   3.209   2.554   4.501
    1C        C   21   3.078   2.607   4.504
    1C        C   22   3.276   2.541   4.625
    1C        C   23   3.205   2.546   4.747
    1C        C   24   3.410   2.477   4.865
    1C        C   25   3.269   2.499   4.865
    1C        C   26   3.487   2.478   4.982
    1C        C   27   2.849   2.770   3.283
    1C        C   28   2.910   2.733   3.405
    1C        C   29   2.858   2.778   3.528
    1C        C   30   3.021   2.641   3.651
    1C        C   31   2.911   2.729   3.650
    1C        C   32   3.081   2.603   3.773
    1C        C   33   3.016   2.641   3.893
    1C        C   34   3.209   2.552   4.014
    1C        C   35   3.077   2.602   4.015
    1C        C   36   3.277   2.535   4.137
    1C        C   37   3.210   2.554   4.260
    1C        C   38   3.418   2.506   4.382
    1C        C   39   3.278   2.527   4.381
    1C        C   40   3.488   2.500   4.505
    1C        C   41   3.413   2.506   4.625
    1C        C   42   3.626   2.482   4.744
    1C        C   43   3.484   2.479   4.743
    1C        C   44   3.704   2.486   4.862
    1C        C   45   3.625   2.477   4.977
    1C        C   46   2.842   2.758   2.791
    1C        C   47   2.894   2.715   2.915
    1C        C   48   2.844   2.766   3.037
    1C        C   49   3.016   2.644   3.159
    1C        C   50   2.898   2.721   3.160
    1C        C   51   3.078   2.607   3.281
    1C        C   52   3.024   2.648   3.404
    1C        C   53   3.210   2.550   3.526
    1C        C   54   3.081   2.607   3.527
    1C        C   55   3.279   2.525   3.647
    1C        C   56   3.211   2.548   3.769
    1C        C   57   3.416   2.505   3.894
    1C        C   58   3.276   2.529   3.892
    1C        C   59   3.486   2.502   4.017
    1C        C   60   3.415   2.508   4.139
    1C        C   61   3.629   2.498   4.257
    1C        C   62   3.488   2.503   4.260
    1C        C   63   3.700   2.504   4.379
    1C        C   64   3.629   2.499   4.502
    1C        C   65   3.835   2.540   4.623
    1C        C   66   3.699   2.501   4.624
    1C        C   67   3.907   2.561   4.743
    1C        C   68   3.839   2.528   4.862
    1C        C   69   4.052   2.584   4.978
    1C        C   70   3.923   2.529   4.974
    1C        C   71   2.818   2.733   2.306
    1C        C   72   2.880   2.696   2.427
    1C        C   73   2.834   2.747   2.550
    1C        C   74   3.010   2.627   2.671
    1C        C   75   2.890   2.701   2.671
    1C        C   76   3.073   2.598   2.794
    1C        C   77   3.010   2.635   2.915
    1C        C   78   3.204   2.546   3.035
    1C        C   79   3.075   2.604   3.037
    1C        C   80   3.271   2.529   3.158
    1C        C   81   3.208   2.552   3.282
    1C        C   82   3.415   2.499   3.401
    1C        C   83   3.276   2.526   3.403
    1C        C   84   3.484   2.493   3.524
    1C        C   85   3.417   2.499   3.648
    1C        C   86   3.627   2.494   3.768
    1C        C   87   3.486   2.493   3.772
    1C        C   88   3.696   2.508   3.890
    1C        C   89   3.627   2.507   4.013
    1C        C   90   3.834   2.549   4.136
    1C        C   91   3.699   2.510   4.135
    1C        C   92   3.898   2.578   4.258
    1C        C   93   3.834   2.547   4.380
    1C        C   94   4.025   2.639   4.501
    1C        C   95   3.900   2.572   4.503
    1C        C   96   4.091   2.672   4.621
    1C        C   97   4.034   2.625   4.742
    1C        C   98   4.196   2.762   4.862
    1C        C   99   4.103   2.653   4.864
    1C        C  100   4.204   2.848   4.973
    1C        C  101   2.817   2.727   2.069
    1C        C  102   2.990   2.593   2.188
    1C        C  103   2.874   2.677   2.187
    1C        C  104   3.064   2.577   2.308
    1C        C  105   3.001   2.623   2.426
    1C        C  106   3.201   2.544   2.546
    1C        C  107   3.071   2.598   2.546
    1C        C  108   3.268   2.522   2.668
    1C        C  109   3.202   2.540   2.791
    1C        C  110   3.411   2.498   2.915
    1C        C  111   3.271   2.523   2.913
    1C        C  112   3.483   2.498   3.036
    1C        C  113   3.410   2.506   3.157
    1C        C  114   3.624   2.495   3.280
    1C        C  115   3.483   2.490   3.277
    1C        C  116   3.694   2.508   3.402
    1C        C  117   3.626   2.497   3.525
    1C        C  118   3.835   2.536   3.646
    1C        C  119   3.698   2.501   3.646
    1C        C  120   3.895   2.569   3.769
    1C        C  121   3.831   2.552   3.893
    1C        C  122   4.026   2.640   4.013
    1C        C  123   3.901   2.574   4.014
    1C        C  124   4.086   2.681   4.134
    1C        C  125   4.024   2.643   4.256
    1C        C  126   4.194   2.767   4.378
    1C        C  127   4.084   2.678   4.379
    1C        C  128   4.244   2.820   4.499
    1C        C  129   4.195   2.768   4.620
    1C        C  130   4.330   2.933   4.741
    1C        C  131   4.247   2.817   4.742
    1C        C  132   4.358   2.999   4.862
    1C        C  133   4.281   2.964   4.973
    1C        C  134   3.173   2.474   2.078
    1C        C  135   3.038   2.510   2.082
    1C        C  136   3.260   2.480   2.188
    1C        C  137   3.196   2.523   2.307
    1C        C  138   3.407   2.478   2.428
    1C        C  139   3.269   2.509   2.427
    1C        C  140   3.479   2.480   2.549
    1C        C  141   3.407   2.496   2.670
    1C        C  142   3.621   2.492   2.790
    1C        C  143   3.480   2.492   2.791
    1C        C  144   3.693   2.500   2.911
    1C        C  145   3.624   2.500   3.034
    1C        C  146   3.831   2.538   3.155
    1C        C  147   3.694   2.504   3.157
    1C        C  148   3.899   2.560   3.277
    1C        C  149   3.832   2.538   3.399
    1C        C  150   4.026   2.623   3.524
    1C        C  151   3.898   2.562   3.522
    1C        C  152   4.083   2.667   3.645
    1C        C  153   4.019   2.639   3.767
    1C        C  154   4.191   2.767   3.887
    1C        C  155   4.079   2.681   3.888
    1C        C  156   4.245   2.812   4.010
    1C        C  157   4.197   2.767   4.135
    1C        C  158   4.338   2.925   4.253
    1C        C  159   4.248   2.817   4.257
    1C        C  160   4.375   2.986   4.375
    1C        C  161   4.332   2.930   4.497
    1C        C  162   4.438   3.115   4.613
    1C        C  163   4.372   2.990   4.619
    1C        C  164   4.465   3.183   4.734
    1C        C  165   4.428   3.121   4.855
    1C        C  166   4.514   3.324   4.967
    1C        C  167   4.475   3.190   4.968
    1C        C  168   3.480   2.434   2.073
    1C        C  169   3.398   2.454   2.185
    1C        C  170   3.616   2.467   2.308
    1C        C  171   3.473   2.463   2.304
    1C        C  172   3.691   2.488   2.425
    1C        C  173   3.620   2.483   2.547
    1C        C  174   3.827   2.536   2.664
    1C        C  175   3.691   2.498   2.668
    1C        C  176   3.893   2.561   2.787
    1C        C  177   3.831   2.532   2.910
    1C        C  178   4.021   2.626   3.032
    1C        C  179   3.898   2.557   3.032
    1C        C  180   4.084   2.663   3.153
    1C        C  181   4.022   2.629   3.275
    1C        C  182   4.191   2.750   3.399
    1C        C  183   4.082   2.660   3.399
    1C        C  184   4.242   2.806   3.518
    1C        C  185   4.190   2.760   3.642
    1C        C  186   4.332   2.919   3.763
    1C        C  187   4.244   2.808   3.763
    1C        C  188   4.375   2.978   3.884
    1C        C  189   4.338   2.918   4.007
    1C        C  190   4.443   3.105   4.127
    1C        C  191   4.377   2.979   4.128
    1C        C  192   4.470   3.174   4.247
    1C        C  193   4.440   3.111   4.370
    1C        C  194   4.503   3.317   4.490
    1C        C  195   4.461   3.182   4.491
    1C        C  196   4.530   3.387   4.609
    1C        C  197   4.512   3.318   4.731
    1C        C  198   4.552   3.537   4.849
    1C        C  199   4.536   3.394   4.848
    1C        C  200   4.574   3.618   4.965
    1C        C  201   3.619   2.420   2.076
    1C        C  202   3.830   2.508   2.182
    1C        C  203   3.695   2.461   2.190
    1C        C  204   3.901   2.535   2.302
    1C        C  205   3.828   2.524   2.422
    1C        C  206   4.024   2.615   2.542
    1C        C  207   3.896   2.554   2.542
    1C        C  208   4.081   2.658   2.664
    1C        C  209   4.020   2.624   2.786
    1C        C  210   4.197   2.740   2.909
    1C        C  211   4.082   2.658   2.908
    1C        C  212   4.249   2.793   3.029
    1C        C  213   4.196   2.750   3.153
    1C        C  214   4.326   2.914   3.275
    1C        C  215   4.239   2.803   3.277
    1C        C  216   4.366   2.976   3.395
    1C        C  217   4.331   2.915   3.518
    1C        C  218   4.433   3.102   3.637
    1C        C  219   4.370   2.976   3.640
    1C        C  220   4.463   3.168   3.759
    1C        C  221   4.441   3.103   3.882
    1C        C  222   4.503   3.306   4.002
    1C        C  223   4.469   3.169   4.003
    1C        C  224   4.516   3.381   4.121
    1C        C  225   4.504   3.311   4.243
    1C        C  226   4.522   3.523   4.366
    1C        C  227   4.513   3.382   4.365
    1C        C  228   4.522   3.600   4.485
    1C        C  229   4.535   3.528   4.606
    1C        C  230   4.502   3.742   4.724
    1C        C  231   4.534   3.604   4.725
    1C        C  232   4.499   3.816   4.844
    1C        C  233   4.546   3.755   4.961
    1C        C  234   4.016   2.611   2.060
    1C        C  235   3.899   2.535   2.063
    1C        C  236   4.083   2.647   2.178
    1C        C  237   4.027   2.602   2.299
    1C        C  238   4.202   2.729   2.421
    1C        C  239   4.086   2.647   2.419
    1C        C  240   4.252   2.781   2.542
    1C        C  241   4.195   2.741   2.665
    1C        C  242   4.334   2.901   2.784
    1C        C  243   4.248   2.789   2.787
    1C        C  244   4.371   2.962   2.906
    1C        C  245   4.335   2.905   3.030
    1C        C  246   4.435   3.093   3.147
    1C        C  247   4.372   2.967   3.152
    1C        C  248   4.459   3.161   3.269
    1C        C  249   4.430   3.101   3.393
    1C        C  250   4.497   3.304   3.515
    1C        C  251   4.459   3.168   3.515
    1C        C  252   4.513   3.373   3.637
    1C        C  253   4.500   3.305   3.760
    1C        C  254   4.524   3.517   3.877
    1C        C  255   4.520   3.375   3.881
    1C        C  256   4.521   3.591   3.997
    1C        C  257   4.522   3.522   4.121
    1C        C  258   4.494   3.732   4.240
    1C        C  259   4.517   3.592   4.244
    1C        C  260   4.474   3.805   4.359
    1C        C  261   4.488   3.737   4.482
    1C        C  262   4.432   3.943   4.602
    1C        C  263   4.479   3.810   4.602
    1C        C  264   4.405   4.010   4.724
    1C        C  265   4.438   3.944   4.844
    1C        C  266   4.327   4.129   4.957
    1C        C  267   4.402   4.012   4.961
    1C        C  268   4.263   2.775   2.065
    1C        C  269   4.200   2.726   2.181
    1C        C  270   4.342   2.891   2.298
    1C        C  271   4.253   2.781   2.299
    1C        C  272   4.377   2.954   2.420
    1C        C  273   4.336   2.895   2.542
    1C        C  274   4.441   3.083   2.661
    1C        C  275   4.376   2.958   2.662
    1C        C  276   4.469   3.152   2.781
    1C        C  277   4.437   3.087   2.902
    1C        C  278   4.500   3.290   3.026
    1C        C  279   4.466   3.153   3.023
    1C        C  280   4.508   3.365   3.146
    1C        C  281   4.496   3.298   3.270
    1C        C  282   4.510   3.511   3.390
    1C        C  283   4.510   3.369   3.391
    1C        C  284   4.509   3.583   3.511
    1C        C  285   4.518   3.515   3.635
    1C        C  286   4.494   3.728   3.752
    1C        C  287   4.517   3.588   3.755
    1C        C  288   4.476   3.797   3.874
    1C        C  289   4.497   3.730   3.997
    1C        C  290   4.427   3.932   4.117
    1C        C  291   4.478   3.801   4.117
    1C        C  292   4.401   4.003   4.236
    1C        C  293   4.429   3.939   4.359
    1C        C  294   4.326   4.126   4.479
    1C        C  295   4.398   4.005   4.480
    1C        C  296   4.283   4.187   4.600
    1C        C  297   4.327   4.128   4.721
    1C        C  298   4.203   4.311   4.836
    1C        C  299   4.286   4.194   4.840
    1C        C  300   4.174   4.402   4.943
    1C        C  301   4.345   2.887   2.062
    1C        C  302   4.466   3.072   2.176
    1C        C  303   4.395   2.947   2.178
    1C        C  304   4.472   3.146   2.297
    1C        C  305   4.440   3.080   2.417
    1C        C  306   4.506   3.284   2.535
    1C        C  307   4.472   3.147   2.538
    1C        C  308   4.511   3.357   2.656
    1C        C  309   4.494   3.291   2.780
    1C        C  310   4.522   3.499   2.897
    1C        C  311   4.509   3.359   2.903
    1C        C  312   4.516   3.573   3.017
    1C        C  313   4.514   3.506   3.142
    1C        C  314   4.491   3.716   3.264
    1C        C  315   4.508   3.576   3.264
    1C        C  316   4.482   3.789   3.385
    1C        C  317   4.494   3.723   3.510
    1C        C  318   4.431   3.930   3.626
    1C        C  319   4.478   3.797   3.630
    1C        C  320   4.399   3.991   3.749
    1C        C  321   4.420   3.926   3.872
    1C        C  322   4.324   4.116   3.989
    1C        C  323   4.394   3.994   3.994
    1C        C  324   4.280   4.173   4.111
    1C        C  325   4.323   4.121   4.235
    1C        C  326   4.187   4.284   4.351
    1C        C  327   4.286   4.183   4.356
    1C        C  328   4.135   4.335   4.472
    1C        C  329   4.191   4.294   4.595
    1C        C  330   4.025   4.433   4.716
    1C        C  331   4.139   4.348   4.714
    1C        C  332   3.970   4.490   4.833
    1C        C  333   4.055   4.476   4.944
    1C        C  334   4.556   3.269   2.062
    1C        C  335   4.534   3.131   2.065
    1C        C  336   4.535   3.351   2.173
    1C        C  337   4.515   3.282   2.294
    1C        C  338   4.528   3.496   2.410
    1C        C  339   4.520   3.355   2.414
    1C        C  340   4.527   3.568   2.531
    1C        C  341   4.525   3.498   2.653
    1C        C  342   4.496   3.710   2.773
    1C        C  343   4.517   3.570   2.774
    1C        C  344   4.482   3.781   2.895
    1C        C  345   4.500   3.713   3.017
    1C        C  346   4.424   3.911   3.135
    1C        C  347   4.479   3.781   3.140
    1C        C  348   4.397   3.978   3.257
    1C        C  349   4.432   3.921   3.381
    1C        C  350   4.318   4.104   3.502
    1C        C  351   4.400   3.989   3.501
    1C        C  352   4.276   4.164   3.623
    1C        C  353   4.330   4.114   3.743
    1C        C  354   4.181   4.268   3.865
    1C        C  355   4.284   4.171   3.865
    1C        C  356   4.121   4.314   3.985
    1C        C  357   4.180   4.273   4.107
    1C        C  358   4.013   4.403   4.229
    1C        C  359   4.132   4.327   4.228
    1C        C  360   3.953   4.443   4.351
    1C        C  361   4.019   4.417   4.473
    1C        C  362   3.831   4.517   4.592
    1C        C  363   3.962   4.463   4.593
    1C        C  364   3.765   4.548   4.713
    1C        C  365   3.837   4.538   4.833
    1C        C  366   3.627   4.584   4.952
    1C        C  367   3.765   4.573   4.949
    1C        C  368   4.512   3.563   2.052
    1C        C  369   4.528   3.492   2.173
    1C        C  370   4.502   3.710   2.286
    1C        C  371   4.521   3.570   2.290
    1C        C  372   4.490   3.780   2.409
    1C        C  373   4.505   3.708   2.529
    1C        C  374   4.427   3.907   2.649
    1C        C  375   4.484   3.778   2.650
    1C        C  376   4.397   3.973   2.770
    1C        C  377   4.432   3.913   2.893
    1C        C  378   4.319   4.095   3.011
    1C        C  379   4.398   3.978   3.014
    1C        C  380   4.275   4.147   3.134
    1C        C  381   4.317   4.095   3.258
    1C        C  382   4.172   4.254   3.376
    1C        C  383   4.269   4.151   3.378
    1C        C  384   4.122   4.308   3.496
    1C        C  385   4.174   4.262   3.619
    1C        C  386   4.003   4.383   3.741
    1C        C  387   4.122   4.307   3.743
    1C        C  388   3.942   4.423   3.862
    1C        C  389   4.007   4.397   3.985
    1C        C  390   3.818   4.490   4.109
    1C        C  391   3.947   4.432   4.108
    1C        C  392   3.750   4.512   4.231
    1C        C  393   3.822   4.495   4.351
    1C        C  394   3.617   4.550   4.475
    1C        C  395   3.756   4.524   4.473
    1C        C  396   3.547   4.559   4.597
    1C        C  397   3.624   4.558   4.716
    1C        C  398   3.410   4.553   4.838
    1C        C  399   3.550   4.570   4.836
    1C        C  400   3.340   4.513   4.953
    1C        C  401   4.500   3.701   2.051
    1C        C  402   4.463   3.920   2.165
    1C        C  403   4.494   3.782   2.165
    1C        C  404   4.415   3.978   2.285
    1C        C  405   4.439   3.912   2.407
    1C        C  406   4.334   4.099   2.525
    1C        C  407   4.407   3.978   2.528
    1C        C  408   4.279   4.148   2.645
    1C        C  409   4.318   4.090   2.768
    1C        C  410   4.172   4.246   2.889
    1C        C  411   4.278   4.152   2.888
    1C        C  412   4.120   4.294   3.011
    1C        C  413   4.176   4.249   3.132
    1C        C  414   4.002   4.376   3.254
    1C        C  415   4.119   4.296   3.252
    1C        C  416   3.941   4.415   3.375
    1C        C  417   4.004   4.387   3.498
    1C        C  418   3.808   4.471   3.620
    1C        C  419   3.937   4.413   3.620
    1C        C  420   3.744   4.501   3.742
    1C        C  421   3.814   4.481   3.863
    1C        C  422   3.612   4.532   3.986
    1C        C  423   3.751   4.508   3.986
    1C        C  424   3.540   4.541   4.108
    1C        C  425   3.611   4.539   4.230
    1C        C  426   3.403   4.555   4.357
    1C        C  427   3.545   4.553   4.353
    1C        C  428   3.332   4.549   4.479
    1C        C  429   3.406   4.559   4.599
    1C        C  430   3.195   4.519   4.722
    1C        C  431   3.333   4.550   4.719
    1C        C  432   3.123   4.495   4.843
    1C        C  433   3.202   4.494   4.959
    1C        C  434   4.392   4.128   2.056
    1C        C  435   4.456   4.003   2.053
    1C        C  436   4.305   4.165   2.163
    1C        C  437   4.337   4.097   2.285
    1C        C  438   4.188   4.253   2.403
    1C        C  439   4.292   4.158   2.404
    1C        C  440   4.124   4.293   2.523
    1C        C  441   4.179   4.247   2.645
    1C        C  442   4.001   4.368   2.765
    1C        C  443   4.121   4.293   2.765
    1C        C  444   3.939   4.402   2.887
    1C        C  445   3.998   4.365   3.010
    1C        C  446   3.809   4.461   3.129
    1C        C  447   3.939   4.405   3.132
    1C        C  448   3.744   4.488   3.251
    1C        C  449   3.810   4.468   3.374
    1C        C  450   3.606   4.526   3.494
    1C        C  451   3.744   4.493   3.496
    1C        C  452   3.539   4.541   3.617
    1C        C  453   3.607   4.536   3.741
    1C        C  454   3.398   4.542   3.865
    1C        C  455   3.540   4.546   3.865
    1C        C  456   3.329   4.535   3.988
    1C        C  457   3.399   4.539   4.110
    1C        C  458   3.196   4.510   4.235
    1C        C  459   3.333   4.545   4.235
    1C        C  460   3.128   4.487   4.356
    1C        C  461   3.195   4.514   4.478
    1C        C  462   3.001   4.433   4.603
    1C        C  463   3.128   4.495   4.600
    1C        C  464   2.935   4.401   4.723
    1C        C  465   2.992   4.438   4.848
    1C        C  466   2.799   4.334   4.958
    1C        C  467   2.907   4.423   4.962
    1C        C  468   4.124   4.285   2.044
    1C        C  469   4.187   4.244   2.163
    1C        C  470   4.006   4.368   2.279
    1C        C  471   4.127   4.293   2.282
    1C        C  472   3.937   4.396   2.399
    1C        C  473   3.999   4.359   2.521
    1C        C  474   3.813   4.463   2.643
    1C        C  475   3.939   4.400   2.642
    1C        C  476   3.745   4.488   2.764
    1C        C  477   3.811   4.461   2.886
    1C        C  478   3.605   4.522   3.006
    1C        C  479   3.740   4.481   3.007
    1C        C  480   3.536   4.532   3.128
    1C        C  481   3.606   4.519   3.250
    1C        C  482   3.394   4.535   3.376
    1C        C  483   3.535   4.534   3.372
    1C        C  484   3.326   4.532   3.499
    1C        C  485   3.398   4.542   3.621
    1C        C  486   3.190   4.505   3.746
    1C        C  487   3.327   4.536   3.743
    1C        C  488   3.125   4.480   3.869
    1C        C  489   3.191   4.504   3.992
    1C        C  490   3.002   4.416   4.115
    1C        C  491   3.125   4.485   4.115
    1C        C  492   2.941   4.384   4.239
    1C        C  493   2.999   4.428   4.359
    1C        C  494   2.830   4.303   4.484
    1C        C  495   2.940   4.391   4.482
    1C        C  496   2.777   4.253   4.605
    1C        C  497   2.822   4.314   4.724
    1C        C  498   2.663   4.165   4.840
    1C        C  499   2.754   4.273   4.840
    1C        C  500   2.592   4.122   4.953
    1C        C  501   4.001   4.351   2.042
    1C        C  502   3.813   4.458   2.154
    1C        C  503   3.943   4.403   2.158
    1C        C  504   3.743   4.479   2.275
    1C        C  505   3.808   4.452   2.397
    1C        C  506   3.606   4.506   2.519
    1C        C  507   3.745   4.481   2.520
    1C        C  508   3.535   4.521   2.641
    1C        C  509   3.607   4.516   2.763
    1C        C  510   3.393   4.524   2.885
    1C        C  511   3.534   4.529   2.884
    1C        C  512   3.322   4.524   3.007
    1C        C  513   3.394   4.530   3.128
    1C        C  514   3.188   4.496   3.255
    1C        C  515   3.327   4.525   3.252
    1C        C  516   3.120   4.476   3.377
    1C        C  517   3.189   4.495   3.498
    1C        C  518   3.000   4.413   3.625
    1C        C  519   3.125   4.478   3.623
    1C        C  520   2.944   4.373   3.748
    1C        C  521   3.001   4.413   3.872
    1C        C  522   2.836   4.280   3.994
    1C        C  523   2.945   4.370   3.994
    1C        C  524   2.787   4.234   4.118
    1C        C  525   2.837   4.288   4.239
    1C        C  526   2.706   4.128   4.363
    1C        C  527   2.786   4.245   4.363
    1C        C  528   2.655   4.077   4.484
    1C        C  529   2.691   4.141   4.604
    1C        C  530   2.580   3.958   4.731
    1C        C  531   2.638   4.088   4.724
    1C        C  532   2.540   3.902   4.855
    1C        C  533   2.530   3.997   4.962
    1C        C  534   3.617   4.555   2.041
    1C        C  535   3.750   4.511   2.041
    1C        C  536   3.534   4.533   2.155
    1C        C  537   3.604   4.512   2.277
    1C        C  538   3.392   4.518   2.397
    1C        C  539   3.533   4.518   2.399
    1C        C  540   3.324   4.511   2.520
    1C        C  541   3.394   4.523   2.642
    1C        C  542   3.183   4.487   2.765
    1C        C  543   3.322   4.516   2.763
    1C        C  544   3.118   4.469   2.889
    1C        C  545   3.185   4.491   3.011
    1C        C  546   2.994   4.405   3.133
    1C        C  547   3.119   4.471   3.134
    1C        C  548   2.937   4.369   3.258
    1C        C  549   2.994   4.413   3.380
    1C        C  550   2.831   4.282   3.505
    1C        C  551   2.938   4.374   3.504
    1C        C  552   2.782   4.231   3.628
    1C        C  553   2.835   4.283   3.748
    1C        C  554   2.701   4.120   3.873
    1C        C  555   2.786   4.233   3.870
    1C        C  556   2.662   4.064   3.997
    1C        C  557   2.701   4.122   4.119
    1C        C  558   2.603   3.937   4.247
    1C        C  559   2.670   4.062   4.243
    1C        C  560   2.572   3.877   4.370
    1C        C  561   2.591   3.951   4.489
    1C        C  562   2.530   3.748   4.614
    1C        C  563   2.561   3.886   4.611
    1C        C  564   2.519   3.683   4.739
    1C        C  565   2.524   3.760   4.859
    1C        C  566   2.522   3.547   4.978
    1C        C  567   2.514   3.685   4.977
    1C        C  568   3.326   4.475   2.040
    1C        C  569   3.393   4.513   2.157
    1C        C  570   3.180   4.478   2.282
    1C        C  571   3.317   4.514   2.277
    1C        C  572   3.111   4.458   2.403
    1C        C  573   3.186   4.481   2.520
    1C        C  574   2.989   4.403   2.645
    1C        C  575   3.118   4.460   2.642
    1C        C  576   2.928   4.367   2.767
    1C        C  577   2.992   4.406   2.887
    1C        C  578   2.826   4.278   3.015
    1C        C  579   2.933   4.370   3.011
    1C        C  580   2.785   4.222   3.139
    1C        C  581   2.830   4.278   3.261
    1C        C  582   2.698   4.115   3.384
    1C        C  583   2.783   4.227   3.384
    1C        C  584   2.663   4.055   3.508
    1C        C  585   2.700   4.116   3.630
    1C        C  586   2.602   3.929   3.753
    1C        C  587   2.664   4.056   3.753
    1C        C  588   2.576   3.870   3.879
    1C        C  589   2.601   3.936   4.001
    1C        C  590   2.539   3.737   4.125
    1C        C  591   2.574   3.873   4.124
    1C        C  592   2.527   3.671   4.249
    1C        C  593   2.533   3.741   4.372
    1C        C  594   2.509   3.533   4.497
    1C        C  595   2.513   3.675   4.495
    1C        C  596   2.519   3.464   4.620
    1C        C  597   2.516   3.541   4.738
    1C        C  598   2.539   3.330   4.862
    1C        C  599   2.522   3.470   4.860
    1C        C  600   2.534   3.248   4.976
    1C        C  601   3.194   4.436   2.041
    1C        C  602   2.985   4.391   2.156
    1C        C  603   3.118   4.443   2.159
    1C        C  604   2.923   4.359   2.280
    1C        C  605   2.982   4.399   2.402
    1C        C  606   2.816   4.271   2.529
    1C        C  607   2.927   4.358   2.526
    1C        C  608   2.771   4.219   2.652
    1C        C  609   2.825   4.270   2.771
    1C        C  610   2.695   4.107   2.896
    1C        C  611   2.778   4.221   2.895
    1C        C  612   2.662   4.049   3.020
    1C        C  613   2.695   4.113   3.141
    1C        C  614   2.597   3.925   3.264
    1C        C  615   2.656   4.054   3.264
    1C        C  616   2.571   3.861   3.387
    1C        C  617   2.603   3.927   3.508
    1C        C  618   2.534   3.728   3.637
    1C        C  619   2.576   3.863   3.631
    1C        C  620   2.516   3.663   3.760
    1C        C  621   2.535   3.734   3.881
    1C        C  622   2.516   3.525   4.010
    1C        C  623   2.522   3.666   4.004
    1C        C  624   2.516   3.456   4.133
    1C        C  625   2.513   3.530   4.253
    1C        C  626   2.542   3.322   4.380
    1C        C  627   2.518   3.461   4.376
    1C        C  628   2.559   3.253   4.502
    1C        C  629   2.538   3.324   4.622
    1C        C  630   2.593   3.118   4.745
    1C        C  631   2.552   3.254   4.744
    1C        C  632   2.615   3.048   4.866
    1C        C  633   2.562   3.111   4.983
    1C        C  634   2.782   4.303   2.055
    1C        C  635   2.894   4.387   2.046
    1C        C  636   2.748   4.226   2.168
    1C        C  637   2.812   4.270   2.286
    1C        C  638   2.676   4.108   2.409
    1C        C  639   2.763   4.219   2.409
    1C        C  640   2.644   4.046   2.532
    1C        C  641   2.689   4.103   2.653
    1C        C  642   2.590   3.917   2.779
    1C        C  643   2.653   4.044   2.776
    1C        C  644   2.564   3.856   2.903
    1C        C  645   2.595   3.924   3.023
    1C        C  646   2.532   3.720   3.148
    1C        C  647   2.568   3.857   3.144
    1C        C  648   2.514   3.654   3.272
    1C        C  649   2.529   3.726   3.392
    1C        C  650   2.502   3.517   3.520
    1C        C  651   2.515   3.658   3.515
    1C        C  652   2.505   3.448   3.643
    1C        C  653   2.509   3.522   3.764
    1C        C  654   2.536   3.314   3.886
    1C        C  655   2.517   3.454   3.887
    1C        C  656   2.557   3.251   4.011
    1C        C  657   2.540   3.316   4.135
    1C        C  658   2.605   3.118   4.257
    1C        C  659   2.556   3.250   4.259
    1C        C  660   2.640   3.056   4.379
    1C        C  661   2.605   3.119   4.500
    1C        C  662   2.712   2.940   4.625
    1C        C  663   2.631   3.056   4.623
    1C        C  664   2.746   2.875   4.746
    1C        C  665   2.692   2.927   4.867
    1C        C  666   2.750   2.872   4.982
    1C        C  667   2.683   4.018   2.054
    1C        C  668   2.683   4.101   2.167
    1C        C  669   2.589   3.911   2.291
    1C        C  670   2.640   4.044   2.288
    1C        C  671   2.562   3.846   2.413
    1C        C  672   2.583   3.919   2.532
    1C        C  673   2.527   3.717   2.660
    1C        C  674   2.562   3.854   2.656
    1C        C  675   2.513   3.649   2.783
    1C        C  676   2.523   3.720   2.905
    1C        C  677   2.501   3.509   3.031
    1C        C  678   2.512   3.650   3.027
    1C        C  679   2.500   3.442   3.155
    1C        C  680   2.498   3.514   3.276
    1C        C  681   2.527   3.305   3.400
    1C        C  682   2.499   3.444   3.399
    1C        C  683   2.539   3.237   3.523
    1C        C  684   2.526   3.308   3.645
    1C        C  685   2.584   3.104   3.771
    1C        C  686   2.544   3.239   3.767
    1C        C  687   2.634   3.048   3.891
    1C        C  688   2.607   3.119   4.011
    1C        C  689   2.716   2.939   4.138
    1C        C  690   2.636   3.055   4.134
    1C        C  691   2.755   2.877   4.259
    1C        C  692   2.713   2.935   4.381
    1C        C  693   2.754   2.880   4.504
    1C        C  694   2.622   3.892   2.053
    1C        C  695   2.531   3.701   2.175
    1C        C  696   2.577   3.835   2.173
    1C        C  697   2.514   3.634   2.298
    1C        C  698   2.526   3.710   2.416
    1C        C  699   2.497   3.503   2.542
    1C        C  700   2.512   3.644   2.541
    1C        C  701   2.506   3.435   2.665
    1C        C  702   2.504   3.508   2.786
    1C        C  703   2.524   3.298   2.911
    1C        C  704   2.502   3.438   2.909
    1C        C  705   2.542   3.232   3.035
    1C        C  706   2.527   3.303   3.156
    1C        C  707   2.594   3.102   3.280
    1C        C  708   2.543   3.234   3.279
    1C        C  709   2.627   3.046   3.405
    1C        C  710   2.592   3.106   3.529
    1C        C  711   2.708   2.931   3.649
    1C        C  712   2.617   3.039   3.650
    1C        C  713   2.761   2.881   3.770
    1C        C  714   2.721   2.936   3.894
    1C        C  715   2.762   2.881   4.018
    1C        C  716   2.447   3.497   2.064
    1C        C  717   2.487   3.632   2.062
    1C        C  718   2.462   3.418   2.183
    1C        C  719   2.483   3.495   2.300
    1C        C  720   2.515   3.288   2.423
    1C        C  721   2.489   3.426   2.424
    1C        C  722   2.535   3.222   2.547
    1C        C  723   2.526   3.295   2.667
    1C        C  724   2.586   3.094   2.791
    1C        C  725   2.537   3.226   2.790
    1C        C  726   2.622   3.035   2.914
    1C        C  727   2.590   3.099   3.036
    1C        C  728   2.706   2.922   3.160
    1C        C  729   2.627   3.039   3.158
    1C        C  730   2.753   2.873   3.284
    1C        C  731   2.710   2.931   3.406
    1C        C  732   2.761   2.881   3.527
    1C        C  733   2.490   3.196   2.069
    1C        C  734   2.485   3.277   2.183
    1C        C  735   2.582   3.083   2.300
    1C        C  736   2.525   3.213   2.304
    1C        C  737   2.611   3.022   2.425
    1C        C  738   2.586   3.090   2.546
    1C        C  739   2.696   2.912   2.668
    1C        C  740   2.615   3.028   2.669
    1C        C  741   2.745   2.861   2.790
    1C        C  742   2.701   2.918   2.912
    1C        C  743   2.744   2.866   3.036
    1C        C  744   2.547   3.070   2.067
    1C        C  745   2.681   2.893   2.183
    1C        C  746   2.602   3.010   2.181
    1C        C  747   2.725   2.840   2.306
    1C        C  748   2.687   2.904   2.427
    1C        C  749   2.738   2.851   2.548
    1C        C  750   2.738   2.841   2.065
    1C        C  751   3.664   2.321   1.976
    1C        O  752   3.647   2.200   2.008
    1C        O  753   3.671   2.347   1.839
    1C        C  754   4.609   3.053   1.963
    1C        O  755   4.547   3.042   1.854
    1C        O  756   4.748   3.063   1.952
    1C        C  757   4.462   4.238   1.987
    1C        O  758   4.529   4.328   2.043
    1C        O  759   4.479   4.225   1.848
    1C        C  760   3.588   4.675   1.959
    1C        O  761   3.590   4.792   2.006
    1C        O  762   3.542   4.662   1.828
    1C        C  763   2.883   4.506   1.959
    1C        O  764   2.905   4.491   1.835
    1C        O  765   2.906   4.635   2.008
    1C        C  766   2.337   3.471   1.969
    1C        O  767   2.364   3.449   1.848
    1C        O  768   2.212   3.534   1.978
    1C        C  769   4.648   3.568   5.083
    1C        O  770   4.597   3.539   5.194
    1C        O  771   4.774   3.626   5.104
    1C        C  772   4.279   4.453   5.033
    1C        O  773   4.274   4.451   5.159
    1C        O  774   4.373   4.550   4.996
    1C        C  775   4.135   2.541   5.092
    1C        O  776   4.213   2.442   5.082
    1C        O  777   4.114   2.578   5.226
    1C        C  778   2.880   4.538   5.052
    1C        O  779   2.790   4.622   5.023
    1C        O  780   2.937   4.567   5.176
    1C        C  781   2.484   3.034   5.082
    1C        O  782   2.422   2.930   5.049
    1C        O  783   2.516   3.044   5.217
    1C        C  784   2.413   3.990   5.052
    1C        O  785   2.303   4.048   5.035
    1C        O  786   2.427   3.971   5.191
    1C        C  787   2.948   2.432   1.993
    1C        O  788   2.951   2.451   1.869
    1C        O  789   2.892   2.311   2.033
    1C        C  790   3.171   2.362   5.057
    1C        O  791   3.184   2.247   5.008
    1C        O  792   3.217   2.366   5.189
    1C        H  793   4.308   2.997   5.072
    1C        H  794   4.161   2.821   5.067
    1C        H  795   4.512   3.140   5.055
    1C        H  796   4.471   3.376   5.051
    1C        H  797   4.576   3.812   5.047
    1C        H  798   4.400   3.956   5.052
    1C        H  799   4.270   4.148   5.045
    1C        H  800   4.014   4.511   5.036
    1C        H  801   3.815   4.608   5.037
    1C        H  802   3.598   4.666   5.014
    1C        H  803   3.395   4.514   5.044
    1C        H  804   3.158   4.518   5.053
    1C        H  805   3.910   2.441   5.033
    1C        H  806   3.676   2.446   5.066
    1C        H  807   2.998   2.552   5.064
    1C        H  808   3.442   2.422   5.062
    1C        H  809   2.849   2.715   5.076
    1C        H  810   2.702   2.890   5.076
    1C        H  811   2.501   3.293   5.068
    1C        H  812   2.561   3.502   5.067
    1C        H  813   2.549   3.733   5.067
    1C        H  814   2.544   4.199   5.010
    1C        H  815   2.736   4.329   5.044
    1C        H  816   2.712   2.889   1.973
    1C        H  817   2.787   2.651   2.000
    1C        H  818   3.212   2.429   1.989
    1C        H  819   3.440   2.462   1.977
    1C        H  820   3.872   2.481   1.975
    1C        H  821   4.031   2.675   1.976
    1C        H  822   4.262   2.712   1.979
    1C        H  823   4.325   2.946   1.975
    1C        H  824   4.631   3.308   1.996
    1C        H  825   4.570   3.533   1.967
    1C        H  826   4.499   3.752   1.957
    1C        H  827   3.809   4.527   1.953
    1C        H  828   3.957   4.352   1.944
    1C        H  829   4.145   4.221   1.961
    1C        H  830   4.509   3.980   1.962
    1C        H  831   2.550   3.890   1.974
    1C        H  832   2.688   4.069   1.960
    1C        H  833   2.724   4.288   1.967
    1C        H  834   3.364   4.519   1.950
    1C        H  835   3.150   4.429   1.944
    1C        H  836   2.522   3.004   1.986
    1C        H  837   2.407   3.206   2.001
    1C        H  838   2.476   3.681   1.967
    2V3OU   H29  839   2.806   3.549   3.230
    2V3OU   C27  840   2.793   3.503   3.331
    2V3OU   H27  841   2.734   3.571   3.398
    2V3OU   H28  842   2.740   3.405   3.318
    2V3OU   O11  843   2.920   3.482   3.395
    2V3OU   C15  844   2.930   3.401   3.506
    2V3OU   C13  845   3.056   3.371   3.562
    2V3OU   C14  846   3.082   3.270   3.655
    2V3OU   C16  847   2.979   3.186   3.695
    2V3OU    H6  848   2.989   3.101   3.764
    2V3OU   C12  849   3.214   3.231   3.710
    2V3OU    O2  850   3.236   3.126   3.775
    2V3OU   C10  851   3.328   3.310   3.663
    2V3OU    C8  852   3.458   3.275   3.699
    2V3OU   O10  853   3.489   3.155   3.754
    2V3OU   H26  854   3.403   3.111   3.761
    2V3OU    C6  855   3.566   3.354   3.649
    2V3OU    C5  856   3.535   3.467   3.574
    2V3OU    C4  857   3.704   3.298   3.662
    2V3OU    H4  858   3.724   3.233   3.752
    2V3OU    H5  859   3.711   3.225   3.576
    2V3OU    C2  860   3.819   3.398   3.646
    2V3OU    O6  861   3.810   3.471   3.768
    2V3OU   H21  862   3.766   3.554   3.741
    2V3OU    C3  863   3.785   3.497   3.534
    2V3OU    H2  864   3.865   3.575   3.528
    2V3OU    H3  865   3.784   3.444   3.435
    2V3OU   C25  866   3.957   3.336   3.628
    2V3OU    O7  867   3.997   3.299   3.518
    2V3OU   C26  868   4.032   3.292   3.753
    2V3OU   H22  869   4.071   3.377   3.816
    2V3OU   H23  870   4.118   3.227   3.724
    2V3OU    O8  871   3.960   3.202   3.834
    2V3OU   H24  872   3.924   3.257   3.905
    2V3OU    C1  873   3.648   3.562   3.546
    2V3OU    H1  874   3.626   3.615   3.448
    2V3OU    O3  875   3.662   3.651   3.657
    2V3OU   C19  876   3.621   3.788   3.641
    2V3OU    H9  877   3.523   3.806   3.588
    2V3OU    O4  878   3.715   3.850   3.557
    2V3OU   C20  879   3.846   3.867   3.612
    2V3OU   H10  880   3.898   3.767   3.619
    2V3OU   C24  881   3.606   3.856   3.777
    2V3OU   H16  882   3.538   3.795   3.842
    2V3OU   H17  883   3.566   3.959   3.759
    2V3OU   C23  884   3.744   3.875   3.840
    2V3OU   H15  885   3.788   3.772   3.862
    2V3OU    N1  886   3.733   3.953   3.961
    2V3OU   H19  887   3.801   3.927   4.029
    2V3OU   H20  888   3.644   3.929   4.000
    2V3OU   C21  889   3.847   3.944   3.744
    2V3OU   H11  890   3.946   3.918   3.792
    2V3OU    O5  891   3.830   4.085   3.741
    2V3OU   H18  892   3.786   4.102   3.825
    2V3OU   C22  893   3.912   3.947   3.501
    2V3OU   H12  894   3.857   4.043   3.484
    2V3OU   H13  895   3.913   3.887   3.406
    2V3OU   H14  896   4.023   3.959   3.518
    2V3OU   C11  897   3.163   3.471   3.554
    2V3OU    O1  898   3.145   3.583   3.502
    2V3OU    C9  899   3.301   3.425   3.584
    2V3OU    C7  900   3.403   3.509   3.541
    2V3OU    O9  901   3.384   3.616   3.457
    2V3OU   H25  902   3.289   3.633   3.467
    2V3OU   C17  903   2.828   3.318   3.555
    2V3OU    H7  904   2.731   3.354   3.522
    2V3OU   C18  905   2.852   3.216   3.646
    2V3OU    H8  906   2.783   3.175   3.722
    3SOL     OW  907   2.974   4.567   5.894
    3SOL    HW1  908   2.974   4.618   5.808
    3SOL    HW2  909   2.963   4.469   5.875
    4SOL     OW  910   6.537   6.847   6.565
    4SOL    HW1  911   6.458   6.831   6.507
    4SOL    HW2  912   6.510   6.844   6.661
    5SOL     OW  913   4.969   2.331   2.393
    5SOL    HW1  914   4.942   2.236   2.409
    5SOL    HW2  915   4.920   2.368   2.315
    6SOL     OW  916   4.846   2.043   2.368
    6SOL    HW1  917   4.885   2.030   2.277
    6SOL    HW2  918   4.746   2.040   2.362
    7SOL     OW  919   0.738   4.067   4.142
    7SOL    HW1  920   0.708   4.140   4.081
    7SOL    HW2  921   0.786   4.107   4.220
    8SOL     OW  922   2.763   2.211   5.426
    8SOL    HW1  923   2.803   2.141   5.486
    8SOL    HW2  924   2.832   2.280   5.404
    9SOL     OW  925   5.934   2.552   5.924
    9SOL    HW1  926   5.884   2.635   5.899
    9SOL    HW2  927   6.012   2.576   5.981
   10SOL     OW  928   2.897   4.982   4.649
   10SOL    HW1  929   2.908   4.945   4.741
   10SOL    HW2  930   2.909   5.081   4.651
   11SOL     OW  931   1.937   1.484   6.290
   11SOL    HW1  932   1.941   1.410   6.357
   11SOL    HW2  933   2.023   1.487   6.239
   12SOL     OW  934   3.044   4.941   3.900
   12SOL    HW1  935   3.003   4.914   3.987
   12SOL    HW2  936   3.142   4.925   3.902
   13SOL     OW  937   4.135   6.101   3.437
   13SOL    HW1  938   4.172   6.012   3.464
   13SOL    HW2  939   4.159   6.170   3.506
   14SOL     OW  940   3.734   4.699   6.345
   14SOL    HW1  941   3.764   4.668   6.254
   14SOL    HW2  942   3.795   4.771   6.377
   15SOL     OW  943   0.684   6.731   0.245
   15SOL    HW1  944   0.769   6.784   0.237
   15SOL    HW2  945   0.705   6.640   0.283
   16SOL     OW  946   5.224   2.875   6.710
   16SOL    HW1  947   5.273   2.825   6.639
   16SOL    HW2  948   5.203   2.814   6.787
   17SOL     OW  949   5.141   0.051   6.347
   17SOL    HW1  950   5.073   0.053   6.420
   17SOL    HW2  951   5.232   0.044   6.388
   18SOL     OW  952   3.391   0.835   4.814
   18SOL    HW1  953   3.305   0.785   4.826
   18SOL    HW2  954   3.373   0.933   4.817
   19SOL     OW  955   0.350   2.629   2.271
   19SOL    HW1  956   0.283   2.579   2.216
   19SOL    HW2  957   0.407   2.686   2.210
   20SOL     OW  958   4.908   2.096   5.527
   20SOL    HW1  959   4.998   2.059   5.505
   20SOL    HW2  960   4.893   2.179   5.474
   21SOL     OW  961   2.703   0.867   3.036
   21SOL    HW1  962   2.720   0.965   3.051
   21SOL    HW2  963   2.787   0.824   3.003
   22SOL     OW  964   1.302   6.249   0.389
   22SOL    HW1  965   1.331   6.162   0.351
   22SOL    HW2  966   1.210   6.272   0.356
   23SOL     OW  967   3.848   5.396   2.418
   23SOL    HW1  968   3.885   5.325   2.478
   23SOL    HW2  969   3.748   5.392   2.419
   24SOL     OW  970   3.797   0.484   2.481
   24SOL    HW1  971   3.706   0.524   2.493
   24SOL    HW2  972   3.853   0.546   2.425
   25SOL     OW  973   1.967   0.313   3.703
   25SOL    HW1  974   1.972   0.217   3.676
   25SOL    HW2  975   1.872   0.342   3.705
   26SOL     OW  976   6.669   2.187   6.762
   26SOL    HW1  977   6.576   2.166   6.732
   26SOL    HW2  978   6.666   2.253   6.836
   27SOL     OW  979   1.857   1.662   2.096
   27SOL    HW1  980   1.871   1.577   2.147
   27SOL    HW2  981   1.759   1.673   2.076
   28SOL     OW  982   0.462   0.716   4.929
   28SOL    HW1  983   0.562   0.707   4.925
   28SOL    HW2  984   0.430   0.766   4.849
   29SOL     OW  985   6.605   1.090   1.208
   29SOL    HW1  986   6.656   1.071   1.124
   29SOL    HW2  987   6.561   1.006   1.240
   30SOL     OW  988   4.817   0.165   5.179
   30SOL    HW1  989   4.868   0.166   5.093
   30SOL    HW2  990   4.867   0.109   5.246
   31SOL     OW  991   0.683   2.316   5.637
   31SOL    HW1  992   0.783   2.321   5.637
   31SOL    HW2  993   0.649   2.339   5.546
   32SOL     OW  994   1.108   1.824   2.159
   32SOL    HW1  995   1.133   1.901   2.101
   32SOL    HW2  996   1.188   1.764   2.171
   33SOL     OW  997   0.832   4.802   5.054
   33SOL    HW1  998   0.914   4.778   5.106
   33SOL    HW2  999   0.855   4.804   4.956
   34SOL     OW 1000   2.638   5.637   5.064
   34SOL    HW1 1001   2.675   5.726   5.039
   34SOL    HW2 1002   2.689   5.565   5.016
   35SOL     OW 1003   4.246   2.477   5.534
   35SOL    HW1 1004   4.303   2.543   5.582
   35SOL    HW2 1005   4.156   2.472   5.579
   36SOL     OW 1006   5.021   1.612   3.676
   36SOL    HW1 1007   5.012   1.711   3.663
   36SOL    HW2 1008   5.022   1.567   3.587
   37SOL     OW 1009   1.643   1.993   4.993
   37SOL    HW1 1010   1.569   2.046   5.035
   37SOL    HW2 1011   1.675   2.040   4.910
   38SOL     OW 1012   1.588   4.428   1.766
   38SOL    HW1 1013   1.583   4.459   1.671
   38SOL    HW2 1014   1.495   4.423   1.804
   39SOL     OW 1015   5.982   4.964   6.270
   39SOL    HW1 1016   5.978   5.062   6.293
   39SOL    HW2 1017   5.899   4.939   6.219
   40SOL     OW 1018   3.580   2.094   0.219
   40SOL    HW1 1019   3.644   2.123   0.148
   40SOL    HW2 1020   3.618   2.016   0.268
   41SOL     OW 1021   5.568   3.581   3.047
   41SOL    HW1 1022   5.598   3.628   3.130
   41SOL    HW2 1023   5.513   3.502   3.072
   42SOL     OW 1024   3.444   6.210   4.863
   42SOL    HW1 1025   3.466   6.240   4.956
   42SOL    HW2 1026   3.365   6.262   4.829
   43SOL     OW 1027   4.433   0.755   5.759
   43SOL    HW1 1028   4.458   0.664   5.725
   43SOL    HW2 1029   4.505   0.787   5.821
   44SOL     OW 1030   5.976   2.255   5.055
   44SOL    HW1 1031   5.994   2.340   5.105
   44SOL    HW2 1032   5.938   2.186   5.117
   45SOL     OW 1033   4.362   5.269   1.628
   45SOL    HW1 1034   4.412   5.183   1.614
   45SOL    HW2 1035   4.394   5.313   1.712
   46SOL     OW 1036   1.311   2.166   3.657
   46SOL    HW1 1037   1.315   2.088   3.719
   46SOL    HW2 1038   1.394   2.170   3.602
   47SOL     OW 1039   4.185   4.379   1.270
   47SOL    HW1 1040   4.172   4.338   1.179
   47SOL    HW2 1041   4.169   4.478   1.264
   48SOL     OW 1042   6.719   2.488   6.830
   48SOL    HW1 1043   6.635   2.520   6.873
   48SOL    HW2 1044   6.797   2.511   6.888
   49SOL     OW 1045   5.753   2.460   1.593
   49SOL    HW1 1046   5.846   2.433   1.567
   49SOL    HW2 1047   5.754   2.495   1.687
   50SOL     OW 1048   6.406   1.205   5.229
   50SOL    HW1 1049   6.462   1.128   5.199
   50SOL    HW2 1050   6.417   1.281   5.166
   51SOL     OW 1051   2.110   6.520   2.579
   51SOL    HW1 1052   2.199   6.483   2.552
   51SOL    HW2 1053   2.112   6.545   2.676
   52SOL     OW 1054   5.368   3.329   1.697
   52SOL    HW1 1055   5.269   3.330   1.709
   52SOL    HW2 1056   5.390   3.347   1.601
   53SOL     OW 1057   5.274   0.547   3.502
   53SOL    HW1 1058   5.179   0.520   3.488
   53SOL    HW2 1059   5.334   0.473   3.473
   54SOL     OW 1060   5.440   6.778   0.799
   54SOL    HW1 1061   5.405   6.845   0.865
   54SOL    HW2 1062   5.540   6.781   0.799
   55SOL     OW 1063   2.217   2.687   4.957
   55SOL    HW1 1064   2.313   2.714   4.953
   55SOL    HW2 1065   2.165   2.752   5.012
   56SOL     OW 1066   1.282   1.513   1.297
   56SOL    HW1 1067   1.354   1.470   1.242
   56SOL    HW2 1068   1.253   1.449   1.369
   57SOL     OW 1069   3.720   1.295   0.723
   57SOL    HW1 1070   3.624   1.267   0.714
   57SOL    HW2 1071   3.748   1.344   0.640
   58SOL     OW 1072   0.653   6.595   5.709
   58SOL    HW1 1073   0.668   6.691   5.683
   58SOL    HW2 1074   0.728   6.539   5.673
   59SOL     OW 1075   0.213   3.682   6.023
   59SOL    HW1 1076   0.212   3.743   6.103
   59SOL    HW2 1077   0.166   3.597   6.045
   60SOL     OW 1078   4.719   2.732   4.013
   60SOL    HW1 1079   4.723   2.814   3.955
   60SOL    HW2 1080   4.646   2.672   3.980
   61SOL     OW 1081   6.916   1.200   4.304
   61SOL    HW1 1082   6.977   1.252   4.364
   61SOL    HW2 1083   6.920   1.103   4.328
   62SOL     OW 1084   2.192   1.457   2.013
   62SOL    HW1 1085   2.172   1.388   1.943
   62SOL    HW2 1086   2.253   1.527   1.974
   63SOL     OW 1087   4.168   0.379   3.728
   63SOL    HW1 1088   4.173   0.473   3.695
   63SOL    HW2 1089   4.223   0.369   3.811
   64SOL     OW 1090   0.338   3.106   6.668
   64SOL    HW1 1091   0.368   3.014   6.645
   64SOL    HW2 1092   0.402   3.173   6.629
   65SOL     OW 1093   1.263   5.883   5.972
   65SOL    HW1 1094   1.169   5.864   6.000
   65SOL    HW2 1095   1.267   5.889   5.872
   66SOL     OW 1096   3.321   0.610   3.441
   66SOL    HW1 1097   3.305   0.709   3.445
   66SOL    HW2 1098   3.398   0.590   3.382
   67SOL     OW 1099   0.650   3.391   6.342
   67SOL    HW1 1100   0.600   3.351   6.265
   67SOL    HW2 1101   0.695   3.318   6.394
   68SOL     OW 1102   0.009   1.769   6.339
   68SOL    HW1 1103   6.951   1.733   6.388
   68SOL    HW2 1104   0.008   1.868   6.342
   69SOL     OW 1105   1.558   3.199   4.976
   69SOL    HW1 1106   1.551   3.167   5.071
   69SOL    HW2 1107   1.602   3.289   4.974
   70SOL     OW 1108   5.322   5.017   4.888
   70SOL    HW1 1109   5.382   5.091   4.859
   70SOL    HW2 1110   5.236   5.055   4.922
   71SOL     OW 1111   4.945   1.785   3.368
   71SOL    HW1 1112   5.005   1.806   3.290
   71SOL    HW2 1113   4.942   1.686   3.381
   72SOL     OW 1114   0.382   1.356   3.040
   72SOL    HW1 1115   0.317   1.401   2.978
   72SOL    HW2 1116   0.471   1.400   3.031
   73SOL     OW 1117   2.964   0.516   1.056
   73SOL    HW1 1118   2.931   0.610   1.060
   73SOL    HW2 1119   3.053   0.513   1.010
   74SOL     OW 1120   3.093   1.165   6.515
   74SOL    HW1 1121   3.023   1.229   6.545
   74SOL    HW2 1122   3.147   1.136   6.594
   75SOL     OW 1123   3.870   1.336   1.588
   75SOL    HW1 1124   3.900   1.425   1.553
   75SOL    HW2 1125   3.867   1.338   1.687
   76SOL     OW 1126   2.772   3.360   6.329
   76SOL    HW1 1127   2.845   3.349   6.261
   76SOL    HW2 1128   2.689   3.393   6.283
   77SOL     OW 1129   1.885   5.935   2.968
   77SOL    HW1 1130   1.868   5.898   3.059
   77SOL    HW2 1131   1.923   5.863   2.909
   78SOL     OW 1132   4.585   1.531   1.232
   78SOL    HW1 1133   4.610   1.458   1.169
   78SOL    HW2 1134   4.645   1.529   1.312
   79SOL     OW 1135   2.840   6.157   1.255
   79SOL    HW1 1136   2.903   6.132   1.181
   79SOL    HW2 1137   2.748   6.170   1.217
   80SOL     OW 1138   4.409   1.397   4.480
   80SOL    HW1 1139   4.425   1.452   4.398
   80SOL    HW2 1140   4.434   1.302   4.461
   81SOL     OW 1141   1.674   6.619   1.560
   81SOL    HW1 1142   1.709   6.708   1.589
   81SOL    HW2 1143   1.599   6.592   1.620
   82SOL     OW 1144   6.899   5.644   1.185
   82SOL    HW1 1145   6.940   5.593   1.109
   82SOL    HW2 1146   6.967   5.705   1.225
   83SOL     OW 1147   0.944   0.948   6.672
   83SOL    HW1 1148   1.016   0.945   6.743
   83SOL    HW2 1149   0.888   0.865   6.678
   84SOL     OW 1150   6.089   4.277   3.386
   84SOL    HW1 1151   6.122   4.183   3.385
   84SOL    HW2 1152   6.134   4.327   3.460
   85SOL     OW 1153   1.364   0.908   3.443
   85SOL    HW1 1154   1.339   1.005   3.436
   85SOL    HW2 1155   1.294   0.852   3.400
   86SOL     OW 1156   6.955   1.430   6.925
   86SOL    HW1 1157   6.956   1.403   7.022
   86SOL    HW2 1158   6.955   1.347   6.868
   87SOL     OW 1159   3.820   4.340   0.884
   87SOL    HW1 1160   3.750   4.331   0.814
   87SOL    HW2 1161   3.909   4.314   0.846
   88SOL     OW 1162   3.103   2.255   6.328
   88SOL    HW1 1163   3.085   2.316   6.406
   88SOL    HW2 1164   3.062   2.294   6.246
   89SOL     OW 1165   3.184   3.663   0.440
   89SOL    HW1 1166   3.140   3.689   0.526
   89SOL    HW2 1167   3.199   3.564   0.439
   90SOL     OW 1168   4.098   4.739   2.574
   90SOL    HW1 1169   4.162   4.663   2.579
   90SOL    HW2 1170   4.062   4.759   2.665
   91SOL     OW 1171   5.871   4.468   6.216
   91SOL    HW1 1172   5.783   4.433   6.186
   91SOL    HW2 1173   5.925   4.393   6.254
   92SOL     OW 1174   5.015   4.103   0.330
   92SOL    HW1 1175   5.072   4.168   0.279
   92SOL    HW2 1176   4.919   4.132   0.325
   93SOL     OW 1177   3.032   3.767   0.185
   93SOL    HW1 1178   3.057   3.688   0.129
   93SOL    HW2 1179   3.064   3.753   0.279
   94SOL     OW 1180   1.808   6.029   0.051
   94SOL    HW1 1181   1.827   6.011   0.148
   94SOL    HW2 1182   1.808   6.127   0.034
   95SOL     OW 1183   1.684   0.371   3.020
   95SOL    HW1 1184   1.723   0.375   3.112
   95SOL    HW2 1185   1.741   0.423   2.957
   96SOL     OW 1186   4.601   5.774   6.275
   96SOL    HW1 1187   4.538   5.800   6.348
   96SOL    HW2 1188   4.568   5.811   6.188
   97SOL     OW 1189   2.291   3.713   5.257
   97SOL    HW1 1190   2.336   3.802   5.244
   97SOL    HW2 1191   2.355   3.649   5.299
   98SOL     OW 1192   1.085   1.158   1.056
   98SOL    HW1 1193   0.999   1.158   1.005
   98SOL    HW2 1194   1.070   1.199   1.146
   99SOL     OW 1195   3.740   3.503   2.564
   99SOL    HW1 1196   3.822   3.553   2.537
   99SOL    HW2 1197   3.663   3.566   2.575
  100SOL     OW 1198   6.764   6.739   4.223
  100SOL    HW1 1199   6.787   6.833   4.200
  100SOL    HW2 1200   6.848   6.689   4.245
  101SOL     OW 1201   0.286   5.812   2.200
  101SOL    HW1 1202   0.191   5.783   2.205
  101SOL    HW2 1203   0.290   5.908   2.173
  102SOL     OW 1204   3.815   6.005   1.885
  102SOL    HW1 1205   3.774   6.093   1.863
  102SOL    HW2 1206   3.752   5.951   1.942
  103SOL     OW 1207   1.679   2.169   2.854
  103SOL    HW1 1208   1.657   2.206   2.764
  103SOL    HW2 1209   1.741   2.231   2.902
  104SOL     OW 1210   1.647   4.953   1.704
  104SOL    HW1 1211   1.734   4.928   1.745
  104SOL    HW2 1212   1.651   5.047   1.670
  105SOL     OW 1213   5.519   1.714   5.931
  105SOL    HW1 1214   5.439   1.654   5.930
  105SOL    HW2 1215   5.562   1.711   6.021
  106SOL     OW 1216   4.198   6.205   2.847
  106SOL    HW1 1217   4.141   6.200   2.929
  106SOL    HW2 1218   4.146   6.173   2.768
  107SOL     OW 1219   0.047   1.170   6.791
  107SOL    HW1 1220   0.003   1.118   6.864
  107SOL    HW2 1221   0.030   1.125   6.704
  108SOL     OW 1222   3.534   0.209   5.976
  108SOL    HW1 1223   3.533   0.174   5.882
  108SOL    HW2 1224   3.511   0.135   6.039
  109SOL     OW 1225   2.812   0.767   2.444
  109SOL    HW1 1226   2.742   0.795   2.510
  109SOL    HW2 1227   2.840   0.673   2.462
  110SOL     OW 1228   2.535   4.831   4.487
  110SOL    HW1 1229   2.561   4.737   4.462
  110SOL    HW2 1230   2.515   4.883   4.404
  111SOL     OW 1231   1.904   1.202   3.335
  111SOL    HW1 1232   1.865   1.120   3.292
  111SOL    HW2 1233   1.980   1.236   3.279
  112SOL     OW 1234   5.137   6.414   0.394
  112SOL    HW1 1235   5.190   6.368   0.323
  112SOL    HW2 1236   5.130   6.512   0.372
  113SOL     OW 1237   0.768   5.881   2.565
  113SOL    HW1 1238   0.855   5.835   2.544
  113SOL    HW2 1239   0.737   5.853   2.655
  114SOL     OW 1240   1.528   6.158   1.984
  114SOL    HW1 1241   1.587   6.204   2.051
  114SOL    HW2 1242   1.481   6.082   2.028
  115SOL     OW 1243   5.343   0.567   3.125
  115SOL    HW1 1244   5.395   0.612   3.198
  115SOL    HW2 1245   5.265   0.519   3.164
  116SOL     OW 1246   0.284   5.685   1.407
  116SOL    HW1 1247   0.276   5.763   1.468
  116SOL    HW2 1248   0.302   5.717   1.314
  117SOL     OW 1249   1.815   0.963   0.595
  117SOL    HW1 1250   1.913   0.943   0.599
  117SOL    HW2 1251   1.790   0.983   0.500
  118SOL     OW 1252   1.862   2.355   2.959
  118SOL    HW1 1253   1.961   2.372   2.960
  118SOL    HW2 1254   1.824   2.379   3.048
  119SOL     OW 1255   0.054   0.164   6.724
  119SOL    HW1 1256   0.041   0.222   6.804
  119SOL    HW2 1257   0.109   0.084   6.750
  120SOL     OW 1258   5.238   0.180   4.213
  120SOL    HW1 1259   5.166   0.128   4.167
  120SOL    HW2 1260   5.265   0.132   4.297
  121SOL     OW 1261   1.569   3.935   0.352
  121SOL    HW1 1262   1.614   3.954   0.439
  121SOL    HW2 1263   1.495   3.869   0.366
  122SOL     OW 1264   1.458   3.434   0.224
  122SOL    HW1 1265   1.506   3.376   0.159
  122SOL    HW2 1266   1.470   3.530   0.198
  123SOL     OW 1267   0.871   1.128   2.555
  123SOL    HW1 1268   0.942   1.131   2.484
  123SOL    HW2 1269   0.804   1.200   2.538
  124SOL     OW 1270   2.987   2.052   0.429
  124SOL    HW1 1271   2.968   2.149   0.417
  124SOL    HW2 1272   2.980   2.005   0.341
  125SOL     OW 1273   3.336   2.839   0.763
  125SOL    HW1 1274   3.406   2.779   0.802
  125SOL    HW2 1275   3.353   2.852   0.666
  126SOL     OW 1276   3.689   2.866   2.758
  126SOL    HW1 1277   3.685   2.856   2.659
  126SOL    HW2 1278   3.741   2.948   2.782
  127SOL     OW 1279   6.720   6.382   6.278
  127SOL    HW1 1280   6.758   6.390   6.186
  127SOL    HW2 1281   6.637   6.436   6.285
  128SOL     OW 1282   5.105   3.367   1.523
  128SOL    HW1 1283   5.081   3.416   1.607
  128SOL    HW2 1284   5.106   3.430   1.446
  129SOL     OW 1285   3.144   4.377   0.657
  129SOL    HW1 1286   3.192   4.402   0.741
  129SOL    HW2 1287   3.141   4.277   0.649
  130SOL     OW 1288   6.295   0.472   4.927
  130SOL    HW1 1289   6.254   0.550   4.881
  130SOL    HW2 1290   6.392   0.490   4.944
  131SOL     OW 1291   5.695   1.076   3.980
  131SOL    HW1 1292   5.622   1.011   3.959
  131SOL    HW2 1293   5.781   1.026   3.993
  132SOL     OW 1294   3.318   2.664   1.214
  132SOL    HW1 1295   3.262   2.728   1.161
  132SOL    HW2 1296   3.267   2.580   1.231
  133SOL     OW 1297   5.247   1.130   4.185
  133SOL    HW1 1298   5.214   1.209   4.235
  133SOL    HW2 1299   5.210   1.046   4.225
  134SOL     OW 1300   0.422   0.060   2.616
  134SOL    HW1 1301   0.503   0.079   2.672
  134SOL    HW2 1302   0.419   6.985   2.593
  135SOL     OW 1303   5.223   3.588   4.037
  135SOL    HW1 1304   5.129   3.555   4.045
  135SOL    HW2 1305   5.284   3.526   4.086
  136SOL     OW 1306   2.103   6.123   4.722
  136SOL    HW1 1307   2.043   6.177   4.663
  136SOL    HW2 1308   2.190   6.172   4.734
  137SOL     OW 1309   4.519   1.113   4.494
  137SOL    HW1 1310   4.471   1.069   4.569
  137SOL    HW2 1311   4.550   1.043   4.429
  138SOL     OW 1312   0.904   4.470   3.381
  138SOL    HW1 1313   0.817   4.508   3.349
  138SOL    HW2 1314   0.886   4.397   3.447
  139SOL     OW 1315   2.344   5.806   6.165
  139SOL    HW1 1316   2.273   5.737   6.152
  139SOL    HW2 1317   2.421   5.785   6.105
  140SOL     OW 1318   1.360   6.693   3.125
  140SOL    HW1 1319   1.354   6.792   3.134
  140SOL    HW2 1320   1.415   6.670   3.045
  141SOL     OW 1321   6.792   2.431   6.314
  141SOL    HW1 1322   6.796   2.457   6.218
  141SOL    HW2 1323   6.886   2.420   6.349
  142SOL     OW 1324   2.097   3.791   1.913
  142SOL    HW1 1325   2.162   3.717   1.933
  142SOL    HW2 1326   2.074   3.839   1.997
  143SOL     OW 1327   5.794   5.674   1.200
  143SOL    HW1 1328   5.766   5.740   1.269
  143SOL    HW2 1329   5.883   5.635   1.224
  144SOL     OW 1330   2.511   4.907   4.926
  144SOL    HW1 1331   2.431   4.851   4.949
  144SOL    HW2 1332   2.552   4.943   5.010
  145SOL     OW 1333   1.605   5.462   1.698
  145SOL    HW1 1334   1.529   5.485   1.638
  145SOL    HW2 1335   1.661   5.544   1.714
  146SOL     OW 1336   4.797   1.205   6.135
  146SOL    HW1 1337   4.713   1.253   6.160
  146SOL    HW2 1338   4.872   1.237   6.194
  147SOL     OW 1339   5.170   1.809   5.844
  147SOL    HW1 1340   5.212   1.718   5.840
  147SOL    HW2 1341   5.077   1.804   5.806
  148SOL     OW 1342   0.858   5.631   1.666
  148SOL    HW1 1343   0.759   5.640   1.657
  148SOL    HW2 1344   0.884   5.535   1.652
  149SOL     OW 1345   3.418   1.518   4.634
  149SOL    HW1 1346   3.335   1.573   4.633
  149SOL    HW2 1347   3.497   1.577   4.654
  150SOL     OW 1348   4.715   0.095   6.105
  150SOL    HW1 1349   4.690   0.026   6.173
  150SOL    HW2 1350   4.701   0.186   6.144
  151SOL     OW 1351   3.751   0.945   1.762
  151SOL    HW1 1352   3.682   0.923   1.831
  151SOL    HW2 1353   3.835   0.976   1.806
  152SOL     OW 1354   6.764   1.533   0.281
  152SOL    HW1 1355   6.772   1.601   0.208
  152SOL    HW2 1356   6.822   1.454   0.259
  153SOL     OW 1357   2.824   0.458   3.091
  153SOL    HW1 1358   2.870   0.411   3.016
  153SOL    HW2 1359   2.891   0.483   3.161
  154SOL     OW 1360   0.145   2.994   0.371
  154SOL    HW1 1361   0.045   2.992   0.361
  154SOL    HW2 1362   0.177   2.905   0.403
  155SOL     OW 1363   1.032   0.373   3.025
  155SOL    HW1 1364   1.012   0.278   3.004
  155SOL    HW2 1365   1.097   0.378   3.101
  156SOL     OW 1366   6.127   1.032   0.109
  156SOL    HW1 1367   6.090   1.014   0.200
  156SOL    HW2 1368   6.147   0.945   0.064
  157SOL     OW 1369   5.473   3.447   0.796
  157SOL    HW1 1370   5.536   3.524   0.798
  157SOL    HW2 1371   5.381   3.479   0.772
  158SOL     OW 1372   1.689   2.368   1.026
  158SOL    HW1 1373   1.661   2.421   0.946
  158SOL    HW2 1374   1.735   2.284   0.997
  159SOL     OW 1375   4.341   4.988   1.043
  159SOL    HW1 1376   4.359   5.083   1.016
  159SOL    HW2 1377   4.324   4.984   1.142
  160SOL     OW 1378   6.197   0.162   1.125
  160SOL    HW1 1379   6.195   0.102   1.045
  160SOL    HW2 1380   6.122   0.137   1.187
  161SOL     OW 1381   2.210   0.099   2.390
  161SOL    HW1 1382   2.199   0.188   2.346
  161SOL    HW2 1383   2.172   0.028   2.330
  162SOL     OW 1384   3.045   6.996   0.230
  162SOL    HW1 1385   3.121   6.980   0.291
  162SOL    HW2 1386   3.073   0.036   0.156
  163SOL     OW 1387   0.271   5.045   2.832
  163SOL    HW1 1388   0.185   5.018   2.877
  163SOL    HW2 1389   0.293   5.139   2.856
  164SOL     OW 1390   0.839   3.063   2.559
  164SOL    HW1 1391   0.795   3.147   2.591
  164SOL    HW2 1392   0.927   3.052   2.604
  165SOL     OW 1393   5.917   5.009   0.309
  165SOL    HW1 1394   5.839   5.025   0.369
  165SOL    HW2 1395   5.974   4.936   0.347
  166SOL     OW 1396   6.480   3.504   2.194
  166SOL    HW1 1397   6.427   3.422   2.169
  166SOL    HW2 1398   6.418   3.573   2.230
  167SOL     OW 1399   6.023   1.151   6.470
  167SOL    HW1 1400   6.080   1.163   6.389
  167SOL    HW2 1401   6.020   1.054   6.495
  168SOL     OW 1402   3.968   1.973   1.778
  168SOL    HW1 1403   3.968   2.056   1.722
  168SOL    HW2 1404   3.939   1.895   1.722
  169SOL     OW 1405   5.662   2.746   6.965
  169SOL    HW1 1406   5.645   2.836   7.007
  169SOL    HW2 1407   5.695   2.759   6.872
  170SOL     OW 1408   6.974   6.145   2.621
  170SOL    HW1 1409   6.957   6.090   2.703
  170SOL    HW2 1410   0.029   6.106   2.571
  171SOL     OW 1411   2.013   3.481   0.147
  171SOL    HW1 1412   2.010   3.387   0.114
  171SOL    HW2 1413   1.988   3.484   0.244
  172SOL     OW 1414   6.145   2.452   2.369
  172SOL    HW1 1415   6.099   2.373   2.409
  172SOL    HW2 1416   6.178   2.512   2.442
  173SOL     OW 1417   5.663   0.978   4.821
  173SOL    HW1 1418   5.750   1.011   4.784
  173SOL    HW2 1419   5.639   1.033   4.901
  174SOL     OW 1420   4.606   5.390   4.299
  174SOL    HW1 1421   4.627   5.305   4.250
  174SOL    HW2 1422   4.629   5.379   4.396
  175SOL     OW 1423   3.545   1.180   1.343
  175SOL    HW1 1424   3.528   1.101   1.285
  175SOL    HW2 1425   3.622   1.161   1.405
  176SOL     OW 1426   5.025   4.699   2.854
  176SOL    HW1 1427   5.005   4.707   2.952
  176SOL    HW2 1428   4.975   4.769   2.804
  177SOL     OW 1429   5.076   2.581   4.949
  177SOL    HW1 1430   4.990   2.593   5.000
  177SOL    HW2 1431   5.060   2.601   4.852
  178SOL     OW 1432   2.922   4.890   4.902
  178SOL    HW1 1433   2.879   4.815   4.953
  178SOL    HW2 1434   2.954   4.960   4.966
  179SOL     OW 1435   4.391   6.941   6.952
  179SOL    HW1 1436   4.355   0.012   6.944
  179SOL    HW2 1437   4.424   6.926   0.023
  180SOL     OW 1438   2.358   6.818   0.763
  180SOL    HW1 1439   2.435   6.754   0.761
  180SOL    HW2 1440   2.393   6.911   0.765
  181SOL     OW 1441   3.577   3.068   6.112
  181SOL    HW1 1442   3.527   3.043   6.195
  181SOL    HW2 1443   3.606   2.985   6.064
  182SOL     OW 1444   4.684   2.654   6.963
  182SOL    HW1 1445   4.594   2.697   6.973
  182SOL    HW2 1446   4.739   2.673   0.022
  183SOL     OW 1447   4.102   2.132   3.439
  183SOL    HW1 1448   4.116   2.199   3.512
  183SOL    HW2 1449   4.174   2.142   3.370
  184SOL     OW 1450   0.459   6.658   3.973
  184SOL    HW1 1451   0.482   6.675   4.069
  184SOL    HW2 1452   0.531   6.696   3.915
  185SOL     OW 1453   1.097   1.019   4.014
  185SOL    HW1 1454   1.043   0.969   3.946
  185SOL    HW2 1455   1.194   1.010   3.993
  186SOL     OW 1456   5.374   7.010   4.446
  186SOL    HW1 1457   5.403   0.081   4.465
  186SOL    HW2 1458   5.446   6.961   4.397
  187SOL     OW 1459   5.648   6.627   2.228
  187SOL    HW1 1460   5.618   6.706   2.282
  187SOL    HW2 1461   5.653   6.547   2.288
  188SOL     OW 1462   0.942   2.963   3.860
  188SOL    HW1 1463   0.908   2.886   3.806
  188SOL    HW2 1464   0.879   3.040   3.850
  189SOL     OW 1465   1.472   4.867   6.807
  189SOL    HW1 1466   1.570   4.850   6.793
  189SOL    HW2 1467   1.425   4.780   6.821
  190SOL     OW 1468   5.937   4.381   6.865
  190SOL    HW1 1469   5.931   4.282   6.871
  190SOL    HW2 1470   5.999   4.406   6.791
  191SOL     OW 1471   6.563   0.983   5.892
  191SOL    HW1 1472   6.484   0.941   5.848
  191SOL    HW2 1473   6.638   0.990   5.827
  192SOL     OW 1474   6.968   4.748   1.736
  192SOL    HW1 1475   6.876   4.713   1.723
  192SOL    HW2 1476   0.006   4.711   1.666
  193SOL     OW 1477   5.046   3.750   5.295
  193SOL    HW1 1478   5.096   3.749   5.209
  193SOL    HW2 1479   5.003   3.661   5.310
  194SOL     OW 1480   3.852   6.279   3.038
  194SOL    HW1 1481   3.818   6.331   3.115
  194SOL    HW2 1482   3.947   6.253   3.054
  195SOL     OW 1483   1.634   1.051   3.190
  195SOL    HW1 1484   1.617   1.147   3.167
  195SOL    HW2 1485   1.684   1.007   3.115
  196SOL     OW 1486   3.464   6.982   0.311
  196SOL    HW1 1487   3.538   0.000   0.365
  196SOL    HW2 1488   3.448   0.014   0.229
  197SOL     OW 1489   2.866   6.599   0.238
  197SOL    HW1 1490   2.803   6.534   0.280
  197SOL    HW2 1491   2.888   6.672   0.302
  198SOL     OW 1492   4.881   6.798   1.468
  198SOL    HW1 1493   4.867   6.893   1.441
  198SOL    HW2 1494   4.928   6.795   1.557
  199SOL     OW 1495   6.523   1.398   2.870
  199SOL    HW1 1496   6.616   1.361   2.878
  199SOL    HW2 1497   6.528   1.494   2.841
  200SOL     OW 1498   1.221   4.435   2.969
  200SOL    HW1 1499   1.242   4.453   3.065
  200SOL    HW2 1500   1.201   4.338   2.957
  201SOL     OW 1501   3.742   6.411   6.023
  201SOL    HW1 1502   3.762   6.491   5.965
  201SOL    HW2 1503   3.752   6.328   5.968
  202SOL     OW 1504   5.249   0.572   5.221
  202SOL    HW1 1505   5.188   0.503   5.262
  202SOL    HW2 1506   5.210   0.604   5.135
  203SOL     OW 1507   4.860   2.293   4.765
  203SOL    HW1 1508   4.857   2.344   4.851
  203SOL    HW2 1509   4.903   2.204   4.781
  204SOL     OW 1510   0.394   0.709   6.520
  204SOL    HW1 1511   0.303   0.681   6.489
  204SOL    HW2 1512   0.400   0.809   6.521
  205SOL     OW 1513   0.581   1.225   2.265
  205SOL    HW1 1514   0.538   1.143   2.227
  205SOL    HW2 1515   0.608   1.286   2.191
  206SOL     OW 1516   0.369   4.890   2.531
  206SOL    HW1 1517   0.384   4.835   2.613
  206SOL    HW2 1518   0.436   4.863   2.461
  207SOL     OW 1519   4.212   0.334   5.246
  207SOL    HW1 1520   4.234   0.413   5.305
  207SOL    HW2 1521   4.118   0.342   5.214
  208SOL     OW 1522   4.946   3.511   5.854
  208SOL    HW1 1523   4.909   3.514   5.761
  208SOL    HW2 1524   4.898   3.578   5.911
  209SOL     OW 1525   0.979   5.655   5.659
  209SOL    HW1 1526   0.995   5.610   5.571
  209SOL    HW2 1527   0.900   5.612   5.704
  210SOL     OW 1528   3.885   2.035   2.055
  210SOL    HW1 1529   3.792   2.058   2.028
  210SOL    HW2 1530   3.939   2.012   1.974
  211SOL     OW 1531   1.057   6.380   4.227
  211SOL    HW1 1532   0.989   6.448   4.199
  211SOL    HW2 1533   1.032   6.291   4.190
  212SOL     OW 1534   2.560   4.658   2.275
  212SOL    HW1 1535   2.465   4.629   2.286
  212SOL    HW2 1536   2.562   4.747   2.229
  213SOL     OW 1537   4.161   0.767   6.723
  213SOL    HW1 1538   4.216   0.844   6.690
  213SOL    HW2 1539   4.065   0.795   6.730
  214SOL     OW 1540   3.096   6.206   2.563
  214SOL    HW1 1541   3.178   6.149   2.556
  214SOL    HW2 1542   3.054   6.214   2.473
  215SOL     OW 1543   3.177   3.844   1.805
  215SOL    HW1 1544   3.116   3.841   1.884
  215SOL    HW2 1545   3.270   3.866   1.835
  216SOL     OW 1546   1.504   6.759   4.924
  216SOL    HW1 1547   1.576   6.711   4.874
  216SOL    HW2 1548   1.493   6.851   4.887
  217SOL     OW 1549   2.191   2.682   4.546
  217SOL    HW1 1550   2.212   2.758   4.608
  217SOL    HW2 1551   2.204   2.712   4.451
  218SOL     OW 1552   0.984   3.105   4.691
  218SOL    HW1 1553   0.885   3.109   4.705
  218SOL    HW2 1554   1.011   3.011   4.671
  219SOL     OW 1555   3.058   6.063   6.217
  219SOL    HW1 1556   2.989   6.125   6.179
  219SOL    HW2 1557   3.149   6.095   6.189
  220SOL     OW 1558   3.145   6.075   6.617
  220SOL    HW1 1559   3.047   6.095   6.613
  220SOL    HW2 1560   3.168   6.042   6.709
  221SOL     OW 1561   6.565   3.749   2.413
  221SOL    HW1 1562   6.537   3.683   2.483
  221SOL    HW2 1563   6.595   3.699   2.331
  222SOL     OW 1564   2.087   4.730   5.606
  222SOL    HW1 1565   2.167   4.731   5.665
  222SOL    HW2 1566   2.074   4.820   5.565
  223SOL     OW 1567   6.684   3.955   0.538
  223SOL    HW1 1568   6.714   3.906   0.620
  223SOL    HW2 1569   6.742   3.929   0.461
  224SOL     OW 1570   2.502   1.984   3.859
  224SOL    HW1 1571   2.584   1.926   3.864
  224SOL    HW2 1572   2.420   1.926   3.858
  225SOL     OW 1573   4.961   1.321   6.327
  225SOL    HW1 1574   5.044   1.376   6.324
  225SOL    HW2 1575   4.886   1.375   6.364
  226SOL     OW 1576   0.388   6.605   6.848
  226SOL    HW1 1577   0.397   6.507   6.866
  226SOL    HW2 1578   0.449   6.630   6.772
  227SOL     OW 1579   1.313   4.562   2.435
  227SOL    HW1 1580   1.383   4.516   2.380
  227SOL    HW2 1581   1.274   4.497   2.501
  228SOL     OW 1582   3.133   6.492   3.801
  228SOL    HW1 1583   3.117   6.446   3.888
  228SOL    HW2 1584   3.218   6.459   3.761
  229SOL     OW 1585   6.038   5.591   0.437
  229SOL    HW1 1586   5.996   5.597   0.346
  229SOL    HW2 1587   6.093   5.673   0.453
  230SOL     OW 1588   3.220   5.120   3.412
  230SOL    HW1 1589   3.285   5.066   3.467
  230SOL    HW2 1590   3.269   5.165   3.338
  231SOL     OW 1591   5.955   1.827   5.615
  231SOL    HW1 1592   5.892   1.901   5.594
  231SOL    HW2 1593   5.914   1.740   5.588
  232SOL     OW 1594   0.791   4.422   6.425
  232SOL    HW1 1595   0.834   4.374   6.501
  232SOL    HW2 1596   0.782   4.519   6.447
  233SOL     OW 1597   1.903   1.131   4.436
  233SOL    HW1 1598   1.888   1.057   4.501
  233SOL    HW2 1599   1.869   1.104   4.346
  234SOL     OW 1600   2.383   6.321   5.431
  234SOL    HW1 1601   2.372   6.224   5.412
  234SOL    HW2 1602   2.450   6.333   5.505
  235SOL     OW 1603   2.970   3.613   2.478
  235SOL    HW1 1604   2.970   3.699   2.427
  235SOL    HW2 1605   2.962   3.536   2.415
  236SOL     OW 1606   6.043   2.771   6.572
  236SOL    HW1 1607   6.072   2.742   6.663
  236SOL    HW2 1608   5.971   2.839   6.580
  237SOL     OW 1609   6.925   6.687   0.855
  237SOL    HW1 1610   7.008   6.714   0.805
  237SOL    HW2 1611   6.879   6.613   0.805
  238SOL     OW 1612   6.157   2.691   6.797
  238SOL    HW1 1613   6.236   2.706   6.856
  238SOL    HW2 1614   6.077   2.669   6.853
  239SOL     OW 1615   0.029   5.011   0.047
  239SOL    HW1 1616   7.007   5.057   6.992
  239SOL    HW2 1617   0.058   5.079   0.114
  240SOL     OW 1618   0.334   2.848   5.176
  240SOL    HW1 1619   0.236   2.853   5.196
  240SOL    HW2 1620   0.362   2.929   5.125
  241SOL     OW 1621   0.355   0.513   3.952
  241SOL    HW1 1622   0.288   0.446   3.919
  241SOL    HW2 1623   0.342   0.528   4.050
  242SOL     OW 1624   1.968   2.610   5.792
  242SOL    HW1 1625   2.019   2.696   5.784
  242SOL    HW2 1626   1.923   2.606   5.881
  243SOL     OW 1627   4.685   6.970   5.869
  243SOL    HW1 1628   4.585   6.958   5.869
  243SOL    HW2 1629   4.712   7.017   5.953
  244SOL     OW 1630   4.849   3.149   4.625
  244SOL    HW1 1631   4.859   3.172   4.722
  244SOL    HW2 1632   4.752   3.137   4.603
  245SOL     OW 1633   6.831   2.337   4.298
  245SOL    HW1 1634   6.833   2.355   4.397
  245SOL    HW2 1635   6.913   2.376   4.256
  246SOL     OW 1636   5.790   3.168   2.933
  246SOL    HW1 1637   5.736   3.187   2.851
  246SOL    HW2 1638   5.804   3.069   2.942
  247SOL     OW 1639   1.626   1.938   2.640
  247SOL    HW1 1640   1.532   1.969   2.649
  247SOL    HW2 1641   1.688   2.017   2.645
  248SOL     OW 1642   4.737   2.745   4.793
  248SOL    HW1 1643   4.758   2.820   4.857
  248SOL    HW2 1644   4.671   2.683   4.836
  249SOL     OW 1645   4.774   0.436   5.223
  249SOL    HW1 1646   4.689   0.466   5.266
  249SOL    HW2 1647   4.776   0.336   5.221
  250SOL     OW 1648   4.559   2.205   5.381
  250SOL    HW1 1649   4.469   2.169   5.404
  250SOL    HW2 1650   4.611   2.220   5.466
  251SOL     OW 1651   3.956   4.988   6.040
  251SOL    HW1 1652   3.864   4.966   6.006
  251SOL    HW2 1653   4.024   4.942   5.984
  252SOL     OW 1654   6.697   1.232   6.251
  252SOL    HW1 1655   6.737   1.161   6.193
  252SOL    HW2 1656   6.620   1.193   6.302
  253SOL     OW 1657   2.731   4.503   0.501
  253SOL    HW1 1658   2.761   4.560   0.577
  253SOL    HW2 1659   2.679   4.559   0.436
  254SOL     OW 1660   6.844   2.779   3.446
  254SOL    HW1 1661   6.824   2.681   3.442
  254SOL    HW2 1662   6.769   2.826   3.492
  255SOL     OW 1663   2.206   2.321   3.939
  255SOL    HW1 1664   2.106   2.326   3.937
  255SOL    HW2 1665   2.240   2.297   3.849
  256SOL     OW 1666   6.585   4.486   0.000
  256SOL    HW1 1667   6.552   4.411   0.058
  256SOL    HW2 1668   6.674   4.462   6.984
  257SOL     OW 1669   3.451   5.321   5.434
  257SOL    HW1 1670   3.536   5.287   5.393
  257SOL    HW2 1671   3.457   5.312   5.534
  258SOL     OW 1672   5.352   3.246   4.927
  258SOL    HW1 1673   5.380   3.184   5.000
  258SOL    HW2 1674   5.307   3.326   4.967
  259SOL     OW 1675   2.222   2.941   2.495
  259SOL    HW1 1676   2.229   3.039   2.516
  259SOL    HW2 1677   2.170   2.929   2.411
  260SOL     OW 1678   4.254   0.949   1.105
  260SOL    HW1 1679   4.219   0.876   1.164
  260SOL    HW2 1680   4.255   1.035   1.156
  261SOL     OW 1681   6.934   3.957   1.136
  261SOL    HW1 1682   6.970   3.990   1.223
  261SOL    HW2 1683   7.006   3.963   1.066
  262SOL     OW 1684   0.516   3.994   2.234
  262SOL    HW1 1685   0.593   3.970   2.174
  262SOL    HW2 1686   0.431   3.967   2.190
  263SOL     OW 1687   0.183   1.769   4.021
  263SOL    HW1 1688   0.209   1.693   3.961
  263SOL    HW2 1689   0.247   1.845   4.008
  264SOL     OW 1690   6.326   4.096   5.603
  264SOL    HW1 1691   6.306   4.178   5.550
  264SOL    HW2 1692   6.335   4.120   5.700
  265SOL     OW 1693   4.987   4.275   3.204
  265SOL    HW1 1694   4.914   4.207   3.212
  265SOL    HW2 1695   5.033   4.265   3.116
  266SOL     OW 1696   3.462   2.658   6.224
  266SOL    HW1 1697   3.389   2.643   6.290
  266SOL    HW2 1698   3.428   2.639   6.132
  267SOL     OW 1699   0.101   2.822   6.195
  267SOL    HW1 1700   0.007   2.826   6.162
  267SOL    HW2 1701   0.108   2.869   6.283
  268SOL     OW 1702   4.862   5.807   5.270
  268SOL    HW1 1703   4.893   5.713   5.255
  268SOL    HW2 1704   4.898   5.840   5.357
  269SOL     OW 1705   1.767   1.800   0.384
  269SOL    HW1 1706   1.730   1.809   0.477
  269SOL    HW2 1707   1.692   1.791   0.319
  270SOL     OW 1708   6.371   0.877   1.758
  270SOL    HW1 1709   6.363   0.943   1.833
  270SOL    HW2 1710   6.463   0.882   1.720
  271SOL     OW 1711   2.943   1.555   0.347
  271SOL    HW1 1712   2.970   1.631   0.406
  271SOL    HW2 1713   2.852   1.523   0.371
  272SOL     OW 1714   3.488   4.911   4.236
  272SOL    HW1 1715   3.579   4.901   4.194
  272SOL    HW2 1716   3.499   4.923   4.335
  273SOL     OW 1717   1.811   5.465   5.893
  273SOL    HW1 1718   1.904   5.493   5.916
  273SOL    HW2 1719   1.808   5.366   5.877
  274SOL     OW 1720   4.790   2.113   4.460
  274SOL    HW1 1721   4.806   2.212   4.468
  274SOL    HW2 1722   4.788   2.073   4.551
  275SOL     OW 1723   0.718   5.736   6.311
  275SOL    HW1 1724   0.782   5.659   6.316
  275SOL    HW2 1725   0.703   5.773   6.402
  276SOL     OW 1726   6.678   5.231   3.934
  276SOL    HW1 1727   6.754   5.199   3.878
  276SOL    HW2 1728   6.594   5.186   3.905
  277SOL     OW 1729   3.451   1.112   6.510
  277SOL    HW1 1730   3.514   1.066   6.572
  277SOL    HW2 1731   3.438   1.057   6.427
  278SOL     OW 1732   6.497   3.517   1.745
  278SOL    HW1 1733   6.491   3.518   1.845
  278SOL    HW2 1734   6.558   3.590   1.714
  279SOL     OW 1735   6.374   2.811   4.322
  279SOL    HW1 1736   6.348   2.832   4.228
  279SOL    HW2 1737   6.470   2.785   4.325
  280SOL     OW 1738   4.250   0.161   3.319
  280SOL    HW1 1739   4.173   0.224   3.312
  280SOL    HW2 1740   4.307   0.187   3.397
  281SOL     OW 1741   2.970   5.182   3.485
  281SOL    HW1 1742   2.952   5.177   3.583
  281SOL    HW2 1743   3.066   5.159   3.468
  282SOL     OW 1744   3.857   2.566   5.545
  282SOL    HW1 1745   3.895   2.626   5.475
  282SOL    HW2 1746   3.808   2.491   5.502
  283SOL     OW 1747   5.829   0.478   5.697
  283SOL    HW1 1748   5.875   0.398   5.736
  283SOL    HW2 1749   5.846   0.558   5.756
  284SOL     OW 1750   1.087   4.619   4.505
  284SOL    HW1 1751   1.117   4.524   4.501
  284SOL    HW2 1752   1.046   4.637   4.594
  285SOL     OW 1753   5.141   6.033   0.345
  285SOL    HW1 1754   5.133   5.956   0.281
  285SOL    HW2 1755   5.208   6.010   0.416
  286SOL     OW 1756   4.313   4.767   5.625
  286SOL    HW1 1757   4.304   4.678   5.582
  286SOL    HW2 1758   4.392   4.815   5.587
  287SOL     OW 1759   1.647   5.459   6.633
  287SOL    HW1 1760   1.593   5.378   6.611
  287SOL    HW2 1761   1.588   5.529   6.672
  288SOL     OW 1762   3.928   1.166   0.355
  288SOL    HW1 1763   3.991   1.130   0.424
  288SOL    HW2 1764   3.946   1.122   0.268
  289SOL     OW 1765   0.825   5.046   5.674
  289SOL    HW1 1766   0.900   4.983   5.654
  289SOL    HW2 1767   0.816   5.058   5.773
  290SOL     OW 1768   4.797   1.009   3.501
  290SOL    HW1 1769   4.803   0.925   3.446
  290SOL    HW2 1770   4.717   1.062   3.473
  291SOL     OW 1771   4.492   1.099   3.735
  291SOL    HW1 1772   4.554   1.178   3.733
  291SOL    HW2 1773   4.546   1.015   3.749
  292SOL     OW 1774   5.137   1.125   3.775
  292SOL    HW1 1775   5.198   1.049   3.750
  292SOL    HW2 1776   5.042   1.096   3.765
  293SOL     OW 1777   4.208   6.512   1.207
  293SOL    HW1 1778   4.208   6.612   1.219
  293SOL    HW2 1779   4.114   6.480   1.195
  294SOL     OW 1780   6.456   5.805   6.633
  294SOL    HW1 1781   6.511   5.846   6.560
  294SOL    HW2 1782   6.383   5.868   6.658
  295SOL     OW 1783   1.887   2.244   5.305
  295SOL    HW1 1784   1.913   2.227   5.210
  295SOL    HW2 1785   1.928   2.329   5.337
  296SOL     OW 1786   6.914   2.606   1.437
  296SOL    HW1 1787   6.884   2.699   1.416
  296SOL    HW2 1788   6.986   2.579   1.372
  297SOL     OW 1789   3.495   5.439   3.505
  297SOL    HW1 1790   3.575   5.483   3.466
  297SOL    HW2 1791   3.415   5.456   3.447
  298SOL     OW 1792   4.683   6.897   0.219
  298SOL    HW1 1793   4.706   6.865   0.311
  298SOL    HW2 1794   4.671   6.996   0.220
  299SOL     OW 1795   4.408   1.781   6.897
  299SOL    HW1 1796   4.376   1.845   6.967
  299SOL    HW2 1797   4.329   1.743   6.849
  300SOL     OW 1798   3.791   0.193   2.501
  300SOL    HW1 1799   3.785   0.291   2.481
  300SOL    HW2 1800   3.885   0.162   2.491
  301SOL     OW 1801   5.037   1.145   1.214
  301SOL    HW1 1802   5.007   1.055   1.246
  301SOL    HW2 1803   5.062   1.202   1.293
  302SOL     OW 1804   0.154   0.713   2.174
  302SOL    HW1 1805   0.166   0.614   2.181
  302SOL    HW2 1806   0.058   0.737   2.192
  303SOL     OW 1807   6.822   5.808   1.491
  303SOL    HW1 1808   6.793   5.713   1.503
  303SOL    HW2 1809   6.913   5.820   1.531
  304SOL     OW 1810   2.154   6.291   6.395
  304SOL    HW1 1811   2.173   6.253   6.305
  304SOL    HW2 1812   2.215   6.249   6.462
  305SOL     OW 1813   1.338   2.826   0.866
  305SOL    HW1 1814   1.268   2.892   0.893
  305SOL    HW2 1815   1.416   2.833   0.928
  306SOL     OW 1816   6.992   1.323   2.888
  306SOL    HW1 1817   6.990   1.423   2.893
  306SOL    HW2 1818   0.062   1.293   2.863
  307SOL     OW 1819   3.907   4.635   0.209
  307SOL    HW1 1820   3.942   4.571   0.141
  307SOL    HW2 1821   3.857   4.709   0.163
  308SOL     OW 1822   5.958   2.539   4.065
  308SOL    HW1 1823   5.936   2.460   4.008
  308SOL    HW2 1824   5.970   2.619   4.008
  309SOL     OW 1825   1.694   6.232   0.453
  309SOL    HW1 1826   1.644   6.230   0.539
  309SOL    HW2 1827   1.641   6.283   0.385
  310SOL     OW 1828   4.621   6.513   4.332
  310SOL    HW1 1829   4.647   6.581   4.401
  310SOL    HW2 1830   4.613   6.423   4.376
  311SOL     OW 1831   2.955   5.294   2.753
  311SOL    HW1 1832   3.050   5.309   2.782
  311SOL    HW2 1833   2.954   5.232   2.674
  312SOL     OW 1834   3.753   2.101   3.743
  312SOL    HW1 1835   3.751   2.012   3.787
  312SOL    HW2 1836   3.660   2.138   3.736
  313SOL     OW 1837   3.463   4.134   2.394
  313SOL    HW1 1838   3.433   4.226   2.418
  313SOL    HW2 1839   3.455   4.074   2.474
  314SOL     OW 1840   2.237   4.838   4.928
  314SOL    HW1 1841   2.186   4.752   4.922
  314SOL    HW2 1842   2.251   4.875   4.836
  315SOL     OW 1843   0.838   2.145   3.921
  315SOL    HW1 1844   0.890   2.098   3.992
  315SOL    HW2 1845   0.896   2.211   3.874
  316SOL     OW 1846   3.722   0.604   4.359
  316SOL    HW1 1847   3.628   0.573   4.348
  316SOL    HW2 1848   3.744   0.610   4.456
  317SOL     OW 1849   0.259   1.465   1.533
  317SOL    HW1 1850   0.348   1.502   1.560
  317SOL    HW2 1851   0.210   1.531   1.478
  318SOL     OW 1852   6.382   0.120   6.640
  318SOL    HW1 1853   6.288   0.156   6.638
  318SOL    HW2 1854   6.383   0.032   6.687
  319SOL     OW 1855   6.764   1.826   3.423
  319SOL    HW1 1856   6.744   1.788   3.333
  319SOL    HW2 1857   6.705   1.906   3.439
  320SOL     OW 1858   5.840   3.108   6.993
  320SOL    HW1 1859   5.869   3.078   6.902
  320SOL    HW2 1860   5.804   3.030   0.022
  321SOL     OW 1861   4.552   2.248   0.315
  321SOL    HW1 1862   4.561   2.342   0.348
  321SOL    HW2 1863   4.591   2.241   0.223
  322SOL     OW 1864   3.496   2.895   4.495
  322SOL    HW1 1865   3.413   2.873   4.444
  322SOL    HW2 1866   3.477   2.892   4.593
  323SOL     OW 1867   1.220   2.826   5.409
  323SOL    HW1 1868   1.210   2.726   5.412
  323SOL    HW2 1869   1.256   2.859   5.496
  324SOL     OW 1870   2.594   0.621   3.011
  324SOL    HW1 1871   2.659   0.547   3.026
  324SOL    HW2 1872   2.642   0.709   3.012
  325SOL     OW 1873   0.756   3.338   2.372
  325SOL    HW1 1874   0.716   3.425   2.341
  325SOL    HW2 1875   0.826   3.357   2.441
  326SOL     OW 1876   0.766   4.303   6.150
  326SOL    HW1 1877   0.774   4.358   6.233
  326SOL    HW2 1878   0.857   4.274   6.120
  327SOL     OW 1879   2.747   4.701   3.271
  327SOL    HW1 1880   2.673   4.635   3.262
  327SOL    HW2 1881   2.766   4.715   3.368
  328SOL     OW 1882   2.280   4.786   1.932
  328SOL    HW1 1883   2.338   4.717   1.975
  328SOL    HW2 1884   2.249   4.851   2.002
  329SOL     OW 1885   2.446   3.489   5.810
  329SOL    HW1 1886   2.384   3.465   5.885
  329SOL    HW2 1887   2.392   3.526   5.734
  330SOL     OW 1888   3.057   6.582   0.749
  330SOL    HW1 1889   2.962   6.611   0.761
  330SOL    HW2 1890   3.061   6.510   0.679
  331SOL     OW 1891   5.296   5.304   0.536
  331SOL    HW1 1892   5.272   5.372   0.605
  331SOL    HW2 1893   5.392   5.279   0.546
  332SOL     OW 1894   5.937   2.572   4.975
  332SOL    HW1 1895   6.007   2.520   4.926
  332SOL    HW2 1896   5.860   2.588   4.913
  333SOL     OW 1897   4.474   0.608   5.051
  333SOL    HW1 1898   4.403   0.673   5.025
  333SOL    HW2 1899   4.450   0.517   5.018
  334SOL     OW 1900   3.141   2.535   0.009
  334SOL    HW1 1901   3.066   2.476   0.040
  334SOL    HW2 1902   3.123   2.567   6.939
  335SOL     OW 1903   3.305   0.037   6.593
  335SOL    HW1 1904   3.250   7.014   6.523
  335SOL    HW2 1905   3.393   0.065   6.554
  336SOL     OW 1906   3.365   0.913   3.521
  336SOL    HW1 1907   3.330   0.887   3.611
  336SOL    HW2 1908   3.387   1.010   3.520
  337SOL     OW 1909   0.088   3.372   5.610
  337SOL    HW1 1910   0.008   3.409   5.657
  337SOL    HW2 1911   0.171   3.412   5.649
  338SOL     OW 1912   2.993   2.147   1.132
  338SOL    HW1 1913   2.895   2.126   1.128
  338SOL    HW2 1914   3.033   2.104   1.213
  339SOL     OW 1915   4.305   5.269   4.798
  339SOL    HW1 1916   4.238   5.287   4.727
  339SOL    HW2 1917   4.274   5.309   4.885
  340SOL     OW 1918   5.221   3.467   4.992
  340SOL    HW1 1919   5.242   3.513   5.078
  340SOL    HW2 1920   5.122   3.465   4.979
  341SOL     OW 1921   5.849   6.780   4.595
  341SOL    HW1 1922   5.785   6.703   4.592
  341SOL    HW2 1923   5.941   6.747   4.573
  342SOL     OW 1924   5.280   3.171   0.365
  342SOL    HW1 1925   5.239   3.127   0.446
  342SOL    HW2 1926   5.361   3.223   0.393
  343SOL     OW 1927   0.316   6.072   2.080
  343SOL    HW1 1928   0.240   6.102   2.136
  343SOL    HW2 1929   0.402   6.108   2.117
  344SOL     OW 1930   1.034   3.464   1.922
  344SOL    HW1 1931   0.958   3.403   1.945
  344SOL    HW2 1932   1.121   3.418   1.942
  345SOL     OW 1933   5.557   2.382   3.582
  345SOL    HW1 1934   5.482   2.444   3.560
  345SOL    HW2 1935   5.559   2.367   3.681
  346SOL     OW 1936   2.202   1.141   2.493
  346SOL    HW1 1937   2.143   1.187   2.560
  346SOL    HW2 1938   2.181   1.043   2.492
  347SOL     OW 1939   3.225   6.176   0.204
  347SOL    HW1 1940   3.145   6.178   0.143
  347SOL    HW2 1941   3.214   6.247   0.275
  348SOL     OW 1942   4.913   4.083   2.863
  348SOL    HW1 1943   4.930   4.055   2.768
  348SOL    HW2 1944   4.927   4.006   2.924
  349SOL     OW 1945   6.946   4.837   1.999
  349SOL    HW1 1946   6.849   4.850   2.020
  349SOL    HW2 1947   6.955   4.783   1.915
  350SOL     OW 1948   2.623   2.096   1.631
  350SOL    HW1 1949   2.657   2.003   1.643
  350SOL    HW2 1950   2.692   2.151   1.584
  351SOL     OW 1951   2.442   3.308   0.623
  351SOL    HW1 1952   2.461   3.248   0.545
  351SOL    HW2 1953   2.431   3.402   0.591
  352SOL     OW 1954   3.442   6.871   3.698
  352SOL    HW1 1955   3.465   6.897   3.791
  352SOL    HW2 1956   3.359   6.816   3.698
  353SOL     OW 1957   3.032   0.161   6.961
  353SOL    HW1 1958   3.047   0.255   6.992
  353SOL    HW2 1959   2.989   0.163   6.870
  354SOL     OW 1960   4.449   2.158   1.783
  354SOL    HW1 1961   4.378   2.227   1.797
  354SOL    HW2 1962   4.439   2.086   1.850
  355SOL     OW 1963   1.800   4.564   3.040
  355SOL    HW1 1964   1.885   4.524   3.073
  355SOL    HW2 1965   1.740   4.582   3.118
  356SOL     OW 1966   2.327   0.837   5.468
  356SOL    HW1 1967   2.291   0.817   5.559
  356SOL    HW2 1968   2.417   0.795   5.457
  357SOL     OW 1969   6.813   6.516   5.332
  357SOL    HW1 1970   6.889   6.534   5.269
  357SOL    HW2 1971   6.847   6.475   5.416
  358SOL     OW 1972   4.658   6.376   0.872
  358SOL    HW1 1973   4.578   6.320   0.892
  358SOL    HW2 1974   4.657   6.457   0.931
  359SOL     OW 1975   2.983   1.835   2.139
  359SOL    HW1 1976   2.927   1.910   2.104
  359SOL    HW2 1977   2.950   1.748   2.103
  360SOL     OW 1978   1.248   4.504   5.408
  360SOL    HW1 1979   1.278   4.435   5.474
  360SOL    HW2 1980   1.182   4.565   5.451
  361SOL     OW 1981   6.883   6.076   3.146
  361SOL    HW1 1982   6.977   6.082   3.179
  361SOL    HW2 1983   6.868   6.143   3.073
  362SOL     OW 1984   3.289   2.669   1.711
  362SOL    HW1 1985   3.315   2.574   1.693
  362SOL    HW2 1986   3.371   2.725   1.717
  363SOL     OW 1987   5.858   4.308   3.226
  363SOL    HW1 1988   5.876   4.321   3.128
  363SOL    HW2 1989   5.945   4.300   3.275
  364SOL     OW 1990   6.801   4.982   6.175
  364SOL    HW1 1991   6.759   5.042   6.108
  364SOL    HW2 1992   6.739   4.968   6.252
  365SOL     OW 1993   5.364   0.297   1.740
  365SOL    HW1 1994   5.343   0.201   1.762
  365SOL    HW2 1995   5.414   0.338   1.816
  366SOL     OW 1996   5.521   2.012   6.859
  366SOL    HW1 1997   5.517   1.967   6.770
  366SOL    HW2 1998   5.440   1.987   6.913
  367SOL     OW 1999   6.144   2.883   0.974
  367SOL    HW1 2000   6.173   2.864   0.880
  367SOL    HW2 2001   6.217   2.856   1.037
  368SOL     OW 2002   0.838   2.674   5.307
  368SOL    HW1 2003   0.914   2.660   5.244
  368SOL    HW2 2004   0.873   2.682   5.400
  369SOL     OW 2005   5.717   5.342   2.169
  369SOL    HW1 2006   5.719   5.265   2.233
  369SOL    HW2 2007   5.683   5.424   2.216
  370SOL     OW 2008   1.302   1.742   4.491
  370SOL    HW1 2009   1.218   1.697   4.460
  370SOL    HW2 2010   1.337   1.695   4.571
  371SOL     OW 2011   1.810   4.594   6.475
  371SOL    HW1 2012   1.766   4.681   6.452
  371SOL    HW2 2013   1.883   4.611   6.542
  372SOL     OW 2014   2.124   6.732   5.938
  372SOL    HW1 2015   2.086   6.786   6.013
  372SOL    HW2 2016   2.129   6.636   5.965
  373SOL     OW 2017   5.637   5.896   5.071
  373SOL    HW1 2018   5.562   5.830   5.077
  373SOL    HW2 2019   5.714   5.864   5.126
  374SOL     OW 2020   2.335   2.287   3.594
  374SOL    HW1 2021   2.255   2.241   3.632
  374SOL    HW2 2022   2.417   2.234   3.616
  375SOL     OW 2023   0.604   4.503   4.120
  375SOL    HW1 2024   0.675   4.571   4.105
  375SOL    HW2 2025   0.529   4.545   4.171
  376SOL     OW 2026   1.148   1.255   5.011
  376SOL    HW1 2027   1.090   1.174   5.014
  376SOL    HW2 2028   1.213   1.246   4.935
  377SOL     OW 2029   1.343   1.647   0.319
  377SOL    HW1 2030   1.391   1.578   0.373
  377SOL    HW2 2031   1.408   1.718   0.291
  378SOL     OW 2032   4.486   1.945   0.286
  378SOL    HW1 2033   4.390   1.924   0.305
  378SOL    HW2 2034   4.506   2.038   0.317
  379SOL     OW 2035   5.953   2.191   0.823
  379SOL    HW1 2036   5.864   2.149   0.806
  379SOL    HW2 2037   5.942   2.289   0.836
  380SOL     OW 2038   3.237   1.206   0.831
  380SOL    HW1 2039   3.307   1.201   0.903
  380SOL    HW2 2040   3.162   1.144   0.855
  381SOL     OW 2041   1.751   3.958   3.688
  381SOL    HW1 2042   1.797   4.001   3.766
  381SOL    HW2 2043   1.765   3.859   3.691
  382SOL     OW 2044   5.879   0.714   0.715
  382SOL    HW1 2045   5.979   0.723   0.721
  382SOL    HW2 2046   5.852   0.715   0.619
  383SOL     OW 2047   3.599   3.258   6.545
  383SOL    HW1 2048   3.623   3.184   6.607
  383SOL    HW2 2049   3.681   3.288   6.495
  384SOL     OW 2050   6.402   5.436   4.533
  384SOL    HW1 2051   6.306   5.420   4.510
  384SOL    HW2 2052   6.450   5.471   4.452
  385SOL     OW 2053   3.124   4.707   5.294
  385SOL    HW1 2054   3.169   4.638   5.351
  385SOL    HW2 2055   3.047   4.665   5.245
  386SOL     OW 2056   3.048   6.343   4.074
  386SOL    HW1 2057   3.069   6.328   4.170
  386SOL    HW2 2058   2.952   6.370   4.064
  387SOL     OW 2059   1.248   6.200   3.006
  387SOL    HW1 2060   1.247   6.158   3.096
  387SOL    HW2 2061   1.252   6.129   2.936
  388SOL     OW 2062   1.180   2.358   5.781
  388SOL    HW1 2063   1.120   2.298   5.728
  388SOL    HW2 2064   1.224   2.305   5.853
  389SOL     OW 2065   3.918   3.958   1.715
  389SOL    HW1 2066   3.962   4.032   1.663
  389SOL    HW2 2067   3.883   3.994   1.801
  390SOL     OW 2068   2.640   1.758   2.268
  390SOL    HW1 2069   2.696   1.815   2.328
  390SOL    HW2 2070   2.580   1.701   2.323
  391SOL     OW 2071   2.353   2.104   6.421
  391SOL    HW1 2072   2.364   2.103   6.521
  391SOL    HW2 2073   2.387   2.190   6.385
  392SOL     OW 2074   1.554   4.965   0.650
  392SOL    HW1 2075   1.479   4.915   0.607
  392SOL    HW2 2076   1.553   4.948   0.749
  393SOL     OW 2077   1.386   4.315   6.479
  393SOL    HW1 2078   1.302   4.340   6.526
  393SOL    HW2 2079   1.401   4.216   6.488
  394SOL     OW 2080   6.907   1.860   0.292
  394SOL    HW1 2081   6.811   1.870   0.318
  394SOL    HW2 2082   6.962   1.928   0.342
  395SOL     OW 2083   4.807   3.725   2.772
  395SOL    HW1 2084   4.864   3.735   2.690
  395SOL    HW2 2085   4.737   3.655   2.756
  396SOL     OW 2086   3.767   4.147   1.423
  396SOL    HW1 2087   3.859   4.150   1.462
  396SOL    HW2 2088   3.746   4.054   1.394
  397SOL     OW 2089   4.929   1.742   6.138
  397SOL    HW1 2090   4.953   1.838   6.151
  397SOL    HW2 2091   4.837   1.726   6.175
  398SOL     OW 2092   0.501   6.252   2.472
  398SOL    HW1 2093   0.436   6.308   2.420
  398SOL    HW2 2094   0.523   6.297   2.558
  399SOL     OW 2095   6.096   6.252   2.097
  399SOL    HW1 2096   6.012   6.198   2.088
  399SOL    HW2 2097   6.074   6.349   2.092
  400SOL     OW 2098   6.466   6.701   5.740
  400SOL    HW1 2099   6.477   6.784   5.794
  400SOL    HW2 2100   6.368   6.684   5.726
  401SOL     OW 2101   5.090   0.537   5.620
  401SOL    HW1 2102   5.145   0.595   5.680
  401SOL    HW2 2103   4.998   0.576   5.611
  402SOL     OW 2104   5.647   6.904   3.036
  402SOL    HW1 2105   5.577   6.974   3.054
  402SOL    HW2 2106   5.603   6.816   3.021
  403SOL     OW 2107   4.072   2.104   4.128
  403SOL    HW1 2108   4.110   2.012   4.121
  403SOL    HW2 2109   3.981   2.106   4.088
  404SOL     OW 2110   1.022   5.368   4.766
  404SOL    HW1 2111   0.933   5.399   4.801
  404SOL    HW2 2112   1.074   5.447   4.735
  405SOL     OW 2113   1.826   3.668   1.844
  405SOL    HW1 2114   1.897   3.607   1.878
  405SOL    HW2 2115   1.789   3.633   1.758
  406SOL     OW 2116   0.955   4.601   4.753
  406SOL    HW1 2117   0.929   4.521   4.805
  406SOL    HW2 2118   0.881   4.668   4.754
  407SOL     OW 2119   1.090   0.804   3.816
  407SOL    HW1 2120   1.055   0.890   3.778
  407SOL    HW2 2121   1.105   0.739   3.742
  408SOL     OW 2122   0.958   2.629   2.592
  408SOL    HW1 2123   0.998   2.697   2.531
  408SOL    HW2 2124   0.956   2.666   2.685
  409SOL     OW 2125   0.139   3.123   1.582
  409SOL    HW1 2126   0.197   3.178   1.643
  409SOL    HW2 2127   0.129   3.169   1.494
  410SOL     OW 2128   1.810   1.571   1.579
  410SOL    HW1 2129   1.780   1.635   1.650
  410SOL    HW2 2130   1.909   1.580   1.566
  411SOL     OW 2131   5.444   0.229   1.293
  411SOL    HW1 2132   5.391   0.308   1.322
  411SOL    HW2 2133   5.448   0.227   1.193
  412SOL     OW 2134   4.486   5.878   3.770
  412SOL    HW1 2135   4.474   5.911   3.863
  412SOL    HW2 2136   4.555   5.806   3.768
  413SOL     OW 2137   5.132   4.095   1.877
  413SOL    HW1 2138   5.044   4.139   1.862
  413SOL    HW2 2139   5.153   4.034   1.800
  414SOL     OW 2140   3.435   5.723   3.572
  414SOL    HW1 2141   3.363   5.667   3.613
  414SOL    HW2 2142   3.491   5.666   3.511
  415SOL     OW 2143   0.728   5.963   6.741
  415SOL    HW1 2144   0.643   5.979   6.791
  415SOL    HW2 2145   0.800   5.935   6.805
  416SOL     OW 2146   5.002   6.104   4.129
  416SOL    HW1 2147   5.080   6.123   4.188
  416SOL    HW2 2148   4.918   6.134   4.173
  417SOL     OW 2149   3.059   5.515   0.190
  417SOL    HW1 2150   3.011   5.573   0.254
  417SOL    HW2 2151   2.995   5.450   0.149
  418SOL     OW 2152   3.975   6.505   0.649
  418SOL    HW1 2153   3.878   6.487   0.630
  418SOL    HW2 2154   4.029   6.424   0.625
  419SOL     OW 2155   1.982   0.448   2.061
  419SOL    HW1 2156   2.068   0.433   2.011
  419SOL    HW2 2157   1.930   0.520   2.016
  420SOL     OW 2158   5.089   1.210   6.911
  420SOL    HW1 2159   5.092   1.117   6.874
  420SOL    HW2 2160   5.078   1.275   6.836
  421SOL     OW 2161   6.672   4.017   5.966
  421SOL    HW1 2162   6.697   3.920   5.966
  421SOL    HW2 2163   6.709   4.061   5.884
  422SOL     OW 2164   5.876   3.354   1.313
  422SOL    HW1 2165   5.844   3.336   1.220
  422SOL    HW2 2166   5.961   3.304   1.329
  423SOL     OW 2167   1.096   2.048   6.533
  423SOL    HW1 2168   1.116   1.951   6.519
  423SOL    HW2 2169   1.004   2.057   6.571
  424SOL     OW 2170   2.112   4.650   1.188
  424SOL    HW1 2171   2.182   4.656   1.259
  424SOL    HW2 2172   2.141   4.586   1.117
  425SOL     OW 2173   5.683   1.927   3.369
  425SOL    HW1 2174   5.595   1.938   3.324
  425SOL    HW2 2175   5.675   1.860   3.443
  426SOL     OW 2176   3.969   1.908   4.669
  426SOL    HW1 2177   3.909   1.867   4.600
  426SOL    HW2 2178   4.040   1.961   4.623
  427SOL     OW 2179   4.796   6.057   3.241
  427SOL    HW1 2180   4.786   5.963   3.273
  427SOL    HW2 2181   4.860   6.106   3.300
  428SOL     OW 2182   4.017   0.437   4.827
  428SOL    HW1 2183   4.098   0.386   4.799
  428SOL    HW2 2184   3.964   0.464   4.746
  429SOL     OW 2185   1.213   3.491   1.161
  429SOL    HW1 2186   1.305   3.523   1.139
  429SOL    HW2 2187   1.146   3.539   1.104
  430SOL     OW 2188   0.466   0.731   5.369
  430SOL    HW1 2189   0.372   0.736   5.333
  430SOL    HW2 2190   0.492   0.635   5.382
  431SOL     OW 2191   3.280   0.018   0.734
  431SOL    HW1 2192   3.256   6.952   0.776
  431SOL    HW2 2193   3.326   0.075   0.803
  432SOL     OW 2194   6.629   1.561   0.655
  432SOL    HW1 2195   6.560   1.634   0.657
  432SOL    HW2 2196   6.634   1.522   0.563
  433SOL     OW 2197   2.588   6.537   4.980
  433SOL    HW1 2198   2.626   6.591   4.904
  433SOL    HW2 2199   2.488   6.546   4.981
  434SOL     OW 2200   3.231   6.169   2.954
  434SOL    HW1 2201   3.325   6.172   2.920
  434SOL    HW2 2202   3.199   6.074   2.952
  435SOL     OW 2203   5.061   3.084   6.851
  435SOL    HW1 2204   5.086   3.075   6.947
  435SOL    HW2 2205   5.138   3.058   6.793
  436SOL     OW 2206   2.586   6.234   1.213
  436SOL    HW1 2207   2.537   6.168   1.156
  436SOL    HW2 2208   2.520   6.297   1.255
  437SOL     OW 2209   1.496   1.208   0.547
  437SOL    HW1 2210   1.396   1.219   0.543
  437SOL    HW2 2211   1.517   1.126   0.601
  438SOL     OW 2212   1.584   4.170   3.510
  438SOL    HW1 2213   1.609   4.212   3.423
  438SOL    HW2 2214   1.661   4.177   3.573
  439SOL     OW 2215   5.783   5.224   2.582
  439SOL    HW1 2216   5.828   5.172   2.509
  439SOL    HW2 2217   5.697   5.180   2.607
  440SOL     OW 2218   1.757   1.346   4.913
  440SOL    HW1 2219   1.786   1.384   4.825
  440SOL    HW2 2220   1.807   1.391   4.987
  441SOL     OW 2221   0.887   2.641   4.105
  441SOL    HW1 2222   0.932   2.728   4.123
  441SOL    HW2 2223   0.892   2.621   4.007
  442SOL     OW 2224   3.560   5.479   5.916
  442SOL    HW1 2225   3.587   5.408   5.850
  442SOL    HW2 2226   3.470   5.457   5.953
  443SOL     OW 2227   6.126   4.275   4.517
  443SOL    HW1 2228   6.060   4.253   4.589
  443SOL    HW2 2229   6.168   4.363   4.535
  444SOL     OW 2230   4.730   1.164   5.835
  444SOL    HW1 2231   4.769   1.073   5.823
  444SOL    HW2 2232   4.757   1.201   5.924
  445SOL     OW 2233   0.674   5.843   2.836
  445SOL    HW1 2234   0.609   5.864   2.909
  445SOL    HW2 2235   0.765   5.831   2.876
  446SOL     OW 2236   3.293   5.550   3.735
  446SOL    HW1 2237   3.214   5.612   3.736
  446SOL    HW2 2238   3.262   5.457   3.753
  447SOL     OW 2239   0.359   2.596   5.897
  447SOL    HW1 2240   0.344   2.571   5.992
  447SOL    HW2 2241   0.457   2.605   5.879
  448SOL     OW 2242   1.978   0.448   3.203
  448SOL    HW1 2243   1.975   0.546   3.180
  448SOL    HW2 2244   2.000   0.395   3.121
  449SOL     OW 2245   4.053   1.379   3.666
  449SOL    HW1 2246   4.091   1.468   3.643
  449SOL    HW2 2247   4.112   1.332   3.732
  450SOL     OW 2248   1.638   5.614   3.139
  450SOL    HW1 2249   1.682   5.525   3.141
  450SOL    HW2 2250   1.551   5.608   3.089
  451SOL     OW 2251   1.537   2.190   3.526
  451SOL    HW1 2252   1.534   2.124   3.451
  451SOL    HW2 2253   1.532   2.283   3.489
  452SOL     OW 2254   5.835   6.578   0.989
  452SOL    HW1 2255   5.875   6.663   0.954
  452SOL    HW2 2256   5.794   6.596   1.078
  453SOL     OW 2257   3.790   1.023   5.692
  453SOL    HW1 2258   3.703   1.066   5.671
  453SOL    HW2 2259   3.782   0.924   5.680
  454SOL     OW 2260   6.630   4.428   6.227
  454SOL    HW1 2261   6.614   4.449   6.131
  454SOL    HW2 2262   6.585   4.342   6.251
  455SOL     OW 2263   6.068   2.219   3.372
  455SOL    HW1 2264   6.054   2.125   3.405
  455SOL    HW2 2265   6.070   2.282   3.450
  456SOL     OW 2266   6.436   6.599   3.891
  456SOL    HW1 2267   6.443   6.503   3.920
  456SOL    HW2 2268   6.365   6.607   3.821
  457SOL     OW 2269   1.668   1.868   3.839
  457SOL    HW1 2270   1.622   1.874   3.928
  457SOL    HW2 2271   1.603   1.840   3.769
  458SOL     OW 2272   4.111   5.872   3.054
  458SOL    HW1 2273   4.018   5.894   3.084
  458SOL    HW2 2274   4.145   5.794   3.107
  459SOL     OW 2275   1.746   6.292   5.391
  459SOL    HW1 2276   1.794   6.368   5.435
  459SOL    HW2 2277   1.812   6.233   5.344
  460SOL     OW 2278   2.039   6.763   3.960
  460SOL    HW1 2279   1.992   6.838   3.912
  460SOL    HW2 2280   2.021   6.677   3.912
  461SOL     OW 2281   6.288   6.360   6.363
  461SOL    HW1 2282   6.347   6.425   6.314
  461SOL    HW2 2283   6.269   6.394   6.455
  462SOL     OW 2284   3.821   3.357   6.806
  462SOL    HW1 2285   3.757   3.433   6.788
  462SOL    HW2 2286   3.907   3.394   6.839
  463SOL     OW 2287   5.484   6.082   3.545
  463SOL    HW1 2288   5.424   6.050   3.471
  463SOL    HW2 2289   5.478   6.020   3.623
  464SOL     OW 2290   2.956   1.652   5.146
  464SOL    HW1 2291   2.997   1.709   5.217
  464SOL    HW2 2292   2.894   1.585   5.188
  465SOL     OW 2293   0.870   3.051   6.892
  465SOL    HW1 2294   0.888   2.990   6.969
  465SOL    HW2 2295   0.935   3.127   6.893
  466SOL     OW 2296   0.817   6.725   3.010
  466SOL    HW1 2297   0.899   6.688   2.967
  466SOL    HW2 2298   0.737   6.701   2.954
  467SOL     OW 2299   2.113   1.139   0.814
  467SOL    HW1 2300   2.183   1.210   0.829
  467SOL    HW2 2301   2.131   1.061   0.873
  468SOL     OW 2302   3.599   0.133   6.434
  468SOL    HW1 2303   3.589   0.228   6.465
  468SOL    HW2 2304   3.687   0.123   6.386
  469SOL     OW 2305   2.848   2.999   6.582
  469SOL    HW1 2306   2.946   3.002   6.561
  469SOL    HW2 2307   2.813   3.092   6.590
  470SOL     OW 2308   4.477   6.557   1.567
  470SOL    HW1 2309   4.445   6.468   1.536
  470SOL    HW2 2310   4.574   6.568   1.542
  471SOL     OW 2311   2.658   2.397   3.746
  471SOL    HW1 2312   2.758   2.387   3.744
  471SOL    HW2 2313   2.633   2.491   3.724
  472SOL     OW 2314   4.609   3.331   6.672
  472SOL    HW1 2315   4.633   3.239   6.704
  472SOL    HW2 2316   4.510   3.337   6.661
  473SOL     OW 2317   1.076   3.081   2.686
  473SOL    HW1 2318   1.002   3.066   2.752
  473SOL    HW2 2319   1.112   2.993   2.655
  474SOL     OW 2320   5.234   5.112   4.337
  474SOL    HW1 2321   5.285   5.075   4.415
  474SOL    HW2 2322   5.296   5.121   4.259
  475SOL     OW 2323   5.580   1.177   6.332
  475SOL    HW1 2324   5.638   1.145   6.407
  475SOL    HW2 2325   5.574   1.106   6.262
  476SOL     OW 2326   0.476   3.398   3.331
  476SOL    HW1 2327   0.571   3.397   3.300
  476SOL    HW2 2328   0.452   3.308   3.367
  477SOL     OW 2329   2.310   6.283   3.695
  477SOL    HW1 2330   2.247   6.235   3.755
  477SOL    HW2 2331   2.276   6.376   3.678
  478SOL     OW 2332   3.457   6.050   2.080
  478SOL    HW1 2333   3.389   5.978   2.066
  478SOL    HW2 2334   3.413   6.139   2.068
  479SOL     OW 2335   4.206   1.484   5.782
  479SOL    HW1 2336   4.259   1.421   5.726
  479SOL    HW2 2337   4.262   1.564   5.804
  480SOL     OW 2338   2.873   0.750   6.826
  480SOL    HW1 2339   2.775   0.748   6.845
  480SOL    HW2 2340   2.901   0.662   6.786
  481SOL     OW 2341   2.014   6.846   1.324
  481SOL    HW1 2342   1.972   6.924   1.277
  481SOL    HW2 2343   1.973   6.761   1.290
  482SOL     OW 2344   4.066   4.805   2.295
  482SOL    HW1 2345   3.980   4.808   2.243
  482SOL    HW2 2346   4.047   4.797   2.392
  483SOL     OW 2347   6.241   2.035   2.297
  483SOL    HW1 2348   6.217   1.937   2.295
  483SOL    HW2 2349   6.340   2.045   2.307
  484SOL     OW 2350   2.151   3.613   4.832
  484SOL    HW1 2351   2.138   3.711   4.815
  484SOL    HW2 2352   2.080   3.561   4.785
  485SOL     OW 2353   4.251   5.559   3.134
  485SOL    HW1 2354   4.337   5.607   3.114
  485SOL    HW2 2355   4.237   5.487   3.067
  486SOL     OW 2356   6.956   1.345   0.160
  486SOL    HW1 2357   7.021   1.390   0.220
  486SOL    HW2 2358   6.936   1.253   0.195
  487SOL     OW 2359   0.634   0.664   2.856
  487SOL    HW1 2360   0.621   0.618   2.944
  487SOL    HW2 2361   0.554   0.720   2.836
  488SOL     OW 2362   0.809   1.453   1.958
  488SOL    HW1 2363   0.879   1.493   1.898
  488SOL    HW2 2364   0.722   1.501   1.944
  489SOL     OW 2365   4.033   6.133   6.215
  489SOL    HW1 2366   3.982   6.216   6.241
  489SOL    HW2 2367   3.996   6.097   6.129
  490SOL     OW 2368   0.339   5.986   2.978
  490SOL    HW1 2369   0.256   5.997   3.032
  490SOL    HW2 2370   0.341   6.055   2.905
  491SOL     OW 2371   1.040   3.511   2.378
  491SOL    HW1 2372   1.026   3.496   2.280
  491SOL    HW2 2373   0.982   3.586   2.409
  492SOL     OW 2374   1.570   0.476   4.706
  492SOL    HW1 2375   1.472   0.482   4.686
  492SOL    HW2 2376   1.584   0.482   4.805
  493SOL     OW 2377   4.975   6.288   5.711
  493SOL    HW1 2378   4.946   6.193   5.723
  493SOL    HW2 2379   5.053   6.306   5.771
  494SOL     OW 2380   0.442   6.842   0.209
  494SOL    HW1 2381   0.411   6.821   0.117
  494SOL    HW2 2382   0.533   6.803   0.223
  495SOL     OW 2383   4.767   5.864   3.951
  495SOL    HW1 2384   4.749   5.807   3.871
  495SOL    HW2 2385   4.845   5.826   4.001
  496SOL     OW 2386   4.885   3.066   1.733
  496SOL    HW1 2387   4.964   3.004   1.739
  496SOL    HW2 2388   4.828   3.056   1.814
  497SOL     OW 2389   2.931   1.594   4.255
  497SOL    HW1 2390   2.872   1.671   4.280
  497SOL    HW2 2391   2.999   1.580   4.327
  498SOL     OW 2392   1.058   4.360   1.620
  498SOL    HW1 2393   0.959   4.347   1.620
  498SOL    HW2 2394   1.103   4.276   1.651
  499SOL     OW 2395   1.760   6.160   4.447
  499SOL    HW1 2396   1.754   6.071   4.494
  499SOL    HW2 2397   1.735   6.149   4.351
  500SOL     OW 2398   0.472   2.733   5.371
  500SOL    HW1 2399   0.424   2.774   5.293
  500SOL    HW2 2400   0.529   2.658   5.339
  501SOL     OW 2401   3.061   6.049   1.056
  501SOL    HW1 2402   3.048   6.053   0.957
  501SOL    HW2 2403   3.059   5.954   1.087
  502SOL     OW 2404   0.929   3.912   6.577
  502SOL    HW1 2405   0.935   3.853   6.657
  502SOL    HW2 2406   0.837   3.908   6.539
  503SOL     OW 2407   0.456   5.332   6.749
  503SOL    HW1 2408   0.528   5.375   6.804
  503SOL    HW2 2409   0.464   5.233   6.756
  504SOL     OW 2410   1.373   4.928   2.884
  504SOL    HW1 2411   1.352   4.879   2.969
  504SOL    HW2 2412   1.467   4.961   2.887
  505SOL     OW 2413   2.926   6.152   5.266
  505SOL    HW1 2414   2.881   6.136   5.178
  505SOL    HW2 2415   2.875   6.104   5.338
  506SOL     OW 2416   2.887   4.866   4.134
  506SOL    HW1 2417   2.809   4.807   4.154
  506SOL    HW2 2418   2.967   4.835   4.184
  507SOL     OW 2419   3.386   6.927   3.417
  507SOL    HW1 2420   3.331   6.880   3.348
  507SOL    HW2 2421   3.372   6.884   3.506
  508SOL     OW 2422   6.724   3.376   2.616
  508SOL    HW1 2423   6.754   3.429   2.537
  508SOL    HW2 2424   6.645   3.320   2.591
  509SOL     OW 2425   2.914   1.166   0.967
  509SOL    HW1 2426   2.945   1.101   1.036
  509SOL    HW2 2427   2.917   1.123   0.877
  510SOL     OW 2428   6.223   4.284   6.847
  510SOL    HW1 2429   6.250   4.378   6.824
  510SOL    HW2 2430   6.299   4.238   6.892
  511SOL     OW 2431   1.085   2.212   6.103
  511SOL    HW1 2432   1.121   2.195   6.011
  511SOL    HW2 2433   1.146   2.171   6.171
  512SOL     OW 2434   6.359   2.861   6.667
  512SOL    HW1 2435   6.448   2.852   6.622
  512SOL    HW2 2436   6.309   2.775   6.660
  513SOL     OW 2437   5.879   6.833   3.135
  513SOL    HW1 2438   5.935   6.831   3.052
  513SOL    HW2 2439   5.788   6.867   3.113
  514SOL     OW 2440   6.160   1.541   4.244
  514SOL    HW1 2441   6.253   1.563   4.273
  514SOL    HW2 2442   6.154   1.444   4.221
  515SOL     OW 2443   0.730   0.207   6.654
  515SOL    HW1 2444   0.630   0.212   6.663
  515SOL    HW2 2445   0.770   0.185   6.743
  516SOL     OW 2446   2.960   4.805   2.207
  516SOL    HW1 2447   2.898   4.881   2.192
  516SOL    HW2 2448   2.952   4.739   2.132
  517SOL     OW 2449   4.473   5.520   1.275
  517SOL    HW1 2450   4.388   5.569   1.253
  517SOL    HW2 2451   4.548   5.585   1.284
  518SOL     OW 2452   2.941   2.219   3.745
  518SOL    HW1 2453   3.015   2.206   3.812
  518SOL    HW2 2454   2.966   2.173   3.660
  519SOL     OW 2455   0.431   6.702   4.660
  519SOL    HW1 2456   0.528   6.711   4.641
  519SOL    HW2 2457   0.381   6.775   4.614
  520SOL     OW 2458   5.721   3.804   6.975
  520SOL    HW1 2459   5.716   3.708   7.000
  520SOL    HW2 2460   5.754   3.858   0.030
  521SOL     OW 2461   6.356   5.302   5.174
  521SOL    HW1 2462   6.261   5.285   5.200
  521SOL    HW2 2463   6.364   5.393   5.133
  522SOL     OW 2464   3.351   3.368   4.631
  522SOL    HW1 2465   3.386   3.440   4.570
  522SOL    HW2 2466   3.290   3.409   4.699
  523SOL     OW 2467   0.633   5.952   1.711
  523SOL    HW1 2468   0.599   5.975   1.619
  523SOL    HW2 2469   0.556   5.938   1.773
  524SOL     OW 2470   0.291   2.077   2.416
  524SOL    HW1 2471   0.368   2.068   2.480
  524SOL    HW2 2472   0.282   2.173   2.388
  525SOL     OW 2473   1.936   3.428   5.623
  525SOL    HW1 2474   1.852   3.380   5.596
  525SOL    HW2 2475   1.914   3.523   5.645
  526SOL     OW 2476   4.046   6.234   3.925
  526SOL    HW1 2477   4.060   6.303   3.997
  526SOL    HW2 2478   4.075   6.272   3.837
  527SOL     OW 2479   5.875   2.566   0.365
  527SOL    HW1 2480   5.911   2.649   0.322
  527SOL    HW2 2481   5.937   2.536   0.437
  528SOL     OW 2482   0.679   2.457   3.539
  528SOL    HW1 2483   0.714   2.413   3.456
  528SOL    HW2 2484   0.714   2.408   3.619
  529SOL     OW 2485   1.308   6.774   5.110
  529SOL    HW1 2486   1.266   6.854   5.067
  529SOL    HW2 2487   1.379   6.737   5.050
  530SOL     OW 2488   3.564   3.372   4.326
  530SOL    HW1 2489   3.611   3.351   4.412
  530SOL    HW2 2490   3.476   3.325   4.324
  531SOL     OW 2491   0.563   1.652   3.208
  531SOL    HW1 2492   0.633   1.724   3.210
  531SOL    HW2 2493   0.525   1.640   3.300
  532SOL     OW 2494   0.581   3.156   6.552
  532SOL    HW1 2495   0.665   3.109   6.527
  532SOL    HW2 2496   0.513   3.144   6.479
  533SOL     OW 2497   4.090   6.462   4.063
  533SOL    HW1 2498   3.999   6.494   4.089
  533SOL    HW2 2499   4.142   6.538   4.024
  534SOL     OW 2500   5.311   6.418   2.147
  534SOL    HW1 2501   5.350   6.359   2.217
  534SOL    HW2 2502   5.274   6.501   2.189
  535SOL     OW 2503   0.222   3.208   5.085
  535SOL    HW1 2504   0.309   3.187   5.129
  535SOL    HW2 2505   0.200   3.136   5.019
  536SOL     OW 2506   6.396   5.352   1.909
  536SOL    HW1 2507   6.457   5.293   1.962
  536SOL    HW2 2508   6.304   5.313   1.908
  537SOL     OW 2509   2.548   6.759   4.261
  537SOL    HW1 2510   2.486   6.815   4.315
  537SOL    HW2 2511   2.633   6.810   4.244
  538SOL     OW 2512   0.837   4.880   3.230
  538SOL    HW1 2513   0.879   4.958   3.277
  538SOL    HW2 2514   0.893   4.798   3.247
  539SOL     OW 2515   1.642   5.631   0.984
  539SOL    HW1 2516   1.581   5.670   1.052
  539SOL    HW2 2517   1.597   5.554   0.939
  540SOL     OW 2518   1.510   0.775   3.146
  540SOL    HW1 2519   1.489   0.794   3.050
  540SOL    HW2 2520   1.521   0.861   3.195
  541SOL     OW 2521   5.006   5.811   4.120
  541SOL    HW1 2522   5.022   5.910   4.126
  541SOL    HW2 2523   5.020   5.770   4.210
  542SOL     OW 2524   5.951   6.248   6.546
  542SOL    HW1 2525   5.957   6.318   6.475
  542SOL    HW2 2526   5.871   6.191   6.529
  543SOL     OW 2527   1.096   3.390   5.065
  543SOL    HW1 2528   1.136   3.353   5.150
  543SOL    HW2 2529   1.014   3.338   5.041
  544SOL     OW 2530   2.204   4.458   0.128
  544SOL    HW1 2531   2.128   4.393   0.122
  544SOL    HW2 2532   2.285   4.417   0.087
  545SOL     OW 2533   2.927   1.496   1.678
  545SOL    HW1 2534   2.895   1.485   1.584
  545SOL    HW2 2535   2.979   1.415   1.706
  546SOL     OW 2536   2.186   2.795   0.736
  546SOL    HW1 2537   2.189   2.710   0.789
  546SOL    HW2 2538   2.174   2.773   0.639
  547SOL     OW 2539   3.414   0.615   0.392
  547SOL    HW1 2540   3.380   0.611   0.486
  547SOL    HW2 2541   3.498   0.669   0.389
  548SOL     OW 2542   3.623   3.827   2.337
  548SOL    HW1 2543   3.569   3.902   2.376
  548SOL    HW2 2544   3.563   3.754   2.307
  549SOL     OW 2545   5.077   2.986   1.341
  549SOL    HW1 2546   5.033   2.901   1.371
  549SOL    HW2 2547   5.059   3.057   1.409
  550SOL     OW 2548   0.268   5.644   3.770
  550SOL    HW1 2549   0.193   5.610   3.713
  550SOL    HW2 2550   0.230   5.688   3.851
  551SOL     OW 2551   0.538   0.354   2.883
  551SOL    HW1 2552   0.619   0.355   2.826
  551SOL    HW2 2553   0.550   0.418   2.959
  552SOL     OW 2554   5.509   4.595   6.979
  552SOL    HW1 2555   5.471   4.517   0.006
  552SOL    HW2 2556   5.568   4.562   6.905
  553SOL     OW 2557   2.652   6.538   2.400
  553SOL    HW1 2558   2.684   6.555   2.493
  553SOL    HW2 2559   2.607   6.620   2.365
  554SOL     OW 2560   5.626   0.013   6.589
  554SOL    HW1 2561   5.709   0.056   6.552
  554SOL    HW2 2562   5.635   6.936   6.585
  555SOL     OW 2563   1.980   5.316   3.759
  555SOL    HW1 2564   1.892   5.363   3.762
  555SOL    HW2 2565   2.048   5.369   3.809
  556SOL     OW 2566   4.508   2.571   3.318
  556SOL    HW1 2567   4.501   2.667   3.342
  556SOL    HW2 2568   4.543   2.561   3.225
  557SOL     OW 2569   0.462   5.027   0.632
  557SOL    HW1 2570   0.516   5.099   0.588
  557SOL    HW2 2571   0.368   5.032   0.599
  558SOL     OW 2572   3.077   3.371   4.447
  558SOL    HW1 2573   3.015   3.347   4.372
  558SOL    HW2 2574   3.077   3.298   4.514
  559SOL     OW 2575   6.659   5.912   0.046
  559SOL    HW1 2576   6.641   5.983   7.000
  559SOL    HW2 2577   6.580   5.850   0.049
  560SOL     OW 2578   4.874   4.927   6.783
  560SOL    HW1 2579   4.971   4.953   6.784
  560SOL    HW2 2580   4.866   4.830   6.760
  561SOL     OW 2581   0.440   1.403   0.949
  561SOL    HW1 2582   0.524   1.443   0.985
  561SOL    HW2 2583   0.398   1.466   0.884
  562SOL     OW 2584   5.197   0.387   5.997
  562SOL    HW1 2585   5.120   0.445   6.024
  562SOL    HW2 2586   5.162   0.303   5.954
  563SOL     OW 2587   2.252   0.976   3.734
  563SOL    HW1 2588   2.219   1.018   3.649
  563SOL    HW2 2589   2.307   0.895   3.712
  564SOL     OW 2590   1.357   1.970   0.212
  564SOL    HW1 2591   1.334   2.038   0.143
  564SOL    HW2 2592   1.273   1.931   0.250
  565SOL     OW 2593   3.888   2.967   5.126
  565SOL    HW1 2594   3.844   2.963   5.036
  565SOL    HW2 2595   3.818   2.983   5.196
  566SOL     OW 2596   6.836   5.122   3.744
  566SOL    HW1 2597   6.849   5.024   3.752
  566SOL    HW2 2598   6.766   5.141   3.674
  567SOL     OW 2599   2.989   2.858   1.587
  567SOL    HW1 2600   2.980   2.762   1.615
  567SOL    HW2 2601   3.050   2.905   1.651
  568SOL     OW 2602   4.809   1.461   0.094
  568SOL    HW1 2603   4.898   1.450   0.139
  568SOL    HW2 2604   4.737   1.429   0.155
  569SOL     OW 2605   1.918   2.923   6.355
  569SOL    HW1 2606   1.960   2.834   6.374
  569SOL    HW2 2607   1.888   2.965   6.441
  570SOL     OW 2608   2.931   6.584   6.791
  570SOL    HW1 2609   2.978   6.562   6.706
  570SOL    HW2 2610   2.927   6.683   6.802
  571SOL     OW 2611   3.208   0.363   1.948
  571SOL    HW1 2612   3.130   0.426   1.944
  571SOL    HW2 2613   3.254   0.372   2.036
  572SOL     OW 2614   2.977   4.751   5.652
  572SOL    HW1 2615   2.941   4.808   5.725
  572SOL    HW2 2616   2.944   4.785   5.564
  573SOL     OW 2617   5.271   1.969   5.665
  573SOL    HW1 2618   5.223   1.912   5.732
  573SOL    HW2 2619   5.348   2.014   5.710
  574SOL     OW 2620   3.341   1.687   4.217
  574SOL    HW1 2621   3.387   1.611   4.263
  574SOL    HW2 2622   3.388   1.706   4.131
  575SOL     OW 2623   5.114   3.682   0.590
  575SOL    HW1 2624   5.198   3.682   0.536
  575SOL    HW2 2625   5.072   3.772   0.587
  576SOL     OW 2626   1.068   2.345   2.930
  576SOL    HW1 2627   1.032   2.323   2.839
  576SOL    HW2 2628   0.991   2.359   2.993
  577SOL     OW 2629   1.080   1.184   2.373
  577SOL    HW1 2630   1.090   1.174   2.274
  577SOL    HW2 2631   1.159   1.144   2.419
  578SOL     OW 2632   5.779   5.410   3.491
  578SOL    HW1 2633   5.757   5.346   3.565
  578SOL    HW2 2634   5.697   5.430   3.438
  579SOL     OW 2635   1.864   2.819   2.832
  579SOL    HW1 2636   1.828   2.728   2.814
  579SOL    HW2 2637   1.892   2.826   2.928
  580SOL     OW 2638   6.757   5.057   7.010
  580SOL    HW1 2639   6.761   5.069   0.087
  580SOL    HW2 2640   6.816   5.124   6.966
  581SOL     OW 2641   2.885   3.276   2.119
  581SOL    HW1 2642   2.802   3.224   2.143
  581SOL    HW2 2643   2.952   3.214   2.079
  582SOL     OW 2644   4.927   6.834   2.184
  582SOL    HW1 2645   4.966   6.910   2.237
  582SOL    HW2 2646   4.962   6.748   2.219
  583SOL     OW 2647   3.057   5.216   5.458
  583SOL    HW1 2648   2.971   5.186   5.498
  583SOL    HW2 2649   3.132   5.163   5.497
  584SOL     OW 2650   3.066   3.961   6.216
  584SOL    HW1 2651   3.044   3.878   6.165
  584SOL    HW2 2652   3.148   4.002   6.178
  585SOL     OW 2653   5.248   3.190   6.108
  585SOL    HW1 2654   5.289   3.281   6.103
  585SOL    HW2 2655   5.213   3.174   6.200
  586SOL     OW 2656   3.809   1.895   5.944
  586SOL    HW1 2657   3.717   1.921   5.971
  586SOL    HW2 2658   3.829   1.802   5.975
  587SOL     OW 2659   4.046   1.086   5.617
  587SOL    HW1 2660   4.093   1.102   5.704
  587SOL    HW2 2661   3.948   1.079   5.634
  588SOL     OW 2662   2.332   4.989   1.470
  588SOL    HW1 2663   2.323   4.924   1.545
  588SOL    HW2 2664   2.355   4.940   1.386
  589SOL     OW 2665   2.997   4.957   1.717
  589SOL    HW1 2666   2.995   5.013   1.799
  589SOL    HW2 2667   3.010   5.015   1.637
  590SOL     OW 2668   4.886   3.489   2.982
  590SOL    HW1 2669   4.877   3.407   3.037
  590SOL    HW2 2670   4.864   3.469   2.887
  591SOL     OW 2671   3.916   5.658   4.238
  591SOL    HW1 2672   3.918   5.751   4.202
  591SOL    HW2 2673   4.005   5.633   4.274
  592SOL     OW 2674   3.196   0.712   1.304
  592SOL    HW1 2675   3.203   0.811   1.286
  592SOL    HW2 2676   3.215   0.662   1.220
  593SOL     OW 2677   4.541   2.498   3.003
  593SOL    HW1 2678   4.600   2.417   3.004
  593SOL    HW2 2679   4.594   2.576   2.969
  594SOL     OW 2680   5.597   2.281   6.371
  594SOL    HW1 2681   5.635   2.194   6.339
  594SOL    HW2 2682   5.628   2.298   6.465
  595SOL     OW 2683   5.855   6.711   3.711
  595SOL    HW1 2684   5.822   6.630   3.663
  595SOL    HW2 2685   5.834   6.703   3.809
  596SOL     OW 2686   1.994   4.426   3.158
  596SOL    HW1 2687   2.005   4.326   3.160
  596SOL    HW2 2688   2.084   4.469   3.166
  597SOL     OW 2689   3.460   6.857   6.827
  597SOL    HW1 2690   3.465   6.759   6.845
  597SOL    HW2 2691   3.375   6.894   6.865
  598SOL     OW 2692   3.640   4.462   5.778
  598SOL    HW1 2693   3.552   4.480   5.822
  598SOL    HW2 2694   3.637   4.492   5.683
  599SOL     OW 2695   2.235   6.459   2.235
  599SOL    HW1 2696   2.282   6.400   2.170
  599SOL    HW2 2697   2.184   6.403   2.300
  600SOL     OW 2698   1.069   1.204   0.226
  600SOL    HW1 2699   1.039   1.248   0.311
  600SOL    HW2 2700   1.008   1.128   0.204
  601SOL     OW 2701   2.919   6.862   4.505
  601SOL    HW1 2702   2.932   6.924   4.428
  601SOL    HW2 2703   2.918   6.767   4.472
  602SOL     OW 2704   2.315   2.593   6.274
  602SOL    HW1 2705   2.296   2.605   6.177
  602SOL    HW2 2706   2.341   2.681   6.314
  603SOL     OW 2707   3.702   1.840   3.771
  603SOL    HW1 2708   3.629   1.823   3.704
  603SOL    HW2 2709   3.773   1.770   3.760
  604SOL     OW 2710   0.712   3.733   1.461
  604SOL    HW1 2711   0.754   3.662   1.518
  604SOL    HW2 2712   0.615   3.712   1.449
  605SOL     OW 2713   6.868   6.437   2.245
  605SOL    HW1 2714   6.862   6.482   2.334
  605SOL    HW2 2715   6.825   6.347   2.251
  606SOL     OW 2716   5.104   0.581   6.461
  606SOL    HW1 2717   5.105   0.670   6.507
  606SOL    HW2 2718   5.172   0.580   6.388
  607SOL     OW 2719   6.099   0.224   5.627
  607SOL    HW1 2720   6.108   0.302   5.564
  607SOL    HW2 2721   6.006   0.223   5.664
  608SOL     OW 2722   2.654   6.417   6.167
  608SOL    HW1 2723   2.675   6.504   6.213
  608SOL    HW2 2724   2.619   6.352   6.234
  609SOL     OW 2725   4.045   3.358   3.265
  609SOL    HW1 2726   3.952   3.386   3.242
  609SOL    HW2 2727   4.045   3.313   3.354
  610SOL     OW 2728   4.873   3.297   1.935
  610SOL    HW1 2729   4.814   3.354   1.877
  610SOL    HW2 2730   4.831   3.207   1.946
  611SOL     OW 2731   3.580   0.166   0.085
  611SOL    HW1 2732   3.642   0.149   0.008
  611SOL    HW2 2733   3.623   0.230   0.149
  612SOL     OW 2734   3.526   6.263   5.770
  612SOL    HW1 2735   3.494   6.171   5.749
  612SOL    HW2 2736   3.626   6.263   5.773
  613SOL     OW 2737   4.161   6.886   6.050
  613SOL    HW1 2738   4.184   6.835   6.133
  613SOL    HW2 2739   4.109   6.827   5.988
  614SOL     OW 2740   4.433   4.639   1.178
  614SOL    HW1 2741   4.468   4.579   1.250
  614SOL    HW2 2742   4.417   4.586   1.095
  615SOL     OW 2743   0.218   2.510   1.587
  615SOL    HW1 2744   0.147   2.575   1.615
  615SOL    HW2 2745   0.216   2.431   1.648
  616SOL     OW 2746   0.360   2.130   3.615
  616SOL    HW1 2747   0.295   2.055   3.624
  616SOL    HW2 2748   0.325   2.211   3.661
  617SOL     OW 2749   6.201   3.495   6.253
  617SOL    HW1 2750   6.154   3.452   6.176
  617SOL    HW2 2751   6.178   3.448   6.338
  618SOL     OW 2752   6.636   2.529   6.549
  618SOL    HW1 2753   6.687   2.516   6.464
  618SOL    HW2 2754   6.690   2.495   6.626
  619SOL     OW 2755   4.854   0.598   6.312
  619SOL    HW1 2756   4.785   0.528   6.334
  619SOL    HW2 2757   4.926   0.596   6.381
  620SOL     OW 2758   4.970   2.733   1.368
  620SOL    HW1 2759   5.052   2.684   1.337
  620SOL    HW2 2760   4.891   2.704   1.313
  621SOL     OW 2761   2.084   6.472   6.012
  621SOL    HW1 2762   2.141   6.419   6.075
  621SOL    HW2 2763   2.075   6.422   5.926
  622SOL     OW 2764   1.165   1.116   4.265
  622SOL    HW1 2765   1.134   1.083   4.176
  622SOL    HW2 2766   1.158   1.216   4.269
  623SOL     OW 2767   1.440   6.088   6.009
  623SOL    HW1 2768   1.392   6.000   6.010
  623SOL    HW2 2769   1.471   6.108   5.916
  624SOL     OW 2770   0.466   1.779   1.601
  624SOL    HW1 2771   0.439   1.746   1.510
  624SOL    HW2 2772   0.477   1.878   1.599
  625SOL     OW 2773   1.656   2.178   1.574
  625SOL    HW1 2774   1.691   2.085   1.568
  625SOL    HW2 2775   1.666   2.212   1.667
  626SOL     OW 2776   0.912   5.797   3.001
  626SOL    HW1 2777   0.918   5.705   3.039
  626SOL    HW2 2778   0.893   5.863   3.074
  627SOL     OW 2779   6.774   6.408   0.762
  627SOL    HW1 2780   6.871   6.393   0.778
  627SOL    HW2 2781   6.724   6.323   0.780
  628SOL     OW 2782   5.775   5.965   5.752
  628SOL    HW1 2783   5.838   6.018   5.696
  628SOL    HW2 2784   5.824   5.923   5.828
  629SOL     OW 2785   0.690   0.740   6.857
  629SOL    HW1 2786   0.593   0.713   6.864
  629SOL    HW2 2787   0.701   0.833   6.890
  630SOL     OW 2788   0.371   1.588   0.747
  630SOL    HW1 2789   0.346   1.507   0.694
  630SOL    HW2 2790   0.465   1.614   0.725
  631SOL     OW 2791   3.633   1.535   5.383
  631SOL    HW1 2792   3.613   1.493   5.472
  631SOL    HW2 2793   3.727   1.514   5.356
  632SOL     OW 2794   4.289   1.864   1.438
  632SOL    HW1 2795   4.193   1.867   1.411
  632SOL    HW2 2796   4.318   1.954   1.469
  633SOL     OW 2797   3.144   3.562   0.062
  633SOL    HW1 2798   3.192   3.486   0.106
  633SOL    HW2 2799   3.105   3.531   6.998
  634SOL     OW 2800   4.071   3.554   2.472
  634SOL    HW1 2801   4.053   3.461   2.441
  634SOL    HW2 2802   4.089   3.613   2.393
  635SOL     OW 2803   4.641   5.369   0.813
  635SOL    HW1 2804   4.642   5.433   0.889
  635SOL    HW2 2805   4.671   5.416   0.729
  636SOL     OW 2806   3.136   6.562   0.298
  636SOL    HW1 2807   3.221   6.600   0.262
  636SOL    HW2 2808   3.061   6.580   0.234
  637SOL     OW 2809   6.973   3.135   3.326
  637SOL    HW1 2810   6.885   3.139   3.278
  637SOL    HW2 2811   6.956   3.128   3.425
  638SOL     OW 2812   5.682   2.915   2.966
  638SOL    HW1 2813   5.635   2.879   3.047
  638SOL    HW2 2814   5.781   2.901   2.977
  639SOL     OW 2815   4.941   3.472   2.673
  639SOL    HW1 2816   4.915   3.418   2.593
  639SOL    HW2 2817   4.955   3.567   2.647
  640SOL     OW 2818   0.542   5.160   4.083
  640SOL    HW1 2819   0.609   5.094   4.118
  640SOL    HW2 2820   0.566   5.252   4.115
  641SOL     OW 2821   0.628   4.317   5.109
  641SOL    HW1 2822   0.669   4.403   5.079
  641SOL    HW2 2823   0.668   4.290   5.197
  642SOL     OW 2824   6.964   3.333   3.870
  642SOL    HW1 2825   7.022   3.252   3.873
  642SOL    HW2 2826   6.868   3.306   3.881
  643SOL     OW 2827   6.293   6.475   6.016
  643SOL    HW1 2828   6.389   6.484   5.988
  643SOL    HW2 2829   6.239   6.440   5.939
  644SOL     OW 2830   1.577   6.646   4.284
  644SOL    HW1 2831   1.505   6.634   4.216
  644SOL    HW2 2832   1.665   6.662   4.238
  645SOL     OW 2833   4.279   0.051   5.325
  645SOL    HW1 2834   4.378   0.050   5.313
  645SOL    HW2 2835   4.243   0.141   5.301
  646SOL     OW 2836   3.276   0.706   4.525
  646SOL    HW1 2837   3.232   0.780   4.475
  646SOL    HW2 2838   3.365   0.736   4.558
  647SOL     OW 2839   5.419   2.104   5.229
  647SOL    HW1 2840   5.489   2.033   5.220
  647SOL    HW2 2841   5.423   2.165   5.149
  648SOL     OW 2842   0.616   3.628   3.829
  648SOL    HW1 2843   0.670   3.676   3.760
  648SOL    HW2 2844   0.623   3.529   3.815
  649SOL     OW 2845   2.272   4.228   1.548
  649SOL    HW1 2846   2.309   4.296   1.611
  649SOL    HW2 2847   2.173   4.243   1.537
  650SOL     OW 2848   6.111   4.835   0.367
  650SOL    HW1 2849   6.116   4.803   0.272
  650SOL    HW2 2850   6.073   4.762   0.425
  651SOL     OW 2851   1.112   6.709   6.287
  651SOL    HW1 2852   1.056   6.792   6.290
  651SOL    HW2 2853   1.109   6.670   6.195
  652SOL     OW 2854   5.173   6.909   3.449
  652SOL    HW1 2855   5.091   6.926   3.504
  652SOL    HW2 2856   5.247   6.970   3.478
  653SOL     OW 2857   1.328   5.790   6.887
  653SOL    HW1 2858   1.363   5.884   6.889
  653SOL    HW2 2859   1.228   5.792   6.888
  654SOL     OW 2860   0.606   5.601   0.200
  654SOL    HW1 2861   0.700   5.565   0.197
  654SOL    HW2 2862   0.609   5.700   0.192
  655SOL     OW 2863   0.081   5.814   1.232
  655SOL    HW1 2864   0.121   5.868   1.158
  655SOL    HW2 2865   0.106   5.854   1.320
  656SOL     OW 2866   1.959   5.955   1.110
  656SOL    HW1 2867   1.939   6.022   1.182
  656SOL    HW2 2868   2.001   5.874   1.151
  657SOL     OW 2869   2.681   3.649   1.530
  657SOL    HW1 2870   2.711   3.710   1.457
  657SOL    HW2 2871   2.581   3.650   1.534
  658SOL     OW 2872   1.843   3.333   6.098
  658SOL    HW1 2873   1.778   3.270   6.141
  658SOL    HW2 2874   1.913   3.358   6.165
  659SOL     OW 2875   1.508   6.351   5.298
  659SOL    HW1 2876   1.444   6.291   5.346
  659SOL    HW2 2877   1.601   6.332   5.329
  660SOL     OW 2878   6.194   3.956   2.487
  660SOL    HW1 2879   6.252   3.908   2.553
  660SOL    HW2 2880   6.110   3.985   2.532
  661SOL     OW 2881   4.779   4.012   3.208
  661SOL    HW1 2882   4.839   3.957   3.149
  661SOL    HW2 2883   4.686   4.011   3.171
  662SOL     OW 2884   4.447   0.333   5.065
  662SOL    HW1 2885   4.472   0.237   5.052
  662SOL    HW2 2886   4.358   0.338   5.111
  663SOL     OW 2887   1.124   3.519   6.711
  663SOL    HW1 2888   1.174   3.435   6.732
  663SOL    HW2 2889   1.154   3.554   6.622
  664SOL     OW 2890   0.283   5.280   6.529
  664SOL    HW1 2891   0.355   5.300   6.596
  664SOL    HW2 2892   0.303   5.326   6.443
  665SOL     OW 2893   4.456   4.877   0.670
  665SOL    HW1 2894   4.476   4.975   0.675
  665SOL    HW2 2895   4.407   4.858   0.585
  666SOL     OW 2896   5.031   1.833   3.094
  666SOL    HW1 2897   4.940   1.856   3.060
  666SOL    HW2 2898   5.099   1.858   3.026
  667SOL     OW 2899   6.100   3.952   3.171
  667SOL    HW1 2900   6.010   3.912   3.192
  667SOL    HW2 2901   6.117   3.944   3.073
  668SOL     OW 2902   4.959   6.142   0.143
  668SOL    HW1 2903   4.863   6.122   0.162
  668SOL    HW2 2904   5.017   6.095   0.210
  669SOL     OW 2905   3.892   6.062   3.319
  669SOL    HW1 2906   3.978   6.107   3.343
  669SOL    HW2 2907   3.823   6.131   3.295
  670SOL     OW 2908   2.825   2.983   1.267
  670SOL    HW1 2909   2.846   3.080   1.280
  670SOL    HW2 2910   2.746   2.975   1.206
  671SOL     OW 2911   2.799   5.602   6.995
  671SOL    HW1 2912   2.759   5.554   0.051
  671SOL    HW2 2913   2.738   5.593   6.917
  672SOL     OW 2914   0.648   4.679   1.891
  672SOL    HW1 2915   0.745   4.667   1.916
  672SOL    HW2 2916   0.618   4.600   1.837
  673SOL     OW 2917   6.695   0.575   1.548
  673SOL    HW1 2918   6.687   0.645   1.476
  673SOL    HW2 2919   6.733   0.491   1.509
  674SOL     OW 2920   0.184   3.288   4.712
  674SOL    HW1 2921   0.084   3.297   4.706
  674SOL    HW2 2922   0.214   3.212   4.655
  675SOL     OW 2923   0.315   1.009   4.862
  675SOL    HW1 2924   0.381   1.079   4.892
  675SOL    HW2 2925   0.269   0.971   4.942
  676SOL     OW 2926   4.156   5.790   2.791
  676SOL    HW1 2927   4.120   5.837   2.872
  676SOL    HW2 2928   4.088   5.726   2.756
  677SOL     OW 2929   5.994   1.763   6.822
  677SOL    HW1 2930   5.900   1.779   6.853
  677SOL    HW2 2931   6.058   1.807   6.885
  678SOL     OW 2932   1.079   1.186   4.726
  678SOL    HW1 2933   1.057   1.119   4.655
  678SOL    HW2 2934   1.043   1.276   4.699
  679SOL     OW 2935   4.842   1.819   4.483
  679SOL    HW1 2936   4.910   1.867   4.427
  679SOL    HW2 2937   4.870   1.723   4.493
  680SOL     OW 2938   6.115   5.237   6.262
  680SOL    HW1 2939   6.049   5.265   6.192
  680SOL    HW2 2940   6.173   5.315   6.286
  681SOL     OW 2941   5.654   5.853   1.403
  681SOL    HW1 2942   5.708   5.919   1.455
  681SOL    HW2 2943   5.557   5.875   1.411
  682SOL     OW 2944   1.657   6.991   0.624
  682SOL    HW1 2945   1.608   7.020   0.706
  682SOL    HW2 2946   1.753   7.018   0.632
  683SOL     OW 2947   3.612   2.913   6.559
  683SOL    HW1 2948   3.685   2.955   6.613
  683SOL    HW2 2949   3.649   2.879   6.473
  684SOL     OW 2950   5.959   0.840   6.871
  684SOL    HW1 2951   6.033   0.794   6.921
  684SOL    HW2 2952   5.980   0.839   6.773
  685SOL     OW 2953   4.563   1.176   4.126
  685SOL    HW1 2954   4.652   1.137   4.103
  685SOL    HW2 2955   4.513   1.113   4.186
  686SOL     OW 2956   5.878   2.844   3.418
  686SOL    HW1 2957   5.789   2.800   3.409
  686SOL    HW2 2958   5.880   2.901   3.500
  687SOL     OW 2959   0.395   2.892   4.722
  687SOL    HW1 2960   0.428   2.897   4.816
  687SOL    HW2 2961   0.472   2.888   4.659
  688SOL     OW 2962   1.661   2.585   6.581
  688SOL    HW1 2963   1.613   2.501   6.555
  688SOL    HW2 2964   1.754   2.584   6.543
  689SOL     OW 2965   0.109   4.436   6.066
  689SOL    HW1 2966   0.197   4.387   6.063
  689SOL    HW2 2967   0.036   4.374   6.040
  690SOL     OW 2968   0.866   3.910   3.636
  690SOL    HW1 2969   0.917   3.948   3.713
  690SOL    HW2 2970   0.901   3.948   3.550
  691SOL     OW 2971   2.614   0.413   6.531
  691SOL    HW1 2972   2.623   0.340   6.463
  691SOL    HW2 2973   2.680   0.485   6.510
  692SOL     OW 2974   3.879   6.305   3.529
  692SOL    HW1 2975   3.907   6.400   3.543
  692SOL    HW2 2976   3.955   6.244   3.550
  693SOL     OW 2977   6.463   0.548   3.281
  693SOL    HW1 2978   6.398   0.476   3.255
  693SOL    HW2 2979   6.447   0.629   3.225
  694SOL     OW 2980   3.768   6.221   2.461
  694SOL    HW1 2981   3.727   6.159   2.395
  694SOL    HW2 2982   3.839   6.276   2.416
  695SOL     OW 2983   4.290   5.868   5.198
  695SOL    HW1 2984   4.228   5.901   5.270
  695SOL    HW2 2985   4.258   5.779   5.165
  696SOL     OW 2986   3.208   5.586   2.385
  696SOL    HW1 2987   3.197   5.508   2.446
  696SOL    HW2 2988   3.122   5.638   2.382
  697SOL     OW 2989   2.230   3.019   4.477
  697SOL    HW1 2990   2.177   3.004   4.393
  697SOL    HW2 2991   2.203   3.105   4.519
  698SOL     OW 2992   5.915   0.205   6.795
  698SOL    HW1 2993   6.006   0.226   6.758
  698SOL    HW2 2994   5.863   0.290   6.806
  699SOL     OW 2995   1.374   4.036   6.494
  699SOL    HW1 2996   1.445   4.005   6.431
  699SOL    HW2 2997   1.318   3.957   6.522
  700SOL     OW 2998   2.464   1.583   3.809
  700SOL    HW1 2999   2.494   1.646   3.737
  700SOL    HW2 3000   2.428   1.500   3.767
  701SOL     OW 3001   6.111   3.316   5.009
  701SOL    HW1 3002   6.068   3.355   5.090
  701SOL    HW2 3003   6.210   3.319   5.020
  702SOL     OW 3004   0.232   6.582   6.086
  702SOL    HW1 3005   0.154   6.625   6.042
  702SOL    HW2 3006   0.219   6.483   6.087
  703SOL     OW 3007   3.616   4.000   6.457
  703SOL    HW1 3008   3.699   4.000   6.401
  703SOL    HW2 3009   3.630   3.942   6.538
  704SOL     OW 3010   1.301   1.458   6.430
  704SOL    HW1 3011   1.289   1.450   6.529
  704SOL    HW2 3012   1.287   1.368   6.388
  705SOL     OW 3013   6.362   6.491   2.949
  705SOL    HW1 3014   6.461   6.497   2.936
  705SOL    HW2 3015   6.320   6.453   2.866
  706SOL     OW 3016   4.364   2.416   4.060
  706SOL    HW1 3017   4.266   2.424   4.041
  706SOL    HW2 3018   4.394   2.323   4.039
  707SOL     OW 3019   4.654   6.807   2.252
  707SOL    HW1 3020   4.619   6.742   2.184
  707SOL    HW2 3021   4.752   6.822   2.236
  708SOL     OW 3022   3.887   1.091   1.273
  708SOL    HW1 3023   3.826   1.075   1.351
  708SOL    HW2 3024   3.982   1.081   1.302
  709SOL     OW 3025   1.035   5.200   0.985
  709SOL    HW1 3026   1.118   5.242   0.948
  709SOL    HW2 3027   1.024   5.108   0.946
  710SOL     OW 3028   3.491   2.838   2.256
  710SOL    HW1 3029   3.505   2.898   2.178
  710SOL    HW2 3030   3.520   2.745   2.234
  711SOL     OW 3031   0.017   2.145   6.000
  711SOL    HW1 3032   0.060   2.141   5.909
  711SOL    HW2 3033   0.066   2.211   6.057
  712SOL     OW 3034   3.830   3.561   0.965
  712SOL    HW1 3035   3.898   3.561   0.892
  712SOL    HW2 3036   3.849   3.636   1.029
  713SOL     OW 3037   3.706   2.779   6.331
  713SOL    HW1 3038   3.628   2.733   6.288
  713SOL    HW2 3039   3.791   2.733   6.305
  714SOL     OW 3040   6.550   4.352   3.858
  714SOL    HW1 3041   6.488   4.336   3.934
  714SOL    HW2 3042   6.643   4.323   3.884
  715SOL     OW 3043   5.719   5.854   6.989
  715SOL    HW1 3044   5.672   5.921   6.932
  715SOL    HW2 3045   5.652   5.800   0.017
  716SOL     OW 3046   1.181   0.470   0.929
  716SOL    HW1 3047   1.122   0.426   0.997
  716SOL    HW2 3048   1.134   0.472   0.840
  717SOL     OW 3049   5.813   4.386   6.516
  717SOL    HW1 3050   5.743   4.458   6.512
  717SOL    HW2 3051   5.900   4.426   6.545
  718SOL     OW 3052   4.615   2.528   6.450
  718SOL    HW1 3053   4.714   2.530   6.438
  718SOL    HW2 3054   4.594   2.496   6.543
  719SOL     OW 3055   6.759   1.336   2.026
  719SOL    HW1 3056   6.733   1.240   2.020
  719SOL    HW2 3057   6.764   1.375   1.933
  720SOL     OW 3058   3.880   0.663   6.639
  720SOL    HW1 3059   3.886   0.709   6.727
  720SOL    HW2 3060   3.854   0.568   6.652
  721SOL     OW 3061   2.638   1.246   4.316
  721SOL    HW1 3062   2.669   1.288   4.230
  721SOL    HW2 3063   2.702   1.270   4.389
  722SOL     OW 3064   2.740   0.284   4.424
  722SOL    HW1 3065   2.651   0.243   4.445
  722SOL    HW2 3066   2.762   0.271   4.328
  723SOL     OW 3067   2.093   3.586   3.126
  723SOL    HW1 3068   2.122   3.612   3.034
  723SOL    HW2 3069   1.997   3.609   3.139
  724SOL     OW 3070   1.504   2.781   4.720
  724SOL    HW1 3071   1.524   2.762   4.624
  724SOL    HW2 3072   1.578   2.748   4.777
  725SOL     OW 3073   4.218   6.017   0.692
  725SOL    HW1 3074   4.202   5.970   0.605
  725SOL    HW2 3075   4.156   6.094   0.700
  726SOL     OW 3076   4.378   5.101   0.469
  726SOL    HW1 3077   4.300   5.039   0.480
  726SOL    HW2 3078   4.375   5.172   0.539
  727SOL     OW 3079   5.954   5.384   6.063
  727SOL    HW1 3080   5.854   5.388   6.052
  727SOL    HW2 3081   5.997   5.390   5.973
  728SOL     OW 3082   6.348   3.529   4.974
  728SOL    HW1 3083   6.269   3.515   4.913
  728SOL    HW2 3084   6.396   3.442   4.987
  729SOL     OW 3085   1.191   1.980   0.555
  729SOL    HW1 3086   1.285   1.959   0.528
  729SOL    HW2 3087   1.145   1.896   0.584
  730SOL     OW 3088   5.443   1.494   3.008
  730SOL    HW1 3089   5.432   1.402   2.970
  730SOL    HW2 3090   5.397   1.560   2.949
  731SOL     OW 3091   5.180   4.304   5.553
  731SOL    HW1 3092   5.238   4.252   5.490
  731SOL    HW2 3093   5.218   4.299   5.645
  732SOL     OW 3094   0.085   2.453   1.104
  732SOL    HW1 3095   0.158   2.394   1.138
  732SOL    HW2 3096   0.103   2.547   1.133
  733SOL     OW 3097   6.010   6.080   5.689
  733SOL    HW1 3098   6.095   6.044   5.648
  733SOL    HW2 3099   6.017   6.075   5.788
  734SOL     OW 3100   6.820   4.723   2.442
  734SOL    HW1 3101   6.919   4.721   2.457
  734SOL    HW2 3102   6.776   4.773   2.516
  735SOL     OW 3103   3.859   2.120   0.552
  735SOL    HW1 3104   3.885   2.035   0.504
  735SOL    HW2 3105   3.930   2.143   0.619
  736SOL     OW 3106   0.604   0.535   3.087
  736SOL    HW1 3107   0.557   0.545   3.175
  736SOL    HW2 3108   0.701   0.557   3.099
  737SOL     OW 3109   4.869   2.437   6.032
  737SOL    HW1 3110   4.827   2.525   6.056
  737SOL    HW2 3111   4.852   2.417   5.936
  738SOL     OW 3112   2.121   4.296   2.530
  738SOL    HW1 3113   2.161   4.207   2.549
  738SOL    HW2 3114   2.150   4.361   2.601
  739SOL     OW 3115   4.134   0.451   4.141
  739SOL    HW1 3116   4.177   0.517   4.202
  739SOL    HW2 3117   4.035   0.455   4.153
  740SOL     OW 3118   5.351   0.387   0.876
  740SOL    HW1 3119   5.255   0.357   0.874
  740SOL    HW2 3120   5.365   0.447   0.955
  741SOL     OW 3121   1.988   6.621   3.117
  741SOL    HW1 3122   1.957   6.671   3.197
  741SOL    HW2 3123   2.084   6.595   3.128
  742SOL     OW 3124   1.993   6.785   1.811
  742SOL    HW1 3125   2.022   6.692   1.833
  742SOL    HW2 3126   2.030   6.848   1.879
  743SOL     OW 3127   0.080   3.858   4.027
  743SOL    HW1 3128   0.136   3.916   3.967
  743SOL    HW2 3129   0.124   3.768   4.036
  744SOL     OW 3130   5.613   0.157   6.835
  744SOL    HW1 3131   5.594   0.105   6.752
  744SOL    HW2 3132   5.712   0.172   6.843
  745SOL     OW 3133   0.646   5.214   5.157
  745SOL    HW1 3134   0.724   5.160   5.125
  745SOL    HW2 3135   0.676   5.279   5.226
  746SOL     OW 3136   6.825   4.811   5.793
  746SOL    HW1 3137   6.835   4.911   5.789
  746SOL    HW2 3138   6.729   4.788   5.806
  747SOL     OW 3139   4.018   6.696   4.693
  747SOL    HW1 3140   4.077   6.633   4.743
  747SOL    HW2 3141   3.959   6.645   4.631
  748SOL     OW 3142   3.304   5.153   2.539
  748SOL    HW1 3143   3.227   5.151   2.475
  748SOL    HW2 3144   3.323   5.060   2.571
  749SOL     OW 3145   6.476   4.149   5.192
  749SOL    HW1 3146   6.566   4.118   5.220
  749SOL    HW2 3147   6.482   4.243   5.157
  750SOL     OW 3148   2.088   2.136   0.712
  750SOL    HW1 3149   2.009   2.173   0.662
  750SOL    HW2 3150   2.157   2.208   0.724
  751SOL     OW 3151   3.755   2.475   6.511
  751SOL    HW1 3152   3.673   2.521   6.547
  751SOL    HW2 3153   3.742   2.376   6.517
  752SOL     OW 3154   3.793   1.274   2.236
  752SOL    HW1 3155   3.845   1.219   2.301
  752SOL    HW2 3156   3.761   1.357   2.281
  753SOL     OW 3157   1.682   3.681   4.920
  753SOL    HW1 3158   1.601   3.729   4.888
  753SOL    HW2 3159   1.751   3.748   4.950
  754SOL     OW 3160   5.529   2.694   5.840
  754SOL    HW1 3161   5.550   2.597   5.837
  754SOL    HW2 3162   5.460   2.716   5.770
  755SOL     OW 3163   1.629   4.490   5.396
  755SOL    HW1 3164   1.600   4.511   5.490
  755SOL    HW2 3165   1.619   4.571   5.339
  756SOL     OW 3166   3.800   0.393   0.792
  756SOL    HW1 3167   3.896   0.375   0.769
  756SOL    HW2 3168   3.771   0.329   0.864
  757SOL     OW 3169   0.645   0.183   4.023
  757SOL    HW1 3170   0.578   0.136   4.080
  757SOL    HW2 3171   0.723   0.123   4.007
  758SOL     OW 3172   3.928   6.948   1.910
  758SOL    HW1 3173   3.915   6.994   1.822
  758SOL    HW2 3174   3.886   7.003   1.982
  759SOL     OW 3175   0.953   1.226   1.292
  759SOL    HW1 3176   0.859   1.257   1.304
  759SOL    HW2 3177   1.006   1.245   1.375
  760SOL     OW 3178   5.168   0.309   5.503
  760SOL    HW1 3179   5.153   0.396   5.550
  760SOL    HW2 3180   5.132   0.315   5.410
  761SOL     OW 3181   5.886   3.097   5.625
  761SOL    HW1 3182   5.970   3.100   5.679
  761SOL    HW2 3183   5.836   3.013   5.646
  762SOL     OW 3184   2.807   0.656   5.136
  762SOL    HW1 3185   2.855   0.740   5.112
  762SOL    HW2 3186   2.712   0.661   5.103
  763SOL     OW 3187   4.349   5.346   6.220
  763SOL    HW1 3188   4.341   5.276   6.149
  763SOL    HW2 3189   4.356   5.301   6.309
  764SOL     OW 3190   5.107   1.761   4.841
  764SOL    HW1 3191   5.076   1.696   4.911
  764SOL    HW2 3192   5.158   1.835   4.885
  765SOL     OW 3193   1.231   6.306   1.179
  765SOL    HW1 3194   1.331   6.318   1.180
  765SOL    HW2 3195   1.209   6.212   1.204
  766SOL     OW 3196   2.333   3.382   6.761
  766SOL    HW1 3197   2.353   3.479   6.746
  766SOL    HW2 3198   2.354   3.358   6.856
  767SOL     OW 3199   6.634   5.960   1.659
  767SOL    HW1 3200   6.614   6.055   1.635
  767SOL    HW2 3201   6.653   5.908   1.575
  768SOL     OW 3202   1.875   6.284   1.792
  768SOL    HW1 3203   1.778   6.287   1.766
  768SOL    HW2 3204   1.931   6.320   1.717
  769SOL     OW 3205   3.240   0.807   5.106
  769SOL    HW1 3206   3.228   0.905   5.119
  769SOL    HW2 3207   3.206   0.782   5.015
  770SOL     OW 3208   2.249   4.078   3.442
  770SOL    HW1 3209   2.196   4.063   3.526
  770SOL    HW2 3210   2.300   4.163   3.450
  771SOL     OW 3211   2.754   5.489   2.557
  771SOL    HW1 3212   2.702   5.527   2.634
  771SOL    HW2 3213   2.698   5.421   2.510
  772SOL     OW 3214   5.498   4.757   0.982
  772SOL    HW1 3215   5.458   4.674   0.943
  772SOL    HW2 3216   5.594   4.763   0.956
  773SOL     OW 3217   0.283   3.414   4.942
  773SOL    HW1 3218   0.278   3.350   5.020
  773SOL    HW2 3219   0.249   3.368   4.860
  774SOL     OW 3220   1.220   1.743   1.415
  774SOL    HW1 3221   1.129   1.784   1.424
  774SOL    HW2 3222   1.212   1.648   1.387
  775SOL     OW 3223   0.517   2.372   2.609
  775SOL    HW1 3224   0.434   2.391   2.557
  775SOL    HW2 3225   0.526   2.439   2.683
  776SOL     OW 3226   0.880   0.078   6.173
  776SOL    HW1 3227   0.878   0.175   6.197
  776SOL    HW2 3228   0.787   0.048   6.149
  777SOL     OW 3229   2.607   5.096   1.329
  777SOL    HW1 3230   2.517   5.084   1.369
  777SOL    HW2 3231   2.660   5.012   1.339
  778SOL     OW 3232   3.004   1.340   2.447
  778SOL    HW1 3233   3.056   1.260   2.479
  778SOL    HW2 3234   3.034   1.362   2.354
  779SOL     OW 3235   0.045   2.493   2.397
  779SOL    HW1 3236   0.085   2.564   2.455
  779SOL    HW2 3237   0.065   2.513   2.302
  780SOL     OW 3238   6.253   4.057   3.586
  780SOL    HW1 3239   6.318   4.129   3.613
  780SOL    HW2 3240   6.303   3.979   3.550
  781SOL     OW 3241   5.589   0.668   0.143
  781SOL    HW1 3242   5.656   0.598   0.169
  781SOL    HW2 3243   5.626   0.722   0.067
  782SOL     OW 3244   1.544   4.064   6.710
  782SOL    HW1 3245   1.489   4.050   6.627
  782SOL    HW2 3246   1.612   4.135   6.693
  783SOL     OW 3247   3.809   5.421   0.791
  783SOL    HW1 3248   3.899   5.459   0.813
  783SOL    HW2 3249   3.779   5.457   0.703
  784SOL     OW 3250   5.666   6.446   0.828
  784SOL    HW1 3251   5.676   6.484   0.736
  784SOL    HW2 3252   5.722   6.499   0.892
  785SOL     OW 3253   0.485   2.586   2.773
  785SOL    HW1 3254   0.442   2.652   2.711
  785SOL    HW2 3255   0.449   2.598   2.865
  786SOL     OW 3256   1.247   0.560   1.269
  786SOL    HW1 3257   1.164   0.612   1.288
  786SOL    HW2 3258   1.225   0.463   1.261
  787SOL     OW 3259   3.468   0.253   6.773
  787SOL    HW1 3260   3.395   0.286   6.715
  787SOL    HW2 3261   3.430   0.220   6.860
  788SOL     OW 3262   4.066   2.859   5.559
  788SOL    HW1 3263   4.026   2.815   5.479
  788SOL    HW2 3264   3.996   2.912   5.607
  789SOL     OW 3265   5.179   4.234   0.582
  789SOL    HW1 3266   5.155   4.166   0.513
  789SOL    HW2 3267   5.142   4.205   0.671
  790SOL     OW 3268   1.463   1.413   4.115
  790SOL    HW1 3269   1.475   1.462   4.029
  790SOL    HW2 3270   1.524   1.452   4.184
  791SOL     OW 3271   3.474   5.529   3.962
  791SOL    HW1 3272   3.474   5.590   4.041
  791SOL    HW2 3273   3.414   5.566   3.891
  792SOL     OW 3274   0.720   6.811   1.040
  792SOL    HW1 3275   0.763   6.876   0.978
  792SOL    HW2 3276   0.775   6.802   1.123
  793SOL     OW 3277   4.730   5.134   3.716
  793SOL    HW1 3278   4.826   5.112   3.730
  793SOL    HW2 3279   4.698   5.089   3.632
  794SOL     OW 3280   3.379   3.729   5.507
  794SOL    HW1 3281   3.389   3.763   5.601
  794SOL    HW2 3282   3.464   3.682   5.480
  795SOL     OW 3283   3.764   6.838   4.255
  795SOL    HW1 3284   3.793   6.765   4.193
  795SOL    HW2 3285   3.832   6.912   4.252
  796SOL     OW 3286   0.577   1.675   6.610
  796SOL    HW1 3287   0.497   1.628   6.649
  796SOL    HW2 3288   0.633   1.610   6.560
  797SOL     OW 3289   5.407   2.796   1.069
  797SOL    HW1 3290   5.309   2.783   1.055
  797SOL    HW2 3291   5.441   2.864   1.003
  798SOL     OW 3292   4.677   0.093   2.008
  798SOL    HW1 3293   4.606   0.098   2.078
  798SOL    HW2 3294   4.745   0.165   2.023
  799SOL     OW 3295   6.312   0.241   5.986
  799SOL    HW1 3296   6.248   0.168   6.009
  799SOL    HW2 3297   6.406   0.208   5.999
  800SOL     OW 3298   5.157   2.125   2.599
  800SOL    HW1 3299   5.175   2.192   2.527
  800SOL    HW2 3300   5.066   2.142   2.638
  801SOL     OW 3301   1.275   3.755   4.367
  801SOL    HW1 3302   1.299   3.661   4.387
  801SOL    HW2 3303   1.182   3.759   4.328
  802SOL     OW 3304   4.445   1.419   0.638
  802SOL    HW1 3305   4.419   1.462   0.552
  802SOL    HW2 3306   4.460   1.321   0.623
  803SOL     OW 3307   0.267   6.779   4.957
  803SOL    HW1 3308   0.244   6.823   4.870
  803SOL    HW2 3309   0.286   6.849   5.026
  804SOL     OW 3310   5.375   5.509   6.202
  804SOL    HW1 3311   5.328   5.469   6.281
  804SOL    HW2 3312   5.456   5.455   6.180
  805SOL     OW 3313   3.781   0.366   5.605
  805SOL    HW1 3314   3.846   0.308   5.556
  805SOL    HW2 3315   3.795   0.357   5.704
  806SOL     OW 3316   5.194   1.366   4.321
  806SOL    HW1 3317   5.270   1.395   4.263
  806SOL    HW2 3318   5.227   1.348   4.413
  807SOL     OW 3319   1.068   1.825   3.912
  807SOL    HW1 3320   1.040   1.882   3.989
  807SOL    HW2 3321   1.034   1.732   3.925
  808SOL     OW 3322   4.270   3.584   6.706
  808SOL    HW1 3323   4.345   3.650   6.703
  808SOL    HW2 3324   4.307   3.492   6.693
  809SOL     OW 3325   6.756   5.182   1.839
  809SOL    HW1 3326   6.696   5.226   1.772
  809SOL    HW2 3327   6.849   5.177   1.803
  810SOL     OW 3328   3.214   2.411   1.266
  810SOL    HW1 3329   3.247   2.377   1.355
  810SOL    HW2 3330   3.230   2.341   1.196
  811SOL     OW 3331   4.092   5.887   4.917
  811SOL    HW1 3332   4.023   5.959   4.921
  811SOL    HW2 3333   4.078   5.824   4.993
  812SOL     OW 3334   0.200   1.367   2.122
  812SOL    HW1 3335   0.147   1.295   2.078
  812SOL    HW2 3336   0.153   1.454   2.113
  813SOL     OW 3337   3.381   6.351   5.516
  813SOL    HW1 3338   3.286   6.354   5.548
  813SOL    HW2 3339   3.437   6.306   5.585
  814SOL     OW 3340   6.448   6.236   2.597
  814SOL    HW1 3341   6.401   6.184   2.669
  814SOL    HW2 3342   6.380   6.286   2.543
  815SOL     OW 3343   0.512   3.907   3.193
  815SOL    HW1 3344   0.420   3.875   3.217
  815SOL    HW2 3345   0.565   3.831   3.157
  816SOL     OW 3346   6.278   6.449   0.433
  816SOL    HW1 3347   6.179   6.432   0.431
  816SOL    HW2 3348   6.302   6.493   0.519
  817SOL     OW 3349   1.971   3.694   1.028
  817SOL    HW1 3350   1.982   3.793   1.035
  817SOL    HW2 3351   2.035   3.648   1.089
  818SOL     OW 3352   6.432   2.866   2.052
  818SOL    HW1 3353   6.334   2.888   2.049
  818SOL    HW2 3354   6.446   2.783   2.107
  819SOL     OW 3355   5.733   2.761   2.718
  819SOL    HW1 3356   5.724   2.799   2.810
  819SOL    HW2 3357   5.694   2.669   2.715
  820SOL     OW 3358   2.891   2.836   5.579
  820SOL    HW1 3359   2.824   2.762   5.589
  820SOL    HW2 3360   2.843   2.924   5.577
  821SOL     OW 3361   1.185   3.981   1.037
  821SOL    HW1 3362   1.216   4.075   1.024
  821SOL    HW2 3363   1.219   3.923   0.963
  822SOL     OW 3364   1.676   4.553   4.654
  822SOL    HW1 3365   1.649   4.647   4.634
  822SOL    HW2 3366   1.600   4.505   4.699
  823SOL     OW 3367   5.586   4.080   6.786
  823SOL    HW1 3368   5.643   4.031   6.852
  823SOL    HW2 3369   5.638   4.093   6.702
  824SOL     OW 3370   5.105   1.378   5.756
  824SOL    HW1 3371   5.152   1.290   5.745
  824SOL    HW2 3372   5.104   1.402   5.853
  825SOL     OW 3373   0.495   4.091   1.028
  825SOL    HW1 3374   0.421   4.081   1.095
  825SOL    HW2 3375   0.518   4.188   1.018
  826SOL     OW 3376   5.290   2.642   5.671
  826SOL    HW1 3377   5.311   2.594   5.586
  826SOL    HW2 3378   5.316   2.738   5.662
  827SOL     OW 3379   3.232   4.804   5.607
  827SOL    HW1 3380   3.133   4.788   5.611
  827SOL    HW2 3381   3.275   4.737   5.547
  828SOL     OW 3382   4.935   6.622   6.484
  828SOL    HW1 3383   4.861   6.621   6.417
  828SOL    HW2 3384   5.011   6.676   6.448
  829SOL     OW 3385   3.064   3.805   2.971
  829SOL    HW1 3386   3.055   3.773   3.065
  829SOL    HW2 3387   2.998   3.756   2.913
  830SOL     OW 3388   4.772   5.115   6.384
  830SOL    HW1 3389   4.798   5.181   6.454
  830SOL    HW2 3390   4.674   5.120   6.367
  831SOL     OW 3391   5.756   1.119   6.528
  831SOL    HW1 3392   5.838   1.115   6.470
  831SOL    HW2 3393   5.772   1.067   6.611
  832SOL     OW 3394   2.988   0.582   1.944
  832SOL    HW1 3395   2.988   0.594   1.844
  832SOL    HW2 3396   2.932   0.504   1.969
  833SOL     OW 3397   0.374   3.886   5.254
  833SOL    HW1 3398   0.380   3.786   5.246
  833SOL    HW2 3399   0.462   3.923   5.281
  834SOL     OW 3400   3.409   3.751   0.678
  834SOL    HW1 3401   3.380   3.656   0.688
  834SOL    HW2 3402   3.427   3.771   0.582
  835SOL     OW 3403   3.417   0.664   5.310
  835SOL    HW1 3404   3.516   0.655   5.302
  835SOL    HW2 3405   3.385   0.734   5.247
  836SOL     OW 3406   4.004   6.409   0.203
  836SOL    HW1 3407   4.017   6.425   0.105
  836SOL    HW2 3408   4.091   6.419   0.250
  837SOL     OW 3409   5.587   6.756   0.437
  837SOL    HW1 3410   5.493   6.777   0.412
  837SOL    HW2 3411   5.646   6.835   0.417
  838SOL     OW 3412   2.305   0.854   4.504
  838SOL    HW1 3413   2.398   0.820   4.510
  838SOL    HW2 3414   2.306   0.951   4.481
  839SOL     OW 3415   2.272   2.777   2.132
  839SOL    HW1 3416   2.275   2.812   2.038
  839SOL    HW2 3417   2.315   2.687   2.135
  840SOL     OW 3418   5.928   6.755   7.006
  840SOL    HW1 3419   5.868   6.827   0.017
  840SOL    HW2 3420   5.874   6.675   6.981
  841SOL     OW 3421   4.150   5.002   6.655
  841SOL    HW1 3422   4.114   5.002   6.748
  841SOL    HW2 3423   4.115   5.082   6.606
  842SOL     OW 3424   4.105   0.134   4.899
  842SOL    HW1 3425   4.126   0.039   4.921
  842SOL    HW2 3426   4.185   0.177   4.856
  843SOL     OW 3427   1.722   1.309   1.022
  843SOL    HW1 3428   1.785   1.233   1.002
  843SOL    HW2 3429   1.773   1.384   1.063
  844SOL     OW 3430   6.064   0.590   1.035
  844SOL    HW1 3431   6.026   0.541   1.115
  844SOL    HW2 3432   6.122   0.528   0.983
  845SOL     OW 3433   5.772   4.106   5.114
  845SOL    HW1 3434   5.724   4.192   5.131
  845SOL    HW2 3435   5.706   4.035   5.091
  846SOL     OW 3436   2.120   1.925   0.022
  846SOL    HW1 3437   2.060   2.004   0.015
  846SOL    HW2 3438   2.099   1.861   6.969
  847SOL     OW 3439   1.504   3.198   0.952
  847SOL    HW1 3440   1.417   3.190   1.000
  847SOL    HW2 3441   1.579   3.180   1.016
  848SOL     OW 3442   5.642   0.788   6.151
  848SOL    HW1 3443   5.680   0.702   6.118
  848SOL    HW2 3444   5.715   0.856   6.159
  849SOL     OW 3445   0.600   4.132   6.038
  849SOL    HW1 3446   0.660   4.203   6.075
  849SOL    HW2 3447   0.518   4.126   6.095
  850SOL     OW 3448   5.116   0.825   3.426
  850SOL    HW1 3449   5.019   0.810   3.445
  850SOL    HW2 3450   5.136   0.799   3.332
  851SOL     OW 3451   0.420   1.803   2.310
  851SOL    HW1 3452   0.350   1.865   2.345
  851SOL    HW2 3453   0.506   1.851   2.300
  852SOL     OW 3454   1.564   2.549   0.329
  852SOL    HW1 3455   1.603   2.632   0.367
  852SOL    HW2 3456   1.599   2.469   0.378
  853SOL     OW 3457   1.890   4.389   2.665
  853SOL    HW1 3458   1.975   4.426   2.703
  853SOL    HW2 3459   1.814   4.450   2.686
  854SOL     OW 3460   4.563   5.559   1.593
  854SOL    HW1 3461   4.505   5.640   1.603
  854SOL    HW2 3462   4.530   5.505   1.516
  855SOL     OW 3463   0.270   0.146   1.917
  855SOL    HW1 3464   0.198   0.178   1.978
  855SOL    HW2 3465   0.256   0.184   1.826
  856SOL     OW 3466   1.305   1.772   5.313
  856SOL    HW1 3467   1.256   1.689   5.339
  856SOL    HW2 3468   1.403   1.761   5.332
  857SOL     OW 3469   6.163   4.743   1.891
  857SOL    HW1 3470   6.211   4.667   1.936
  857SOL    HW2 3471   6.223   4.822   1.886
  858SOL     OW 3472   3.301   3.744   1.064
  858SOL    HW1 3473   3.372   3.777   1.126
  858SOL    HW2 3474   3.235   3.690   1.115
  859SOL     OW 3475   4.738   5.531   5.633
  859SOL    HW1 3476   4.640   5.549   5.627
  859SOL    HW2 3477   4.757   5.437   5.602
  860SOL     OW 3478   4.625   3.776   0.605
  860SOL    HW1 3479   4.686   3.846   0.641
  860SOL    HW2 3480   4.599   3.713   0.678
  861SOL     OW 3481   2.322   0.323   3.524
  861SOL    HW1 3482   2.278   0.393   3.467
  861SOL    HW2 3483   2.419   0.316   3.497
  862SOL     OW 3484   0.387   3.612   5.227
  862SOL    HW1 3485   0.438   3.546   5.172
  862SOL    HW2 3486   0.316   3.564   5.278
  863SOL     OW 3487   6.704   0.423   0.724
  863SOL    HW1 3488   6.708   0.509   0.673
  863SOL    HW2 3489   6.735   0.348   0.666
  864SOL     OW 3490   4.036   4.806   3.488
  864SOL    HW1 3491   3.968   4.732   3.483
  864SOL    HW2 3492   4.072   4.812   3.580
  865SOL     OW 3493   0.943   5.865   5.988
  865SOL    HW1 3494   0.935   5.926   6.067
  865SOL    HW2 3495   0.856   5.864   5.938
  866SOL     OW 3496   1.655   2.122   2.034
  866SOL    HW1 3497   1.701   2.050   2.087
  866SOL    HW2 3498   1.567   2.144   2.076
  867SOL     OW 3499   3.673   3.804   0.728
  867SOL    HW1 3500   3.575   3.810   0.711
  867SOL    HW2 3501   3.719   3.767   0.648
  868SOL     OW 3502   5.790   0.386   1.131
  868SOL    HW1 3503   5.721   0.456   1.145
  868SOL    HW2 3504   5.863   0.397   1.198
  869SOL     OW 3505   6.314   5.112   3.094
  869SOL    HW1 3506   6.313   5.014   3.115
  869SOL    HW2 3507   6.405   5.139   3.063
  870SOL     OW 3508   4.102   3.123   0.886
  870SOL    HW1 3509   4.161   3.124   0.967
  870SOL    HW2 3510   4.007   3.129   0.914
  871SOL     OW 3511   4.866   3.221   3.143
  871SOL    HW1 3512   4.892   3.298   3.202
  871SOL    HW2 3513   4.848   3.140   3.199
  872SOL     OW 3514   5.444   4.271   3.497
  872SOL    HW1 3515   5.484   4.189   3.456
  872SOL    HW2 3516   5.468   4.276   3.594
  873SOL     OW 3517   5.763   6.566   4.318
  873SOL    HW1 3518   5.847   6.513   4.308
  873SOL    HW2 3519   5.702   6.519   4.382
  874SOL     OW 3520   0.712   4.373   5.862
  874SOL    HW1 3521   0.669   4.463   5.860
  874SOL    HW2 3522   0.748   4.355   5.953
  875SOL     OW 3523   3.837   2.739   0.699
  875SOL    HW1 3524   3.744   2.774   0.692
  875SOL    HW2 3525   3.840   2.644   0.670
  876SOL     OW 3526   0.828   5.505   3.342
  876SOL    HW1 3527   0.916   5.457   3.339
  876SOL    HW2 3528   0.799   5.528   3.249
  877SOL     OW 3529   4.015   3.704   0.176
  877SOL    HW1 3530   4.103   3.661   0.197
  877SOL    HW2 3531   4.009   3.721   0.077
  878SOL     OW 3532   3.873   5.574   5.196
  878SOL    HW1 3533   3.787   5.622   5.181
  878SOL    HW2 3534   3.862   5.477   5.173
  879SOL     OW 3535   2.650   2.217   2.035
  879SOL    HW1 3536   2.595   2.269   2.100
  879SOL    HW2 3537   2.742   2.256   2.029
  880SOL     OW 3538   3.388   3.796   5.779
  880SOL    HW1 3539   3.472   3.792   5.833
  880SOL    HW2 3540   3.347   3.887   5.789
  881SOL     OW 3541   4.518   3.979   5.355
  881SOL    HW1 3542   4.597   3.985   5.295
  881SOL    HW2 3543   4.444   4.035   5.319
  882SOL     OW 3544   1.491   1.739   4.244
  882SOL    HW1 3545   1.457   1.738   4.338
  882SOL    HW2 3546   1.537   1.652   4.225
  883SOL     OW 3547   4.584   5.842   5.991
  883SOL    HW1 3548   4.615   5.895   5.912
  883SOL    HW2 3549   4.617   5.748   5.984
  884SOL     OW 3550   0.216   4.017   0.085
  884SOL    HW1 3551   0.284   4.083   0.116
  884SOL    HW2 3552   0.261   3.949   0.026
  885SOL     OW 3553   4.931   5.651   6.078
  885SOL    HW1 3554   4.924   5.701   6.164
  885SOL    HW2 3555   5.027   5.625   6.063
  886SOL     OW 3556   3.881   0.626   0.960
  886SOL    HW1 3557   3.848   0.551   0.903
  886SOL    HW2 3558   3.980   0.618   0.972
  887SOL     OW 3559   3.919   0.069   4.284
  887SOL    HW1 3560   3.941   0.095   4.378
  887SOL    HW2 3561   3.966   0.130   4.221
  888SOL     OW 3562   5.865   6.164   2.788
  888SOL    HW1 3563   5.895   6.260   2.787
  888SOL    HW2 3564   5.916   6.115   2.858
  889SOL     OW 3565   1.894   6.463   5.533
  889SOL    HW1 3566   1.896   6.460   5.633
  889SOL    HW2 3567   1.987   6.469   5.498
  890SOL     OW 3568   2.275   4.863   2.237
  890SOL    HW1 3569   2.351   4.916   2.274
  890SOL    HW2 3570   2.189   4.911   2.254
  891SOL     OW 3571   6.125   4.231   1.038
  891SOL    HW1 3572   6.041   4.200   0.994
  891SOL    HW2 3573   6.166   4.155   1.089
  892SOL     OW 3574   4.077   4.148   5.762
  892SOL    HW1 3575   3.977   4.155   5.755
  892SOL    HW2 3576   4.117   4.160   5.671
  893SOL     OW 3577   1.997   1.218   2.206
  893SOL    HW1 3578   2.092   1.236   2.231
  893SOL    HW2 3579   1.967   1.131   2.245
  894SOL     OW 3580   1.675   2.171   3.769
  894SOL    HW1 3581   1.622   2.176   3.684
  894SOL    HW2 3582   1.706   2.077   3.784
  895SOL     OW 3583   1.213   5.840   4.822
  895SOL    HW1 3584   1.141   5.898   4.783
  895SOL    HW2 3585   1.286   5.898   4.859
  896SOL     OW 3586   5.877   6.961   2.407
  896SOL    HW1 3587   5.846   0.033   2.404
  896SOL    HW2 3588   5.841   6.911   2.329
  897SOL     OW 3589   4.912   0.943   0.265
  897SOL    HW1 3590   5.000   0.983   0.289
  897SOL    HW2 3591   4.865   0.911   0.348
  898SOL     OW 3592   4.342   5.952   2.708
  898SOL    HW1 3593   4.265   5.893   2.731
  898SOL    HW2 3594   4.309   6.036   2.665
  899SOL     OW 3595   0.150   5.197   0.210
  899SOL    HW1 3596   0.225   5.244   0.257
  899SOL    HW2 3597   0.067   5.251   0.217
  900SOL     OW 3598   4.755   6.000   1.368
  900SOL    HW1 3599   4.810   6.039   1.442
  900SOL    HW2 3600   4.665   6.044   1.366
  901SOL     OW 3601   1.027   1.033   5.430
  901SOL    HW1 3602   1.127   1.033   5.441
  901SOL    HW2 3603   0.985   1.078   5.509
  902SOL     OW 3604   0.080   2.176   0.024
  902SOL    HW1 3605   0.003   2.122   7.012
  902SOL    HW2 3606   0.166   2.138   7.012
  903SOL     OW 3607   6.813   3.728   6.370
  903SOL    HW1 3608   6.780   3.796   6.435
  903SOL    HW2 3609   6.871   3.662   6.418
  904SOL     OW 3610   1.849   2.817   3.757
  904SOL    HW1 3611   1.820   2.911   3.741
  904SOL    HW2 3612   1.771   2.755   3.741
  905SOL     OW 3613   4.607   3.634   6.446
  905SOL    HW1 3614   4.665   3.552   6.439
  905SOL    HW2 3615   4.573   3.658   6.355
  906SOL     OW 3616   0.819   3.572   5.844
  906SOL    HW1 3617   0.802   3.479   5.877
  906SOL    HW2 3618   0.812   3.636   5.921
  907SOL     OW 3619   6.173   3.236   2.830
  907SOL    HW1 3620   6.207   3.169   2.896
  907SOL    HW2 3621   6.081   3.211   2.801
  908SOL     OW 3622   1.700   6.109   3.333
  908SOL    HW1 3623   1.796   6.136   3.321
  908SOL    HW2 3624   1.686   6.018   3.293
  909SOL     OW 3625   2.726   6.477   2.008
  909SOL    HW1 3626   2.665   6.554   1.985
  909SOL    HW2 3627   2.783   6.455   1.928
  910SOL     OW 3628   2.561   0.389   1.274
  910SOL    HW1 3629   2.492   0.333   1.230
  910SOL    HW2 3630   2.576   0.472   1.220
  911SOL     OW 3631   0.192   5.350   1.134
  911SOL    HW1 3632   0.264   5.376   1.198
  911SOL    HW2 3633   0.224   5.274   1.077
  912SOL     OW 3634   6.149   0.698   4.436
  912SOL    HW1 3635   6.093   0.715   4.517
  912SOL    HW2 3636   6.194   0.610   4.443
  913SOL     OW 3637   1.882   0.670   3.495
  913SOL    HW1 3638   1.802   0.619   3.463
  913SOL    HW2 3639   1.913   0.732   3.423
  914SOL     OW 3640   2.807   6.092   4.800
  914SOL    HW1 3641   2.860   6.175   4.784
  914SOL    HW2 3642   2.818   6.030   4.723
  915SOL     OW 3643   1.221   3.406   0.025
  915SOL    HW1 3644   1.135   3.457   0.022
  915SOL    HW2 3645   1.288   3.457   0.079
  916SOL     OW 3646   1.530   2.648   1.797
  916SOL    HW1 3647   1.603   2.588   1.765
  916SOL    HW2 3648   1.489   2.696   1.720
  917SOL     OW 3649   5.406   0.484   1.956
  917SOL    HW1 3650   5.328   0.430   1.990
  917SOL    HW2 3651   5.453   0.525   2.034
  918SOL     OW 3652   2.593   6.639   6.689
  918SOL    HW1 3653   2.542   6.629   6.604
  918SOL    HW2 3654   2.647   6.556   6.705
  919SOL     OW 3655   6.588   5.849   2.376
  919SOL    HW1 3656   6.644   5.925   2.409
  919SOL    HW2 3657   6.646   5.769   2.358
  920SOL     OW 3658   1.989   5.941   3.398
  920SOL    HW1 3659   1.989   6.023   3.341
  920SOL    HW2 3660   1.948   5.962   3.487
  921SOL     OW 3661   4.753   4.302   4.007
  921SOL    HW1 3662   4.756   4.261   3.916
  921SOL    HW2 3663   4.805   4.246   4.071
  922SOL     OW 3664   3.400   2.649   5.965
  922SOL    HW1 3665   3.358   2.560   5.953
  922SOL    HW2 3666   3.412   2.693   5.875
  923SOL     OW 3667   2.977   4.608   6.403
  923SOL    HW1 3668   2.933   4.522   6.431
  923SOL    HW2 3669   2.994   4.606   6.305
  924SOL     OW 3670   6.752   2.923   2.805
  924SOL    HW1 3671   6.706   3.012   2.802
  924SOL    HW2 3672   6.692   2.856   2.849
  925SOL     OW 3673   7.022   1.865   5.862
  925SOL    HW1 3674   0.011   1.938   5.930
  925SOL    HW2 3675   0.063   1.790   5.883
  926SOL     OW 3676   6.638   1.194   0.506
  926SOL    HW1 3677   6.610   1.279   0.463
  926SOL    HW2 3678   6.652   1.124   0.436
  927SOL     OW 3679   5.519   4.051   3.363
  927SOL    HW1 3680   5.438   4.025   3.311
  927SOL    HW2 3681   5.601   4.033   3.308
  928SOL     OW 3682   1.523   6.617   0.438
  928SOL    HW1 3683   1.484   6.682   0.504
  928SOL    HW2 3684   1.588   6.665   0.379
  929SOL     OW 3685   0.717   0.900   1.270
  929SOL    HW1 3686   0.664   0.979   1.239
  929SOL    HW2 3687   0.815   0.920   1.261
  930SOL     OW 3688   5.500   6.031   4.700
  930SOL    HW1 3689   5.536   5.938   4.701
  930SOL    HW2 3690   5.540   6.083   4.776
  931SOL     OW 3691   5.558   3.541   2.607
  931SOL    HW1 3692   5.566   3.602   2.528
  931SOL    HW2 3693   5.611   3.579   2.683
  932SOL     OW 3694   2.729   6.594   2.684
  932SOL    HW1 3695   2.786   6.635   2.755
  932SOL    HW2 3696   2.772   6.509   2.652
  933SOL     OW 3697   0.965   5.787   3.405
  933SOL    HW1 3698   0.939   5.707   3.352
  933SOL    HW2 3699   0.915   5.867   3.372
  934SOL     OW 3700   1.593   0.906   4.686
  934SOL    HW1 3701   1.525   0.978   4.700
  934SOL    HW2 3702   1.558   0.839   4.620
  935SOL     OW 3703   5.274   3.751   5.434
  935SOL    HW1 3704   5.265   3.699   5.519
  935SOL    HW2 3705   5.183   3.765   5.393
  936SOL     OW 3706   1.607   1.288   6.239
  936SOL    HW1 3707   1.521   1.248   6.271
  936SOL    HW2 3708   1.654   1.223   6.179
  937SOL     OW 3709   4.947   1.563   4.508
  937SOL    HW1 3710   5.026   1.578   4.568
  937SOL    HW2 3711   4.873   1.522   4.560
  938SOL     OW 3712   0.403   5.453   6.331
  938SOL    HW1 3713   0.318   5.479   6.285
  938SOL    HW2 3714   0.456   5.394   6.270
  939SOL     OW 3715   4.646   0.714   5.511
  939SOL    HW1 3716   4.624   0.656   5.432
  939SOL    HW2 3717   4.629   0.662   5.595
  940SOL     OW 3718   0.620   3.249   2.654
  940SOL    HW1 3719   0.664   3.326   2.699
  940SOL    HW2 3720   0.541   3.282   2.601
  941SOL     OW 3721   6.515   0.622   4.646
  941SOL    HW1 3722   6.466   0.701   4.610
  941SOL    HW2 3723   6.486   0.604   4.740
  942SOL     OW 3724   5.075   0.031   3.826
  942SOL    HW1 3725   5.015   0.061   3.900
  942SOL    HW2 3726   5.035   0.057   3.738
  943SOL     OW 3727   1.173   3.710   3.990
  943SOL    HW1 3728   1.224   3.796   3.988
  943SOL    HW2 3729   1.087   3.721   3.940
  944SOL     OW 3730   6.816   3.885   5.606
  944SOL    HW1 3731   6.825   3.961   5.671
  944SOL    HW2 3732   6.733   3.898   5.551
  945SOL     OW 3733   6.646   4.457   5.613
  945SOL    HW1 3734   6.606   4.543   5.582
  945SOL    HW2 3735   6.697   4.472   5.697
  946SOL     OW 3736   4.585   3.559   5.859
  946SOL    HW1 3737   4.565   3.553   5.761
  946SOL    HW2 3738   4.500   3.571   5.910
  947SOL     OW 3739   3.284   3.002   4.254
  947SOL    HW1 3740   3.302   3.085   4.307
  947SOL    HW2 3741   3.201   3.015   4.199
  948SOL     OW 3742   4.185   0.642   0.944
  948SOL    HW1 3743   4.275   0.663   0.983
  948SOL    HW2 3744   4.178   0.681   0.852
  949SOL     OW 3745   0.713   6.577   6.506
  949SOL    HW1 3746   0.751   6.486   6.525
  949SOL    HW2 3747   0.745   6.609   6.417
  950SOL     OW 3748   4.213   5.029   1.848
  950SOL    HW1 3749   4.263   5.110   1.879
  950SOL    HW2 3750   4.182   4.977   1.927
  951SOL     OW 3751   1.715   0.705   2.725
  951SOL    HW1 3752   1.782   0.643   2.765
  951SOL    HW2 3753   1.633   0.708   2.783
  952SOL     OW 3754   5.583   1.815   2.540
  952SOL    HW1 3755   5.488   1.829   2.511
  952SOL    HW2 3756   5.624   1.743   2.485
  953SOL     OW 3757   5.197   5.606   4.955
  953SOL    HW1 3758   5.147   5.627   4.871
  953SOL    HW2 3759   5.271   5.542   4.935
  954SOL     OW 3760   5.000   5.472   0.491
  954SOL    HW1 3761   5.064   5.414   0.542
  954SOL    HW2 3762   4.947   5.416   0.428
  955SOL     OW 3763   0.090   5.192   3.420
  955SOL    HW1 3764   0.071   5.233   3.510
  955SOL    HW2 3765   0.169   5.132   3.428
  956SOL     OW 3766   0.217   2.293   2.774
  956SOL    HW1 3767   0.187   2.277   2.681
  956SOL    HW2 3768   0.167   2.233   2.837
  957SOL     OW 3769   1.150   5.238   4.480
  957SOL    HW1 3770   1.092   5.157   4.493
  957SOL    HW2 3771   1.204   5.253   4.563
  958SOL     OW 3772   4.551   2.553   2.279
  958SOL    HW1 3773   4.557   2.534   2.181
  958SOL    HW2 3774   4.465   2.516   2.314
  959SOL     OW 3775   3.265   5.486   3.379
  959SOL    HW1 3776   3.170   5.489   3.410
  959SOL    HW2 3777   3.284   5.565   3.321
  960SOL     OW 3778   0.202   5.688   3.332
  960SOL    HW1 3779   0.300   5.679   3.317
  960SOL    HW2 3780   0.156   5.702   3.244
  961SOL     OW 3781   4.733   0.068   3.541
  961SOL    HW1 3782   4.688   0.059   3.452
  961SOL    HW2 3783   4.664   0.081   3.612
  962SOL     OW 3784   1.043   0.681   4.061
  962SOL    HW1 3785   1.047   0.738   3.979
  962SOL    HW2 3786   1.135   0.672   4.100
  963SOL     OW 3787   6.832   2.517   6.043
  963SOL    HW1 3788   6.902   2.550   5.980
  963SOL    HW2 3789   6.780   2.595   6.078
  964SOL     OW 3790   6.251   4.163   0.295
  964SOL    HW1 3791   6.341   4.146   0.335
  964SOL    HW2 3792   6.250   4.256   0.256
  965SOL     OW 3793   5.840   1.840   0.952
  965SOL    HW1 3794   5.769   1.869   1.016
  965SOL    HW2 3795   5.821   1.878   0.862
  966SOL     OW 3796   5.229   2.836   2.106
  966SOL    HW1 3797   5.160   2.856   2.175
  966SOL    HW2 3798   5.209   2.748   2.063
  967SOL     OW 3799   2.663   4.782   1.583
  967SOL    HW1 3800   2.573   4.748   1.555
  967SOL    HW2 3801   2.686   4.745   1.673
  968SOL     OW 3802   3.793   1.825   2.564
  968SOL    HW1 3803   3.694   1.815   2.569
  968SOL    HW2 3804   3.821   1.832   2.468
  969SOL     OW 3805   3.691   5.593   6.892
  969SOL    HW1 3806   3.698   5.683   6.848
  969SOL    HW2 3807   3.595   5.577   6.917
  970SOL     OW 3808   4.636   1.305   5.347
  970SOL    HW1 3809   4.705   1.300   5.276
  970SOL    HW2 3810   4.591   1.216   5.356
  971SOL     OW 3811   6.832   2.144   2.583
  971SOL    HW1 3812   6.862   2.225   2.532
  971SOL    HW2 3813   6.900   2.120   2.652
  972SOL     OW 3814   5.467   4.092   1.514
  972SOL    HW1 3815   5.517   4.174   1.543
  972SOL    HW2 3816   5.483   4.078   1.416
  973SOL     OW 3817   6.823   4.483   6.870
  973SOL    HW1 3818   6.824   4.480   6.770
  973SOL    HW2 3819   6.886   4.554   6.902
  974SOL     OW 3820   5.357   0.158   2.291
  974SOL    HW1 3821   5.274   0.138   2.238
  974SOL    HW2 3822   5.427   0.194   2.229
  975SOL     OW 3823   1.716   5.971   6.764
  975SOL    HW1 3824   1.744   6.059   6.727
  975SOL    HW2 3825   1.747   5.898   6.704
  976SOL     OW 3826   6.468   3.352   3.025
  976SOL    HW1 3827   6.534   3.420   2.994
  976SOL    HW2 3828   6.475   3.270   2.967
  977SOL     OW 3829   1.401   0.583   3.346
  977SOL    HW1 3830   1.467   0.570   3.421
  977SOL    HW2 3831   1.436   0.653   3.284
  978SOL     OW 3832   4.997   3.837   5.532
  978SOL    HW1 3833   4.915   3.799   5.575
  978SOL    HW2 3834   5.007   3.799   5.440
  979SOL     OW 3835   0.213   2.021   1.059
  979SOL    HW1 3836   0.206   1.944   1.121
  979SOL    HW2 3837   0.250   1.991   0.971
  980SOL     OW 3838   4.114   2.310   3.950
  980SOL    HW1 3839   4.141   2.226   3.996
  980SOL    HW2 3840   4.014   2.315   3.946
  981SOL     OW 3841   1.100   1.994   5.397
  981SOL    HW1 3842   1.150   1.939   5.330
  981SOL    HW2 3843   1.027   1.939   5.437
  982SOL     OW 3844   2.567   2.074   3.359
  982SOL    HW1 3845   2.518   1.993   3.328
  982SOL    HW2 3846   2.531   2.104   3.447
  983SOL     OW 3847   5.822   2.220   4.795
  983SOL    HW1 3848   5.907   2.220   4.741
  983SOL    HW2 3849   5.843   2.244   4.890
  984SOL     OW 3850   3.116   1.712   4.094
  984SOL    HW1 3851   3.204   1.694   4.137
  984SOL    HW2 3852   3.043   1.669   4.147
  985SOL     OW 3853   5.142   5.131   6.535
  985SOL    HW1 3854   5.170   5.189   6.458
  985SOL    HW2 3855   5.213   5.063   6.553
  986SOL     OW 3856   5.597   4.054   0.798
  986SOL    HW1 3857   5.594   3.985   0.725
  986SOL    HW2 3858   5.552   4.018   0.880
  987SOL     OW 3859   4.450   7.004   1.869
  987SOL    HW1 3860   4.383   0.046   1.905
  987SOL    HW2 3861   4.539   0.026   1.862
  988SOL     OW 3862   3.463   3.250   3.047
  988SOL    HW1 3863   3.520   3.238   3.129
  988SOL    HW2 3864   3.447   3.160   3.005
  989SOL     OW 3865   6.556   0.964   5.180
  989SOL    HW1 3866   6.610   0.938   5.260
  989SOL    HW2 3867   6.492   0.890   5.159
  990SOL     OW 3868   4.416   0.752   2.089
  990SOL    HW1 3869   4.439   0.797   2.003
  990SOL    HW2 3870   4.364   0.668   2.070
  991SOL     OW 3871   1.645   2.734   5.066
  991SOL    HW1 3872   1.688   2.735   4.976
  991SOL    HW2 3873   1.670   2.649   5.113
  992SOL     OW 3874   0.007   2.747   2.239
  992SOL    HW1 3875   0.050   2.780   2.154
  992SOL    HW2 3876   6.932   2.732   2.223
  993SOL     OW 3877   1.521   4.496   2.264
  993SOL    HW1 3878   1.592   4.460   2.203
  993SOL    HW2 3879   1.469   4.567   2.217
  994SOL     OW 3880   3.047   4.034   1.999
  994SOL    HW1 3881   3.025   4.081   2.085
  994SOL    HW2 3882   2.962   4.012   1.951
  995SOL     OW 3883   3.869   3.051   5.583
  995SOL    HW1 3884   3.894   3.148   5.579
  995SOL    HW2 3885   3.828   3.031   5.672
  996SOL     OW 3886   1.739   4.535   4.377
  996SOL    HW1 3887   1.827   4.560   4.336
  996SOL    HW2 3888   1.737   4.565   4.472
  997SOL     OW 3889   0.759   0.775   3.313
  997SOL    HW1 3890   0.759   0.875   3.305
  997SOL    HW2 3891   0.805   0.735   3.234
  998SOL     OW 3892   3.853   0.010   4.570
  998SOL    HW1 3893   3.938   6.980   4.560
  998SOL    HW2 3894   3.790   7.008   4.496
  999SOL     OW 3895   5.168   4.357   2.294
  999SOL    HW1 3896   5.230   4.372   2.371
  999SOL    HW2 3897   5.202   4.407   2.214
 1000SOL     OW 3898   1.260   0.661   1.663
 1000SOL    HW1 3899   1.243   0.723   1.740
 1000SOL    HW2 3900   1.358   0.647   1.652
 1001SOL     OW 3901   5.980   6.819   1.064
 1001SOL    HW1 3902   6.045   6.772   1.123
 1001SOL    HW2 3903   6.007   6.915   1.055
 1002SOL     OW 3904   5.982   1.902   0.189
 1002SOL    HW1 3905   6.051   1.905   0.261
 1002SOL    HW2 3906   6.017   1.948   0.107
 1003SOL     OW 3907   2.246   5.859   1.745
 1003SOL    HW1 3908   2.191   5.794   1.797
 1003SOL    HW2 3909   2.306   5.808   1.682
 1004SOL     OW 3910   0.235   0.222   1.652
 1004SOL    HW1 3911   0.232   0.172   1.566
 1004SOL    HW2 3912   0.159   0.288   1.655
 1005SOL     OW 3913   0.821   2.390   3.283
 1005SOL    HW1 3914   0.753   2.351   3.221
 1005SOL    HW2 3915   0.842   2.483   3.255
 1006SOL     OW 3916   1.250   4.760   0.866
 1006SOL    HW1 3917   1.315   4.833   0.885
 1006SOL    HW2 3918   1.288   4.696   0.799
 1007SOL     OW 3919   5.130   6.940   4.364
 1007SOL    HW1 3920   5.115   6.975   4.272
 1007SOL    HW2 3921   5.215   6.978   4.400
 1008SOL     OW 3922   2.164   3.417   5.015
 1008SOL    HW1 3923   2.207   3.495   4.969
 1008SOL    HW2 3924   2.184   3.420   5.113
 1009SOL     OW 3925   0.481   5.530   5.038
 1009SOL    HW1 3926   0.466   5.432   5.023
 1009SOL    HW2 3927   0.554   5.543   5.105
 1010SOL     OW 3928   3.813   2.644   5.977
 1010SOL    HW1 3929   3.828   2.566   5.916
 1010SOL    HW2 3930   3.792   2.611   6.069
 1011SOL     OW 3931   2.453   5.314   2.306
 1011SOL    HW1 3932   2.436   5.410   2.285
 1011SOL    HW2 3933   2.523   5.307   2.376
 1012SOL     OW 3934   6.271   0.371   0.946
 1012SOL    HW1 3935   6.344   0.406   1.004
 1012SOL    HW2 3936   6.224   0.296   0.992
 1013SOL     OW 3937   0.859   0.890   6.015
 1013SOL    HW1 3938   0.939   0.856   6.064
 1013SOL    HW2 3939   0.883   0.972   5.963
 1014SOL     OW 3940   4.797   5.789   6.873
 1014SOL    HW1 3941   4.895   5.805   6.884
 1014SOL    HW2 3942   4.746   5.859   6.922
 1015SOL     OW 3943   2.001   6.727   5.446
 1015SOL    HW1 3944   1.903   6.738   5.463
 1015SOL    HW2 3945   2.045   6.689   5.528
 1016SOL     OW 3946   3.719   3.258   0.109
 1016SOL    HW1 3947   3.659   3.327   0.068
 1016SOL    HW2 3948   3.681   3.167   0.091
 1017SOL     OW 3949   4.061   2.471   1.203
 1017SOL    HW1 3950   4.098   2.502   1.291
 1017SOL    HW2 3951   4.003   2.391   1.217
 1018SOL     OW 3952   0.634   3.342   4.352
 1018SOL    HW1 3953   0.571   3.346   4.430
 1018SOL    HW2 3954   0.728   3.342   4.385
 1019SOL     OW 3955   0.007   0.551   0.882
 1019SOL    HW1 3956   0.093   0.506   0.907
 1019SOL    HW2 3957   7.009   0.532   0.786
 1020SOL     OW 3958   0.970   6.751   1.249
 1020SOL    HW1 3959   1.045   6.693   1.218
 1020SOL    HW2 3960   0.905   6.696   1.301
 1021SOL     OW 3961   5.603   0.532   1.433
 1021SOL    HW1 3962   5.602   0.532   1.333
 1021SOL    HW2 3963   5.510   0.547   1.467
 1022SOL     OW 3964   3.348   4.967   6.391
 1022SOL    HW1 3965   3.315   5.052   6.430
 1022SOL    HW2 3966   3.271   4.909   6.366
 1023SOL     OW 3967   1.113   6.946   2.361
 1023SOL    HW1 3968   1.078   6.933   2.454
 1023SOL    HW2 3969   1.051   7.005   2.310
 1024SOL     OW 3970   6.893   3.046   4.191
 1024SOL    HW1 3971   6.803   3.031   4.231
 1024SOL    HW2 3972   6.937   3.123   4.236
 1025SOL     OW 3973   2.806   3.031   0.872
 1025SOL    HW1 3974   2.743   3.108   0.884
 1025SOL    HW2 3975   2.783   2.982   0.788
 1026SOL     OW 3976   2.234   2.796   1.242
 1026SOL    HW1 3977   2.188   2.708   1.251
 1026SOL    HW2 3978   2.320   2.794   1.293
 1027SOL     OW 3979   3.052   6.648   1.020
 1027SOL    HW1 3980   3.112   6.721   1.052
 1027SOL    HW2 3981   3.086   6.612   0.933
 1028SOL     OW 3982   3.004   6.494   0.018
 1028SOL    HW1 3983   2.957   6.534   0.097
 1028SOL    HW2 3984   2.979   6.544   6.958
 1029SOL     OW 3985   2.019   0.398   0.018
 1029SOL    HW1 3986   2.063   0.449   0.092
 1029SOL    HW2 3987   1.981   0.313   0.054
 1030SOL     OW 3988   3.380   3.942   1.491
 1030SOL    HW1 3989   3.357   3.846   1.507
 1030SOL    HW2 3990   3.474   3.959   1.520
 1031SOL     OW 3991   4.745   5.137   0.812
 1031SOL    HW1 3992   4.717   5.230   0.790
 1031SOL    HW2 3993   4.776   5.091   0.729
 1032SOL     OW 3994   2.064   1.550   4.836
 1032SOL    HW1 3995   2.094   1.481   4.902
 1032SOL    HW2 3996   2.099   1.639   4.863
 1033SOL     OW 3997   1.307   6.025   0.670
 1033SOL    HW1 3998   1.238   5.955   0.685
 1033SOL    HW2 3999   1.366   5.998   0.594
 1034SOL     OW 4000   0.486   5.529   5.423
 1034SOL    HW1 4001   0.428   5.499   5.499
 1034SOL    HW2 4002   0.444   5.608   5.379
 1035SOL     OW 4003   1.200   1.396   4.248
 1035SOL    HW1 4004   1.163   1.395   4.154
 1035SOL    HW2 4005   1.300   1.393   4.244
 1036SOL     OW 4006   2.717   1.299   2.191
 1036SOL    HW1 4007   2.754   1.211   2.164
 1036SOL    HW2 4008   2.789   1.369   2.184
 1037SOL     OW 4009   1.560   0.591   1.630
 1037SOL    HW1 4010   1.581   0.530   1.707
 1037SOL    HW2 4011   1.642   0.644   1.606
 1038SOL     OW 4012   1.495   0.251   5.886
 1038SOL    HW1 4013   1.409   0.237   5.837
 1038SOL    HW2 4014   1.515   0.170   5.941
 1039SOL     OW 4015   3.497   3.159   5.690
 1039SOL    HW1 4016   3.536   3.240   5.733
 1039SOL    HW2 4017   3.553   3.079   5.713
 1040SOL     OW 4018   4.823   2.910   2.467
 1040SOL    HW1 4019   4.861   3.003   2.469
 1040SOL    HW2 4020   4.796   2.888   2.373
 1041SOL     OW 4021   5.974   0.010   4.576
 1041SOL    HW1 4022   5.916   0.070   4.521
 1041SOL    HW2 4023   5.937   6.940   4.575
 1042SOL     OW 4024   3.653   5.226   2.664
 1042SOL    HW1 4025   3.749   5.236   2.638
 1042SOL    HW2 4026   3.602   5.307   2.633
 1043SOL     OW 4027   4.053   1.399   4.443
 1043SOL    HW1 4028   4.141   1.425   4.482
 1043SOL    HW2 4029   3.990   1.476   4.447
 1044SOL     OW 4030   4.873   4.454   2.166
 1044SOL    HW1 4031   4.944   4.504   2.214
 1044SOL    HW2 4032   4.823   4.397   2.231
 1045SOL     OW 4033   3.908   6.046   2.168
 1045SOL    HW1 4034   3.883   6.072   2.075
 1045SOL    HW2 4035   3.825   6.027   2.220
 1046SOL     OW 4036   1.164   0.125   0.453
 1046SOL    HW1 4037   1.072   0.164   0.462
 1046SOL    HW2 4038   1.217   0.147   0.535
 1047SOL     OW 4039   1.564   0.112   3.063
 1047SOL    HW1 4040   1.598   0.205   3.057
 1047SOL    HW2 4041   1.580   0.077   3.155
 1048SOL     OW 4042   5.482   6.443   5.012
 1048SOL    HW1 4043   5.549   6.449   4.939
 1048SOL    HW2 4044   5.440   6.353   5.012
 1049SOL     OW 4045   6.029   5.442   3.695
 1049SOL    HW1 4046   5.964   5.366   3.693
 1049SOL    HW2 4047   6.109   5.418   3.638
 1050SOL     OW 4048   4.304   5.463   0.904
 1050SOL    HW1 4049   4.340   5.386   0.956
 1050SOL    HW2 4050   4.359   5.476   0.822
 1051SOL     OW 4051   2.425   5.689   0.534
 1051SOL    HW1 4052   2.387   5.599   0.516
 1051SOL    HW2 4053   2.509   5.681   0.589
 1052SOL     OW 4054   3.539   0.814   4.575
 1052SOL    HW1 4055   3.497   0.849   4.659
 1052SOL    HW2 4056   3.610   0.748   4.598
 1053SOL     OW 4057   5.310   5.202   3.209
 1053SOL    HW1 4058   5.300   5.301   3.203
 1053SOL    HW2 4059   5.240   5.158   3.153
 1054SOL     OW 4060   2.260   3.731   5.593
 1054SOL    HW1 4061   2.317   3.805   5.630
 1054SOL    HW2 4062   2.318   3.665   5.545
 1055SOL     OW 4063   5.272   6.381   3.660
 1055SOL    HW1 4064   5.273   6.478   3.635
 1055SOL    HW2 4065   5.309   6.370   3.752
 1056SOL     OW 4066   1.874   4.776   6.077
 1056SOL    HW1 4067   1.816   4.839   6.024
 1056SOL    HW2 4068   1.834   4.685   6.075
 1057SOL     OW 4069   3.503   3.151   2.635
 1057SOL    HW1 4070   3.503   3.187   2.542
 1057SOL    HW2 4071   3.424   3.091   2.647
 1058SOL     OW 4072   5.058   1.629   2.839
 1058SOL    HW1 4073   5.133   1.693   2.821
 1058SOL    HW2 4074   5.082   1.569   2.916
 1059SOL     OW 4075   2.567   0.457   1.538
 1059SOL    HW1 4076   2.545   0.376   1.593
 1059SOL    HW2 4077   2.557   0.436   1.441
 1060SOL     OW 4078   6.935   4.370   4.547
 1060SOL    HW1 4079   6.966   4.462   4.524
 1060SOL    HW2 4080   6.985   4.304   4.492
 1061SOL     OW 4081   5.446   3.738   1.291
 1061SOL    HW1 4082   5.460   3.728   1.389
 1061SOL    HW2 4083   5.467   3.651   1.246
 1062SOL     OW 4084   5.868   4.212   5.712
 1062SOL    HW1 4085   5.797   4.160   5.760
 1062SOL    HW2 4086   5.912   4.153   5.645
 1063SOL     OW 4087   1.635   4.766   1.478
 1063SOL    HW1 4088   1.693   4.787   1.399
 1063SOL    HW2 4089   1.653   4.831   1.551
 1064SOL     OW 4090   1.824   4.678   2.036
 1064SOL    HW1 4091   1.782   4.732   2.108
 1064SOL    HW2 4092   1.793   4.583   2.043
 1065SOL     OW 4093   4.291   0.062   4.025
 1065SOL    HW1 4094   4.232   0.003   3.971
 1065SOL    HW2 4095   4.256   0.069   4.119
 1066SOL     OW 4096   4.775   0.140   3.927
 1066SOL    HW1 4097   4.776   0.219   3.866
 1066SOL    HW2 4098   4.791   0.171   4.021
 1067SOL     OW 4099   0.963   3.265   0.659
 1067SOL    HW1 4100   1.060   3.239   0.652
 1067SOL    HW2 4101   0.932   3.252   0.753
 1068SOL     OW 4102   4.752   4.968   2.541
 1068SOL    HW1 4103   4.672   5.026   2.527
 1068SOL    HW2 4104   4.748   4.889   2.480
 1069SOL     OW 4105   4.856   4.717   0.457
 1069SOL    HW1 4106   4.793   4.726   0.534
 1069SOL    HW2 4107   4.830   4.780   0.384
 1070SOL     OW 4108   0.926   0.442   2.146
 1070SOL    HW1 4109   0.886   0.511   2.206
 1070SOL    HW2 4110   0.855   0.405   2.086
 1071SOL     OW 4111   2.337   0.718   3.710
 1071SOL    HW1 4112   2.268   0.676   3.651
 1071SOL    HW2 4113   2.411   0.653   3.726
 1072SOL     OW 4114   1.800   6.474   1.371
 1072SOL    HW1 4115   1.756   6.535   1.437
 1072SOL    HW2 4116   1.815   6.384   1.414
 1073SOL     OW 4117   4.289   6.625   2.022
 1073SOL    HW1 4118   4.195   6.657   2.010
 1073SOL    HW2 4119   4.346   6.658   1.947
 1074SOL     OW 4120   2.736   5.556   0.291
 1074SOL    HW1 4121   2.777   5.641   0.324
 1074SOL    HW2 4122   2.747   5.484   0.361
 1075SOL     OW 4123   3.991   6.547   3.641
 1075SOL    HW1 4124   3.997   6.642   3.612
 1075SOL    HW2 4125   4.081   6.515   3.670
 1076SOL     OW 4126   6.674   4.218   5.477
 1076SOL    HW1 4127   6.701   4.224   5.381
 1076SOL    HW2 4128   6.696   4.304   5.523
 1077SOL     OW 4129   5.870   0.316   0.894
 1077SOL    HW1 4130   5.845   0.320   0.991
 1077SOL    HW2 4131   5.812   0.378   0.842
 1078SOL     OW 4132   0.731   1.359   2.476
 1078SOL    HW1 4133   0.677   1.325   2.399
 1078SOL    HW2 4134   0.685   1.439   2.516
 1079SOL     OW 4135   1.909   6.268   2.068
 1079SOL    HW1 4136   1.884   6.223   1.982
 1079SOL    HW2 4137   1.829   6.315   2.105
 1080SOL     OW 4138   1.886   4.600   3.552
 1080SOL    HW1 4139   1.834   4.588   3.637
 1080SOL    HW2 4140   1.970   4.546   3.556
 1081SOL     OW 4141   0.115   6.340   6.090
 1081SOL    HW1 4142   0.153   6.249   6.074
 1081SOL    HW2 4143   0.023   6.344   6.051
 1082SOL     OW 4144   3.779   2.001   6.512
 1082SOL    HW1 4145   3.829   2.048   6.440
 1082SOL    HW2 4146   3.721   1.930   6.471
 1083SOL     OW 4147   4.259   4.006   1.090
 1083SOL    HW1 4148   4.313   4.041   1.166
 1083SOL    HW2 4149   4.300   3.921   1.056
 1084SOL     OW 4150   6.431   5.488   1.075
 1084SOL    HW1 4151   6.426   5.413   1.140
 1084SOL    HW2 4152   6.418   5.452   0.982
 1085SOL     OW 4153   1.066   4.016   3.794
 1085SOL    HW1 4154   1.149   4.018   3.850
 1085SOL    HW2 4155   1.072   4.086   3.723
 1086SOL     OW 4156   6.798   5.908   1.882
 1086SOL    HW1 4157   6.755   5.830   1.928
 1086SOL    HW2 4158   6.741   5.936   1.805
 1087SOL     OW 4159   6.116   3.320   5.460
 1087SOL    HW1 4160   6.209   3.341   5.431
 1087SOL    HW2 4161   6.105   3.221   5.468
 1088SOL     OW 4162   6.298   4.526   3.359
 1088SOL    HW1 4163   6.211   4.558   3.397
 1088SOL    HW2 4164   6.280   4.461   3.286
 1089SOL     OW 4165   1.473   6.742   4.543
 1089SOL    HW1 4166   1.486   6.694   4.457
 1089SOL    HW2 4167   1.393   6.706   4.590
 1090SOL     OW 4168   2.435   1.325   3.731
 1090SOL    HW1 4169   2.527   1.298   3.760
 1090SOL    HW2 4170   2.368   1.281   3.791
 1091SOL     OW 4171   2.623   2.853   5.387
 1091SOL    HW1 4172   2.542   2.794   5.384
 1091SOL    HW2 4173   2.608   2.932   5.327
 1092SOL     OW 4174   1.808   3.748   0.543
 1092SOL    HW1 4175   1.787   3.842   0.571
 1092SOL    HW2 4176   1.810   3.689   0.623
 1093SOL     OW 4177   1.609   1.620   2.034
 1093SOL    HW1 4178   1.530   1.620   1.973
 1093SOL    HW2 4179   1.579   1.641   2.127
 1094SOL     OW 4180   0.761   6.265   3.929
 1094SOL    HW1 4181   0.755   6.199   3.854
 1094SOL    HW2 4182   0.729   6.354   3.897
 1095SOL     OW 4183   0.659   2.596   5.853
 1095SOL    HW1 4184   0.664   2.674   5.915
 1095SOL    HW2 4185   0.657   2.629   5.758
 1096SOL     OW 4186   3.388   4.570   1.653
 1096SOL    HW1 4187   3.447   4.609   1.724
 1096SOL    HW2 4188   3.386   4.471   1.662
 1097SOL     OW 4189   1.524   4.320   4.176
 1097SOL    HW1 4190   1.571   4.293   4.260
 1097SOL    HW2 4191   1.468   4.243   4.144
 1098SOL     OW 4192   4.617   3.368   0.938
 1098SOL    HW1 4193   4.707   3.338   0.905
 1098SOL    HW2 4194   4.546   3.314   0.894
 1099SOL     OW 4195   4.437   1.739   5.289
 1099SOL    HW1 4196   4.405   1.746   5.195
 1099SOL    HW2 4197   4.533   1.711   5.290
 1100SOL     OW 4198   3.419   1.954   6.357
 1100SOL    HW1 4199   3.443   1.906   6.441
 1100SOL    HW2 4200   3.450   1.901   6.278
 1101SOL     OW 4201   6.347   2.325   0.114
 1101SOL    HW1 4202   6.417   2.292   0.176
 1101SOL    HW2 4203   6.330   2.256   0.043
 1102SOL     OW 4204   0.490   5.609   3.917
 1102SOL    HW1 4205   0.575   5.631   3.868
 1102SOL    HW2 4206   0.416   5.599   3.851
 1103SOL     OW 4207   3.648   1.562   0.816
 1103SOL    HW1 4208   3.568   1.517   0.776
 1103SOL    HW2 4209   3.720   1.495   0.832
 1104SOL     OW 4210   2.173   3.430   5.291
 1104SOL    HW1 4211   2.231   3.353   5.317
 1104SOL    HW2 4212   2.204   3.512   5.338
 1105SOL     OW 4213   6.031   3.787   4.765
 1105SOL    HW1 4214   6.048   3.694   4.731
 1105SOL    HW2 4215   6.106   3.847   4.735
 1106SOL     OW 4216   0.772   1.981   1.062
 1106SOL    HW1 4217   0.778   1.901   1.122
 1106SOL    HW2 4218   0.851   1.983   1.002
 1107SOL     OW 4219   1.991   0.257   6.353
 1107SOL    HW1 4220   1.999   0.168   6.397
 1107SOL    HW2 4221   1.957   0.324   6.419
 1108SOL     OW 4222   3.353   1.179   6.153
 1108SOL    HW1 4223   3.257   1.188   6.178
 1108SOL    HW2 4224   3.402   1.263   6.177
 1109SOL     OW 4225   4.458   0.143   4.740
 1109SOL    HW1 4226   4.466   0.082   4.819
 1109SOL    HW2 4227   4.534   0.208   4.740
 1110SOL     OW 4228   2.771   2.115   3.167
 1110SOL    HW1 4229   2.695   2.104   3.230
 1110SOL    HW2 4230   2.743   2.175   3.091
 1111SOL     OW 4231   5.144   5.065   6.822
 1111SOL    HW1 4232   5.174   5.114   6.741
 1111SOL    HW2 4233   5.217   5.004   6.854
 1112SOL     OW 4234   5.402   1.449   2.472
 1112SOL    HW1 4235   5.327   1.398   2.432
 1112SOL    HW2 4236   5.485   1.435   2.418
 1113SOL     OW 4237   0.232   3.903   3.338
 1113SOL    HW1 4238   0.301   3.882   3.407
 1113SOL    HW2 4239   0.229   4.002   3.322
 1114SOL     OW 4240   4.313   1.535   6.638
 1114SOL    HW1 4241   4.317   1.561   6.541
 1114SOL    HW2 4242   4.264   1.606   6.689
 1115SOL     OW 4243   4.477   3.067   0.152
 1115SOL    HW1 4244   4.428   3.107   0.230
 1115SOL    HW2 4245   4.505   3.140   0.090
 1116SOL     OW 4246   5.291   5.845   5.429
 1116SOL    HW1 4247   5.283   5.874   5.524
 1116SOL    HW2 4248   5.385   5.861   5.397
 1117SOL     OW 4249   1.693   2.407   1.420
 1117SOL    HW1 4250   1.597   2.406   1.392
 1117SOL    HW2 4251   1.714   2.322   1.469
 1118SOL     OW 4252   2.262   4.198   1.915
 1118SOL    HW1 4253   2.283   4.120   1.856
 1118SOL    HW2 4254   2.260   4.168   2.010
 1119SOL     OW 4255   4.816   4.271   0.557
 1119SOL    HW1 4256   4.838   4.257   0.653
 1119SOL    HW2 4257   4.892   4.318   0.512
 1120SOL     OW 4258   5.898   0.318   4.904
 1120SOL    HW1 4259   5.888   0.378   4.824
 1120SOL    HW2 4260   5.935   0.230   4.874
 1121SOL     OW 4261   4.984   5.134   2.654
 1121SOL    HW1 4262   4.964   5.044   2.691
 1121SOL    HW2 4263   5.083   5.149   2.654
 1122SOL     OW 4264   4.528   3.351   0.133
 1122SOL    HW1 4265   4.554   3.317   0.223
 1122SOL    HW2 4266   4.566   3.442   0.119
 1123SOL     OW 4267   5.472   1.846   3.190
 1123SOL    HW1 4268   5.426   1.802   3.113
 1123SOL    HW2 4269   5.439   1.806   3.276
 1124SOL     OW 4270   6.189   4.120   5.201
 1124SOL    HW1 4271   6.111   4.178   5.225
 1124SOL    HW2 4272   6.272   4.159   5.240
 1125SOL     OW 4273   3.010   1.283   4.789
 1125SOL    HW1 4274   3.099   1.318   4.818
 1125SOL    HW2 4275   2.940   1.354   4.801
 1126SOL     OW 4276   5.335   5.949   6.997
 1126SOL    HW1 4277   5.372   5.873   0.029
 1126SOL    HW2 4278   5.410   6.005   6.963
 1127SOL     OW 4279   4.833   4.926   5.118
 1127SOL    HW1 4280   4.818   4.914   5.216
 1127SOL    HW2 4281   4.853   4.838   5.076
 1128SOL     OW 4282   5.135   1.971   5.410
 1128SOL    HW1 4283   5.166   1.941   5.320
 1128SOL    HW2 4284   5.202   1.943   5.479
 1129SOL     OW 4285   3.239   0.415   6.707
 1129SOL    HW1 4286   3.284   0.486   6.760
 1129SOL    HW2 4287   3.228   0.446   6.612
 1130SOL     OW 4288   1.889   4.372   0.977
 1130SOL    HW1 4289   1.868   4.298   0.913
 1130SOL    HW2 4290   1.987   4.390   0.977
 1131SOL     OW 4291   0.296   6.125   6.109
 1131SOL    HW1 4292   0.214   6.082   6.071
 1131SOL    HW2 4293   0.353   6.056   6.153
 1132SOL     OW 4294   4.858   0.038   1.410
 1132SOL    HW1 4295   4.886   0.115   1.354
 1132SOL    HW2 4296   4.861   0.064   1.507
 1133SOL     OW 4297   0.886   1.116   0.843
 1133SOL    HW1 4298   0.959   1.105   0.776
 1133SOL    HW2 4299   0.842   1.027   0.858
 1134SOL     OW 4300   4.932   1.559   1.634
 1134SOL    HW1 4301   4.868   1.563   1.558
 1134SOL    HW2 4302   4.918   1.638   1.694
 1135SOL     OW 4303   2.022   1.302   2.666
 1135SOL    HW1 4304   2.070   1.388   2.680
 1135SOL    HW2 4305   1.932   1.305   2.710
 1136SOL     OW 4306   3.346   5.537   4.637
 1136SOL    HW1 4307   3.424   5.572   4.689
 1136SOL    HW2 4308   3.320   5.604   4.567
 1137SOL     OW 4309   1.214   1.814   5.606
 1137SOL    HW1 4310   1.313   1.803   5.620
 1137SOL    HW2 4311   1.198   1.883   5.536
 1138SOL     OW 4312   0.572   1.237   6.687
 1138SOL    HW1 4313   0.613   1.147   6.703
 1138SOL    HW2 4314   0.490   1.246   6.745
 1139SOL     OW 4315   3.008   5.553   1.513
 1139SOL    HW1 4316   2.935   5.506   1.465
 1139SOL    HW2 4317   3.006   5.527   1.610
 1140SOL     OW 4318   3.304   1.170   1.975
 1140SOL    HW1 4319   3.206   1.147   1.977
 1140SOL    HW2 4320   3.352   1.117   2.045
 1141SOL     OW 4321   0.058   6.515   6.483
 1141SOL    HW1 4322   0.012   6.572   6.552
 1141SOL    HW2 4323   0.136   6.565   6.446
 1142SOL     OW 4324   2.915   0.280   4.189
 1142SOL    HW1 4325   2.962   0.233   4.114
 1142SOL    HW2 4326   2.982   0.307   4.258
 1143SOL     OW 4327   1.969   3.490   1.618
 1143SOL    HW1 4328   1.988   3.452   1.709
 1143SOL    HW2 4329   1.873   3.517   1.612
 1144SOL     OW 4330   6.073   4.669   5.493
 1144SOL    HW1 4331   6.113   4.596   5.549
 1144SOL    HW2 4332   6.083   4.757   5.540
 1145SOL     OW 4333   6.994   4.161   2.427
 1145SOL    HW1 4334   6.987   4.066   2.459
 1145SOL    HW2 4335   7.003   4.162   2.328
 1146SOL     OW 4336   6.171   0.775   1.637
 1146SOL    HW1 4337   6.204   0.708   1.570
 1146SOL    HW2 4338   6.249   0.818   1.681
 1147SOL     OW 4339   1.742   4.586   1.112
 1147SOL    HW1 4340   1.665   4.610   1.053
 1147SOL    HW2 4341   1.795   4.513   1.069
 1148SOL     OW 4342   4.680   6.840   6.553
 1148SOL    HW1 4343   4.633   6.756   6.581
 1148SOL    HW2 4344   4.654   6.915   6.613
 1149SOL     OW 4345   6.776   4.623   2.764
 1149SOL    HW1 4346   6.772   4.569   2.848
 1149SOL    HW2 4347   6.763   4.563   2.685
 1150SOL     OW 4348   2.421   3.854   0.721
 1150SOL    HW1 4349   2.437   3.920   0.647
 1150SOL    HW2 4350   2.509   3.819   0.754
 1151SOL     OW 4351   5.292   4.918   6.322
 1151SOL    HW1 4352   5.284   4.820   6.302
 1151SOL    HW2 4353   5.201   4.960   6.321
 1152SOL     OW 4354   0.058   5.921   5.584
 1152SOL    HW1 4355   0.017   5.890   5.670
 1152SOL    HW2 4356   0.108   6.006   5.599
 1153SOL     OW 4357   2.462   0.361   2.185
 1153SOL    HW1 4358   2.472   0.456   2.218
 1153SOL    HW2 4359   2.384   0.319   2.230
 1154SOL     OW 4360   0.647   4.204   2.021
 1154SOL    HW1 4361   0.701   4.206   2.105
 1154SOL    HW2 4362   0.668   4.121   1.969
 1155SOL     OW 4363   2.530   5.308   6.722
 1155SOL    HW1 4364   2.552   5.403   6.701
 1155SOL    HW2 4365   2.437   5.288   6.693
 1156SOL     OW 4366   2.615   1.228   4.899
 1156SOL    HW1 4367   2.666   1.156   4.851
 1156SOL    HW2 4368   2.528   1.190   4.932
 1157SOL     OW 4369   6.085   0.612   5.189
 1157SOL    HW1 4370   6.111   0.570   5.276
 1157SOL    HW2 4371   6.090   0.544   5.116
 1158SOL     OW 4372   6.782   5.871   5.296
 1158SOL    HW1 4373   6.813   5.776   5.298
 1158SOL    HW2 4374   6.827   5.920   5.222
 1159SOL     OW 4375   5.597   6.877   3.556
 1159SOL    HW1 4376   5.595   6.829   3.643
 1159SOL    HW2 4377   5.691   6.907   3.537
 1160SOL     OW 4378   3.764   2.884   1.165
 1160SOL    HW1 4379   3.704   2.863   1.242
 1160SOL    HW2 4380   3.725   2.846   1.081
 1161SOL     OW 4381   5.387   0.484   6.394
 1161SOL    HW1 4382   5.355   0.412   6.333
 1161SOL    HW2 4383   5.427   0.444   6.477
 1162SOL     OW 4384   2.832   2.050   6.795
 1162SOL    HW1 4385   2.754   1.996   6.828
 1162SOL    HW2 4386   2.800   2.118   6.729
 1163SOL     OW 4387   6.938   3.138   1.960
 1163SOL    HW1 4388   6.964   3.080   1.883
 1163SOL    HW2 4389   6.892   3.084   2.030
 1164SOL     OW 4390   5.277   2.342   4.478
 1164SOL    HW1 4391   5.265   2.373   4.384
 1164SOL    HW2 4392   5.215   2.393   4.538
 1165SOL     OW 4393   2.045   4.664   4.515
 1165SOL    HW1 4394   2.022   4.705   4.603
 1165SOL    HW2 4395   2.114   4.592   4.530
 1166SOL     OW 4396   3.934   0.016   0.532
 1166SOL    HW1 4397   3.902   0.035   0.439
 1166SOL    HW2 4398   3.910   0.094   0.591
 1167SOL     OW 4399   3.771   6.520   6.458
 1167SOL    HW1 4400   3.749   6.552   6.549
 1167SOL    HW2 4401   3.689   6.518   6.401
 1168SOL     OW 4402   5.994   1.944   3.422
 1168SOL    HW1 4403   6.000   1.852   3.461
 1168SOL    HW2 4404   5.905   1.958   3.381
 1169SOL     OW 4405   5.372   2.740   6.484
 1169SOL    HW1 4406   5.352   2.645   6.509
 1169SOL    HW2 4407   5.328   2.762   6.397
 1170SOL     OW 4408   5.262   1.236   2.347
 1170SOL    HW1 4409   5.165   1.248   2.369
 1170SOL    HW2 4410   5.300   1.162   2.403
 1171SOL     OW 4411   2.765   6.828   0.005
 1171SOL    HW1 4412   2.795   6.769   0.080
 1171SOL    HW2 4413   2.675   6.798   6.996
 1172SOL     OW 4414   3.507   3.918   1.769
 1172SOL    HW1 4415   3.455   4.000   1.794
 1172SOL    HW2 4416   3.604   3.939   1.768
 1173SOL     OW 4417   3.267   6.887   5.827
 1173SOL    HW1 4418   3.273   6.867   5.925
 1173SOL    HW2 4419   3.205   6.964   5.813
 1174SOL     OW 4420   3.121   4.263   0.402
 1174SOL    HW1 4421   3.116   4.205   0.483
 1174SOL    HW2 4422   3.189   4.335   0.417
 1175SOL     OW 4423   4.041   3.088   6.685
 1175SOL    HW1 4424   4.094   3.145   6.747
 1175SOL    HW2 4425   4.000   3.146   6.614
 1176SOL     OW 4426   6.001   4.600   0.517
 1176SOL    HW1 4427   5.910   4.625   0.550
 1176SOL    HW2 4428   5.996   4.510   0.473
 1177SOL     OW 4429   6.969   1.429   5.931
 1177SOL    HW1 4430   6.900   1.472   5.989
 1177SOL    HW2 4431   6.982   1.484   5.848
 1178SOL     OW 4432   4.072   3.819   1.164
 1178SOL    HW1 4433   3.982   3.830   1.121
 1178SOL    HW2 4434   4.122   3.905   1.159
 1179SOL     OW 4435   3.413   5.692   0.692
 1179SOL    HW1 4436   3.374   5.743   0.769
 1179SOL    HW2 4437   3.481   5.748   0.645
 1180SOL     OW 4438   2.414   6.847   3.554
 1180SOL    HW1 4439   2.467   6.827   3.636
 1180SOL    HW2 4440   2.467   6.906   3.494
 1181SOL     OW 4441   6.717   2.560   4.969
 1181SOL    HW1 4442   6.784   2.620   5.010
 1181SOL    HW2 4443   6.719   2.471   5.015
 1182SOL     OW 4444   3.149   5.316   3.798
 1182SOL    HW1 4445   3.144   5.309   3.897
 1182SOL    HW2 4446   3.092   5.245   3.756
 1183SOL     OW 4447   3.857   6.444   1.606
 1183SOL    HW1 4448   3.761   6.450   1.579
 1183SOL    HW2 4449   3.875   6.506   1.681
 1184SOL     OW 4450   4.444   7.022   6.444
 1184SOL    HW1 4451   4.486   6.979   6.364
 1184SOL    HW2 4452   4.351   6.986   6.456
 1185SOL     OW 4453   1.451   0.021   0.838
 1185SOL    HW1 4454   1.479   0.099   0.894
 1185SOL    HW2 4455   1.352   0.013   0.840
 1186SOL     OW 4456   6.057   5.628   6.273
 1186SOL    HW1 4457   6.005   5.637   6.188
 1186SOL    HW2 4458   6.059   5.716   6.320
 1187SOL     OW 4459   5.488   0.182   5.238
 1187SOL    HW1 4460   5.580   0.150   5.264
 1187SOL    HW2 4461   5.420   0.134   5.293
 1188SOL     OW 4462   3.261   6.258   6.429
 1188SOL    HW1 4463   3.242   6.256   6.331
 1188SOL    HW2 4464   3.188   6.211   6.478
 1189SOL     OW 4465   6.230   0.962   2.211
 1189SOL    HW1 4466   6.237   1.040   2.148
 1189SOL    HW2 4467   6.314   0.908   2.207
 1190SOL     OW 4468   3.591   4.885   3.962
 1190SOL    HW1 4469   3.615   4.979   3.939
 1190SOL    HW2 4470   3.674   4.830   3.967
 1191SOL     OW 4471   2.965   6.595   4.458
 1191SOL    HW1 4472   3.024   6.605   4.539
 1191SOL    HW2 4473   3.022   6.578   4.378
 1192SOL     OW 4474   5.392   6.124   2.847
 1192SOL    HW1 4475   5.394   6.213   2.894
 1192SOL    HW2 4476   5.322   6.126   2.776
 1193SOL     OW 4477   0.445   0.731   5.660
 1193SOL    HW1 4478   0.529   0.676   5.666
 1193SOL    HW2 4479   0.426   0.753   5.564
 1194SOL     OW 4480   6.963   1.330   1.073
 1194SOL    HW1 4481   6.875   1.373   1.055
 1194SOL    HW2 4482   6.964   1.291   1.165
 1195SOL     OW 4483   6.911   3.357   1.239
 1195SOL    HW1 4484   6.911   3.347   1.140
 1195SOL    HW2 4485   7.004   3.370   1.272
 1196SOL     OW 4486   6.291   5.019   1.776
 1196SOL    HW1 4487   6.292   4.996   1.679
 1196SOL    HW2 4488   6.197   5.039   1.805
 1197SOL     OW 4489   4.710   6.625   4.074
 1197SOL    HW1 4490   4.669   6.551   4.022
 1197SOL    HW2 4491   4.705   6.604   4.171
 1198SOL     OW 4492   1.301   3.702   2.428
 1198SOL    HW1 4493   1.393   3.695   2.466
 1198SOL    HW2 4494   1.289   3.634   2.356
 1199SOL     OW 4495   3.816   3.298   2.973
 1199SOL    HW1 4496   3.773   3.215   3.010
 1199SOL    HW2 4497   3.821   3.290   2.873
 1200SOL     OW 4498   3.873   3.796   4.592
 1200SOL    HW1 4499   3.872   3.725   4.522
 1200SOL    HW2 4500   3.787   3.793   4.644
 1201SOL     OW 4501   6.675   0.977   4.128
 1201SOL    HW1 4502   6.616   1.058   4.118
 1201SOL    HW2 4503   6.632   0.899   4.083
 1202SOL     OW 4504   6.112   0.821   5.874
 1202SOL    HW1 4505   6.192   0.855   5.825
 1202SOL    HW2 4506   6.128   0.828   5.973
 1203SOL     OW 4507   0.291   6.812   1.325
 1203SOL    HW1 4508   0.202   6.855   1.343
 1203SOL    HW2 4509   0.328   6.847   1.239
 1204SOL     OW 4510   4.412   1.944   1.934
 1204SOL    HW1 4511   4.473   1.887   1.989
 1204SOL    HW2 4512   4.321   1.902   1.931
 1205SOL     OW 4513   3.993   3.290   0.119
 1205SOL    HW1 4514   4.005   3.378   0.073
 1205SOL    HW2 4515   3.895   3.271   0.130
 1206SOL     OW 4516   1.432   2.282   4.391
 1206SOL    HW1 4517   1.470   2.368   4.356
 1206SOL    HW2 4518   1.412   2.293   4.489
 1207SOL     OW 4519   0.113   0.408   6.983
 1207SOL    HW1 4520   0.173   0.436   0.037
 1207SOL    HW2 4521   0.028   0.371   7.020
 1208SOL     OW 4522   3.404   3.521   1.415
 1208SOL    HW1 4523   3.357   3.602   1.448
 1208SOL    HW2 4524   3.502   3.540   1.409
 1209SOL     OW 4525   5.632   0.780   4.164
 1209SOL    HW1 4526   5.699   0.744   4.100
 1209SOL    HW2 4527   5.544   0.734   4.151
 1210SOL     OW 4528   4.935   6.915   3.595
 1210SOL    HW1 4529   4.851   6.965   3.573
 1210SOL    HW2 4530   4.921   6.858   3.676
 1211SOL     OW 4531   1.083   3.544   3.535
 1211SOL    HW1 4532   1.122   3.455   3.560
 1211SOL    HW2 4533   1.133   3.616   3.583
 1212SOL     OW 4534   6.399   0.648   6.147
 1212SOL    HW1 4535   6.376   0.606   6.059
 1212SOL    HW2 4536   6.461   0.725   6.132
 1213SOL     OW 4537   5.691   2.425   2.768
 1213SOL    HW1 4538   5.775   2.411   2.715
 1213SOL    HW2 4539   5.662   2.338   2.807
 1214SOL     OW 4540   0.677   2.294   6.117
 1214SOL    HW1 4541   0.766   2.249   6.129
 1214SOL    HW2 4542   0.615   2.264   6.189
 1215SOL     OW 4543   2.603   5.171   3.036
 1215SOL    HW1 4544   2.648   5.141   2.952
 1215SOL    HW2 4545   2.656   5.245   3.078
 1216SOL     OW 4546   0.174   1.071   0.205
 1216SOL    HW1 4547   0.187   0.979   0.242
 1216SOL    HW2 4548   0.198   1.072   0.108
 1217SOL     OW 4549   2.872   4.990   0.701
 1217SOL    HW1 4550   2.861   5.002   0.602
 1217SOL    HW2 4551   2.796   5.034   0.749
 1218SOL     OW 4552   0.929   3.809   5.524
 1218SOL    HW1 4553   0.929   3.819   5.424
 1218SOL    HW2 4554   1.015   3.845   5.561
 1219SOL     OW 4555   5.100   5.371   1.709
 1219SOL    HW1 4556   5.010   5.412   1.724
 1219SOL    HW2 4557   5.090   5.283   1.663
 1220SOL     OW 4558   6.622   4.195   2.662
 1220SOL    HW1 4559   6.564   4.270   2.631
 1220SOL    HW2 4560   6.570   4.137   2.724
 1221SOL     OW 4561   5.722   3.667   6.175
 1221SOL    HW1 4562   5.803   3.659   6.234
 1221SOL    HW2 4563   5.667   3.744   6.205
 1222SOL     OW 4564   1.020   0.568   0.374
 1222SOL    HW1 4565   1.068   0.632   0.433
 1222SOL    HW2 4566   1.013   0.606   0.281
 1223SOL     OW 4567   3.764   1.486   0.204
 1223SOL    HW1 4568   3.806   1.493   0.295
 1223SOL    HW2 4569   3.826   1.437   0.143
 1224SOL     OW 4570   2.833   5.837   0.136
 1224SOL    HW1 4571   2.865   5.804   0.225
 1224SOL    HW2 4572   2.800   5.760   0.081
 1225SOL     OW 4573   4.196   2.252   0.452
 1225SOL    HW1 4574   4.102   2.267   0.482
 1225SOL    HW2 4575   4.258   2.306   0.508
 1226SOL     OW 4576   4.422   6.206   0.901
 1226SOL    HW1 4577   4.418   6.188   0.803
 1226SOL    HW2 4578   4.354   6.276   0.925
 1227SOL     OW 4579   5.189   5.286   6.265
 1227SOL    HW1 4580   5.113   5.239   6.219
 1227SOL    HW2 4581   5.172   5.385   6.264
 1228SOL     OW 4582   3.330   2.827   0.363
 1228SOL    HW1 4583   3.309   2.831   0.265
 1228SOL    HW2 4584   3.365   2.915   0.394
 1229SOL     OW 4585   2.240   5.497   0.470
 1229SOL    HW1 4586   2.291   5.505   0.385
 1229SOL    HW2 4587   2.148   5.462   0.451
 1230SOL     OW 4588   5.728   5.619   2.291
 1230SOL    HW1 4589   5.784   5.582   2.365
 1230SOL    HW2 4590   5.785   5.672   2.228
 1231SOL     OW 4591   1.673   1.585   5.540
 1231SOL    HW1 4592   1.637   1.599   5.448
 1231SOL    HW2 4593   1.717   1.496   5.546
 1232SOL     OW 4594   5.928   1.390   4.962
 1232SOL    HW1 4595   5.999   1.397   5.032
 1232SOL    HW2 4596   5.927   1.473   4.908
 1233SOL     OW 4597   0.669   5.764   5.080
 1233SOL    HW1 4598   0.689   5.684   5.136
 1233SOL    HW2 4599   0.599   5.819   5.126
 1234SOL     OW 4600   6.188   2.035   5.341
 1234SOL    HW1 4601   6.104   2.019   5.393
 1234SOL    HW2 4602   6.254   1.962   5.362
 1235SOL     OW 4603   6.356   4.872   1.162
 1235SOL    HW1 4604   6.332   4.881   1.258
 1235SOL    HW2 4605   6.290   4.813   1.116
 1236SOL     OW 4606   3.701   0.985   2.248
 1236SOL    HW1 4607   3.634   0.942   2.187
 1236SOL    HW2 4608   3.724   1.076   2.212
 1237SOL     OW 4609   0.821   5.009   5.228
 1237SOL    HW1 4610   0.903   5.063   5.248
 1237SOL    HW2 4611   0.848   4.925   5.180
 1238SOL     OW 4612   0.978   0.328   5.554
 1238SOL    HW1 4613   0.965   0.285   5.644
 1238SOL    HW2 4614   0.901   0.306   5.495
 1239SOL     OW 4615   0.300   0.019   5.773
 1239SOL    HW1 4616   0.347   0.010   5.686
 1239SOL    HW2 4617   0.329   6.969   5.835
 1240SOL     OW 4618   5.794   5.365   1.084
 1240SOL    HW1 4619   5.748   5.382   0.997
 1240SOL    HW2 4620   5.740   5.405   1.158
 1241SOL     OW 4621   5.815   4.595   5.414
 1241SOL    HW1 4622   5.914   4.604   5.416
 1241SOL    HW2 4623   5.790   4.498   5.414
 1242SOL     OW 4624   2.199   4.162   0.504
 1242SOL    HW1 4625   2.279   4.215   0.475
 1242SOL    HW2 4626   2.223   4.103   0.581
 1243SOL     OW 4627   0.278   1.403   4.833
 1243SOL    HW1 4628   0.263   1.414   4.735
 1243SOL    HW2 4629   0.369   1.366   4.849
 1244SOL     OW 4630   5.358   5.762   5.124
 1244SOL    HW1 4631   5.439   5.705   5.134
 1244SOL    HW2 4632   5.293   5.718   5.062
 1245SOL     OW 4633   5.632   4.618   6.549
 1245SOL    HW1 4634   5.709   4.682   6.547
 1245SOL    HW2 4635   5.554   4.659   6.502
 1246SOL     OW 4636   2.976   1.815   2.595
 1246SOL    HW1 4637   2.928   1.767   2.521
 1246SOL    HW2 4638   2.913   1.878   2.640
 1247SOL     OW 4639   5.947   0.080   6.503
 1247SOL    HW1 4640   5.922   0.011   6.434
 1247SOL    HW2 4641   5.972   0.034   6.588
 1248SOL     OW 4642   1.859   6.084   4.034
 1248SOL    HW1 4643   1.855   6.124   3.942
 1248SOL    HW2 4644   1.873   6.156   4.102
 1249SOL     OW 4645   0.427   3.162   1.417
 1249SOL    HW1 4646   0.432   3.110   1.502
 1249SOL    HW2 4647   0.331   3.179   1.394
 1250SOL     OW 4648   6.040   4.659   3.402
 1250SOL    HW1 4649   5.949   4.635   3.367
 1250SOL    HW2 4650   6.102   4.676   3.326
 1251SOL     OW 4651   1.852   0.977   3.023
 1251SOL    HW1 4652   1.812   0.990   2.932
 1251SOL    HW2 4653   1.952   0.980   3.017
 1252SOL     OW 4654   3.491   4.591   6.439
 1252SOL    HW1 4655   3.428   4.667   6.457
 1252SOL    HW2 4656   3.575   4.627   6.399
 1253SOL     OW 4657   2.624   0.481   2.544
 1253SOL    HW1 4658   2.577   0.531   2.617
 1253SOL    HW2 4659   2.723   0.493   2.554
 1254SOL     OW 4660   0.014   2.680   4.069
 1254SOL    HW1 4661   6.938   2.692   4.082
 1254SOL    HW2 4662   0.036   2.692   3.972
 1255SOL     OW 4663   5.382   2.019   6.290
 1255SOL    HW1 4664   5.334   2.014   6.202
 1255SOL    HW2 4665   5.480   2.003   6.277
 1256SOL     OW 4666   0.542   6.416   3.865
 1256SOL    HW1 4667   0.485   6.350   3.913
 1256SOL    HW2 4668   0.524   6.508   3.899
 1257SOL     OW 4669   0.060   4.609   4.177
 1257SOL    HW1 4670   0.090   4.525   4.222
 1257SOL    HW2 4671   0.005   4.585   4.096
 1258SOL     OW 4672   2.159   4.871   3.259
 1258SOL    HW1 4673   2.074   4.917   3.285
 1258SOL    HW2 4674   2.237   4.928   3.285
 1259SOL     OW 4675   3.749   6.739   4.818
 1259SOL    HW1 4676   3.824   6.729   4.753
 1259SOL    HW2 4677   3.708   6.829   4.810
 1260SOL     OW 4678   2.941   1.247   0.643
 1260SOL    HW1 4679   3.032   1.207   0.629
 1260SOL    HW2 4680   2.940   1.298   0.729
 1261SOL     OW 4681   0.014   5.244   6.650
 1261SOL    HW1 4682   0.113   5.253   6.646
 1261SOL    HW2 4683   6.995   5.293   6.573
 1262SOL     OW 4684   5.012   5.159   1.534
 1262SOL    HW1 4685   4.940   5.101   1.572
 1262SOL    HW2 4686   5.050   5.115   1.453
 1263SOL     OW 4687   0.042   1.628   1.428
 1263SOL    HW1 4688   7.000   1.705   1.428
 1263SOL    HW2 4689   7.013   1.543   1.439
 1264SOL     OW 4690   0.235   3.598   1.609
 1264SOL    HW1 4691   0.147   3.591   1.563
 1264SOL    HW2 4692   0.221   3.624   1.704
 1265SOL     OW 4693   5.696   5.108   3.546
 1265SOL    HW1 4694   5.598   5.126   3.536
 1265SOL    HW2 4695   5.712   5.010   3.543
 1266SOL     OW 4696   0.713   1.068   4.021
 1266SOL    HW1 4697   0.732   1.166   4.036
 1266SOL    HW2 4698   0.773   1.014   4.081
 1267SOL     OW 4699   5.521   6.386   1.161
 1267SOL    HW1 4700   5.472   6.357   1.079
 1267SOL    HW2 4701   5.612   6.344   1.162
 1268SOL     OW 4702   4.522   2.519   0.430
 1268SOL    HW1 4703   4.422   2.522   0.420
 1268SOL    HW2 4704   4.546   2.511   0.526
 1269SOL     OW 4705   5.670   6.702   5.819
 1269SOL    HW1 4706   5.755   6.708   5.872
 1269SOL    HW2 4707   5.672   6.621   5.761
 1270SOL     OW 4708   1.970   3.767   4.140
 1270SOL    HW1 4709   1.914   3.806   4.213
 1270SOL    HW2 4710   2.011   3.681   4.172
 1271SOL     OW 4711   3.301   1.562   3.532
 1271SOL    HW1 4712   3.382   1.605   3.492
 1271SOL    HW2 4713   3.229   1.631   3.543
 1272SOL     OW 4714   5.927   5.567   0.196
 1272SOL    HW1 4715   5.940   5.574   0.097
 1272SOL    HW2 4716   5.898   5.475   0.219
 1273SOL     OW 4717   0.979   4.487   6.856
 1273SOL    HW1 4718   0.936   4.547   6.924
 1273SOL    HW2 4719   1.057   4.441   6.897
 1274SOL     OW 4720   6.273   2.795   1.688
 1274SOL    HW1 4721   6.209   2.853   1.739
 1274SOL    HW2 4722   6.363   2.837   1.688
 1275SOL     OW 4723   3.132   1.307   3.979
 1275SOL    HW1 4724   3.099   1.360   4.057
 1275SOL    HW2 4725   3.232   1.318   3.971
 1276SOL     OW 4726   0.139   0.476   4.889
 1276SOL    HW1 4727   0.160   0.440   4.798
 1276SOL    HW2 4728   0.150   0.576   4.888
 1277SOL     OW 4729   1.094   6.561   6.046
 1277SOL    HW1 4730   1.026   6.489   6.034
 1277SOL    HW2 4731   1.186   6.522   6.042
 1278SOL     OW 4732   1.172   0.398   5.204
 1278SOL    HW1 4733   1.220   0.430   5.122
 1278SOL    HW2 4734   1.156   0.299   5.195
 1279SOL     OW 4735   3.722   5.987   1.004
 1279SOL    HW1 4736   3.731   5.890   1.025
 1279SOL    HW2 4737   3.691   5.999   0.909
 1280SOL     OW 4738   3.138   6.600   4.203
 1280SOL    HW1 4739   3.119   6.695   4.179
 1280SOL    HW2 4740   3.152   6.547   4.119
 1281SOL     OW 4741   1.584   5.912   2.937
 1281SOL    HW1 4742   1.676   5.945   2.918
 1281SOL    HW2 4743   1.522   5.939   2.863
 1282SOL     OW 4744   0.852   1.228   6.197
 1282SOL    HW1 4745   0.867   1.253   6.293
 1282SOL    HW2 4746   0.939   1.230   6.148
 1283SOL     OW 4747   6.119   2.967   5.244
 1283SOL    HW1 4748   6.215   2.965   5.274
 1283SOL    HW2 4749   6.110   3.029   5.166
 1284SOL     OW 4750   4.825   1.188   2.542
 1284SOL    HW1 4751   4.921   1.173   2.566
 1284SOL    HW2 4752   4.784   1.252   2.606
 1285SOL     OW 4753   4.796   2.973   6.872
 1285SOL    HW1 4754   4.809   2.914   6.952
 1285SOL    HW2 4755   4.884   3.010   6.844
 1286SOL     OW 4756   4.960   3.570   1.943
 1286SOL    HW1 4757   4.909   3.642   1.990
 1286SOL    HW2 4758   4.912   3.483   1.953
 1287SOL     OW 4759   5.157   4.656   5.403
 1287SOL    HW1 4760   5.193   4.653   5.310
 1287SOL    HW2 4761   5.139   4.751   5.429
 1288SOL     OW 4762   4.811   3.593   0.314
 1288SOL    HW1 4763   4.835   3.687   0.290
 1288SOL    HW2 4764   4.712   3.582   0.314
 1289SOL     OW 4765   0.956   5.938   2.110
 1289SOL    HW1 4766   0.862   5.908   2.090
 1289SOL    HW2 4767   1.018   5.903   2.040
 1290SOL     OW 4768   1.060   0.287   0.093
 1290SOL    HW1 4769   1.069   0.384   0.072
 1290SOL    HW2 4770   1.149   0.252   0.123
 1291SOL     OW 4771   0.185   3.892   5.464
 1291SOL    HW1 4772   0.218   3.855   5.551
 1291SOL    HW2 4773   0.254   3.878   5.394
 1292SOL     OW 4774   0.154   6.033   2.445
 1292SOL    HW1 4775   0.144   6.084   2.359
 1292SOL    HW2 4776   0.249   6.034   2.474
 1293SOL     OW 4777   1.170   1.376   0.029
 1293SOL    HW1 4778   1.270   1.376   0.037
 1293SOL    HW2 4779   1.132   1.319   0.102
 1294SOL     OW 4780   1.501   3.880   6.901
 1294SOL    HW1 4781   1.530   3.944   6.830
 1294SOL    HW2 4782   1.419   3.832   6.871
 1295SOL     OW 4783   0.062   3.517   2.675
 1295SOL    HW1 4784   0.061   3.616   2.687
 1295SOL    HW2 4785   0.033   3.495   2.582
 1296SOL     OW 4786   3.350   0.373   5.358
 1296SOL    HW1 4787   3.358   0.471   5.341
 1296SOL    HW2 4788   3.396   0.350   5.444
 1297SOL     OW 4789   5.702   1.030   1.060
 1297SOL    HW1 4790   5.716   0.956   1.125
 1297SOL    HW2 4791   5.693   1.117   1.110
 1298SOL     OW 4792   6.213   4.767   2.644
 1298SOL    HW1 4793   6.143   4.811   2.588
 1298SOL    HW2 4794   6.207   4.799   2.738
 1299SOL     OW 4795   1.020   3.912   3.311
 1299SOL    HW1 4796   0.993   3.817   3.296
 1299SOL    HW2 4797   0.957   3.972   3.261
 1300SOL     OW 4798   3.620   3.304   1.590
 1300SOL    HW1 4799   3.634   3.403   1.585
 1300SOL    HW2 4800   3.672   3.266   1.666
 1301SOL     OW 4801   0.423   5.415   1.291
 1301SOL    HW1 4802   0.382   5.505   1.301
 1301SOL    HW2 4803   0.406   5.361   1.373
 1302SOL     OW 4804   4.233   0.327   5.630
 1302SOL    HW1 4805   4.332   0.319   5.620
 1302SOL    HW2 4806   4.211   0.406   5.687
 1303SOL     OW 4807   4.330   1.391   2.293
 1303SOL    HW1 4808   4.360   1.467   2.350
 1303SOL    HW2 4809   4.242   1.413   2.250
 1304SOL     OW 4810   1.565   0.874   6.844
 1304SOL    HW1 4811   1.481   0.821   6.840
 1304SOL    HW2 4812   1.543   0.972   6.841
 1305SOL     OW 4813   4.579   3.110   6.854
 1305SOL    HW1 4814   4.519   3.043   6.810
 1305SOL    HW2 4815   4.672   3.073   6.860
 1306SOL     OW 4816   0.441   4.145   5.007
 1306SOL    HW1 4817   0.384   4.132   5.088
 1306SOL    HW2 4818   0.517   4.206   5.030
 1307SOL     OW 4819   1.179   3.598   4.917
 1307SOL    HW1 4820   1.141   3.515   4.959
 1307SOL    HW2 4821   1.178   3.588   4.817
 1308SOL     OW 4822   5.296   6.464   4.418
 1308SOL    HW1 4823   5.327   6.548   4.374
 1308SOL    HW2 4824   5.243   6.410   4.352
 1309SOL     OW 4825   4.748   3.089   5.233
 1309SOL    HW1 4826   4.673   3.147   5.263
 1309SOL    HW2 4827   4.800   3.058   5.313
 1310SOL     OW 4828   0.317   3.971   4.849
 1310SOL    HW1 4829   0.335   3.874   4.863
 1310SOL    HW2 4830   0.373   4.025   4.912
 1311SOL     OW 4831   0.082   0.648   4.527
 1311SOL    HW1 4832   0.078   0.740   4.488
 1311SOL    HW2 4833   0.004   0.595   4.496
 1312SOL     OW 4834   1.466   0.525   6.630
 1312SOL    HW1 4835   1.367   0.531   6.635
 1312SOL    HW2 4836   1.502   0.499   6.720
 1313SOL     OW 4837   0.971   4.393   4.244
 1313SOL    HW1 4838   0.962   4.492   4.233
 1313SOL    HW2 4839   1.026   4.373   4.324
 1314SOL     OW 4840   3.715   1.012   5.370
 1314SOL    HW1 4841   3.814   1.012   5.352
 1314SOL    HW2 4842   3.698   1.053   5.459
 1315SOL     OW 4843   0.084   1.055   0.762
 1315SOL    HW1 4844   0.081   0.974   0.820
 1315SOL    HW2 4845   0.012   1.119   0.791
 1316SOL     OW 4846   1.962   6.298   4.557
 1316SOL    HW1 4847   1.894   6.243   4.508
 1316SOL    HW2 4848   1.930   6.392   4.564
 1317SOL     OW 4849   2.065   3.945   5.723
 1317SOL    HW1 4850   2.159   3.977   5.707
 1317SOL    HW2 4851   2.047   3.864   5.668
 1318SOL     OW 4852   1.141   0.984   0.770
 1318SOL    HW1 4853   1.234   0.962   0.801
 1318SOL    HW2 4854   1.146   1.059   0.704
 1319SOL     OW 4855   0.087   0.935   6.348
 1319SOL    HW1 4856   0.055   0.943   6.443
 1319SOL    HW2 4857   0.126   1.022   6.319
 1320SOL     OW 4858   5.396   3.600   0.473
 1320SOL    HW1 4859   5.401   3.500   0.471
 1320SOL    HW2 4860   5.363   3.633   0.384
 1321SOL     OW 4861   4.997   2.040   6.200
 1321SOL    HW1 4862   4.921   2.089   6.157
 1321SOL    HW2 4863   5.006   2.068   6.295
 1322SOL     OW 4864   3.970   0.691   3.899
 1322SOL    HW1 4865   3.984   0.719   3.994
 1322SOL    HW2 4866   3.873   0.674   3.883
 1323SOL     OW 4867   4.671   1.618   5.698
 1323SOL    HW1 4868   4.727   1.539   5.723
 1323SOL    HW2 4869   4.604   1.591   5.628
 1324SOL     OW 4870   1.178   2.812   0.136
 1324SOL    HW1 4871   1.202   2.887   0.075
 1324SOL    HW2 4872   1.101   2.840   0.194
 1325SOL     OW 4873   1.731   6.590   2.021
 1325SOL    HW1 4874   1.819   6.585   1.974
 1325SOL    HW2 4875   1.689   6.679   2.003
 1326SOL     OW 4876   4.924   3.401   5.052
 1326SOL    HW1 4877   4.888   3.491   5.078
 1326SOL    HW2 4878   4.957   3.353   5.133
 1327SOL     OW 4879   1.826   4.299   1.720
 1327SOL    HW1 4880   1.738   4.341   1.741
 1327SOL    HW2 4881   1.900   4.359   1.751
 1328SOL     OW 4882   1.592   2.834   0.939
 1328SOL    HW1 4883   1.649   2.912   0.912
 1328SOL    HW2 4884   1.599   2.820   1.037
 1329SOL     OW 4885   1.115   2.659   1.096
 1329SOL    HW1 4886   1.100   2.719   1.018
 1329SOL    HW2 4887   1.057   2.688   1.173
 1330SOL     OW 4888   6.942   0.970   1.520
 1330SOL    HW1 4889   0.008   0.926   1.508
 1330SOL    HW2 4890   6.951   1.047   1.583
 1331SOL     OW 4891   5.020   2.695   3.359
 1331SOL    HW1 4892   5.047   2.673   3.266
 1331SOL    HW2 4893   4.940   2.641   3.385
 1332SOL     OW 4894   2.539   0.059   0.276
 1332SOL    HW1 4895   2.570   6.992   0.242
 1332SOL    HW2 4896   2.560   0.129   0.208
 1333SOL     OW 4897   3.519   3.394   5.457
 1333SOL    HW1 4898   3.473   3.336   5.524
 1333SOL    HW2 4899   3.561   3.472   5.504
 1334SOL     OW 4900   6.238   2.162   4.500
 1334SOL    HW1 4901   6.260   2.190   4.594
 1334SOL    HW2 4902   6.323   2.158   4.447
 1335SOL     OW 4903   2.660   1.312   3.358
 1335SOL    HW1 4904   2.650   1.231   3.416
 1335SOL    HW2 4905   2.665   1.394   3.416
 1336SOL     OW 4906   1.686   2.059   5.717
 1336SOL    HW1 4907   1.724   1.986   5.660
 1336SOL    HW2 4908   1.747   2.077   5.794
 1337SOL     OW 4909   1.592   1.699   5.302
 1337SOL    HW1 4910   1.617   1.665   5.212
 1337SOL    HW2 4911   1.593   1.799   5.302
 1338SOL     OW 4912   5.636   1.943   6.301
 1338SOL    HW1 4913   5.677   2.008   6.236
 1338SOL    HW2 4914   5.705   1.918   6.369
 1339SOL     OW 4915   0.781   1.067   6.491
 1339SOL    HW1 4916   0.743   0.977   6.466
 1339SOL    HW2 4917   0.842   1.057   6.569
 1340SOL     OW 4918   0.438   2.226   2.079
 1340SOL    HW1 4919   0.477   2.292   2.143
 1340SOL    HW2 4920   0.497   2.146   2.073
 1341SOL     OW 4921   5.460   0.457   5.870
 1341SOL    HW1 4922   5.463   0.541   5.816
 1341SOL    HW2 4923   5.366   0.437   5.895
 1342SOL     OW 4924   1.712   4.932   5.947
 1342SOL    HW1 4925   1.653   4.994   6.000
 1342SOL    HW2 4926   1.662   4.902   5.866
 1343SOL     OW 4927   4.670   5.990   2.586
 1343SOL    HW1 4928   4.687   5.937   2.669
 1343SOL    HW2 4929   4.739   5.966   2.517
 1344SOL     OW 4930   0.100   4.707   3.752
 1344SOL    HW1 4931   0.195   4.692   3.778
 1344SOL    HW2 4932   0.095   4.733   3.656
 1345SOL     OW 4933   1.783   1.280   2.800
 1345SOL    HW1 4934   1.793   1.184   2.825
 1345SOL    HW2 4935   1.686   1.303   2.794
 1346SOL     OW 4936   0.833   6.523   4.188
 1346SOL    HW1 4937   0.756   6.558   4.133
 1346SOL    HW2 4938   0.851   6.586   4.264
 1347SOL     OW 4939   6.595   5.552   4.373
 1347SOL    HW1 4940   6.629   5.625   4.433
 1347SOL    HW2 4941   6.663   5.532   4.302
 1348SOL     OW 4942   5.104   5.004   2.393
 1348SOL    HW1 4943   5.149   4.938   2.454
 1348SOL    HW2 4944   5.040   5.060   2.446
 1349SOL     OW 4945   4.688   1.853   6.203
 1349SOL    HW1 4946   4.662   1.823   6.295
 1349SOL    HW2 4947   4.713   1.950   6.205
 1350SOL     OW 4948   4.853   4.420   6.770
 1350SOL    HW1 4949   4.922   4.417   6.842
 1350SOL    HW2 4950   4.892   4.463   6.688
 1351SOL     OW 4951   6.593   1.516   3.419
 1351SOL    HW1 4952   6.560   1.488   3.329
 1351SOL    HW2 4953   6.522   1.567   3.467
 1352SOL     OW 4954   6.527   6.997   3.038
 1352SOL    HW1 4955   6.623   6.976   3.021
 1352SOL    HW2 4956   6.470   6.921   3.008
 1353SOL     OW 4957   6.892   3.787   6.131
 1353SOL    HW1 4958   6.883   3.770   6.229
 1353SOL    HW2 4959   6.810   3.755   6.083
 1354SOL     OW 4960   0.707   2.328   0.312
 1354SOL    HW1 4961   0.732   2.246   0.261
 1354SOL    HW2 4962   0.775   2.346   0.383
 1355SOL     OW 4963   0.242   2.529   5.280
 1355SOL    HW1 4964   0.234   2.500   5.375
 1355SOL    HW2 4965   0.219   2.626   5.272
 1356SOL     OW 4966   2.939   3.655   2.763
 1356SOL    HW1 4967   2.946   3.668   2.664
 1356SOL    HW2 4968   2.852   3.609   2.785
 1357SOL     OW 4969   1.177   4.109   5.569
 1357SOL    HW1 4970   1.175   4.014   5.599
 1357SOL    HW2 4971   1.107   4.161   5.617
 1358SOL     OW 4972   4.184   1.088   5.861
 1358SOL    HW1 4973   4.280   1.078   5.888
 1358SOL    HW2 4974   4.133   1.008   5.892
 1359SOL     OW 4975   6.495   4.812   1.909
 1359SOL    HW1 4976   6.560   4.853   1.973
 1359SOL    HW2 4977   6.438   4.883   1.868
 1360SOL     OW 4978   4.251   3.088   1.115
 1360SOL    HW1 4979   4.336   3.059   1.158
 1360SOL    HW2 4980   4.183   3.015   1.123
 1361SOL     OW 4981   0.385   5.959   5.565
 1361SOL    HW1 4982   0.326   5.973   5.485
 1361SOL    HW2 4983   0.433   6.044   5.586
 1362SOL     OW 4984   3.052   3.873   4.391
 1362SOL    HW1 4985   3.127   3.930   4.357
 1362SOL    HW2 4986   3.045   3.884   4.490
 1363SOL     OW 4987   6.845   5.853   3.602
 1363SOL    HW1 4988   6.852   5.924   3.672
 1363SOL    HW2 4989   6.897   5.881   3.521
 1364SOL     OW 4990   6.814   2.220   0.693
 1364SOL    HW1 4991   6.824   2.319   0.699
 1364SOL    HW2 4992   6.904   2.177   0.685
 1365SOL     OW 4993   0.951   2.758   5.580
 1365SOL    HW1 4994   0.976   2.720   5.669
 1365SOL    HW2 4995   1.032   2.797   5.536
 1366SOL     OW 4996   0.316   4.310   0.187
 1366SOL    HW1 4997   0.329   4.391   0.130
 1366SOL    HW2 4998   0.356   4.326   0.277
 1367SOL     OW 4999   1.578   5.999   2.525
 1367SOL    HW1 5000   1.632   6.061   2.583
 1367SOL    HW2 5001   1.618   5.996   2.433
 1368SOL     OW 5002   6.849   0.264   4.008
 1368SOL    HW1 5003   6.857   0.255   3.908
 1368SOL    HW2 5004   6.940   0.265   4.049
 1369SOL     OW 5005   2.464   0.070   2.307
 1369SOL    HW1 5006   2.367   0.075   2.329
 1369SOL    HW2 5007   2.517   0.063   2.392
 1370SOL     OW 5008   4.473   1.798   2.377
 1370SOL    HW1 5009   4.561   1.760   2.348
 1370SOL    HW2 5010   4.415   1.724   2.411
 1371SOL     OW 5011   6.273   1.723   4.881
 1371SOL    HW1 5012   6.208   1.661   4.838
 1371SOL    HW2 5013   6.265   1.814   4.839
 1372SOL     OW 5014   1.200   2.504   0.596
 1372SOL    HW1 5015   1.287   2.454   0.597
 1372SOL    HW2 5016   1.127   2.442   0.565
 1373SOL     OW 5017   4.312   2.727   0.337
 1373SOL    HW1 5018   4.343   2.722   0.242
 1373SOL    HW2 5019   4.367   2.795   0.386
 1374SOL     OW 5020   4.262   2.195   1.093
 1374SOL    HW1 5021   4.241   2.107   1.050
 1374SOL    HW2 5022   4.342   2.184   1.152
 1375SOL     OW 5023   0.151   5.847   6.251
 1375SOL    HW1 5024   0.087   5.905   6.302
 1375SOL    HW2 5025   0.123   5.844   6.155
 1376SOL     OW 5026   4.569   4.739   5.235
 1376SOL    HW1 5027   4.650   4.682   5.230
 1376SOL    HW2 5028   4.575   4.799   5.315
 1377SOL     OW 5029   0.790   3.407   5.219
 1377SOL    HW1 5030   0.730   3.384   5.297
 1377SOL    HW2 5031   0.852   3.331   5.202
 1378SOL     OW 5032   5.786   1.647   4.706
 1378SOL    HW1 5033   5.714   1.713   4.729
 1378SOL    HW2 5034   5.752   1.554   4.722
 1379SOL     OW 5035   4.086   6.139   3.095
 1379SOL    HW1 5036   4.085   6.126   3.194
 1379SOL    HW2 5037   4.114   6.053   3.051
 1380SOL     OW 5038   0.082   6.863   3.758
 1380SOL    HW1 5039   0.053   6.901   3.670
 1380SOL    HW2 5040   0.171   6.817   3.746
 1381SOL     OW 5041   5.939   1.723   0.616
 1381SOL    HW1 5042   5.841   1.720   0.638
 1381SOL    HW2 5043   5.961   1.651   0.550
 1382SOL     OW 5044   5.314   2.937   0.831
 1382SOL    HW1 5045   5.307   2.927   0.732
 1382SOL    HW2 5046   5.331   3.033   0.853
 1383SOL     OW 5047   0.791   0.607   2.314
 1383SOL    HW1 5048   0.732   0.671   2.266
 1383SOL    HW2 5049   0.746   0.575   2.397
 1384SOL     OW 5050   4.764   0.605   1.911
 1384SOL    HW1 5051   4.718   0.686   1.876
 1384SOL    HW2 5052   4.857   0.628   1.940
 1385SOL     OW 5053   2.911   4.850   3.505
 1385SOL    HW1 5054   3.007   4.828   3.488
 1385SOL    HW2 5055   2.889   4.829   3.601
 1386SOL     OW 5056   3.079   0.673   3.789
 1386SOL    HW1 5057   3.075   0.665   3.889
 1386SOL    HW2 5058   3.124   0.758   3.764
 1387SOL     OW 5059   3.297   5.936   2.769
 1387SOL    HW1 5060   3.296   5.933   2.669
 1387SOL    HW2 5061   3.389   5.959   2.800
 1388SOL     OW 5062   0.370   0.873   3.058
 1388SOL    HW1 5063   0.286   0.881   3.111
 1388SOL    HW2 5064   0.442   0.928   3.101
 1389SOL     OW 5065   6.759   1.376   3.961
 1389SOL    HW1 5066   6.742   1.471   3.935
 1389SOL    HW2 5067   6.783   1.323   3.879
 1390SOL     OW 5068   6.230   3.095   6.055
 1390SOL    HW1 5069   6.252   3.179   6.004
 1390SOL    HW2 5070   6.194   3.120   6.145
 1391SOL     OW 5071   6.074   0.080   5.154
 1391SOL    HW1 5072   6.139   0.097   5.080
 1391SOL    HW2 5073   6.013   0.158   5.164
 1392SOL     OW 5074   5.712   6.442   5.723
 1392SOL    HW1 5075   5.786   6.448   5.656
 1392SOL    HW2 5076   5.751   6.431   5.814
 1393SOL     OW 5077   6.720   4.135   6.208
 1393SOL    HW1 5078   6.803   4.094   6.247
 1393SOL    HW2 5079   6.670   4.065   6.157
 1394SOL     OW 5080   3.489   5.995   5.711
 1394SOL    HW1 5081   3.536   5.911   5.685
 1394SOL    HW2 5082   3.447   5.983   5.801
 1395SOL     OW 5083   1.624   4.766   4.852
 1395SOL    HW1 5084   1.698   4.699   4.848
 1395SOL    HW2 5085   1.583   4.777   4.762
 1396SOL     OW 5086   6.765   1.340   5.062
 1396SOL    HW1 5087   6.705   1.289   5.000
 1396SOL    HW2 5088   6.790   1.427   5.019
 1397SOL     OW 5089   0.598   6.124   4.752
 1397SOL    HW1 5090   0.528   6.196   4.751
 1397SOL    HW2 5091   0.555   6.035   4.738
 1398SOL     OW 5092   2.830   0.585   6.536
 1398SOL    HW1 5093   2.821   0.685   6.539
 1398SOL    HW2 5094   2.923   0.561   6.509
 1399SOL     OW 5095   4.106   5.606   0.626
 1399SOL    HW1 5096   4.030   5.671   0.623
 1399SOL    HW2 5097   4.102   5.554   0.711
 1400SOL     OW 5098   0.399   1.931   3.942
 1400SOL    HW1 5099   0.488   1.906   3.981
 1400SOL    HW2 5100   0.411   1.953   3.845
 1401SOL     OW 5101   6.056   0.156   4.244
 1401SOL    HW1 5102   6.132   0.160   4.180
 1401SOL    HW2 5103   5.975   0.196   4.202
 1402SOL     OW 5104   5.178   3.935   6.230
 1402SOL    HW1 5105   5.277   3.942   6.239
 1402SOL    HW2 5106   5.153   3.932   6.133
 1403SOL     OW 5107   2.757   1.880   0.403
 1403SOL    HW1 5108   2.853   1.862   0.420
 1403SOL    HW2 5109   2.748   1.958   0.341
 1404SOL     OW 5110   6.852   0.288   6.932
 1404SOL    HW1 5111   6.757   0.280   6.903
 1404SOL    HW2 5112   6.862   0.254   0.003
 1405SOL     OW 5113   2.824   2.823   0.631
 1405SOL    HW1 5114   2.735   2.821   0.675
 1405SOL    HW2 5115   2.880   2.747   0.665
 1406SOL     OW 5116   1.196   5.645   0.956
 1406SOL    HW1 5117   1.229   5.673   1.046
 1406SOL    HW2 5118   1.115   5.587   0.967
 1407SOL     OW 5119   0.507   3.323   4.102
 1407SOL    HW1 5120   0.438   3.250   4.109
 1407SOL    HW2 5121   0.560   3.326   4.187
 1408SOL     OW 5122   4.560   1.396   6.178
 1408SOL    HW1 5123   4.535   1.405   6.275
 1408SOL    HW2 5124   4.597   1.484   6.145
 1409SOL     OW 5125   0.236   0.195   5.483
 1409SOL    HW1 5126   0.148   0.155   5.460
 1409SOL    HW2 5127   0.237   0.221   5.580
 1410SOL     OW 5128   1.428   4.270   6.188
 1410SOL    HW1 5129   1.425   4.309   6.279
 1410SOL    HW2 5130   1.489   4.324   6.130
 1411SOL     OW 5131   2.991   6.772   0.442
 1411SOL    HW1 5132   3.041   6.686   0.457
 1411SOL    HW2 5133   3.056   6.847   0.430
 1412SOL     OW 5134   1.277   3.221   1.102
 1412SOL    HW1 5135   1.274   3.318   1.126
 1412SOL    HW2 5136   1.184   3.190   1.081
 1413SOL     OW 5137   2.114   1.280   4.546
 1413SOL    HW1 5138   2.148   1.372   4.525
 1413SOL    HW2 5139   2.024   1.267   4.504
 1414SOL     OW 5140   1.976   1.617   1.832
 1414SOL    HW1 5141   2.035   1.544   1.797
 1414SOL    HW2 5142   1.963   1.606   1.930
 1415SOL     OW 5143   1.699   1.339   4.561
 1415SOL    HW1 5144   1.748   1.416   4.601
 1415SOL    HW2 5145   1.764   1.279   4.514
 1416SOL     OW 5146   4.592   6.079   4.540
 1416SOL    HW1 5147   4.663   6.008   4.547
 1416SOL    HW2 5148   4.546   6.072   4.452
 1417SOL     OW 5149   3.151   2.854   0.556
 1417SOL    HW1 5150   3.215   2.826   0.485
 1417SOL    HW2 5151   3.173   2.947   0.586
 1418SOL     OW 5152   3.224   3.550   2.094
 1418SOL    HW1 5153   3.302   3.604   2.125
 1418SOL    HW2 5154   3.257   3.468   2.047
 1419SOL     OW 5155   3.548   6.341   4.143
 1419SOL    HW1 5156   3.469   6.362   4.085
 1419SOL    HW2 5157   3.516   6.306   4.232
 1420SOL     OW 5158   2.851   6.382   2.581
 1420SOL    HW1 5159   2.793   6.304   2.558
 1420SOL    HW2 5160   2.945   6.351   2.592
 1421SOL     OW 5161   2.018   4.872   4.161
 1421SOL    HW1 5162   2.078   4.847   4.085
 1421SOL    HW2 5163   2.043   4.820   4.242
 1422SOL     OW 5164   1.584   4.490   6.360
 1422SOL    HW1 5165   1.666   4.523   6.407
 1422SOL    HW2 5166   1.525   4.443   6.425
 1423SOL     OW 5167   4.485   6.781   4.631
 1423SOL    HW1 5168   4.389   6.808   4.631
 1423SOL    HW2 5169   4.536   6.837   4.696
 1424SOL     OW 5170   6.554   3.539   6.400
 1424SOL    HW1 5171   6.595   3.615   6.449
 1424SOL    HW2 5172   6.538   3.564   6.305
 1425SOL     OW 5173   1.873   5.159   5.894
 1425SOL    HW1 5174   1.823   5.072   5.898
 1425SOL    HW2 5175   1.916   5.177   5.983
 1426SOL     OW 5176   2.579   2.742   6.890
 1426SOL    HW1 5177   2.557   2.840   6.892
 1426SOL    HW2 5178   2.676   2.731   6.867
 1427SOL     OW 5179   6.624   0.223   4.312
 1427SOL    HW1 5180   6.580   0.166   4.381
 1427SOL    HW2 5181   6.673   0.298   4.357
 1428SOL     OW 5182   0.633   1.859   0.107
 1428SOL    HW1 5183   0.570   1.791   0.145
 1428SOL    HW2 5184   0.720   1.815   0.087
 1429SOL     OW 5185   4.555   1.399   0.209
 1429SOL    HW1 5186   4.485   1.461   0.173
 1429SOL    HW2 5187   4.534   1.305   0.182
 1430SOL     OW 5188   2.154   5.026   3.942
 1430SOL    HW1 5189   2.080   5.040   3.876
 1430SOL    HW2 5190   2.129   5.069   4.029
 1431SOL     OW 5191   2.508   2.210   6.694
 1431SOL    HW1 5192   2.437   2.154   6.736
 1431SOL    HW2 5193   2.468   2.297   6.665
 1432SOL     OW 5194   3.030   1.518   1.036
 1432SOL    HW1 5195   2.972   1.511   1.117
 1432SOL    HW2 5196   3.126   1.504   1.062
 1433SOL     OW 5197   5.044   0.374   5.263
 1433SOL    HW1 5198   5.089   0.299   5.216
 1433SOL    HW2 5199   4.966   0.406   5.210
 1434SOL     OW 5200   1.030   0.427   5.917
 1434SOL    HW1 5201   0.963   0.499   5.896
 1434SOL    HW2 5202   0.995   0.339   5.885
 1435SOL     OW 5203   6.583   6.784   3.224
 1435SOL    HW1 5204   6.594   6.882   3.207
 1435SOL    HW2 5205   6.486   6.764   3.239
 1436SOL     OW 5206   4.749   4.196   6.633
 1436SOL    HW1 5207   4.809   4.124   6.668
 1436SOL    HW2 5208   4.764   4.281   6.684
 1437SOL     OW 5209   3.258   1.932   5.737
 1437SOL    HW1 5210   3.188   1.869   5.769
 1437SOL    HW2 5211   3.258   1.935   5.637
 1438SOL     OW 5212   3.135   6.901   1.967
 1438SOL    HW1 5213   3.058   6.916   1.905
 1438SOL    HW2 5214   3.214   6.954   1.936
 1439SOL     OW 5215   6.723   4.651   0.921
 1439SOL    HW1 5216   6.636   4.618   0.958
 1439SOL    HW2 5217   6.798   4.621   0.980
 1440SOL     OW 5218   3.292   2.946   6.022
 1440SOL    HW1 5219   3.317   2.993   5.937
 1440SOL    HW2 5220   3.251   2.857   6.000
 1441SOL     OW 5221   6.056   1.922   3.884
 1441SOL    HW1 5222   6.012   2.011   3.873
 1441SOL    HW2 5223   6.078   1.908   3.981
 1442SOL     OW 5224   6.647   5.235   6.474
 1442SOL    HW1 5225   6.677   5.327   6.501
 1442SOL    HW2 5226   6.726   5.183   6.441
 1443SOL     OW 5227   0.715   2.956   4.148
 1443SOL    HW1 5228   0.624   2.942   4.111
 1443SOL    HW2 5229   0.730   3.054   4.163
 1444SOL     OW 5230   4.044   5.809   0.995
 1444SOL    HW1 5231   4.068   5.906   1.003
 1444SOL    HW2 5232   3.969   5.788   1.057
 1445SOL     OW 5233   0.389   3.375   2.550
 1445SOL    HW1 5234   0.344   3.443   2.608
 1445SOL    HW2 5235   0.392   3.407   2.456
 1446SOL     OW 5236   4.918   2.359   0.459
 1446SOL    HW1 5237   5.018   2.356   0.459
 1446SOL    HW2 5238   4.883   2.270   0.489
 1447SOL     OW 5239   6.300   6.901   5.350
 1447SOL    HW1 5240   6.353   6.859   5.424
 1447SOL    HW2 5241   6.208   6.922   5.382
 1448SOL     OW 5242   6.517   2.226   6.381
 1448SOL    HW1 5243   6.449   2.292   6.348
 1448SOL    HW2 5244   6.608   2.266   6.377
 1449SOL     OW 5245   0.944   0.909   0.451
 1449SOL    HW1 5246   0.928   0.812   0.470
 1449SOL    HW2 5247   1.042   0.928   0.455
 1450SOL     OW 5248   0.775   2.488   1.361
 1450SOL    HW1 5249   0.757   2.469   1.457
 1450SOL    HW2 5250   0.811   2.406   1.317
 1451SOL     OW 5251   2.194   0.358   2.269
 1451SOL    HW1 5252   2.095   0.348   2.267
 1451SOL    HW2 5253   2.223   0.424   2.199
 1452SOL     OW 5254   4.600   0.740   4.771
 1452SOL    HW1 5255   4.642   0.767   4.858
 1452SOL    HW2 5256   4.634   0.651   4.744
 1453SOL     OW 5257   0.189   3.480   5.363
 1453SOL    HW1 5258   0.187   3.457   5.461
 1453SOL    HW2 5259   0.113   3.542   5.342
 1454SOL     OW 5260   0.029   3.471   2.405
 1454SOL    HW1 5261   0.003   3.376   2.386
 1454SOL    HW2 5262   0.098   3.500   2.339
 1455SOL     OW 5263   0.654   0.843   2.146
 1455SOL    HW1 5264   0.723   0.911   2.171
 1455SOL    HW2 5265   0.671   0.813   2.052
 1456SOL     OW 5266   6.844   6.470   4.965
 1456SOL    HW1 5267   6.914   6.541   4.958
 1456SOL    HW2 5268   6.886   6.380   4.956
 1457SOL     OW 5269   1.198   6.531   1.599
 1457SOL    HW1 5270   1.215   6.563   1.692
 1457SOL    HW2 5271   1.126   6.462   1.601
 1458SOL     OW 5272   5.993   5.325   3.317
 1458SOL    HW1 5273   5.902   5.345   3.354
 1458SOL    HW2 5274   6.060   5.324   3.391
 1459SOL     OW 5275   3.008   5.407   5.913
 1459SOL    HW1 5276   3.080   5.389   5.846
 1459SOL    HW2 5277   2.982   5.503   5.910
 1460SOL     OW 5278   0.566   5.767   5.595
 1460SOL    HW1 5279   0.537   5.673   5.573
 1460SOL    HW2 5280   0.488   5.829   5.585
 1461SOL     OW 5281   6.717   4.913   3.550
 1461SOL    HW1 5282   6.778   4.885   3.623
 1461SOL    HW2 5283   6.625   4.925   3.586
 1462SOL     OW 5284   1.190   0.563   6.597
 1462SOL    HW1 5285   1.123   0.601   6.660
 1462SOL    HW2 5286   1.159   0.574   6.503
 1463SOL     OW 5287   0.219   6.032   6.989
 1463SOL    HW1 5288   0.120   6.029   6.981
 1463SOL    HW2 5289   0.256   5.940   6.974
 1464SOL     OW 5290   6.654   0.331   1.219
 1464SOL    HW1 5291   6.754   0.321   1.221
 1464SOL    HW2 5292   6.616   0.310   1.309
 1465SOL     OW 5293   1.627   1.129   3.494
 1465SOL    HW1 5294   1.615   1.078   3.409
 1465SOL    HW2 5295   1.716   1.106   3.534
 1466SOL     OW 5296   1.334   1.502   2.142
 1466SOL    HW1 5297   1.354   1.459   2.054
 1466SOL    HW2 5298   1.237   1.525   2.147
 1467SOL     OW 5299   1.793   1.920   3.062
 1467SOL    HW1 5300   1.760   1.830   3.032
 1467SOL    HW2 5301   1.867   1.950   3.002
 1468SOL     OW 5302   4.793   5.837   2.407
 1468SOL    HW1 5303   4.825   5.758   2.458
 1468SOL    HW2 5304   4.871   5.896   2.383
 1469SOL     OW 5305   0.851   1.184   1.969
 1469SOL    HW1 5306   0.829   1.281   1.956
 1469SOL    HW2 5307   0.893   1.171   2.059
 1470SOL     OW 5308   1.392   1.728   2.568
 1470SOL    HW1 5309   1.392   1.827   2.552
 1470SOL    HW2 5310   1.298   1.693   2.561
 1471SOL     OW 5311   0.794   0.208   1.085
 1471SOL    HW1 5312   0.845   0.169   1.008
 1471SOL    HW2 5313   0.773   0.136   1.151
 1472SOL     OW 5314   3.811   6.272   5.773
 1472SOL    HW1 5315   3.886   6.334   5.748
 1472SOL    HW2 5316   3.848   6.182   5.795
 1473SOL     OW 5317   5.163   6.261   4.694
 1473SOL    HW1 5318   5.170   6.325   4.771
 1473SOL    HW2 5319   5.151   6.168   4.729
 1474SOL     OW 5320   5.497   5.416   2.626
 1474SOL    HW1 5321   5.568   5.406   2.696
 1474SOL    HW2 5322   5.517   5.356   2.549
 1475SOL     OW 5323   6.550   6.981   2.040
 1475SOL    HW1 5324   6.643   6.944   2.047
 1475SOL    HW2 5325   6.524   6.986   1.943
 1476SOL     OW 5326   2.790   1.087   1.403
 1476SOL    HW1 5327   2.869   1.075   1.343
 1476SOL    HW2 5328   2.707   1.060   1.354
 1477SOL     OW 5329   3.635   0.018   6.668
 1477SOL    HW1 5330   3.543   7.008   6.691
 1477SOL    HW2 5331   3.631   0.076   6.587
 1478SOL     OW 5332   6.452   5.323   0.047
 1478SOL    HW1 5333   6.409   5.268   6.998
 1478SOL    HW2 5334   6.403   5.410   0.056
 1479SOL     OW 5335   1.779   2.907   6.922
 1479SOL    HW1 5336   1.785   2.810   6.900
 1479SOL    HW2 5337   1.684   2.937   6.914
 1480SOL     OW 5338   3.211   0.543   5.767
 1480SOL    HW1 5339   3.133   0.596   5.801
 1480SOL    HW2 5340   3.259   0.595   5.696
 1481SOL     OW 5341   6.654   2.775   5.719
 1481SOL    HW1 5342   6.710   2.702   5.681
 1481SOL    HW2 5343   6.703   2.862   5.710
 1482SOL     OW 5344   4.761   2.413   1.379
 1482SOL    HW1 5345   4.687   2.437   1.442
 1482SOL    HW2 5346   4.849   2.423   1.426
 1483SOL     OW 5347   4.785   2.054   6.876
 1483SOL    HW1 5348   4.882   2.030   6.880
 1483SOL    HW2 5349   4.775   2.143   6.832
 1484SOL     OW 5350   5.844   4.704   4.039
 1484SOL    HW1 5351   5.908   4.692   4.114
 1484SOL    HW2 5352   5.808   4.797   4.040
 1485SOL     OW 5353   3.926   1.364   3.164
 1485SOL    HW1 5354   3.826   1.367   3.153
 1485SOL    HW2 5355   3.955   1.442   3.220
 1486SOL     OW 5356   5.224   1.877   2.894
 1486SOL    HW1 5357   5.313   1.855   2.854
 1486SOL    HW2 5358   5.211   1.976   2.895
 1487SOL     OW 5359   6.338   2.408   6.300
 1487SOL    HW1 5360   6.363   2.477   6.233
 1487SOL    HW2 5361   6.295   2.452   6.379
 1488SOL     OW 5362   5.188   1.397   3.843
 1488SOL    HW1 5363   5.172   1.302   3.818
 1488SOL    HW2 5364   5.165   1.457   3.766
 1489SOL     OW 5365   3.866   5.375   4.573
 1489SOL    HW1 5366   3.833   5.460   4.532
 1489SOL    HW2 5367   3.832   5.297   4.520
 1490SOL     OW 5368   1.351   2.773   2.185
 1490SOL    HW1 5369   1.392   2.784   2.275
 1490SOL    HW2 5370   1.318   2.679   2.175
 1491SOL     OW 5371   5.909   3.722   3.276
 1491SOL    HW1 5372   5.927   3.753   3.369
 1491SOL    HW2 5373   5.952   3.633   3.262
 1492SOL     OW 5374   5.885   0.750   2.397
 1492SOL    HW1 5375   5.883   0.793   2.306
 1492SOL    HW2 5376   5.958   0.682   2.400
 1493SOL     OW 5377   4.189   6.497   4.780
 1493SOL    HW1 5378   4.265   6.495   4.715
 1493SOL    HW2 5379   4.167   6.403   4.808
 1494SOL     OW 5380   5.717   1.772   6.508
 1494SOL    HW1 5381   5.761   1.841   6.565
 1494SOL    HW2 5382   5.775   1.690   6.505
 1495SOL     OW 5383   6.689   2.624   4.676
 1495SOL    HW1 5384   6.592   2.645   4.688
 1495SOL    HW2 5385   6.725   2.582   4.759
 1496SOL     OW 5386   0.529   1.473   1.592
 1496SOL    HW1 5387   0.521   1.376   1.615
 1496SOL    HW2 5388   0.559   1.524   1.673
 1497SOL     OW 5389   6.134   3.105   3.288
 1497SOL    HW1 5390   6.042   3.121   3.322
 1497SOL    HW2 5391   6.165   3.184   3.235
 1498SOL     OW 5392   2.006   5.220   6.717
 1498SOL    HW1 5393   2.016   5.121   6.704
 1498SOL    HW2 5394   1.913   5.240   6.746
 1499SOL     OW 5395   1.051   3.035   6.605
 1499SOL    HW1 5396   1.122   3.027   6.535
 1499SOL    HW2 5397   1.079   2.987   6.687
 1500SOL     OW 5398   6.519   6.713   0.226
 1500SOL    HW1 5399   6.465   6.629   0.231
 1500SOL    HW2 5400   6.602   6.696   0.173
 1501SOL     OW 5401   5.405   2.472   6.426
 1501SOL    HW1 5402   5.432   2.375   6.431
 1501SOL    HW2 5403   5.413   2.503   6.331
 1502SOL     OW 5404   4.809   0.156   0.438
 1502SOL    HW1 5405   4.755   0.155   0.353
 1502SOL    HW2 5406   4.903   0.131   0.417
 1503SOL     OW 5407   0.925   3.810   1.264
 1503SOL    HW1 5408   0.858   3.763   1.321
 1503SOL    HW2 5409   1.005   3.834   1.319
 1504SOL     OW 5410   0.699   0.614   5.671
 1504SOL    HW1 5411   0.730   0.644   5.762
 1504SOL    HW2 5412   0.738   0.675   5.602
 1505SOL     OW 5413   5.411   1.077   5.849
 1505SOL    HW1 5414   5.324   1.077   5.800
 1505SOL    HW2 5415   5.467   1.153   5.816
 1506SOL     OW 5416   1.009   5.896   1.026
 1506SOL    HW1 5417   0.997   5.991   0.998
 1506SOL    HW2 5418   1.032   5.841   0.946
 1507SOL     OW 5419   0.904   1.937   5.615
 1507SOL    HW1 5420   0.816   1.980   5.591
 1507SOL    HW2 5421   0.892   1.838   5.621
 1508SOL     OW 5422   6.885   0.802   2.167
 1508SOL    HW1 5423   6.867   0.883   2.223
 1508SOL    HW2 5424   6.875   0.720   2.222
 1509SOL     OW 5425   4.122   1.647   6.115
 1509SOL    HW1 5426   4.087   1.737   6.142
 1509SOL    HW2 5427   4.048   1.580   6.121
 1510SOL     OW 5428   4.537   2.027   4.863
 1510SOL    HW1 5429   4.503   2.121   4.869
 1510SOL    HW2 5430   4.616   2.024   4.802
 1511SOL     OW 5431   3.789   3.195   1.799
 1511SOL    HW1 5432   3.744   3.182   1.888
 1511SOL    HW2 5433   3.856   3.121   1.785
 1512SOL     OW 5434   0.350   5.037   1.417
 1512SOL    HW1 5435   0.379   4.957   1.469
 1512SOL    HW2 5436   0.389   5.120   1.458
 1513SOL     OW 5437   3.526   1.057   3.866
 1513SOL    HW1 5438   3.577   1.101   3.940
 1513SOL    HW2 5439   3.588   1.037   3.790
 1514SOL     OW 5440   3.962   1.884   6.185
 1514SOL    HW1 5441   3.953   1.920   6.093
 1514SOL    HW2 5442   3.990   1.957   6.247
 1515SOL     OW 5443   5.744   2.142   3.535
 1515SOL    HW1 5444   5.707   2.161   3.626
 1515SOL    HW2 5445   5.703   2.059   3.498
 1516SOL     OW 5446   6.550   0.047   0.478
 1516SOL    HW1 5447   6.525   6.999   0.544
 1516SOL    HW2 5448   6.467   0.092   0.444
 1517SOL     OW 5449   4.744   6.135   3.536
 1517SOL    HW1 5450   4.836   6.170   3.522
 1517SOL    HW2 5451   4.679   6.211   3.533
 1518SOL     OW 5452   1.040   2.996   0.289
 1518SOL    HW1 5453   1.045   3.086   0.245
 1518SOL    HW2 5454   1.101   2.995   0.368
 1519SOL     OW 5455   6.233   4.857   1.443
 1519SOL    HW1 5456   6.223   4.773   1.495
 1519SOL    HW2 5457   6.153   4.870   1.384
 1520SOL     OW 5458   0.108   3.866   2.329
 1520SOL    HW1 5459   0.020   3.819   2.334
 1520SOL    HW2 5460   0.143   3.861   2.236
 1521SOL     OW 5461   1.840   3.784   6.277
 1521SOL    HW1 5462   1.851   3.858   6.344
 1521SOL    HW2 5463   1.923   3.775   6.223
 1522SOL     OW 5464   6.344   0.183   5.379
 1522SOL    HW1 5465   6.313   0.090   5.360
 1522SOL    HW2 5466   6.417   0.181   5.447
 1523SOL     OW 5467   5.264   5.134   0.976
 1523SOL    HW1 5468   5.270   5.110   0.879
 1523SOL    HW2 5469   5.320   5.071   1.029
 1524SOL     OW 5470   1.780   2.018   1.802
 1524SOL    HW1 5471   1.749   2.048   1.892
 1524SOL    HW2 5472   1.868   2.062   1.782
 1525SOL     OW 5473   6.521   2.574   6.980
 1525SOL    HW1 5474   6.484   2.659   6.943
 1525SOL    HW2 5475   6.485   2.559   0.050
 1526SOL     OW 5476   6.790   6.896   6.710
 1526SOL    HW1 5477   6.704   6.891   6.660
 1526SOL    HW2 5478   6.812   6.992   6.729
 1527SOL     OW 5479   3.225   1.397   5.314
 1527SOL    HW1 5480   3.138   1.389   5.362
 1527SOL    HW2 5481   3.211   1.449   5.229
 1528SOL     OW 5482   4.965   6.308   2.787
 1528SOL    HW1 5483   5.058   6.312   2.751
 1528SOL    HW2 5484   4.963   6.251   2.869
 1529SOL     OW 5485   3.958   0.651   0.493
 1529SOL    HW1 5486   4.040   0.663   0.550
 1529SOL    HW2 5487   3.968   0.705   0.409
 1530SOL     OW 5488   3.306   1.893   2.319
 1530SOL    HW1 5489   3.335   1.943   2.402
 1530SOL    HW2 5490   3.231   1.831   2.342
 1531SOL     OW 5491   4.323   1.069   4.999
 1531SOL    HW1 5492   4.224   1.062   5.012
 1531SOL    HW2 5493   4.353   1.161   5.023
 1532SOL     OW 5494   2.563   3.721   5.892
 1532SOL    HW1 5495   2.486   3.776   5.923
 1532SOL    HW2 5496   2.535   3.626   5.881
 1533SOL     OW 5497   6.640   3.346   6.936
 1533SOL    HW1 5498   6.543   3.324   6.919
 1533SOL    HW2 5499   6.654   3.359   0.012
 1534SOL     OW 5500   1.989   4.711   6.682
 1534SOL    HW1 5501   2.049   4.739   6.607
 1534SOL    HW2 5502   2.040   4.650   6.744
 1535SOL     OW 5503   5.061   6.234   3.636
 1535SOL    HW1 5504   4.999   6.247   3.714
 1535SOL    HW2 5505   5.138   6.298   3.644
 1536SOL     OW 5506   4.085   4.295   5.279
 1536SOL    HW1 5507   4.162   4.342   5.235
 1536SOL    HW2 5508   4.029   4.251   5.209
 1537SOL     OW 5509   4.524   6.386   3.225
 1537SOL    HW1 5510   4.586   6.374   3.147
 1537SOL    HW2 5511   4.513   6.483   3.243
 1538SOL     OW 5512   3.893   6.050   5.898
 1538SOL    HW1 5513   3.968   5.984   5.898
 1538SOL    HW2 5514   3.814   6.011   5.944
 1539SOL     OW 5515   4.027   3.753   1.891
 1539SOL    HW1 5516   3.949   3.690   1.891
 1539SOL    HW2 5517   3.999   3.839   1.847
 1540SOL     OW 5518   1.930   5.962   5.649
 1540SOL    HW1 5519   1.904   5.879   5.698
 1540SOL    HW2 5520   1.893   6.042   5.696
 1541SOL     OW 5521   3.624   2.909   2.496
 1541SOL    HW1 5522   3.555   2.960   2.548
 1541SOL    HW2 5523   3.587   2.885   2.406
 1542SOL     OW 5524   6.313   5.998   1.777
 1542SOL    HW1 5525   6.396   5.991   1.722
 1542SOL    HW2 5526   6.324   5.944   1.860
 1543SOL     OW 5527   3.674   4.325   5.389
 1543SOL    HW1 5528   3.632   4.279   5.467
 1543SOL    HW2 5529   3.682   4.260   5.313
 1544SOL     OW 5530   3.299   3.693   2.983
 1544SOL    HW1 5531   3.218   3.748   2.962
 1544SOL    HW2 5532   3.344   3.730   3.064
 1545SOL     OW 5533   4.725   0.837   4.100
 1545SOL    HW1 5534   4.660   0.844   4.025
 1545SOL    HW2 5535   4.785   0.918   4.099
 1546SOL     OW 5536   3.321   6.363   6.148
 1546SOL    HW1 5537   3.406   6.404   6.182
 1546SOL    HW2 5538   3.311   6.381   6.050
 1547SOL     OW 5539   1.432   3.864   2.911
 1547SOL    HW1 5540   1.440   3.780   2.965
 1547SOL    HW2 5541   1.434   3.943   2.971
 1548SOL     OW 5542   4.788   4.063   5.661
 1548SOL    HW1 5543   4.743   3.976   5.640
 1548SOL    HW2 5544   4.880   4.045   5.695
 1549SOL     OW 5545   4.768   0.846   3.095
 1549SOL    HW1 5546   4.775   0.927   3.152
 1549SOL    HW2 5547   4.725   0.870   3.007
 1550SOL     OW 5548   2.962   4.395   6.889
 1550SOL    HW1 5549   2.938   4.455   6.965
 1550SOL    HW2 5550   3.025   4.325   6.920
 1551SOL     OW 5551   2.024   4.146   6.198
 1551SOL    HW1 5552   2.121   4.159   6.174
 1551SOL    HW2 5553   1.981   4.235   6.213
 1552SOL     OW 5554   6.770   6.565   0.116
 1552SOL    HW1 5555   6.725   6.482   0.149
 1552SOL    HW2 5556   6.862   6.543   0.084
 1553SOL     OW 5557   0.154   1.051   5.564
 1553SOL    HW1 5558   0.246   1.090   5.552
 1553SOL    HW2 5559   0.104   1.104   5.632
 1554SOL     OW 5560   4.649   1.333   3.164
 1554SOL    HW1 5561   4.722   1.401   3.174
 1554SOL    HW2 5562   4.595   1.353   3.082
 1555SOL     OW 5563   5.054   1.716   0.239
 1555SOL    HW1 5564   5.119   1.791   0.222
 1555SOL    HW2 5565   4.978   1.723   0.174
 1556SOL     OW 5566   2.547   1.123   0.713
 1556SOL    HW1 5567   2.588   1.046   0.665
 1556SOL    HW2 5568   2.578   1.124   0.809
 1557SOL     OW 5569   1.776   1.102   6.575
 1557SOL    HW1 5570   1.757   1.004   6.581
 1557SOL    HW2 5571   1.730   1.150   6.650
 1558SOL     OW 5572   5.316   0.802   4.645
 1558SOL    HW1 5573   5.220   0.831   4.644
 1558SOL    HW2 5574   5.337   0.761   4.733
 1559SOL     OW 5575   0.335   2.585   0.179
 1559SOL    HW1 5576   0.297   2.663   0.130
 1559SOL    HW2 5577   0.267   2.512   0.183
 1560SOL     OW 5578   2.765   2.068   6.076
 1560SOL    HW1 5579   2.754   2.142   6.142
 1560SOL    HW2 5580   2.758   1.980   6.122
 1561SOL     OW 5581   0.348   6.156   3.348
 1561SOL    HW1 5582   0.366   6.197   3.438
 1561SOL    HW2 5583   0.425   6.097   3.323
 1562SOL     OW 5584   3.693   5.607   2.767
 1562SOL    HW1 5585   3.621   5.551   2.725
 1562SOL    HW2 5586   3.777   5.600   2.713
 1563SOL     OW 5587   2.062   0.360   6.104
 1563SOL    HW1 5588   2.050   0.366   6.204
 1563SOL    HW2 5589   2.158   0.340   6.084
 1564SOL     OW 5590   1.167   3.268   3.133
 1564SOL    HW1 5591   1.199   3.234   3.045
 1564SOL    HW2 5592   1.141   3.192   3.192
 1565SOL     OW 5593   4.556   5.156   4.737
 1565SOL    HW1 5594   4.465   5.173   4.773
 1565SOL    HW2 5595   4.589   5.067   4.767
 1566SOL     OW 5596   5.267   4.846   3.819
 1566SOL    HW1 5597   5.176   4.823   3.856
 1566SOL    HW2 5598   5.321   4.763   3.811
 1567SOL     OW 5599   5.993   6.267   6.827
 1567SOL    HW1 5600   5.973   6.183   6.878
 1567SOL    HW2 5601   5.998   6.246   6.729
 1568SOL     OW 5602   1.880   5.469   1.070
 1568SOL    HW1 5603   1.798   5.512   1.031
 1568SOL    HW2 5604   1.857   5.431   1.160
 1569SOL     OW 5605   3.109   7.011   3.450
 1569SOL    HW1 5606   3.081   7.009   3.354
 1569SOL    HW2 5607   3.150   6.923   3.475
 1570SOL     OW 5608   2.081   6.822   0.733
 1570SOL    HW1 5609   2.023   6.784   0.805
 1570SOL    HW2 5610   2.177   6.807   0.757
 1571SOL     OW 5611   6.104   1.788   2.313
 1571SOL    HW1 5612   6.140   1.801   2.406
 1571SOL    HW2 5613   6.065   1.696   2.305
 1572SOL     OW 5614   0.904   6.223   0.518
 1572SOL    HW1 5615   1.003   6.221   0.520
 1572SOL    HW2 5616   0.868   6.134   0.544
 1573SOL     OW 5617   6.328   3.289   1.885
 1573SOL    HW1 5618   6.290   3.287   1.792
 1573SOL    HW2 5619   6.427   3.304   1.879
 1574SOL     OW 5620   0.217   1.192   3.200
 1574SOL    HW1 5621   0.268   1.229   3.123
 1574SOL    HW2 5622   0.277   1.184   3.279
 1575SOL     OW 5623   2.473   2.276   0.974
 1575SOL    HW1 5624   2.472   2.199   0.910
 1575SOL    HW2 5625   2.481   2.242   1.067
 1576SOL     OW 5626   0.516   1.132   3.125
 1576SOL    HW1 5627   0.440   1.197   3.118
 1576SOL    HW2 5628   0.527   1.083   3.038
 1577SOL     OW 5629   2.719   0.492   5.365
 1577SOL    HW1 5630   2.818   0.475   5.365
 1577SOL    HW2 5631   2.675   0.431   5.431
 1578SOL     OW 5632   5.445   3.021   5.967
 1578SOL    HW1 5633   5.367   3.074   6.002
 1578SOL    HW2 5634   5.471   2.953   6.035
 1579SOL     OW 5635   0.771   1.948   2.611
 1579SOL    HW1 5636   0.845   2.009   2.583
 1579SOL    HW2 5637   0.801   1.890   2.686
 1580SOL     OW 5638   3.175   4.041   3.993
 1580SOL    HW1 5639   3.215   4.133   3.992
 1580SOL    HW2 5640   3.246   3.974   3.974
 1581SOL     OW 5641   6.782   4.154   5.718
 1581SOL    HW1 5642   6.738   4.187   5.634
 1581SOL    HW2 5643   6.814   4.232   5.771
 1582SOL     OW 5644   2.471   6.991   4.071
 1582SOL    HW1 5645   2.537   6.915   4.071
 1582SOL    HW2 5646   2.379   6.955   4.080
 1583SOL     OW 5647   1.092   5.383   3.292
 1583SOL    HW1 5648   1.036   5.300   3.297
 1583SOL    HW2 5649   1.188   5.360   3.303
 1584SOL     OW 5650   0.959   6.011   6.293
 1584SOL    HW1 5651   1.014   6.092   6.308
 1584SOL    HW2 5652   0.880   6.013   6.354
 1585SOL     OW 5653   5.096   1.262   3.509
 1585SOL    HW1 5654   5.086   1.206   3.592
 1585SOL    HW2 5655   5.103   1.202   3.429
 1586SOL     OW 5656   3.394   4.972   1.997
 1586SOL    HW1 5657   3.471   4.908   1.999
 1586SOL    HW2 5658   3.342   4.965   2.082
 1587SOL     OW 5659   3.194   5.628   6.523
 1587SOL    HW1 5660   3.191   5.579   6.436
 1587SOL    HW2 5661   3.256   5.706   6.515
 1588SOL     OW 5662   3.947   0.294   2.757
 1588SOL    HW1 5663   4.002   0.359   2.705
 1588SOL    HW2 5664   3.935   0.329   2.850
 1589SOL     OW 5665   6.404   3.004   2.328
 1589SOL    HW1 5666   6.445   2.920   2.364
 1589SOL    HW2 5667   6.424   3.011   2.230
 1590SOL     OW 5668   4.031   6.404   5.659
 1590SOL    HW1 5669   4.094   6.474   5.692
 1590SOL    HW2 5670   4.052   6.381   5.564
 1591SOL     OW 5671   6.799   5.170   2.119
 1591SOL    HW1 5672   6.821   5.186   2.023
 1591SOL    HW2 5673   6.879   5.133   2.166
 1592SOL     OW 5674   2.103   4.000   6.845
 1592SOL    HW1 5675   2.023   3.943   6.829
 1592SOL    HW2 5676   2.085   4.093   6.812
 1593SOL     OW 5677   1.477   6.079   5.734
 1593SOL    HW1 5678   1.511   6.011   5.669
 1593SOL    HW2 5679   1.378   6.088   5.723
 1594SOL     OW 5680   0.527   6.310   1.711
 1594SOL    HW1 5681   0.446   6.369   1.705
 1594SOL    HW2 5682   0.559   6.287   1.619
 1595SOL     OW 5683   1.580   5.411   0.258
 1595SOL    HW1 5684   1.654   5.478   0.265
 1595SOL    HW2 5685   1.520   5.420   0.337
 1596SOL     OW 5686   0.267   2.606   3.843
 1596SOL    HW1 5687   0.288   2.518   3.801
 1596SOL    HW2 5688   0.170   2.626   3.833
 1597SOL     OW 5689   1.295   6.263   0.037
 1597SOL    HW1 5690   1.351   6.183   0.056
 1597SOL    HW2 5691   1.345   6.325   6.998
 1598SOL     OW 5692   0.041   4.016   5.779
 1598SOL    HW1 5693   0.090   3.930   5.763
 1598SOL    HW2 5694   0.057   4.078   5.702
 1599SOL     OW 5695   4.893   4.705   4.970
 1599SOL    HW1 5696   4.970   4.689   4.909
 1599SOL    HW2 5697   4.887   4.630   5.036
 1600SOL     OW 5698   4.792   1.099   3.163
 1600SOL    HW1 5699   4.725   1.167   3.192
 1600SOL    HW2 5700   4.852   1.138   3.093
 1601SOL     OW 5701   0.005   5.252   4.621
 1601SOL    HW1 5702   0.077   5.282   4.683
 1601SOL    HW2 5703   6.998   5.159   4.645
 1602SOL     OW 5704   4.032   5.451   2.974
 1602SOL    HW1 5705   3.962   5.406   3.029
 1602SOL    HW2 5706   4.011   5.549   2.967
 1603SOL     OW 5707   1.093   6.597   3.163
 1603SOL    HW1 5708   1.070   6.508   3.124
 1603SOL    HW2 5709   1.186   6.622   3.135
 1604SOL     OW 5710   5.818   4.434   1.290
 1604SOL    HW1 5711   5.911   4.408   1.318
 1604SOL    HW2 5712   5.768   4.468   1.370
 1605SOL     OW 5713   6.307   5.559   1.372
 1605SOL    HW1 5714   6.254   5.620   1.313
 1605SOL    HW2 5715   6.311   5.468   1.331
 1606SOL     OW 5716   3.552   1.151   5.603
 1606SOL    HW1 5717   3.541   1.251   5.605
 1606SOL    HW2 5718   3.462   1.108   5.609
 1607SOL     OW 5719   4.212   1.050   1.367
 1607SOL    HW1 5720   4.203   1.143   1.333
 1607SOL    HW2 5721   4.287   1.045   1.434
 1608SOL     OW 5722   0.446   0.591   3.707
 1608SOL    HW1 5723   0.479   0.681   3.736
 1608SOL    HW2 5724   0.374   0.561   3.770
 1609SOL     OW 5725   4.377   0.152   0.370
 1609SOL    HW1 5726   4.351   0.103   0.453
 1609SOL    HW2 5727   4.300   0.153   0.306
 1610SOL     OW 5728   5.822   4.796   6.489
 1610SOL    HW1 5729   5.905   4.748   6.518
 1610SOL    HW2 5730   5.831   4.824   6.393
 1611SOL     OW 5731   2.201   3.549   0.794
 1611SOL    HW1 5732   2.151   3.626   0.757
 1611SOL    HW2 5733   2.268   3.582   0.861
 1612SOL     OW 5734   2.723   6.841   6.321
 1612SOL    HW1 5735   2.728   6.919   6.257
 1612SOL    HW2 5736   2.727   6.875   6.415
 1613SOL     OW 5737   1.674   4.939   2.044
 1613SOL    HW1 5738   1.734   4.933   1.965
 1613SOL    HW2 5739   1.583   4.968   2.014
 1614SOL     OW 5740   5.610   3.563   0.127
 1614SOL    HW1 5741   5.616   3.579   0.226
 1614SOL    HW2 5742   5.662   3.481   0.103
 1615SOL     OW 5743   5.814   4.951   0.680
 1615SOL    HW1 5744   5.782   4.935   0.587
 1615SOL    HW2 5745   5.737   4.982   0.737
 1616SOL     OW 5746   2.968   1.219   5.116
 1616SOL    HW1 5747   2.951   1.212   5.018
 1616SOL    HW2 5748   2.934   1.307   5.150
 1617SOL     OW 5749   6.301   0.010   2.735
 1617SOL    HW1 5750   6.277   6.998   2.644
 1617SOL    HW2 5751   6.332   0.105   2.728
 1618SOL     OW 5752   1.672   4.428   2.015
 1618SOL    HW1 5753   1.663   4.445   1.917
 1618SOL    HW2 5754   1.653   4.332   2.034
 1619SOL     OW 5755   1.662   3.523   2.120
 1619SOL    HW1 5756   1.737   3.501   2.058
 1619SOL    HW2 5757   1.691   3.506   2.214
 1620SOL     OW 5758   2.790   4.828   1.857
 1620SOL    HW1 5759   2.846   4.840   1.774
 1620SOL    HW2 5760   2.828   4.754   1.912
 1621SOL     OW 5761   0.378   1.081   0.560
 1621SOL    HW1 5762   0.462   1.050   0.604
 1621SOL    HW2 5763   0.301   1.028   0.596
 1622SOL     OW 5764   0.705   3.058   4.730
 1622SOL    HW1 5765   0.659   3.028   4.647
 1622SOL    HW2 5766   0.727   2.979   4.787
 1623SOL     OW 5767   2.177   3.130   4.942
 1623SOL    HW1 5768   2.174   3.230   4.947
 1623SOL    HW2 5769   2.268   3.098   4.968
 1624SOL     OW 5770   2.916   0.887   5.022
 1624SOL    HW1 5771   2.875   0.913   5.109
 1624SOL    HW2 5772   2.855   0.915   4.947
 1625SOL     OW 5773   1.010   5.325   0.457
 1625SOL    HW1 5774   1.077   5.251   0.453
 1625SOL    HW2 5775   0.930   5.295   0.508
 1626SOL     OW 5776   4.279   1.962   0.038
 1626SOL    HW1 5777   4.298   2.056   0.010
 1626SOL    HW2 5778   4.215   1.963   0.115
 1627SOL     OW 5779   5.980   3.724   3.016
 1627SOL    HW1 5780   6.040   3.646   2.996
 1627SOL    HW2 5781   5.948   3.718   3.110
 1628SOL     OW 5782   4.739   4.205   0.019
 1628SOL    HW1 5783   4.811   4.150   6.999
 1628SOL    HW2 5784   4.752   4.207   0.118
 1629SOL     OW 5785   2.725   0.814   3.892
 1629SOL    HW1 5786   2.703   0.908   3.921
 1629SOL    HW2 5787   2.725   0.754   3.972
 1630SOL     OW 5788   1.262   5.070   5.534
 1630SOL    HW1 5789   1.352   5.028   5.521
 1630SOL    HW2 5790   1.270   5.169   5.525
 1631SOL     OW 5791   1.287   3.003   6.782
 1631SOL    HW1 5792   1.373   3.027   6.826
 1631SOL    HW2 5793   1.272   2.904   6.788
 1632SOL     OW 5794   6.808   2.195   0.146
 1632SOL    HW1 5795   6.879   2.206   0.215
 1632SOL    HW2 5796   6.850   2.170   0.059
 1633SOL     OW 5797   5.373   3.517   4.469
 1633SOL    HW1 5798   5.368   3.493   4.566
 1633SOL    HW2 5799   5.317   3.598   4.452
 1634SOL     OW 5800   4.548   5.623   4.990
 1634SOL    HW1 5801   4.478   5.587   5.052
 1634SOL    HW2 5802   4.530   5.720   4.973
 1635SOL     OW 5803   0.186   4.884   6.039
 1635SOL    HW1 5804   0.156   4.803   5.989
 1635SOL    HW2 5805   0.281   4.871   6.068
 1636SOL     OW 5806   3.040   4.301   1.699
 1636SOL    HW1 5807   2.991   4.365   1.759
 1636SOL    HW2 5808   3.021   4.207   1.727
 1637SOL     OW 5809   1.112   0.698   2.706
 1637SOL    HW1 5810   1.030   0.754   2.690
 1637SOL    HW2 5811   1.108   0.658   2.797
 1638SOL     OW 5812   0.311   4.345   3.251
 1638SOL    HW1 5813   0.297   4.334   3.153
 1638SOL    HW2 5814   0.266   4.270   3.300
 1639SOL     OW 5815   4.990   0.085   2.753
 1639SOL    HW1 5816   5.057   0.016   2.783
 1639SOL    HW2 5817   4.968   0.145   2.830
 1640SOL     OW 5818   5.886   1.103   0.492
 1640SOL    HW1 5819   5.893   1.074   0.587
 1640SOL    HW2 5820   5.977   1.129   0.458
 1641SOL     OW 5821   4.806   2.476   3.337
 1641SOL    HW1 5822   4.716   2.491   3.377
 1641SOL    HW2 5823   4.805   2.503   3.241
 1642SOL     OW 5824   5.914   3.585   6.334
 1642SOL    HW1 5825   5.944   3.490   6.333
 1642SOL    HW2 5826   5.994   3.645   6.335
 1643SOL     OW 5827   3.189   4.945   4.825
 1643SOL    HW1 5828   3.230   4.963   4.735
 1643SOL    HW2 5829   3.091   4.929   4.815
 1644SOL     OW 5830   6.150   3.471   0.458
 1644SOL    HW1 5831   6.064   3.461   0.509
 1644SOL    HW2 5832   6.165   3.567   0.436
 1645SOL     OW 5833   3.191   5.353   5.712
 1645SOL    HW1 5834   3.162   5.336   5.618
 1645SOL    HW2 5835   3.242   5.439   5.716
 1646SOL     OW 5836   2.835   5.994   0.442
 1646SOL    HW1 5837   2.897   5.971   0.366
 1646SOL    HW2 5838   2.857   6.086   0.475
 1647SOL     OW 5839   5.700   2.911   4.505
 1647SOL    HW1 5840   5.641   2.831   4.509
 1647SOL    HW2 5841   5.720   2.933   4.409
 1648SOL     OW 5842   5.589   5.276   0.592
 1648SOL    HW1 5843   5.552   5.215   0.663
 1648SOL    HW2 5844   5.676   5.314   0.623
 1649SOL     OW 5845   3.133   0.923   4.423
 1649SOL    HW1 5846   3.118   0.961   4.332
 1649SOL    HW2 5847   3.076   0.972   4.489
 1650SOL     OW 5848   1.808   5.980   5.388
 1650SOL    HW1 5849   1.856   6.008   5.471
 1650SOL    HW2 5850   1.729   5.923   5.412
 1651SOL     OW 5851   0.775   1.970   1.408
 1651SOL    HW1 5852   0.854   2.030   1.422
 1651SOL    HW2 5853   0.691   2.022   1.423
 1652SOL     OW 5854   1.116   3.941   2.484
 1652SOL    HW1 5855   1.129   3.842   2.491
 1652SOL    HW2 5856   1.138   3.983   2.572
 1653SOL     OW 5857   1.017   6.949   1.056
 1653SOL    HW1 5858   0.991   6.890   1.132
 1653SOL    HW2 5859   1.094   7.007   1.083
 1654SOL     OW 5860   0.340   3.696   1.112
 1654SOL    HW1 5861   0.372   3.639   1.036
 1654SOL    HW2 5862   0.417   3.744   1.154
 1655SOL     OW 5863   6.789   2.281   5.346
 1655SOL    HW1 5864   6.727   2.322   5.412
 1655SOL    HW2 5865   6.827   2.197   5.384
 1656SOL     OW 5866   2.761   4.692   2.456
 1656SOL    HW1 5867   2.675   4.657   2.418
 1656SOL    HW2 5868   2.831   4.695   2.385
 1657SOL     OW 5869   0.090   1.394   3.480
 1657SOL    HW1 5870   0.116   1.302   3.510
 1657SOL    HW2 5871   0.004   1.389   3.429
 1658SOL     OW 5872   0.695   6.057   1.088
 1658SOL    HW1 5873   0.736   6.104   1.010
 1658SOL    HW2 5874   0.626   6.115   1.130
 1659SOL     OW 5875   3.678   0.450   6.023
 1659SOL    HW1 5876   3.637   0.359   6.026
 1659SOL    HW2 5877   3.618   0.511   5.970
 1660SOL     OW 5878   1.118   5.489   4.105
 1660SOL    HW1 5879   1.026   5.528   4.112
 1660SOL    HW2 5880   1.115   5.392   4.129
 1661SOL     OW 5881   2.520   0.646   2.037
 1661SOL    HW1 5882   2.593   0.698   2.080
 1661SOL    HW2 5883   2.534   0.646   1.938
 1662SOL     OW 5884   6.346   0.495   4.197
 1662SOL    HW1 5885   6.391   0.409   4.174
 1662SOL    HW2 5886   6.321   0.494   4.294
 1663SOL     OW 5887   4.531   5.741   2.305
 1663SOL    HW1 5888   4.447   5.756   2.357
 1663SOL    HW2 5889   4.603   5.801   2.341
 1664SOL     OW 5890   1.876   0.319   4.587
 1664SOL    HW1 5891   1.919   0.354   4.671
 1664SOL    HW2 5892   1.828   0.234   4.608
 1665SOL     OW 5893   0.150   1.874   2.934
 1665SOL    HW1 5894   0.203   1.871   2.849
 1665SOL    HW2 5895   0.199   1.825   3.006
 1666SOL     OW 5896   5.210   2.753   7.006
 1666SOL    HW1 5897   5.288   2.815   7.012
 1666SOL    HW2 5898   5.240   2.665   6.970
 1667SOL     OW 5899   6.782   5.447   1.450
 1667SOL    HW1 5900   6.842   5.518   1.415
 1667SOL    HW2 5901   6.789   5.366   1.392
 1668SOL     OW 5902   4.926   6.010   5.755
 1668SOL    HW1 5903   4.986   5.950   5.808
 1668SOL    HW2 5904   4.932   5.985   5.658
 1669SOL     OW 5905   6.861   5.639   6.440
 1669SOL    HW1 5906   6.833   5.729   6.472
 1669SOL    HW2 5907   6.955   5.621   6.468
 1670SOL     OW 5908   0.160   3.766   5.769
 1670SOL    HW1 5909   0.156   3.734   5.864
 1670SOL    HW2 5910   0.252   3.797   5.748
 1671SOL     OW 5911   5.281   1.537   1.408
 1671SOL    HW1 5912   5.374   1.503   1.397
 1671SOL    HW2 5913   5.266   1.565   1.503
 1672SOL     OW 5914   2.042   2.878   1.033
 1672SOL    HW1 5915   2.114   2.857   1.100
 1672SOL    HW2 5916   2.074   2.949   0.971
 1673SOL     OW 5917   0.593   1.941   4.413
 1673SOL    HW1 5918   0.620   1.892   4.330
 1673SOL    HW2 5919   0.516   2.002   4.393
 1674SOL     OW 5920   0.821   3.747   2.763
 1674SOL    HW1 5921   0.841   3.834   2.718
 1674SOL    HW2 5922   0.727   3.747   2.797
 1675SOL     OW 5923   4.748   0.173   6.441
 1675SOL    HW1 5924   4.680   0.104   6.465
 1675SOL    HW2 5925   4.838   0.145   6.476
 1676SOL     OW 5926   1.875   2.507   1.884
 1676SOL    HW1 5927   1.939   2.580   1.906
 1676SOL    HW2 5928   1.834   2.525   1.794
 1677SOL     OW 5929   3.180   3.621   5.236
 1677SOL    HW1 5930   3.136   3.546   5.187
 1677SOL    HW2 5931   3.279   3.605   5.241
 1678SOL     OW 5932   4.771   4.111   4.432
 1678SOL    HW1 5933   4.745   4.080   4.340
 1678SOL    HW2 5934   4.770   4.211   4.434
 1679SOL     OW 5935   2.400   2.215   4.117
 1679SOL    HW1 5936   2.335   2.266   4.060
 1679SOL    HW2 5937   2.354   2.186   4.202
 1680SOL     OW 5938   0.209   2.975   4.924
 1680SOL    HW1 5939   0.125   2.923   4.940
 1680SOL    HW2 5940   0.247   2.950   4.834
 1681SOL     OW 5941   6.839   5.969   0.252
 1681SOL    HW1 5942   6.785   5.962   0.168
 1681SOL    HW2 5943   6.902   5.891   0.257
 1682SOL     OW 5944   1.140   0.829   4.291
 1682SOL    HW1 5945   1.145   0.928   4.276
 1682SOL    HW2 5946   1.054   0.795   4.253
 1683SOL     OW 5947   4.721   5.203   1.698
 1683SOL    HW1 5948   4.624   5.228   1.702
 1683SOL    HW2 5949   4.729   5.104   1.685
 1684SOL     OW 5950   1.644   5.703   2.353
 1684SOL    HW1 5951   1.724   5.672   2.404
 1684SOL    HW2 5952   1.672   5.732   2.262
 1685SOL     OW 5953   2.566   0.717   5.470
 1685SOL    HW1 5954   2.636   0.778   5.507
 1685SOL    HW2 5955   2.610   0.640   5.423
 1686SOL     OW 5956   2.939   6.004   5.040
 1686SOL    HW1 5957   2.897   6.035   4.955
 1686SOL    HW2 5958   2.953   5.905   5.035
 1687SOL     OW 5959   2.244   3.851   1.465
 1687SOL    HW1 5960   2.150   3.880   1.481
 1687SOL    HW2 5961   2.267   3.862   1.368
 1688SOL     OW 5962   1.911   2.377   4.523
 1688SOL    HW1 5963   1.835   2.314   4.538
 1688SOL    HW2 5964   1.927   2.388   4.425
 1689SOL     OW 5965   5.958   1.580   2.568
 1689SOL    HW1 5966   6.001   1.508   2.623
 1689SOL    HW2 5967   5.976   1.669   2.610
 1690SOL     OW 5968   1.744   3.113   3.748
 1690SOL    HW1 5969   1.660   3.066   3.775
 1690SOL    HW2 5970   1.781   3.163   3.826
 1691SOL     OW 5971   5.643   3.693   3.326
 1691SOL    HW1 5972   5.736   3.725   3.309
 1691SOL    HW2 5973   5.646   3.611   3.383
 1692SOL     OW 5974   5.585   6.915   1.396
 1692SOL    HW1 5975   5.595   6.822   1.430
 1692SOL    HW2 5976   5.494   6.949   1.420
 1693SOL     OW 5977   0.244   2.247   1.801
 1693SOL    HW1 5978   0.268   2.168   1.858
 1693SOL    HW2 5979   0.206   2.215   1.715
 1694SOL     OW 5980   5.300   0.342   2.728
 1694SOL    HW1 5981   5.211   0.377   2.759
 1694SOL    HW2 5982   5.366   0.348   2.803
 1695SOL     OW 5983   3.171   1.256   5.640
 1695SOL    HW1 5984   3.218   1.288   5.722
 1695SOL    HW2 5985   3.170   1.156   5.640
 1696SOL     OW 5986   4.646   4.450   0.755
 1696SOL    HW1 5987   4.553   4.482   0.766
 1696SOL    HW2 5988   4.693   4.505   0.687
 1697SOL     OW 5989   5.511   0.060   0.690
 1697SOL    HW1 5990   5.524   0.158   0.699
 1697SOL    HW2 5991   5.595   0.018   0.656
 1698SOL     OW 5992   4.297   0.442   0.127
 1698SOL    HW1 5993   4.320   0.508   0.055
 1698SOL    HW2 5994   4.376   0.382   0.143
 1699SOL     OW 5995   1.916   0.721   0.850
 1699SOL    HW1 5996   1.965   0.751   0.932
 1699SOL    HW2 5997   1.818   0.734   0.864
 1700SOL     OW 5998   5.636   2.458   3.154
 1700SOL    HW1 5999   5.695   2.380   3.177
 1700SOL    HW2 6000   5.545   2.425   3.130
 1701SOL     OW 6001   4.455   4.340   6.540
 1701SOL    HW1 6002   4.521   4.403   6.581
 1701SOL    HW2 6003   4.382   4.393   6.496
 1702SOL     OW 6004   0.008   2.672   0.173
 1702SOL    HW1 6005   0.024   2.582   0.211
 1702SOL    HW2 6006   6.995   2.733   0.244
 1703SOL     OW 6007   2.997   2.599   1.662
 1703SOL    HW1 6008   2.983   2.530   1.733
 1703SOL    HW2 6009   3.093   2.627   1.661
 1704SOL     OW 6010   1.056   2.385   1.003
 1704SOL    HW1 6011   1.046   2.481   1.027
 1704SOL    HW2 6012   0.997   2.363   0.926
 1705SOL     OW 6013   3.319   1.670   1.891
 1705SOL    HW1 6014   3.266   1.734   1.947
 1705SOL    HW2 6015   3.394   1.632   1.945
 1706SOL     OW 6016   4.659   0.979   2.547
 1706SOL    HW1 6017   4.704   1.067   2.533
 1706SOL    HW2 6018   4.569   0.980   2.504
 1707SOL     OW 6019   5.288   1.997   1.867
 1707SOL    HW1 6020   5.265   1.900   1.862
 1707SOL    HW2 6021   5.385   2.008   1.888
 1708SOL     OW 6022   5.105   5.072   2.130
 1708SOL    HW1 6023   5.092   5.035   2.222
 1708SOL    HW2 6024   5.017   5.105   2.095
 1709SOL     OW 6025   3.298   5.498   2.066
 1709SOL    HW1 6026   3.335   5.423   2.012
 1709SOL    HW2 6027   3.199   5.502   2.053
 1710SOL     OW 6028   5.135   5.350   4.088
 1710SOL    HW1 6029   5.123   5.394   3.999
 1710SOL    HW2 6030   5.080   5.267   4.092
 1711SOL     OW 6031   0.706   4.750   4.320
 1711SOL    HW1 6032   0.650   4.680   4.364
 1711SOL    HW2 6033   0.799   4.714   4.308
 1712SOL     OW 6034   0.176   2.731   5.749
 1712SOL    HW1 6035   0.107   2.766   5.812
 1712SOL    HW2 6036   0.255   2.698   5.802
 1713SOL     OW 6037   5.093   2.861   1.796
 1713SOL    HW1 6038   5.027   2.872   1.870
 1713SOL    HW2 6039   5.061   2.791   1.732
 1714SOL     OW 6040   3.431   2.150   5.801
 1714SOL    HW1 6041   3.371   2.071   5.795
 1714SOL    HW2 6042   3.383   2.226   5.845
 1715SOL     OW 6043   0.235   5.636   2.941
 1715SOL    HW1 6044   0.139   5.612   2.959
 1715SOL    HW2 6045   0.238   5.716   2.882
 1716SOL     OW 6046   4.774   6.747   2.819
 1716SOL    HW1 6047   4.850   6.690   2.853
 1716SOL    HW2 6048   4.688   6.709   2.851
 1717SOL     OW 6049   2.134   6.606   5.673
 1717SOL    HW1 6050   2.051   6.645   5.713
 1717SOL    HW2 6051   2.156   6.520   5.719
 1718SOL     OW 6052   2.136   1.806   1.067
 1718SOL    HW1 6053   2.091   1.894   1.083
 1718SOL    HW2 6054   2.226   1.807   1.111
 1719SOL     OW 6055   1.800   3.281   0.504
 1719SOL    HW1 6056   1.731   3.214   0.475
 1719SOL    HW2 6057   1.762   3.337   0.577
 1720SOL     OW 6058   0.255   2.596   6.812
 1720SOL    HW1 6059   0.319   2.671   6.830
 1720SOL    HW2 6060   0.307   2.512   6.798
 1721SOL     OW 6061   1.575   6.062   1.222
 1721SOL    HW1 6062   1.537   6.155   1.219
 1721SOL    HW2 6063   1.661   6.059   1.171
 1722SOL     OW 6064   4.006   1.826   4.023
 1722SOL    HW1 6065   3.945   1.863   4.092
 1722SOL    HW2 6066   3.963   1.748   3.977
 1723SOL     OW 6067   6.089   2.662   2.970
 1723SOL    HW1 6068   6.007   2.604   2.971
 1723SOL    HW2 6069   6.171   2.605   2.968
 1724SOL     OW 6070   6.764   3.004   1.127
 1724SOL    HW1 6071   6.804   2.913   1.140
 1724SOL    HW2 6072   6.717   3.031   1.210
 1725SOL     OW 6073   2.025   4.914   6.453
 1725SOL    HW1 6074   2.120   4.943   6.469
 1725SOL    HW2 6075   1.964   4.969   6.509
 1726SOL     OW 6076   5.574   4.491   5.193
 1726SOL    HW1 6077   5.510   4.554   5.237
 1726SOL    HW2 6078   5.599   4.419   5.258
 1727SOL     OW 6079   3.684   3.265   4.092
 1727SOL    HW1 6080   3.740   3.183   4.105
 1727SOL    HW2 6081   3.652   3.297   4.181
 1728SOL     OW 6082   4.825   4.933   5.385
 1728SOL    HW1 6083   4.767   4.989   5.444
 1728SOL    HW2 6084   4.919   4.935   5.419
 1729SOL     OW 6085   2.414   4.321   3.370
 1729SOL    HW1 6086   2.486   4.262   3.335
 1729SOL    HW2 6087   2.423   4.412   3.330
 1730SOL     OW 6088   1.010   6.718   5.807
 1730SOL    HW1 6089   0.936   6.775   5.844
 1730SOL    HW2 6090   1.055   6.768   5.732
 1731SOL     OW 6091   6.770   3.745   2.929
 1731SOL    HW1 6092   6.724   3.719   3.014
 1731SOL    HW2 6093   6.867   3.760   2.947
 1732SOL     OW 6094   2.547   5.035   5.701
 1732SOL    HW1 6095   2.630   5.014   5.649
 1732SOL    HW2 6096   2.477   5.070   5.638
 1733SOL     OW 6097   1.665   4.185   1.498
 1733SOL    HW1 6098   1.615   4.153   1.578
 1733SOL    HW2 6099   1.661   4.284   1.493
 1734SOL     OW 6100   4.481   3.009   1.236
 1734SOL    HW1 6101   4.443   2.963   1.316
 1734SOL    HW2 6102   4.509   3.102   1.260
 1735SOL     OW 6103   5.237   6.097   0.741
 1735SOL    HW1 6104   5.200   6.087   0.833
 1735SOL    HW2 6105   5.215   6.189   0.707
 1736SOL     OW 6106   3.386   3.050   0.484
 1736SOL    HW1 6107   3.343   3.081   0.569
 1736SOL    HW2 6108   3.467   3.106   0.466
 1737SOL     OW 6109   2.819   1.376   4.122
 1737SOL    HW1 6110   2.858   1.444   4.184
 1737SOL    HW2 6111   2.773   1.423   4.046
 1738SOL     OW 6112   1.944   2.213   3.891
 1738SOL    HW1 6113   2.010   2.203   3.817
 1738SOL    HW2 6114   1.851   2.210   3.854
 1739SOL     OW 6115   0.258   1.906   5.491
 1739SOL    HW1 6116   0.306   1.955   5.563
 1739SOL    HW2 6117   0.320   1.889   5.415
 1740SOL     OW 6118   6.886   1.839   5.590
 1740SOL    HW1 6119   6.919   1.755   5.547
 1740SOL    HW2 6120   6.919   1.844   5.685
 1741SOL     OW 6121   2.308   1.174   3.940
 1741SOL    HW1 6122   2.338   1.144   4.030
 1741SOL    HW2 6123   2.292   1.094   3.882
 1742SOL     OW 6124   5.418   0.809   5.985
 1742SOL    HW1 6125   5.424   0.878   5.913
 1742SOL    HW2 6126   5.502   0.812   6.040
 1743SOL     OW 6127   1.149   2.253   1.283
 1743SOL    HW1 6128   1.116   2.331   1.231
 1743SOL    HW2 6129   1.207   2.196   1.225
 1744SOL     OW 6130   6.840   1.770   2.346
 1744SOL    HW1 6131   6.825   1.672   2.330
 1744SOL    HW2 6132   6.897   1.783   2.427
 1745SOL     OW 6133   6.159   6.413   2.790
 1745SOL    HW1 6134   6.109   6.385   2.708
 1745SOL    HW2 6135   6.121   6.500   2.824
 1746SOL     OW 6136   1.905   5.117   4.764
 1746SOL    HW1 6137   1.925   5.032   4.814
 1746SOL    HW2 6138   1.986   5.175   4.762
 1747SOL     OW 6139   5.835   1.944   2.337
 1747SOL    HW1 6140   5.894   1.864   2.335
 1747SOL    HW2 6141   5.822   1.973   2.432
 1748SOL     OW 6142   0.862   0.565   4.680
 1748SOL    HW1 6143   0.840   0.486   4.623
 1748SOL    HW2 6144   0.844   0.544   4.776
 1749SOL     OW 6145   2.804   0.298   4.940
 1749SOL    HW1 6146   2.715   0.297   4.894
 1749SOL    HW2 6147   2.855   0.380   4.912
 1750SOL     OW 6148   5.344   6.833   4.040
 1750SOL    HW1 6149   5.385   6.919   4.070
 1750SOL    HW2 6150   5.407   6.787   3.977
 1751SOL     OW 6151   4.361   6.406   4.984
 1751SOL    HW1 6152   4.438   6.456   5.024
 1751SOL    HW2 6153   4.392   6.318   4.950
 1752SOL     OW 6154   0.094   2.123   1.360
 1752SOL    HW1 6155   0.137   2.176   1.287
 1752SOL    HW2 6156   0.001   2.156   1.375
 1753SOL     OW 6157   0.249   1.209   0.973
 1753SOL    HW1 6158   0.161   1.228   0.930
 1753SOL    HW2 6159   0.303   1.293   0.977
 1754SOL     OW 6160   2.023   4.335   0.618
 1754SOL    HW1 6161   2.084   4.274   0.567
 1754SOL    HW2 6162   2.062   4.427   0.620
 1755SOL     OW 6163   6.895   6.067   2.101
 1755SOL    HW1 6164   6.827   6.109   2.161
 1755SOL    HW2 6165   6.851   6.033   2.018
 1756SOL     OW 6166   4.217   5.720   5.752
 1756SOL    HW1 6167   4.283   5.793   5.734
 1756SOL    HW2 6168   4.263   5.644   5.798
 1757SOL     OW 6169   2.763   5.423   4.941
 1757SOL    HW1 6170   2.791   5.406   5.036
 1757SOL    HW2 6171   2.788   5.344   4.885
 1758SOL     OW 6172   1.758   0.278   4.081
 1758SOL    HW1 6173   1.811   0.336   4.018
 1758SOL    HW2 6174   1.728   0.334   4.159
 1759SOL     OW 6175   1.811   5.427   6.406
 1759SOL    HW1 6176   1.760   5.449   6.490
 1759SOL    HW2 6177   1.884   5.494   6.394
 1760SOL     OW 6178   5.671   1.829   2.985
 1760SOL    HW1 6179   5.747   1.765   2.972
 1760SOL    HW2 6180   5.647   1.832   3.081
 1761SOL     OW 6181   0.165   0.175   0.830
 1761SOL    HW1 6182   0.246   0.227   0.857
 1761SOL    HW2 6183   0.159   0.173   0.730
 1762SOL     OW 6184   0.173   1.351   5.213
 1762SOL    HW1 6185   0.252   1.293   5.193
 1762SOL    HW2 6186   0.089   1.297   5.203
 1763SOL     OW 6187   1.465   3.881   3.694
 1763SOL    HW1 6188   1.421   3.948   3.754
 1763SOL    HW2 6189   1.526   3.928   3.630
 1764SOL     OW 6190   2.143   3.765   2.644
 1764SOL    HW1 6191   2.074   3.786   2.713
 1764SOL    HW2 6192   2.124   3.675   2.605
 1765SOL     OW 6193   3.461   1.181   1.023
 1765SOL    HW1 6194   3.555   1.177   0.990
 1765SOL    HW2 6195   3.452   1.254   1.091
 1766SOL     OW 6196   4.726   4.412   3.023
 1766SOL    HW1 6197   4.722   4.367   2.934
 1766SOL    HW2 6198   4.771   4.501   3.014
 1767SOL     OW 6199   0.255   3.518   3.272
 1767SOL    HW1 6200   0.343   3.470   3.272
 1767SOL    HW2 6201   0.182   3.454   3.295
 1768SOL     OW 6202   4.395   1.305   5.689
 1768SOL    HW1 6203   4.392   1.206   5.694
 1768SOL    HW2 6204   4.452   1.340   5.764
 1769SOL     OW 6205   4.328   2.252   5.868
 1769SOL    HW1 6206   4.353   2.156   5.879
 1769SOL    HW2 6207   4.372   2.307   5.939
 1770SOL     OW 6208   6.656   4.432   4.554
 1770SOL    HW1 6209   6.751   4.416   4.577
 1770SOL    HW2 6210   6.624   4.361   4.491
 1771SOL     OW 6211   1.931   4.987   0.131
 1771SOL    HW1 6212   1.977   4.979   0.219
 1771SOL    HW2 6213   1.847   5.040   0.142
 1772SOL     OW 6214   3.412   0.152   3.268
 1772SOL    HW1 6215   3.391   0.080   3.333
 1772SOL    HW2 6216   3.333   0.213   3.257
 1773SOL     OW 6217   3.474   4.016   6.765
 1773SOL    HW1 6218   3.495   4.105   6.723
 1773SOL    HW2 6219   3.542   3.997   6.836
 1774SOL     OW 6220   4.577   0.392   1.907
 1774SOL    HW1 6221   4.625   0.479   1.920
 1774SOL    HW2 6222   4.638   0.327   1.861
 1775SOL     OW 6223   1.955   5.834   4.387
 1775SOL    HW1 6224   1.883   5.877   4.442
 1775SOL    HW2 6225   1.989   5.753   4.435
 1776SOL     OW 6226   4.211   0.816   5.623
 1776SOL    HW1 6227   4.159   0.896   5.653
 1776SOL    HW2 6228   4.273   0.788   5.697
 1777SOL     OW 6229   3.351   5.582   5.747
 1777SOL    HW1 6230   3.300   5.638   5.682
 1777SOL    HW2 6231   3.448   5.606   5.744
 1778SOL     OW 6232   4.148   2.230   4.689
 1778SOL    HW1 6233   4.094   2.197   4.611
 1778SOL    HW2 6234   4.218   2.293   4.656
 1779SOL     OW 6235   4.428   2.167   4.078
 1779SOL    HW1 6236   4.370   2.097   4.035
 1779SOL    HW2 6237   4.453   2.137   4.170
 1780SOL     OW 6238   2.128   4.265   5.642
 1780SOL    HW1 6239   2.102   4.237   5.549
 1780SOL    HW2 6240   2.201   4.333   5.637
 1781SOL     OW 6241   4.495   5.312   3.688
 1781SOL    HW1 6242   4.483   5.394   3.744
 1781SOL    HW2 6243   4.580   5.266   3.714
 1782SOL     OW 6244   2.854   1.634   3.255
 1782SOL    HW1 6245   2.805   1.613   3.340
 1782SOL    HW2 6246   2.952   1.623   3.270
 1783SOL     OW 6247   2.138   3.051   6.585
 1783SOL    HW1 6248   2.053   3.008   6.617
 1783SOL    HW2 6249   2.127   3.080   6.490
 1784SOL     OW 6250   2.973   0.820   3.038
 1784SOL    HW1 6251   2.959   0.785   3.131
 1784SOL    HW2 6252   3.046   0.887   3.038
 1785SOL     OW 6253   5.056   5.437   3.831
 1785SOL    HW1 6254   5.055   5.399   3.739
 1785SOL    HW2 6255   5.079   5.535   3.826
 1786SOL     OW 6256   1.395   2.769   0.612
 1786SOL    HW1 6257   1.425   2.677   0.585
 1786SOL    HW2 6258   1.365   2.768   0.707
 1787SOL     OW 6259   1.841   0.737   4.898
 1787SOL    HW1 6260   1.855   0.778   4.988
 1787SOL    HW2 6261   1.747   0.701   4.892
 1788SOL     OW 6262   3.041   3.961   7.018
 1788SOL    HW1 6263   3.042   3.901   0.076
 1788SOL    HW2 6264   2.950   4.000   7.007
 1789SOL     OW 6265   6.479   2.325   2.207
 1789SOL    HW1 6266   6.483   2.303   2.305
 1789SOL    HW2 6267   6.386   2.309   2.173
 1790SOL     OW 6268   4.131   6.205   4.734
 1790SOL    HW1 6269   4.218   6.192   4.781
 1790SOL    HW2 6270   4.148   6.241   4.642
 1791SOL     OW 6271   0.675   1.962   4.836
 1791SOL    HW1 6272   0.592   2.017   4.829
 1791SOL    HW2 6273   0.661   1.889   4.903
 1792SOL     OW 6274   0.304   1.631   4.406
 1792SOL    HW1 6275   0.231   1.678   4.356
 1792SOL    HW2 6276   0.349   1.695   4.468
 1793SOL     OW 6277   6.638   0.400   3.831
 1793SOL    HW1 6278   6.650   0.320   3.771
 1793SOL    HW2 6279   6.686   0.479   3.792
 1794SOL     OW 6280   5.111   6.391   6.470
 1794SOL    HW1 6281   5.047   6.466   6.456
 1794SOL    HW2 6282   5.115   6.368   6.568
 1795SOL     OW 6283   0.039   4.789   2.527
 1795SOL    HW1 6284   0.065   4.703   2.571
 1795SOL    HW2 6285   0.122   4.840   2.502
 1796SOL     OW 6286   1.646   1.496   4.300
 1796SOL    HW1 6287   1.682   1.576   4.346
 1796SOL    HW2 6288   1.671   1.414   4.351
 1797SOL     OW 6289   1.336   0.492   6.025
 1797SOL    HW1 6290   1.385   0.424   5.969
 1797SOL    HW2 6291   1.372   0.583   6.006
 1798SOL     OW 6292   4.859   2.609   5.117
 1798SOL    HW1 6293   4.861   2.620   5.216
 1798SOL    HW2 6294   4.793   2.538   5.092
 1799SOL     OW 6295   5.866   1.991   6.605
 1799SOL    HW1 6296   5.861   2.046   6.688
 1799SOL    HW2 6297   5.948   2.016   6.553
 1800SOL     OW 6298   5.061   4.808   4.006
 1800SOL    HW1 6299   5.016   4.760   4.082
 1800SOL    HW2 6300   4.994   4.864   3.958
 1801SOL     OW 6301   0.978   1.422   2.422
 1801SOL    HW1 6302   0.885   1.391   2.444
 1801SOL    HW2 6303   1.038   1.344   2.412
 1802SOL     OW 6304   5.252   5.208   2.652
 1802SOL    HW1 6305   5.319   5.186   2.581
 1802SOL    HW2 6306   5.270   5.298   2.690
 1803SOL     OW 6307   6.661   6.150   0.760
 1803SOL    HW1 6308   6.646   6.052   0.774
 1803SOL    HW2 6309   6.682   6.166   0.663
 1804SOL     OW 6310   3.065   3.220   5.600
 1804SOL    HW1 6311   2.965   3.216   5.606
 1804SOL    HW2 6312   3.094   3.199   5.507
 1805SOL     OW 6313   0.566   4.001   5.806
 1805SOL    HW1 6314   0.629   4.025   5.733
 1805SOL    HW2 6315   0.595   4.046   5.891
 1806SOL     OW 6316   1.625   1.367   1.839
 1806SOL    HW1 6317   1.678   1.310   1.777
 1806SOL    HW2 6318   1.684   1.436   1.880
 1807SOL     OW 6319   6.078   2.374   6.674
 1807SOL    HW1 6320   6.151   2.442   6.663
 1807SOL    HW2 6321   6.023   2.370   6.591
 1808SOL     OW 6322   6.262   4.356   4.820
 1808SOL    HW1 6323   6.286   4.260   4.807
 1808SOL    HW2 6324   6.188   4.363   4.887
 1809SOL     OW 6325   2.267   2.415   4.481
 1809SOL    HW1 6326   2.233   2.509   4.473
 1809SOL    HW2 6327   2.346   2.413   4.543
 1810SOL     OW 6328   2.254   0.441   5.302
 1810SOL    HW1 6329   2.169   0.442   5.250
 1810SOL    HW2 6330   2.332   0.454   5.240
 1811SOL     OW 6331   4.239   4.810   3.298
 1811SOL    HW1 6332   4.170   4.797   3.370
 1811SOL    HW2 6333   4.297   4.888   3.322
 1812SOL     OW 6334   4.439   0.186   5.966
 1812SOL    HW1 6335   4.455   0.284   5.956
 1812SOL    HW2 6336   4.510   0.145   6.023
 1813SOL     OW 6337   4.369   4.900   1.307
 1813SOL    HW1 6338   4.329   4.904   1.399
 1813SOL    HW2 6339   4.405   4.808   1.291
 1814SOL     OW 6340   6.638   1.032   0.275
 1814SOL    HW1 6341   6.561   1.078   0.231
 1814SOL    HW2 6342   6.614   0.937   0.294
 1815SOL     OW 6343   6.362   1.442   1.950
 1815SOL    HW1 6344   6.320   1.458   2.039
 1815SOL    HW2 6345   6.366   1.344   1.932
 1816SOL     OW 6346   1.659   4.595   0.837
 1816SOL    HW1 6347   1.686   4.691   0.834
 1816SOL    HW2 6348   1.734   4.538   0.804
 1817SOL     OW 6349   3.691   6.489   3.232
 1817SOL    HW1 6350   3.591   6.495   3.224
 1817SOL    HW2 6351   3.717   6.490   3.328
 1818SOL     OW 6352   2.271   5.980   1.339
 1818SOL    HW1 6353   2.301   5.974   1.244
 1818SOL    HW2 6354   2.324   5.916   1.395
 1819SOL     OW 6355   1.275   5.654   1.722
 1819SOL    HW1 6356   1.295   5.557   1.736
 1819SOL    HW2 6357   1.211   5.664   1.646
 1820SOL     OW 6358   2.925   0.129   2.147
 1820SOL    HW1 6359   2.926   0.038   2.105
 1820SOL    HW2 6360   2.831   0.155   2.168
 1821SOL     OW 6361   2.626   1.061   1.842
 1821SOL    HW1 6362   2.593   0.994   1.776
 1821SOL    HW2 6363   2.549   1.097   1.895
 1822SOL     OW 6364   1.013   3.170   0.957
 1822SOL    HW1 6365   0.930   3.203   1.002
 1822SOL    HW2 6366   0.988   3.110   0.881
 1823SOL     OW 6367   3.113   5.890   3.212
 1823SOL    HW1 6368   3.020   5.919   3.234
 1823SOL    HW2 6369   3.132   5.908   3.116
 1824SOL     OW 6370   3.571   3.547   0.514
 1824SOL    HW1 6371   3.580   3.522   0.611
 1824SOL    HW2 6372   3.491   3.605   0.502
 1825SOL     OW 6373   2.080   2.048   4.764
 1825SOL    HW1 6374   2.044   1.993   4.689
 1825SOL    HW2 6375   2.067   2.145   4.743
 1826SOL     OW 6376   3.740   1.473   1.287
 1826SOL    HW1 6377   3.731   1.390   1.343
 1826SOL    HW2 6378   3.814   1.529   1.322
 1827SOL     OW 6379   0.042   5.526   1.005
 1827SOL    HW1 6380   7.021   5.475   0.931
 1827SOL    HW2 6381   0.083   5.463   1.071
 1828SOL     OW 6382   1.865   2.265   0.566
 1828SOL    HW1 6383   1.920   2.286   0.485
 1828SOL    HW2 6384   1.796   2.336   0.579
 1829SOL     OW 6385   3.155   1.053   3.048
 1829SOL    HW1 6386   3.166   1.102   3.134
 1829SOL    HW2 6387   3.245   1.031   3.010
 1830SOL     OW 6388   5.953   6.052   4.056
 1830SOL    HW1 6389   6.024   6.083   4.120
 1830SOL    HW2 6390   5.872   6.025   4.107
 1831SOL     OW 6391   6.045   7.000   1.895
 1831SOL    HW1 6392   6.015   0.072   1.910
 1831SOL    HW2 6393   5.977   6.953   1.838
 1832SOL     OW 6394   4.540   2.036   1.558
 1832SOL    HW1 6395   4.503   2.067   1.645
 1832SOL    HW2 6396   4.625   1.985   1.574
 1833SOL     OW 6397   5.492   0.881   0.970
 1833SOL    HW1 6398   5.568   0.943   0.990
 1833SOL    HW2 6399   5.448   0.854   1.055
 1834SOL     OW 6400   2.417   3.551   0.520
 1834SOL    HW1 6401   2.500   3.599   0.491
 1834SOL    HW2 6402   2.399   3.571   0.616
 1835SOL     OW 6403   0.570   4.958   2.338
 1835SOL    HW1 6404   0.546   4.983   2.244
 1835SOL    HW2 6405   0.633   5.027   2.375
 1836SOL     OW 6406   5.240   1.929   1.546
 1836SOL    HW1 6407   5.334   1.963   1.553
 1836SOL    HW2 6408   5.217   1.914   1.450
 1837SOL     OW 6409   0.969   0.174   4.575
 1837SOL    HW1 6410   0.913   0.183   4.658
 1837SOL    HW2 6411   1.012   0.262   4.555
 1838SOL     OW 6412   6.507   1.309   5.863
 1838SOL    HW1 6413   6.543   1.323   5.771
 1838SOL    HW2 6414   6.548   1.227   5.903
 1839SOL     OW 6415   0.003   2.140   4.920
 1839SOL    HW1 6416   7.021   2.222   4.977
 1839SOL    HW2 6417   0.041   2.065   4.974
 1840SOL     OW 6418   3.789   0.471   1.553
 1840SOL    HW1 6419   3.835   0.399   1.604
 1840SOL    HW2 6420   3.736   0.528   1.616
 1841SOL     OW 6421   2.001   1.556   3.727
 1841SOL    HW1 6422   2.042   1.490   3.790
 1841SOL    HW2 6423   1.914   1.587   3.764
 1842SOL     OW 6424   1.343   5.661   0.143
 1842SOL    HW1 6425   1.428   5.633   0.187
 1842SOL    HW2 6426   1.362   5.732   0.076
 1843SOL     OW 6427   5.844   1.784   3.805
 1843SOL    HW1 6428   5.913   1.823   3.866
 1843SOL    HW2 6429   5.823   1.691   3.835
 1844SOL     OW 6430   3.304   6.338   5.228
 1844SOL    HW1 6431   3.346   6.358   5.317
 1844SOL    HW2 6432   3.266   6.246   5.229
 1845SOL     OW 6433   3.381   0.255   4.620
 1845SOL    HW1 6434   3.316   0.328   4.637
 1845SOL    HW2 6435   3.339   0.186   4.560
 1846SOL     OW 6436   3.131   1.430   1.911
 1846SOL    HW1 6437   3.159   1.522   1.884
 1846SOL    HW2 6438   3.182   1.363   1.856
 1847SOL     OW 6439   1.440   0.790   6.505
 1847SOL    HW1 6440   1.518   0.852   6.502
 1847SOL    HW2 6441   1.468   0.704   6.549
 1848SOL     OW 6442   2.018   6.359   3.453
 1848SOL    HW1 6443   1.926   6.376   3.488
 1848SOL    HW2 6444   2.083   6.420   3.498
 1849SOL     OW 6445   4.099   2.885   1.366
 1849SOL    HW1 6446   4.099   2.855   1.271
 1849SOL    HW2 6447   4.030   2.832   1.417
 1850SOL     OW 6448   0.413   2.738   2.555
 1850SOL    HW1 6449   0.411   2.693   2.465
 1850SOL    HW2 6450   0.429   2.836   2.542
 1851SOL     OW 6451   0.403   2.990   0.293
 1851SOL    HW1 6452   0.443   2.937   0.368
 1851SOL    HW2 6453   0.307   3.008   0.314
 1852SOL     OW 6454   6.584   4.005   2.422
 1852SOL    HW1 6455   6.676   4.043   2.423
 1852SOL    HW2 6456   6.588   3.906   2.436
 1853SOL     OW 6457   0.699   2.781   2.821
 1853SOL    HW1 6458   0.656   2.867   2.851
 1853SOL    HW2 6459   0.634   2.729   2.766
 1854SOL     OW 6460   2.701   5.527   3.405
 1854SOL    HW1 6461   2.627   5.521   3.472
 1854SOL    HW2 6462   2.749   5.614   3.417
 1855SOL     OW 6463   5.159   3.083   5.360
 1855SOL    HW1 6464   5.164   3.092   5.459
 1855SOL    HW2 6465   5.233   3.022   5.328
 1856SOL     OW 6466   5.430   4.033   6.165
 1856SOL    HW1 6467   5.441   4.011   6.068
 1856SOL    HW2 6468   5.520   4.028   6.210
 1857SOL     OW 6469   4.470   2.321   6.313
 1857SOL    HW1 6470   4.496   2.397   6.372
 1857SOL    HW2 6471   4.465   2.237   6.368
 1858SOL     OW 6472   5.481   4.015   2.961
 1858SOL    HW1 6473   5.521   3.952   2.893
 1858SOL    HW2 6474   5.442   3.962   3.036
 1859SOL     OW 6475   5.064   1.822   4.131
 1859SOL    HW1 6476   5.004   1.752   4.171
 1859SOL    HW2 6477   5.014   1.908   4.124
 1860SOL     OW 6478   0.436   1.185   5.466
 1860SOL    HW1 6479   0.429   1.258   5.534
 1860SOL    HW2 6480   0.532   1.166   5.447
 1861SOL     OW 6481   6.460   6.629   2.178
 1861SOL    HW1 6482   6.483   6.535   2.151
 1861SOL    HW2 6483   6.465   6.689   2.099
 1862SOL     OW 6484   3.227   6.983   6.858
 1862SOL    HW1 6485   3.228   0.051   6.902
 1862SOL    HW2 6486   3.227   6.994   6.759
 1863SOL     OW 6487   0.370   3.133   3.392
 1863SOL    HW1 6488   0.302   3.132   3.466
 1863SOL    HW2 6489   0.452   3.084   3.422
 1864SOL     OW 6490   1.601   6.615   5.270
 1864SOL    HW1 6491   1.564   6.523   5.276
 1864SOL    HW2 6492   1.550   6.668   5.202
 1865SOL     OW 6493   4.010   6.744   0.160
 1865SOL    HW1 6494   3.930   6.691   0.131
 1865SOL    HW2 6495   4.003   6.762   0.258
 1866SOL     OW 6496   5.958   4.931   3.531
 1866SOL    HW1 6497   6.033   4.889   3.480
 1866SOL    HW2 6498   5.995   5.001   3.592
 1867SOL     OW 6499   0.623   4.147   6.964
 1867SOL    HW1 6500   0.706   4.115   6.919
 1867SOL    HW2 6501   0.610   4.097   0.028
 1868SOL     OW 6502   4.732   3.394   6.401
 1868SOL    HW1 6503   4.648   3.365   6.355
 1868SOL    HW2 6504   4.749   3.335   6.480
 1869SOL     OW 6505   6.734   3.333   4.901
 1869SOL    HW1 6506   6.643   3.309   4.935
 1869SOL    HW2 6507   6.735   3.430   4.877
 1870SOL     OW 6508   1.784   2.740   4.818
 1870SOL    HW1 6509   1.843   2.688   4.757
 1870SOL    HW2 6510   1.839   2.806   4.870
 1871SOL     OW 6511   0.707   0.759   0.245
 1871SOL    HW1 6512   0.672   0.847   0.276
 1871SOL    HW2 6513   0.758   0.772   0.159
 1872SOL     OW 6514   4.534   1.719   0.144
 1872SOL    HW1 6515   4.538   1.810   0.185
 1872SOL    HW2 6516   4.563   1.725   0.048
 1873SOL     OW 6517   5.628   1.476   5.842
 1873SOL    HW1 6518   5.579   1.562   5.859
 1873SOL    HW2 6519   5.726   1.491   5.853
 1874SOL     OW 6520   2.353   0.930   0.040
 1874SOL    HW1 6521   2.258   0.927   0.073
 1874SOL    HW2 6522   2.415   0.934   0.119
 1875SOL     OW 6523   0.358   0.644   0.430
 1875SOL    HW1 6524   0.456   0.645   0.411
 1875SOL    HW2 6525   0.341   0.691   0.518
 1876SOL     OW 6526   2.939   6.257   5.804
 1876SOL    HW1 6527   3.036   6.233   5.797
 1876SOL    HW2 6528   2.929   6.355   5.822
 1877SOL     OW 6529   0.327   2.100   3.105
 1877SOL    HW1 6530   0.367   2.112   3.015
 1877SOL    HW2 6531   0.394   2.125   3.175
 1878SOL     OW 6532   6.431   3.140   4.275
 1878SOL    HW1 6533   6.441   3.113   4.179
 1878SOL    HW2 6534   6.479   3.226   4.291
 1879SOL     OW 6535   1.719   5.453   3.739
 1879SOL    HW1 6536   1.642   5.474   3.679
 1879SOL    HW2 6537   1.725   5.522   3.811
 1880SOL     OW 6538   6.708   1.548   4.222
 1880SOL    HW1 6539   6.742   1.468   4.173
 1880SOL    HW2 6540   6.622   1.579   4.181
 1881SOL     OW 6541   0.911   2.945   2.860
 1881SOL    HW1 6542   0.815   2.970   2.877
 1881SOL    HW2 6543   0.919   2.845   2.856
 1882SOL     OW 6544   1.057   3.907   6.921
 1882SOL    HW1 6545   1.020   3.816   6.900
 1882SOL    HW2 6546   0.990   3.977   6.897
 1883SOL     OW 6547   1.489   3.045   3.815
 1883SOL    HW1 6548   1.442   2.967   3.772
 1883SOL    HW2 6549   1.457   3.056   3.909
 1884SOL     OW 6550   5.766   2.706   6.718
 1884SOL    HW1 6551   5.762   2.636   6.647
 1884SOL    HW2 6552   5.840   2.684   6.782
 1885SOL     OW 6553   0.775   2.490   6.334
 1885SOL    HW1 6554   0.817   2.447   6.414
 1885SOL    HW2 6555   0.748   2.419   6.268
 1886SOL     OW 6556   2.200   1.006   1.656
 1886SOL    HW1 6557   2.144   1.024   1.576
 1886SOL    HW2 6558   2.293   1.041   1.640
 1887SOL     OW 6559   1.474   5.801   6.420
 1887SOL    HW1 6560   1.424   5.718   6.397
 1887SOL    HW2 6561   1.521   5.836   6.338
 1888SOL     OW 6562   3.116   2.370   6.605
 1888SOL    HW1 6563   3.060   2.397   6.684
 1888SOL    HW2 6564   3.212   2.370   6.631
 1889SOL     OW 6565   5.596   2.903   6.600
 1889SOL    HW1 6566   5.663   2.845   6.646
 1889SOL    HW2 6567   5.529   2.846   6.552
 1890SOL     OW 6568   1.263   5.641   5.009
 1890SOL    HW1 6569   1.252   5.703   4.931
 1890SOL    HW2 6570   1.337   5.576   4.990
 1891SOL     OW 6571   5.802   2.245   3.287
 1891SOL    HW1 6572   5.766   2.220   3.377
 1891SOL    HW2 6573   5.901   2.233   3.287
 1892SOL     OW 6574   3.651   0.780   0.874
 1892SOL    HW1 6575   3.574   0.828   0.832
 1892SOL    HW2 6576   3.714   0.749   0.803
 1893SOL     OW 6577   3.099   2.933   6.851
 1893SOL    HW1 6578   3.101   2.997   6.774
 1893SOL    HW2 6579   3.131   2.843   6.821
 1894SOL     OW 6580   3.810   3.691   3.021
 1894SOL    HW1 6581   3.905   3.677   2.990
 1894SOL    HW2 6582   3.795   3.789   3.037
 1895SOL     OW 6583   5.738   1.101   2.145
 1895SOL    HW1 6584   5.812   1.132   2.204
 1895SOL    HW2 6585   5.658   1.079   2.202
 1896SOL     OW 6586   0.471   0.529   2.116
 1896SOL    HW1 6587   0.443   0.473   2.194
 1896SOL    HW2 6588   0.560   0.497   2.083
 1897SOL     OW 6589   1.418   4.525   2.791
 1897SOL    HW1 6590   1.390   4.602   2.733
 1897SOL    HW2 6591   1.342   4.499   2.851
 1898SOL     OW 6592   3.287   4.884   2.619
 1898SOL    HW1 6593   3.262   4.869   2.714
 1898SOL    HW2 6594   3.225   4.834   2.559
 1899SOL     OW 6595   1.042   1.559   2.187
 1899SOL    HW1 6596   1.006   1.526   2.274
 1899SOL    HW2 6597   1.002   1.648   2.166
 1900SOL     OW 6598   1.141   0.370   6.192
 1900SOL    HW1 6599   1.129   0.273   6.169
 1900SOL    HW2 6600   1.191   0.416   6.118
 1901SOL     OW 6601   2.359   1.600   1.698
 1901SOL    HW1 6602   2.396   1.677   1.750
 1901SOL    HW2 6603   2.327   1.633   1.609
 1902SOL     OW 6604   2.502   2.311   5.045
 1902SOL    HW1 6605   2.584   2.286   4.993
 1902SOL    HW2 6606   2.503   2.264   5.133
 1903SOL     OW 6607   6.399   3.210   3.628
 1903SOL    HW1 6608   6.339   3.211   3.708
 1903SOL    HW2 6609   6.352   3.254   3.551
 1904SOL     OW 6610   5.685   6.529   4.835
 1904SOL    HW1 6611   5.640   6.560   4.751
 1904SOL    HW2 6612   5.719   6.609   4.885
 1905SOL     OW 6613   2.040   0.994   4.138
 1905SOL    HW1 6614   1.961   1.036   4.181
 1905SOL    HW2 6615   2.012   0.950   4.052
 1906SOL     OW 6616   2.304   0.051   5.293
 1906SOL    HW1 6617   2.326   6.978   5.316
 1906SOL    HW2 6618   2.385   0.108   5.308
 1907SOL     OW 6619   3.405   6.527   3.170
 1907SOL    HW1 6620   3.415   6.527   3.070
 1907SOL    HW2 6621   3.340   6.455   3.196
 1908SOL     OW 6622   3.987   0.239   5.480
 1908SOL    HW1 6623   3.985   0.251   5.381
 1908SOL    HW2 6624   4.076   0.268   5.515
 1909SOL     OW 6625   0.863   4.383   2.871
 1909SOL    HW1 6626   0.765   4.364   2.862
 1909SOL    HW2 6627   0.910   4.300   2.901
 1910SOL     OW 6628   6.898   2.984   6.360
 1910SOL    HW1 6629   6.978   2.965   6.417
 1910SOL    HW2 6630   6.835   3.044   6.410
 1911SOL     OW 6631   5.691   3.349   4.909
 1911SOL    HW1 6632   5.655   3.271   4.858
 1911SOL    HW2 6633   5.618   3.389   4.965
 1912SOL     OW 6634   2.882   6.938   0.928
 1912SOL    HW1 6635   2.836   6.914   1.014
 1912SOL    HW2 6636   2.956   7.003   0.947
 1913SOL     OW 6637   0.999   5.843   5.344
 1913SOL    HW1 6638   0.912   5.891   5.345
 1913SOL    HW2 6639   0.992   5.759   5.397
 1914SOL     OW 6640   3.699   3.119   6.768
 1914SOL    HW1 6641   3.716   3.061   6.848
 1914SOL    HW2 6642   3.759   3.199   6.773
 1915SOL     OW 6643   3.680   2.170   5.130
 1915SOL    HW1 6644   3.674   2.208   5.222
 1915SOL    HW2 6645   3.602   2.200   5.076
 1916SOL     OW 6646   3.476   5.761   1.270
 1916SOL    HW1 6647   3.503   5.708   1.189
 1916SOL    HW2 6648   3.383   5.737   1.296
 1917SOL     OW 6649   3.047   3.164   4.611
 1917SOL    HW1 6650   2.992   3.089   4.575
 1917SOL    HW2 6651   3.106   3.130   4.684
 1918SOL     OW 6652   0.779   1.152   5.900
 1918SOL    HW1 6653   0.811   1.169   5.993
 1918SOL    HW2 6654   0.751   1.238   5.858
 1919SOL     OW 6655   2.784   0.648   1.549
 1919SOL    HW1 6656   2.747   0.557   1.569
 1919SOL    HW2 6657   2.708   0.710   1.529
 1920SOL     OW 6658   1.923   4.723   2.736
 1920SOL    HW1 6659   1.834   4.680   2.752
 1920SOL    HW2 6660   1.910   4.810   2.688
 1921SOL     OW 6661   1.153   4.852   0.015
 1921SOL    HW1 6662   1.230   4.795   0.045
 1921SOL    HW2 6663   1.169   4.884   6.944
 1922SOL     OW 6664   2.364   4.189   0.924
 1922SOL    HW1 6665   2.362   4.197   1.024
 1922SOL    HW2 6666   2.451   4.224   0.890
 1923SOL     OW 6667   2.909   0.698   5.835
 1923SOL    HW1 6668   2.980   0.694   5.905
 1923SOL    HW2 6669   2.824   0.731   5.875
 1924SOL     OW 6670   4.360   5.290   1.336
 1924SOL    HW1 6671   4.407   5.378   1.343
 1924SOL    HW2 6672   4.342   5.254   1.427
 1925SOL     OW 6673   1.790   4.251   0.457
 1925SOL    HW1 6674   1.799   4.171   0.397
 1925SOL    HW2 6675   1.866   4.252   0.522
 1926SOL     OW 6676   2.254   6.771   3.338
 1926SOL    HW1 6677   2.293   6.802   3.425
 1926SOL    HW2 6678   2.159   6.801   3.331
 1927SOL     OW 6679   3.073   4.183   6.397
 1927SOL    HW1 6680   3.169   4.204   6.414
 1927SOL    HW2 6681   3.065   4.120   6.320
 1928SOL     OW 6682   6.425   4.374   5.776
 1928SOL    HW1 6683   6.517   4.385   5.736
 1928SOL    HW2 6684   6.425   4.294   5.837
 1929SOL     OW 6685   0.925   5.128   1.571
 1929SOL    HW1 6686   0.955   5.035   1.548
 1929SOL    HW2 6687   0.859   5.125   1.645
 1930SOL     OW 6688   3.724   3.591   6.747
 1930SOL    HW1 6689   3.697   3.582   6.651
 1930SOL    HW2 6690   3.644   3.609   6.803
 1931SOL     OW 6691   0.398   3.564   2.754
 1931SOL    HW1 6692   0.311   3.591   2.794
 1931SOL    HW2 6693   0.446   3.502   2.816
 1932SOL     OW 6694   4.872   3.398   3.352
 1932SOL    HW1 6695   4.885   3.348   3.438
 1932SOL    HW2 6696   4.783   3.443   3.353
 1933SOL     OW 6697   1.904   4.115   0.777
 1933SOL    HW1 6698   1.967   4.174   0.728
 1933SOL    HW2 6699   1.951   4.071   0.853
 1934SOL     OW 6700   0.596   6.787   4.989
 1934SOL    HW1 6701   0.593   6.764   5.086
 1934SOL    HW2 6702   0.508   6.766   4.946
 1935SOL     OW 6703   4.142   5.883   3.790
 1935SOL    HW1 6704   4.090   5.899   3.874
 1935SOL    HW2 6705   4.216   5.951   3.784
 1936SOL     OW 6706   5.610   3.782   4.024
 1936SOL    HW1 6707   5.660   3.863   3.993
 1936SOL    HW2 6708   5.628   3.706   3.961
 1937SOL     OW 6709   3.557   6.984   1.089
 1937SOL    HW1 6710   3.597   6.912   1.032
 1937SOL    HW2 6711   3.540   0.043   1.033
 1938SOL     OW 6712   1.913   2.053   1.407
 1938SOL    HW1 6713   1.841   1.991   1.436
 1938SOL    HW2 6714   2.002   2.011   1.420
 1939SOL     OW 6715   6.885   0.367   4.961
 1939SOL    HW1 6716   6.822   0.306   5.008
 1939SOL    HW2 6717   6.977   0.357   4.999
 1940SOL     OW 6718   5.197   4.777   0.811
 1940SOL    HW1 6719   5.161   4.788   0.718
 1940SOL    HW2 6720   5.155   4.696   0.853
 1941SOL     OW 6721   0.534   3.989   3.939
 1941SOL    HW1 6722   0.563   4.005   4.033
 1941SOL    HW2 6723   0.495   3.898   3.930
 1942SOL     OW 6724   5.516   1.155   1.286
 1942SOL    HW1 6725   5.501   1.251   1.311
 1942SOL    HW2 6726   5.438   1.101   1.317
 1943SOL     OW 6727   2.330   6.408   3.411
 1943SOL    HW1 6728   2.382   6.469   3.470
 1943SOL    HW2 6729   2.345   6.313   3.440
 1944SOL     OW 6730   6.287   2.769   7.016
 1944SOL    HW1 6731   6.303   2.850   6.958
 1944SOL    HW2 6732   6.275   2.798   0.089
 1945SOL     OW 6733   4.051   5.482   0.884
 1945SOL    HW1 6734   4.027   5.561   0.940
 1945SOL    HW2 6735   4.150   5.473   0.878
 1946SOL     OW 6736   6.564   0.007   1.096
 1946SOL    HW1 6737   6.466   0.020   1.113
 1946SOL    HW2 6738   6.609   7.000   1.181
 1947SOL     OW 6739   4.952   6.303   5.003
 1947SOL    HW1 6740   5.024   6.331   4.940
 1947SOL    HW2 6741   4.980   6.221   5.053
 1948SOL     OW 6742   5.564   5.376   3.858
 1948SOL    HW1 6743   5.527   5.285   3.842
 1948SOL    HW2 6744   5.531   5.438   3.787
 1949SOL     OW 6745   3.394   4.167   6.403
 1949SOL    HW1 6746   3.450   4.090   6.434
 1949SOL    HW2 6747   3.383   4.232   6.479
 1950SOL     OW 6748   3.779   3.940   0.205
 1950SOL    HW1 6749   3.695   3.887   0.193
 1950SOL    HW2 6750   3.858   3.879   0.197
 1951SOL     OW 6751   6.144   3.354   6.979
 1951SOL    HW1 6752   6.147   3.302   0.042
 1951SOL    HW2 6753   6.049   3.367   6.951
 1952SOL     OW 6754   4.861   3.269   0.870
 1952SOL    HW1 6755   4.863   3.207   0.948
 1952SOL    HW2 6756   4.947   3.261   0.819
 1953SOL     OW 6757   6.468   1.500   5.575
 1953SOL    HW1 6758   6.431   1.511   5.483
 1953SOL    HW2 6759   6.460   1.586   5.625
 1954SOL     OW 6760   6.256   0.740   2.853
 1954SOL    HW1 6761   6.281   0.644   2.868
 1954SOL    HW2 6762   6.334   0.789   2.813
 1955SOL     OW 6763   0.278   1.379   2.695
 1955SOL    HW1 6764   0.276   1.283   2.725
 1955SOL    HW2 6765   0.327   1.385   2.608
 1956SOL     OW 6766   4.753   6.997   2.691
 1956SOL    HW1 6767   4.763   6.901   2.716
 1956SOL    HW2 6768   4.842   0.021   2.699
 1957SOL     OW 6769   5.889   4.486   4.256
 1957SOL    HW1 6770   5.791   4.493   4.236
 1957SOL    HW2 6771   5.918   4.391   4.246
 1958SOL     OW 6772   4.967   2.041   2.133
 1958SOL    HW1 6773   5.031   2.090   2.073
 1958SOL    HW2 6774   4.896   1.998   2.077
 1959SOL     OW 6775   1.064   0.404   4.448
 1959SOL    HW1 6776   1.069   0.502   4.465
 1959SOL    HW2 6777   0.989   0.384   4.385
 1960SOL     OW 6778   6.524   4.543   2.313
 1960SOL    HW1 6779   6.505   4.601   2.391
 1960SOL    HW2 6780   6.551   4.599   2.235
 1961SOL     OW 6781   6.122   4.357   3.702
 1961SOL    HW1 6782   6.166   4.400   3.781
 1961SOL    HW2 6783   6.103   4.261   3.724
 1962SOL     OW 6784   1.458   6.789   3.454
 1962SOL    HW1 6785   1.425   6.815   3.544
 1962SOL    HW2 6786   1.556   6.768   3.458
 1963SOL     OW 6787   0.830   2.236   1.253
 1963SOL    HW1 6788   0.801   2.150   1.211
 1963SOL    HW2 6789   0.929   2.247   1.240
 1964SOL     OW 6790   4.694   4.712   0.708
 1964SOL    HW1 6791   4.604   4.738   0.744
 1964SOL    HW2 6792   4.763   4.728   0.777
 1965SOL     OW 6793   1.943   2.930   4.614
 1965SOL    HW1 6794   1.935   2.911   4.712
 1965SOL    HW2 6795   2.031   2.974   4.597
 1966SOL     OW 6796   0.261   6.403   1.007
 1966SOL    HW1 6797   0.281   6.474   0.939
 1966SOL    HW2 6798   0.227   6.447   1.090
 1967SOL     OW 6799   5.803   2.778   5.806
 1967SOL    HW1 6800   5.814   2.779   5.707
 1967SOL    HW2 6801   5.709   2.754   5.829
 1968SOL     OW 6802   1.640   6.283   5.821
 1968SOL    HW1 6803   1.570   6.233   5.771
 1968SOL    HW2 6804   1.615   6.380   5.826
 1969SOL     OW 6805   0.730   1.370   1.188
 1969SOL    HW1 6806   0.689   1.441   1.245
 1969SOL    HW2 6807   0.816   1.403   1.150
 1970SOL     OW 6808   2.542   6.411   5.901
 1970SOL    HW1 6809   2.589   6.496   5.880
 1970SOL    HW2 6810   2.559   6.386   5.997
 1971SOL     OW 6811   0.660   0.280   5.956
 1971SOL    HW1 6812   0.602   0.347   5.909
 1971SOL    HW2 6813   0.606   0.233   6.026
 1972SOL     OW 6814   5.571   2.109   1.952
 1972SOL    HW1 6815   5.578   2.089   2.050
 1972SOL    HW2 6816   5.644   2.061   1.903
 1973SOL     OW 6817   3.237   3.131   0.234
 1973SOL    HW1 6818   3.156   3.086   0.196
 1973SOL    HW2 6819   3.226   3.142   0.333
 1974SOL     OW 6820   6.054   6.716   4.952
 1974SOL    HW1 6821   5.958   6.741   4.934
 1974SOL    HW2 6822   6.057   6.631   5.004
 1975SOL     OW 6823   1.810   1.507   3.924
 1975SOL    HW1 6824   1.712   1.493   3.938
 1975SOL    HW2 6825   1.846   1.564   3.998
 1976SOL     OW 6826   0.116   6.867   0.453
 1976SOL    HW1 6827   0.168   6.813   0.386
 1976SOL    HW2 6828   0.038   6.909   0.407
 1977SOL     OW 6829   1.690   3.096   4.757
 1977SOL    HW1 6830   1.639   3.127   4.837
 1977SOL    HW2 6831   1.721   3.002   4.771
 1978SOL     OW 6832   1.924   6.209   2.851
 1978SOL    HW1 6833   1.930   6.123   2.900
 1978SOL    HW2 6834   1.895   6.282   2.914
 1979SOL     OW 6835   6.002   4.239   6.309
 1979SOL    HW1 6836   5.956   4.155   6.278
 1979SOL    HW2 6837   6.016   4.234   6.408
 1980SOL     OW 6838   3.712   0.619   4.623
 1980SOL    HW1 6839   3.682   0.532   4.662
 1980SOL    HW2 6840   3.804   0.641   4.656
 1981SOL     OW 6841   0.100   2.793   2.503
 1981SOL    HW1 6842   0.194   2.804   2.474
 1981SOL    HW2 6843   0.042   2.771   2.425
 1982SOL     OW 6844   0.337   4.695   3.966
 1982SOL    HW1 6845   0.363   4.750   4.045
 1982SOL    HW2 6846   0.282   4.617   3.996
 1983SOL     OW 6847   0.887   0.817   2.928
 1983SOL    HW1 6848   0.853   0.840   2.837
 1983SOL    HW2 6849   0.826   0.750   2.970
 1984SOL     OW 6850   4.959   1.640   5.089
 1984SOL    HW1 6851   4.987   1.700   5.164
 1984SOL    HW2 6852   4.865   1.663   5.062
 1985SOL     OW 6853   1.249   6.523   2.745
 1985SOL    HW1 6854   1.302   6.585   2.687
 1985SOL    HW2 6855   1.311   6.462   2.794
 1986SOL     OW 6856   2.301   1.165   6.926
 1986SOL    HW1 6857   2.300   1.097   7.000
 1986SOL    HW2 6858   2.242   1.242   6.950
 1987SOL     OW 6859   2.008   2.424   2.637
 1987SOL    HW1 6860   1.986   2.489   2.564
 1987SOL    HW2 6861   1.958   2.449   2.720
 1988SOL     OW 6862   6.443   3.651   1.053
 1988SOL    HW1 6863   6.506   3.681   0.980
 1988SOL    HW2 6864   6.473   3.563   1.088
 1989SOL     OW 6865   2.573   5.469   5.261
 1989SOL    HW1 6866   2.576   5.531   5.183
 1989SOL    HW2 6867   2.504   5.501   5.326
 1990SOL     OW 6868   3.564   6.081   0.765
 1990SOL    HW1 6869   3.529   6.038   0.682
 1990SOL    HW2 6870   3.488   6.102   0.826
 1991SOL     OW 6871   3.030   5.417   6.901
 1991SOL    HW1 6872   2.952   5.478   6.885
 1991SOL    HW2 6873   2.999   5.336   6.951
 1992SOL     OW 6874   0.741   1.080   0.411
 1992SOL    HW1 6875   0.693   1.084   0.499
 1992SOL    HW2 6876   0.817   1.015   0.418
 1993SOL     OW 6877   3.433   2.247   5.318
 1993SOL    HW1 6878   3.442   2.190   5.236
 1993SOL    HW2 6879   3.354   2.308   5.307
 1994SOL     OW 6880   0.792   1.504   0.205
 1994SOL    HW1 6881   0.796   1.404   0.197
 1994SOL    HW2 6882   0.740   1.529   0.286
 1995SOL     OW 6883   5.301   2.514   3.486
 1995SOL    HW1 6884   5.293   2.558   3.576
 1995SOL    HW2 6885   5.228   2.447   3.475
 1996SOL     OW 6886   1.839   2.847   0.163
 1996SOL    HW1 6887   1.768   2.867   0.230
 1996SOL    HW2 6888   1.813   2.884   0.074
 1997SOL     OW 6889   3.274   1.386   4.823
 1997SOL    HW1 6890   3.306   1.435   4.742
 1997SOL    HW2 6891   3.352   1.348   4.872
 1998SOL     OW 6892   2.875   4.656   6.731
 1998SOL    HW1 6893   2.894   4.582   6.795
 1998SOL    HW2 6894   2.776   4.673   6.729
 1999SOL     OW 6895   2.345   6.040   6.302
 1999SOL    HW1 6896   2.341   6.116   6.237
 1999SOL    HW2 6897   2.343   5.953   6.251
 2000SOL     OW 6898   4.283   2.760   5.345
 2000SOL    HW1 6899   4.216   2.693   5.313
 2000SOL    HW2 6900   4.268   2.778   5.442
 2001SOL     OW 6901   2.829   0.112   1.448
 2001SOL    HW1 6902   2.799   0.151   1.535
 2001SOL    HW2 6903   2.865   0.185   1.389
 2002SOL     OW 6904   0.599   4.465   0.520
 2002SOL    HW1 6905   0.598   4.552   0.569
 2002SOL    HW2 6906   0.676   4.463   0.456
 2003SOL     OW 6907   6.208   5.748   2.510
 2003SOL    HW1 6908   6.185   5.670   2.568
 2003SOL    HW2 6909   6.180   5.833   2.556
 2004SOL     OW 6910   4.658   1.464   4.941
 2004SOL    HW1 6911   4.712   1.547   4.950
 2004SOL    HW2 6912   4.698   1.392   4.999
 2005SOL     OW 6913   0.372   5.104   0.066
 2005SOL    HW1 6914   0.341   5.036   7.021
 2005SOL    HW2 6915   0.294   5.133   0.121
 2006SOL     OW 6916   5.871   0.213   3.297
 2006SOL    HW1 6917   5.924   0.170   3.223
 2006SOL    HW2 6918   5.909   0.303   3.316
 2007SOL     OW 6919   4.811   4.718   0.950
 2007SOL    HW1 6920   4.769   4.719   1.040
 2007SOL    HW2 6921   4.898   4.767   0.953
 2008SOL     OW 6922   2.067   4.490   3.971
 2008SOL    HW1 6923   2.108   4.563   4.026
 2008SOL    HW2 6924   2.139   4.430   3.936
 2009SOL     OW 6925   5.164   0.585   2.569
 2009SOL    HW1 6926   5.243   0.531   2.541
 2009SOL    HW2 6927   5.089   0.523   2.595
 2010SOL     OW 6928   2.123   1.839   1.807
 2010SOL    HW1 6929   2.087   1.907   1.871
 2010SOL    HW2 6930   2.064   1.759   1.807
 2011SOL     OW 6931   6.485   6.726   4.694
 2011SOL    HW1 6932   6.403   6.771   4.729
 2011SOL    HW2 6933   6.500   6.752   4.598
 2012SOL     OW 6934   1.211   4.091   2.280
 2012SOL    HW1 6935   1.184   4.028   2.354
 2012SOL    HW2 6936   1.311   4.093   2.274
 2013SOL     OW 6937   6.053   2.403   3.598
 2013SOL    HW1 6938   6.039   2.380   3.694
 2013SOL    HW2 6939   6.070   2.501   3.590
 2014SOL     OW 6940   2.569   6.369   3.690
 2014SOL    HW1 6941   2.484   6.317   3.700
 2014SOL    HW2 6942   2.635   6.315   3.637
 2015SOL     OW 6943   1.844   0.536   6.893
 2015SOL    HW1 6944   1.914   0.481   6.940
 2015SOL    HW2 6945   1.868   0.633   6.900
 2016SOL     OW 6946   2.119   5.640   6.109
 2016SOL    HW1 6947   2.069   5.631   6.196
 2016SOL    HW2 6948   2.120   5.552   6.062
 2017SOL     OW 6949   3.693   6.651   4.480
 2017SOL    HW1 6950   3.758   6.576   4.480
 2017SOL    HW2 6951   3.724   6.722   4.417
 2018SOL     OW 6952   5.132   1.496   5.506
 2018SOL    HW1 6953   5.119   1.462   5.599
 2018SOL    HW2 6954   5.043   1.508   5.462
 2019SOL     OW 6955   5.347   3.444   6.095
 2019SOL    HW1 6956   5.254   3.481   6.098
 2019SOL    HW2 6957   5.407   3.509   6.049
 2020SOL     OW 6958   1.557   0.149   5.348
 2020SOL    HW1 6959   1.597   0.176   5.435
 2020SOL    HW2 6960   1.474   0.096   5.364
 2021SOL     OW 6961   0.632   6.447   5.074
 2021SOL    HW1 6962   0.678   6.394   5.145
 2021SOL    HW2 6963   0.663   6.416   4.984
 2022SOL     OW 6964   1.377   4.315   3.571
 2022SOL    HW1 6965   1.433   4.240   3.535
 2022SOL    HW2 6966   1.413   4.402   3.538
 2023SOL     OW 6967   6.834   0.684   6.833
 2023SOL    HW1 6968   6.858   0.612   6.768
 2023SOL    HW2 6969   6.898   0.682   6.910
 2024SOL     OW 6970   0.120   6.129   3.193
 2024SOL    HW1 6971   0.110   6.219   3.149
 2024SOL    HW2 6972   0.193   6.133   3.261
 2025SOL     OW 6973   3.077   1.103   3.634
 2025SOL    HW1 6974   3.115   1.185   3.591
 2025SOL    HW2 6975   3.051   1.038   3.562
 2026SOL     OW 6976   6.502   2.871   5.430
 2026SOL    HW1 6977   6.553   2.862   5.344
 2026SOL    HW2 6978   6.545   2.813   5.500
 2027SOL     OW 6979   1.519   0.323   0.569
 2027SOL    HW1 6980   1.531   0.265   0.489
 2027SOL    HW2 6981   1.430   0.305   0.611
 2028SOL     OW 6982   2.884   6.604   4.867
 2028SOL    HW1 6983   2.799   6.655   4.851
 2028SOL    HW2 6984   2.913   6.618   4.962
 2029SOL     OW 6985   6.966   1.000   6.998
 2029SOL    HW1 6986   6.952   0.906   6.968
 2029SOL    HW2 6987   6.958   1.005   0.076
 2030SOL     OW 6988   2.935   0.935   3.444
 2030SOL    HW1 6989   2.848   0.922   3.491
 2030SOL    HW2 6990   2.969   0.846   3.412
 2031SOL     OW 6991   6.654   5.727   1.108
 2031SOL    HW1 6992   6.584   5.654   1.105
 2031SOL    HW2 6993   6.736   5.692   1.154
 2032SOL     OW 6994   5.092   0.312   2.276
 2032SOL    HW1 6995   5.041   0.394   2.304
 2032SOL    HW2 6996   5.087   0.243   2.349
 2033SOL     OW 6997   3.239   3.095   5.786
 2033SOL    HW1 6998   3.169   3.159   5.755
 2033SOL    HW2 6999   3.323   3.109   5.734
 2034SOL     OW 7000   2.450   5.514   5.643
 2034SOL    HW1 7001   2.486   5.567   5.566
 2034SOL    HW2 7002   2.354   5.537   5.657
 2035SOL     OW 7003   6.770   6.305   3.844
 2035SOL    HW1 7004   6.715   6.336   3.922
 2035SOL    HW2 7005   6.766   6.373   3.772
 2036SOL     OW 7006   1.406   4.809   3.140
 2036SOL    HW1 7007   1.389   4.721   3.186
 2036SOL    HW2 7008   1.483   4.855   3.183
 2037SOL     OW 7009   6.497   3.075   5.719
 2037SOL    HW1 7010   6.518   3.115   5.630
 2037SOL    HW2 7011   6.431   3.001   5.708
 2038SOL     OW 7012   1.735   2.277   0.228
 2038SOL    HW1 7013   1.671   2.321   0.165
 2038SOL    HW2 7014   1.822   2.326   0.226
 2039SOL     OW 7015   0.148   4.929   3.971
 2039SOL    HW1 7016   0.139   4.851   3.908
 2039SOL    HW2 7017   0.078   4.923   4.042
 2040SOL     OW 7018   2.765   3.208   5.549
 2040SOL    HW1 7019   2.774   3.172   5.456
 2040SOL    HW2 7020   2.682   3.263   5.557
 2041SOL     OW 7021   0.981   6.263   6.026
 2041SOL    HW1 7022   0.884   6.265   6.051
 2041SOL    HW2 7023   1.035   6.244   6.108
 2042SOL     OW 7024   4.623   6.003   6.952
 2042SOL    HW1 7025   4.642   6.042   0.020
 2042SOL    HW2 7026   4.614   6.076   6.884
 2043SOL     OW 7027   6.194   3.958   2.888
 2043SOL    HW1 7028   6.284   3.999   2.873
 2043SOL    HW2 7029   6.190   3.869   2.843
 2044SOL     OW 7030   6.949   0.432   2.016
 2044SOL    HW1 7031   0.023   0.439   1.989
 2044SOL    HW2 7032   6.891   0.458   1.940
 2045SOL     OW 7033   1.479   5.353   4.434
 2045SOL    HW1 7034   1.399   5.413   4.426
 2045SOL    HW2 7035   1.453   5.259   4.409
 2046SOL     OW 7036   6.966   2.051   4.429
 2046SOL    HW1 7037   6.906   2.127   4.449
 2046SOL    HW2 7038   6.913   1.974   4.394
 2047SOL     OW 7039   7.021   2.653   6.901
 2047SOL    HW1 7040   7.012   2.660   7.000
 2047SOL    HW2 7041   0.095   2.662   6.875
 2048SOL     OW 7042   1.596   6.584   5.892
 2048SOL    HW1 7043   1.567   6.653   5.826
 2048SOL    HW2 7044   1.676   6.619   5.942
 2049SOL     OW 7045   6.252   1.935   4.696
 2049SOL    HW1 7046   6.206   1.944   4.607
 2049SOL    HW2 7047   6.205   1.992   4.763
 2050SOL     OW 7048   6.135   2.440   4.277
 2050SOL    HW1 7049   6.091   2.351   4.287
 2050SOL    HW2 7050   6.077   2.501   4.223
 2051SOL     OW 7051   0.602   5.898   0.157
 2051SOL    HW1 7052   0.661   5.898   0.076
 2051SOL    HW2 7053   0.556   5.986   0.165
 2052SOL     OW 7054   1.470   3.148   1.285
 2052SOL    HW1 7055   1.466   3.233   1.339
 2052SOL    HW2 7056   1.398   3.150   1.215
 2053SOL     OW 7057   6.833   5.827   4.123
 2053SOL    HW1 7058   6.865   5.922   4.119
 2053SOL    HW2 7059   6.762   5.813   4.053
 2054SOL     OW 7060   3.334   4.141   3.154
 2054SOL    HW1 7061   3.361   4.151   3.250
 2054SOL    HW2 7062   3.416   4.128   3.098
 2055SOL     OW 7063   5.652   3.591   3.781
 2055SOL    HW1 7064   5.590   3.657   3.740
 2055SOL    HW2 7065   5.601   3.509   3.807
 2056SOL     OW 7066   4.064   5.512   2.115
 2056SOL    HW1 7067   4.140   5.549   2.061
 2056SOL    HW2 7068   4.021   5.585   2.167
 2057SOL     OW 7069   5.230   4.214   5.819
 2057SOL    HW1 7070   5.184   4.143   5.765
 2057SOL    HW2 7071   5.172   4.239   5.897
 2058SOL     OW 7072   0.180   0.739   3.398
 2058SOL    HW1 7073   0.142   0.815   3.346
 2058SOL    HW2 7074   0.106   0.693   3.448
 2059SOL     OW 7075   1.980   5.899   6.342
 2059SOL    HW1 7076   1.959   5.948   6.257
 2059SOL    HW2 7077   2.068   5.932   6.377
 2060SOL     OW 7078   0.718   4.250   1.431
 2060SOL    HW1 7079   0.725   4.172   1.493
 2060SOL    HW2 7080   0.798   4.252   1.371
 2061SOL     OW 7081   1.128   1.586   2.605
 2061SOL    HW1 7082   1.057   1.553   2.543
 2061SOL    HW2 7083   1.137   1.523   2.682
 2062SOL     OW 7084   6.814   5.570   4.859
 2062SOL    HW1 7085   6.838   5.545   4.765
 2062SOL    HW2 7086   6.766   5.494   4.903
 2063SOL     OW 7087   1.221   6.456   5.458
 2063SOL    HW1 7088   1.214   6.473   5.557
 2063SOL    HW2 7089   1.273   6.373   5.442
 2064SOL     OW 7090   0.604   2.542   5.226
 2064SOL    HW1 7091   0.630   2.503   5.137
 2064SOL    HW2 7092   0.685   2.581   5.270
 2065SOL     OW 7093   5.975   2.329   5.704
 2065SOL    HW1 7094   6.052   2.379   5.663
 2065SOL    HW2 7095   5.902   2.393   5.727
 2066SOL     OW 7096   0.399   4.555   4.311
 2066SOL    HW1 7097   0.377   4.653   4.312
 2066SOL    HW2 7098   0.357   4.511   4.389
 2067SOL     OW 7099   7.004   5.309   0.841
 2067SOL    HW1 7100   6.925   5.261   0.802
 2067SOL    HW2 7101   0.064   5.252   0.831
 2068SOL     OW 7102   2.099   0.277   4.387
 2068SOL    HW1 7103   2.103   0.355   4.324
 2068SOL    HW2 7104   2.032   0.296   4.459
 2069SOL     OW 7105   6.188   2.678   3.871
 2069SOL    HW1 7106   6.234   2.591   3.853
 2069SOL    HW2 7107   6.212   2.743   3.798
 2070SOL     OW 7108   0.985   0.955   1.281
 2070SOL    HW1 7109   1.057   0.936   1.349
 2070SOL    HW2 7110   0.950   1.048   1.295
 2071SOL     OW 7111   6.012   0.420   6.040
 2071SOL    HW1 7112   6.099   0.444   6.083
 2071SOL    HW2 7113   5.957   0.366   6.104
 2072SOL     OW 7114   4.268   5.117   4.121
 2072SOL    HW1 7115   4.342   5.054   4.147
 2072SOL    HW2 7116   4.292   5.162   4.035
 2073SOL     OW 7117   4.296   6.712   4.882
 2073SOL    HW1 7118   4.391   6.693   4.908
 2073SOL    HW2 7119   4.252   6.627   4.852
 2074SOL     OW 7120   2.132   2.021   6.263
 2074SOL    HW1 7121   2.168   1.994   6.174
 2074SOL    HW2 7122   2.205   2.061   6.318
 2075SOL     OW 7123   6.848   2.507   3.337
 2075SOL    HW1 7124   6.930   2.532   3.285
 2075SOL    HW2 7125   6.770   2.503   3.275
 2076SOL     OW 7126   5.343   0.059   6.056
 2076SOL    HW1 7127   5.321   6.985   6.041
 2076SOL    HW2 7128   5.289   0.116   5.994
 2077SOL     OW 7129   6.361   2.209   3.093
 2077SOL    HW1 7130   6.317   2.119   3.095
 2077SOL    HW2 7131   6.460   2.198   3.107
 2078SOL     OW 7132   1.522   5.369   6.211
 2078SOL    HW1 7133   1.617   5.383   6.237
 2078SOL    HW2 7134   1.490   5.446   6.156
 2079SOL     OW 7135   6.705   2.466   2.951
 2079SOL    HW1 7136   6.773   2.394   2.965
 2079SOL    HW2 7137   6.658   2.486   3.037
 2080SOL     OW 7138   1.645   0.471   4.987
 2080SOL    HW1 7139   1.690   0.504   5.070
 2080SOL    HW2 7140   1.680   0.380   4.964
 2081SOL     OW 7141   0.813   6.284   4.399
 2081SOL    HW1 7142   0.790   6.315   4.307
 2081SOL    HW2 7143   0.885   6.342   4.437
 2082SOL     OW 7144   0.730   6.936   3.479
 2082SOL    HW1 7145   0.823   6.941   3.516
 2082SOL    HW2 7146   0.694   6.844   3.494
 2083SOL     OW 7147   0.996   4.806   5.977
 2083SOL    HW1 7148   0.941   4.742   6.031
 2083SOL    HW2 7149   1.050   4.755   5.910
 2084SOL     OW 7150   0.578   4.303   3.318
 2084SOL    HW1 7151   0.484   4.285   3.288
 2084SOL    HW2 7152   0.590   4.400   3.334
 2085SOL     OW 7153   5.368   1.028   0.731
 2085SOL    HW1 7154   5.436   1.086   0.686
 2085SOL    HW2 7155   5.404   0.996   0.819
 2086SOL     OW 7156   3.955   6.781   6.512
 2086SOL    HW1 7157   3.928   6.744   6.424
 2086SOL    HW2 7158   3.953   6.709   6.581
 2087SOL     OW 7159   4.784   1.152   1.758
 2087SOL    HW1 7160   4.863   1.205   1.726
 2087SOL    HW2 7161   4.722   1.135   1.682
 2088SOL     OW 7162   1.065   6.045   6.778
 2088SOL    HW1 7163   1.077   5.981   6.703
 2088SOL    HW2 7164   0.986   6.018   6.833
 2089SOL     OW 7165   4.775   2.716   6.099
 2089SOL    HW1 7166   4.712   2.785   6.067
 2089SOL    HW2 7167   4.868   2.738   6.069
 2090SOL     OW 7168   4.305   3.465   6.132
 2090SOL    HW1 7169   4.368   3.440   6.205
 2090SOL    HW2 7170   4.320   3.560   6.105
 2091SOL     OW 7171   6.848   5.102   0.626
 2091SOL    HW1 7172   6.828   5.009   0.594
 2091SOL    HW2 7173   6.772   5.136   0.681
 2092SOL     OW 7174   5.247   3.647   0.259
 2092SOL    HW1 7175   5.199   3.566   0.226
 2092SOL    HW2 7176   5.203   3.729   0.221
 2093SOL     OW 7177   3.056   2.007   1.366
 2093SOL    HW1 7178   3.116   2.009   1.445
 2093SOL    HW2 7179   3.020   1.915   1.353
 2094SOL     OW 7180   6.026   1.475   2.131
 2094SOL    HW1 7181   6.053   1.534   2.056
 2094SOL    HW2 7182   5.936   1.504   2.166
 2095SOL     OW 7183   6.578   6.410   5.061
 2095SOL    HW1 7184   6.541   6.500   5.084
 2095SOL    HW2 7185   6.675   6.419   5.038
 2096SOL     OW 7186   4.894   4.718   3.152
 2096SOL    HW1 7187   4.892   4.629   3.198
 2096SOL    HW2 7188   4.800   4.747   3.133
 2097SOL     OW 7189   3.038   2.799   6.301
 2097SOL    HW1 7190   3.065   2.870   6.366
 2097SOL    HW2 7191   3.005   2.719   6.351
 2098SOL     OW 7192   4.739   5.984   1.703
 2098SOL    HW1 7193   4.715   5.932   1.785
 2098SOL    HW2 7194   4.722   5.928   1.622
 2099SOL     OW 7195   3.666   2.225   6.616
 2099SOL    HW1 7196   3.612   2.209   6.699
 2099SOL    HW2 7197   3.722   2.144   6.597
 2100SOL     OW 7198   5.311   1.759   0.485
 2100SOL    HW1 7199   5.257   1.688   0.440
 2100SOL    HW2 7200   5.400   1.766   0.440
 2101SOL     OW 7201   0.545   6.622   1.265
 2101SOL    HW1 7202   0.595   6.697   1.308
 2101SOL    HW2 7203   0.484   6.659   1.195
 2102SOL     OW 7204   5.033   4.270   2.493
 2102SOL    HW1 7205   5.080   4.300   2.409
 2102SOL    HW2 7206   5.062   4.327   2.569
 2103SOL     OW 7207   3.545   3.474   0.010
 2103SOL    HW1 7208   3.471   3.452   0.073
 2103SOL    HW2 7209   3.511   3.536   6.962
 2104SOL     OW 7210   1.658   4.292   2.485
 2104SOL    HW1 7211   1.604   4.360   2.436
 2104SOL    HW2 7212   1.632   4.293   2.582
 2105SOL     OW 7213   4.500   4.723   6.645
 2105SOL    HW1 7214   4.520   4.633   6.684
 2105SOL    HW2 7215   4.409   4.721   6.603
 2106SOL     OW 7216   5.769   3.347   1.055
 2106SOL    HW1 7217   5.784   3.306   0.965
 2106SOL    HW2 7218   5.797   3.443   1.053
 2107SOL     OW 7219   6.559   2.358   5.513
 2107SOL    HW1 7220   6.559   2.422   5.590
 2107SOL    HW2 7221   6.476   2.301   5.516
 2108SOL     OW 7222   5.841   5.508   5.054
 2108SOL    HW1 7223   5.817   5.415   5.081
 2108SOL    HW2 7224   5.923   5.507   4.998
 2109SOL     OW 7225   4.060   6.053   2.403
 2109SOL    HW1 7226   4.016   6.081   2.318
 2109SOL    HW2 7227   4.119   6.126   2.437
 2110SOL     OW 7228   2.997   0.647   0.467
 2110SOL    HW1 7229   3.097   0.641   0.458
 2110SOL    HW2 7230   2.956   0.559   0.442
 2111SOL     OW 7231   2.157   2.892   0.098
 2111SOL    HW1 7232   2.143   2.932   0.007
 2111SOL    HW2 7233   2.071   2.851   0.129
 2112SOL     OW 7234   5.453   2.295   0.463
 2112SOL    HW1 7235   5.493   2.236   0.533
 2112SOL    HW2 7236   5.492   2.387   0.470
 2113SOL     OW 7237   2.351   1.156   4.952
 2113SOL    HW1 7238   2.320   1.251   4.944
 2113SOL    HW2 7239   2.300   1.110   5.025
 2114SOL     OW 7240   2.361   1.789   6.871
 2114SOL    HW1 7241   2.302   1.762   6.946
 2114SOL    HW2 7242   2.344   1.731   6.792
 2115SOL     OW 7243   0.465   4.435   2.847
 2115SOL    HW1 7244   0.540   4.369   2.852
 2115SOL    HW2 7245   0.408   4.428   2.928
 2116SOL     OW 7246   0.869   4.041   2.662
 2116SOL    HW1 7247   0.933   4.089   2.603
 2116SOL    HW2 7248   0.775   4.064   2.634
 2117SOL     OW 7249   6.580   4.308   1.331
 2117SOL    HW1 7250   6.664   4.354   1.301
 2117SOL    HW2 7251   6.555   4.239   1.264
 2118SOL     OW 7252   5.692   3.462   3.470
 2118SOL    HW1 7253   5.700   3.409   3.386
 2118SOL    HW2 7254   5.783   3.477   3.508
 2119SOL     OW 7255   1.187   0.304   1.366
 2119SOL    HW1 7256   1.185   0.348   1.456
 2119SOL    HW2 7257   1.177   0.205   1.378
 2120SOL     OW 7258   0.693   4.057   3.388
 2120SOL    HW1 7259   0.643   4.142   3.373
 2120SOL    HW2 7260   0.636   3.980   3.362
 2121SOL     OW 7261   1.512   3.123   5.239
 2121SOL    HW1 7262   1.417   3.097   5.220
 2121SOL    HW2 7263   1.514   3.189   5.314
 2122SOL     OW 7264   6.178   5.383   6.667
 2122SOL    HW1 7265   6.113   5.407   6.595
 2122SOL    HW2 7266   6.247   5.322   6.629
 2123SOL     OW 7267   6.514   5.169   2.066
 2123SOL    HW1 7268   6.614   5.174   2.069
 2123SOL    HW2 7269   6.479   5.147   2.157
 2124SOL     OW 7270   3.175   1.802   0.932
 2124SOL    HW1 7271   3.103   1.745   0.971
 2124SOL    HW2 7272   3.139   1.849   0.851
 2125SOL     OW 7273   1.664   6.325   2.150
 2125SOL    HW1 7274   1.673   6.416   2.108
 2125SOL    HW2 7275   1.585   6.325   2.212
 2126SOL     OW 7276   3.898   2.846   6.697
 2126SOL    HW1 7277   3.917   2.767   6.638
 2126SOL    HW2 7278   3.943   2.927   6.658
 2127SOL     OW 7279   0.752   1.748   6.004
 2127SOL    HW1 7280   0.742   1.807   6.084
 2127SOL    HW2 7281   0.669   1.754   5.948
 2128SOL     OW 7282   6.221   2.963   2.965
 2128SOL    HW1 7283   6.145   2.941   3.026
 2128SOL    HW2 7284   6.307   2.940   3.009
 2129SOL     OW 7285   5.174   3.758   5.042
 2129SOL    HW1 7286   5.212   3.846   5.070
 2129SOL    HW2 7287   5.205   3.734   4.950
 2130SOL     OW 7288   2.993   6.631   2.446
 2130SOL    HW1 7289   3.001   6.574   2.528
 2130SOL    HW2 7290   2.970   6.574   2.368
 2131SOL     OW 7291   5.294   1.766   0.752
 2131SOL    HW1 7292   5.226   1.839   0.744
 2131SOL    HW2 7293   5.321   1.736   0.661
 2132SOL     OW 7294   3.068   1.242   0.381
 2132SOL    HW1 7295   2.991   1.217   0.321
 2132SOL    HW2 7296   3.112   1.324   0.345
 2133SOL     OW 7297   3.636   2.314   1.181
 2133SOL    HW1 7298   3.554   2.258   1.189
 2133SOL    HW2 7299   3.670   2.335   1.273
 2134SOL     OW 7300   0.842   0.948   4.261
 2134SOL    HW1 7301   0.928   0.955   4.310
 2134SOL    HW2 7302   0.776   1.013   4.299
 2135SOL     OW 7303   0.725   1.795   4.225
 2135SOL    HW1 7304   0.818   1.813   4.255
 2135SOL    HW2 7305   0.715   1.821   4.129
 2136SOL     OW 7306   1.035   4.269   4.690
 2136SOL    HW1 7307   1.093   4.224   4.758
 2136SOL    HW2 7308   0.944   4.282   4.727
 2137SOL     OW 7309   0.087   5.987   4.151
 2137SOL    HW1 7310   0.165   6.050   4.152
 2137SOL    HW2 7311   0.005   6.036   4.120
 2138SOL     OW 7312   6.902   1.146   1.304
 2138SOL    HW1 7313   6.901   1.085   1.384
 2138SOL    HW2 7314   6.820   1.131   1.249
 2139SOL     OW 7315   3.771   0.809   2.799
 2139SOL    HW1 7316   3.776   0.816   2.700
 2139SOL    HW2 7317   3.823   0.883   2.841
 2140SOL     OW 7318   3.308   5.643   3.157
 2140SOL    HW1 7319   3.366   5.619   3.079
 2140SOL    HW2 7320   3.216   5.665   3.123
 2141SOL     OW 7321   6.664   4.290   1.055
 2141SOL    HW1 7322   6.738   4.286   0.988
 2141SOL    HW2 7323   6.651   4.384   1.085
 2142SOL     OW 7324   1.051   1.962   3.023
 2142SOL    HW1 7325   1.122   2.028   3.046
 2142SOL    HW2 7326   1.071   1.921   2.934
 2143SOL     OW 7327   3.193   4.838   1.483
 2143SOL    HW1 7328   3.113   4.897   1.479
 2143SOL    HW2 7329   3.191   4.773   1.407
 2144SOL     OW 7330   1.428   5.912   3.156
 2144SOL    HW1 7331   1.469   5.928   3.067
 2144SOL    HW2 7332   1.497   5.879   3.220
 2145SOL     OW 7333   3.271   6.465   4.408
 2145SOL    HW1 7334   3.354   6.487   4.459
 2145SOL    HW2 7335   3.244   6.543   4.351
 2146SOL     OW 7336   2.615   3.453   1.726
 2146SOL    HW1 7337   2.633   3.548   1.702
 2146SOL    HW2 7338   2.534   3.448   1.784
 2147SOL     OW 7339   0.426   1.171   6.435
 2147SOL    HW1 7340   0.517   1.205   6.458
 2147SOL    HW2 7341   0.434   1.106   6.359
 2148SOL     OW 7342   5.163   2.767   4.292
 2148SOL    HW1 7343   5.110   2.820   4.357
 2148SOL    HW2 7344   5.115   2.764   4.204
 2149SOL     OW 7345   3.721   1.214   1.045
 2149SOL    HW1 7346   3.708   1.142   1.113
 2149SOL    HW2 7347   3.805   1.264   1.065
 2150SOL     OW 7348   2.271   2.487   2.235
 2150SOL    HW1 7349   2.277   2.561   2.301
 2150SOL    HW2 7350   2.352   2.428   2.243
 2151SOL     OW 7351   2.114   1.419   4.184
 2151SOL    HW1 7352   2.055   1.440   4.261
 2151SOL    HW2 7353   2.207   1.404   4.216
 2152SOL     OW 7354   3.690   6.503   1.243
 2152SOL    HW1 7355   3.732   6.422   1.284
 2152SOL    HW2 7356   3.698   6.498   1.143
 2153SOL     OW 7357   3.831   0.137   3.044
 2153SOL    HW1 7358   3.869   0.125   2.952
 2153SOL    HW2 7359   3.825   0.048   3.089
 2154SOL     OW 7360   5.178   0.235   4.603
 2154SOL    HW1 7361   5.194   0.149   4.651
 2154SOL    HW2 7362   5.259   0.259   4.549
 2155SOL     OW 7363   1.915   5.322   0.395
 2155SOL    HW1 7364   1.910   5.357   0.302
 2155SOL    HW2 7365   1.823   5.316   0.434
 2156SOL     OW 7366   2.534   0.643   2.750
 2156SOL    HW1 7367   2.574   0.631   2.841
 2156SOL    HW2 7368   2.440   0.611   2.750
 2157SOL     OW 7369   6.137   0.619   3.226
 2157SOL    HW1 7370   6.150   0.694   3.162
 2157SOL    HW2 7371   6.066   0.644   3.293
 2158SOL     OW 7372   3.873   6.522   0.957
 2158SOL    HW1 7373   3.860   6.453   0.886
 2158SOL    HW2 7374   3.943   6.587   0.928
 2159SOL     OW 7375   2.466   6.594   5.333
 2159SOL    HW1 7376   2.456   6.641   5.421
 2159SOL    HW2 7377   2.453   6.496   5.346
 2160SOL     OW 7378   4.578   3.591   1.074
 2160SOL    HW1 7379   4.573   3.507   1.020
 2160SOL    HW2 7380   4.650   3.582   1.143
 2161SOL     OW 7381   5.115   3.430   3.624
 2161SOL    HW1 7382   5.127   3.429   3.525
 2161SOL    HW2 7383   5.187   3.484   3.666
 2162SOL     OW 7384   2.808   0.442   0.072
 2162SOL    HW1 7385   2.842   0.500   0.146
 2162SOL    HW2 7386   2.851   0.470   7.008
 2163SOL     OW 7387   6.948   4.763   6.235
 2163SOL    HW1 7388   6.908   4.854   6.217
 2163SOL    HW2 7389   6.930   4.703   6.157
 2164SOL     OW 7390   1.636   2.476   0.068
 2164SOL    HW1 7391   1.634   2.540   0.145
 2164SOL    HW2 7392   1.628   2.526   7.004
 2165SOL     OW 7393   1.396   1.428   2.982
 2165SOL    HW1 7394   1.383   1.450   3.079
 2165SOL    HW2 7395   1.307   1.421   2.938
 2166SOL     OW 7396   1.648   1.969   5.335
 2166SOL    HW1 7397   1.620   2.057   5.299
 2166SOL    HW2 7398   1.716   1.928   5.274
 2167SOL     OW 7399   1.515   0.831   3.657
 2167SOL    HW1 7400   1.487   0.737   3.678
 2167SOL    HW2 7401   1.457   0.868   3.585
 2168SOL     OW 7402   0.553   1.908   3.688
 2168SOL    HW1 7403   0.610   1.833   3.656
 2168SOL    HW2 7404   0.499   1.944   3.611
 2169SOL     OW 7405   5.690   2.358   5.591
 2169SOL    HW1 7406   5.724   2.363   5.497
 2169SOL    HW2 7407   5.716   2.270   5.631
 2170SOL     OW 7408   5.861   4.903   5.968
 2170SOL    HW1 7409   5.780   4.845   5.962
 2170SOL    HW2 7410   5.847   4.984   5.911
 2171SOL     OW 7411   6.483   2.997   1.631
 2171SOL    HW1 7412   6.468   2.979   1.534
 2171SOL    HW2 7413   6.502   3.095   1.644
 2172SOL     OW 7414   3.026   1.768   0.494
 2172SOL    HW1 7415   3.032   1.820   0.580
 2172SOL    HW2 7416   3.085   1.811   0.426
 2173SOL     OW 7417   4.494   0.279   5.495
 2173SOL    HW1 7418   4.589   0.307   5.477
 2173SOL    HW2 7419   4.439   0.295   5.413
 2174SOL     OW 7420   5.860   5.104   5.821
 2174SOL    HW1 7421   5.784   5.166   5.803
 2174SOL    HW2 7422   5.946   5.155   5.819
 2175SOL     OW 7423   3.499   1.824   3.603
 2175SOL    HW1 7424   3.555   1.817   3.521
 2175SOL    HW2 7425   3.426   1.890   3.587
 2176SOL     OW 7426   0.655   3.259   6.951
 2176SOL    HW1 7427   0.695   3.177   6.910
 2176SOL    HW2 7428   0.709   3.285   0.009
 2177SOL     OW 7429   6.685   0.912   3.313
 2177SOL    HW1 7430   6.715   0.817   3.310
 2177SOL    HW2 7431   6.719   0.956   3.396
 2178SOL     OW 7432   1.553   4.039   0.105
 2178SOL    HW1 7433   1.521   3.995   0.189
 2178SOL    HW2 7434   1.537   3.978   0.028
 2179SOL     OW 7435   1.196   5.592   4.707
 2179SOL    HW1 7436   1.176   5.687   4.731
 2179SOL    HW2 7437   1.293   5.574   4.721
 2180SOL     OW 7438   2.839   3.514   1.963
 2180SOL    HW1 7439   2.850   3.442   2.031
 2180SOL    HW2 7440   2.772   3.487   1.894
 2181SOL     OW 7441   5.401   4.123   5.505
 2181SOL    HW1 7442   5.459   4.145   5.583
 2181SOL    HW2 7443   5.323   4.069   5.536
 2182SOL     OW 7444   6.498   2.718   4.970
 2182SOL    HW1 7445   6.589   2.689   4.998
 2182SOL    HW2 7446   6.478   2.682   4.879
 2183SOL     OW 7447   3.325   3.211   6.495
 2183SOL    HW1 7448   3.419   3.235   6.517
 2183SOL    HW2 7449   3.323   3.163   6.407
 2184SOL     OW 7450   3.894   1.503   5.289
 2184SOL    HW1 7451   3.966   1.541   5.347
 2184SOL    HW2 7452   3.867   1.572   5.221
 2185SOL     OW 7453   1.720   2.020   0.559
 2185SOL    HW1 7454   1.675   2.012   0.648
 2185SOL    HW2 7455   1.777   2.103   0.558
 2186SOL     OW 7456   6.822   4.594   2.193
 2186SOL    HW1 7457   6.909   4.545   2.186
 2186SOL    HW2 7458   6.802   4.613   2.289
 2187SOL     OW 7459   0.401   1.729   2.045
 2187SOL    HW1 7460   0.389   1.765   2.138
 2187SOL    HW2 7461   0.311   1.712   2.004
 2188SOL     OW 7462   5.501   6.071   4.233
 2188SOL    HW1 7463   5.564   6.018   4.176
 2188SOL    HW2 7464   5.510   6.168   4.212
 2189SOL     OW 7465   1.898   6.468   6.756
 2189SOL    HW1 7466   1.919   6.535   6.827
 2189SOL    HW2 7467   1.960   6.480   6.679
 2190SOL     OW 7468   0.360   3.073   2.309
 2190SOL    HW1 7469   0.368   3.055   2.407
 2190SOL    HW2 7470   0.430   3.021   2.260
 2191SOL     OW 7471   3.312   1.630   6.482
 2191SOL    HW1 7472   3.346   1.600   6.393
 2191SOL    HW2 7473   3.389   1.660   6.538
 2192SOL     OW 7474   3.670   6.854   3.464
 2192SOL    HW1 7475   3.599   6.916   3.497
 2192SOL    HW2 7476   3.633   6.795   3.393
 2193SOL     OW 7477   0.424   5.905   6.219
 2193SOL    HW1 7478   0.463   5.813   6.213
 2193SOL    HW2 7479   0.325   5.899   6.230
 2194SOL     OW 7480   2.420   4.587   6.766
 2194SOL    HW1 7481   2.453   4.618   6.676
 2194SOL    HW2 7482   2.495   4.590   6.832
 2195SOL     OW 7483   0.134   6.843   3.454
 2195SOL    HW1 7484   0.168   6.750   3.442
 2195SOL    HW2 7485   0.074   6.867   3.378
 2196SOL     OW 7486   3.488   0.094   5.685
 2196SOL    HW1 7487   3.398   0.055   5.667
 2196SOL    HW2 7488   3.550   0.071   5.610
 2197SOL     OW 7489   3.863   3.712   1.593
 2197SOL    HW1 7490   3.892   3.800   1.632
 2197SOL    HW2 7491   3.868   3.641   1.663
 2198SOL     OW 7492   6.403   1.341   6.899
 2198SOL    HW1 7493   6.336   1.415   6.887
 2198SOL    HW2 7494   6.468   1.342   6.823
 2199SOL     OW 7495   5.005   0.851   2.565
 2199SOL    HW1 7496   4.941   0.829   2.491
 2199SOL    HW2 7497   5.078   0.783   2.567
 2200SOL     OW 7498   3.608   0.366   4.730
 2200SOL    HW1 7499   3.690   0.310   4.736
 2200SOL    HW2 7500   3.536   0.314   4.683
 2201SOL     OW 7501   6.641   2.655   2.441
 2201SOL    HW1 7502   6.676   2.575   2.491
 2201SOL    HW2 7503   6.599   2.719   2.505
 2202SOL     OW 7504   3.602   5.022   3.568
 2202SOL    HW1 7505   3.518   5.011   3.621
 2202SOL    HW2 7506   3.668   4.953   3.596
 2203SOL     OW 7507   2.174   2.726   1.822
 2203SOL    HW1 7508   2.181   2.679   1.734
 2203SOL    HW2 7509   2.266   2.742   1.859
 2204SOL     OW 7510   3.926   1.880   7.017
 2204SOL    HW1 7511   3.987   1.804   0.015
 2204SOL    HW2 7512   3.956   1.961   0.046
 2205SOL     OW 7513   2.081   6.823   6.198
 2205SOL    HW1 7514   2.143   6.892   6.236
 2205SOL    HW2 7515   1.987   6.852   6.210
 2206SOL     OW 7516   2.782   4.031   5.513
 2206SOL    HW1 7517   2.727   4.008   5.433
 2206SOL    HW2 7518   2.750   3.979   5.592
 2207SOL     OW 7519   2.142   3.796   6.374
 2207SOL    HW1 7520   2.200   3.876   6.362
 2207SOL    HW2 7521   2.178   3.739   6.449
 2208SOL     OW 7522   1.849   5.290   2.738
 2208SOL    HW1 7523   1.869   5.193   2.728
 2208SOL    HW2 7524   1.755   5.302   2.770
 2209SOL     OW 7525   1.535   5.523   5.857
 2209SOL    HW1 7526   1.493   5.432   5.858
 2209SOL    HW2 7527   1.633   5.514   5.841
 2210SOL     OW 7528   6.803   4.582   3.555
 2210SOL    HW1 7529   6.713   4.594   3.514
 2210SOL    HW2 7530   6.851   4.670   3.556
 2211SOL     OW 7531   5.175   0.755   6.680
 2211SOL    HW1 7532   5.271   0.782   6.677
 2211SOL    HW2 7533   5.166   0.672   6.736
 2212SOL     OW 7534   1.857   6.038   0.328
 2212SOL    HW1 7535   1.794   6.114   0.343
 2212SOL    HW2 7536   1.826   5.958   0.380
 2213SOL     OW 7537   3.948   2.748   5.347
 2213SOL    HW1 7538   4.004   2.681   5.298
 2213SOL    HW2 7539   3.929   2.826   5.287
 2214SOL     OW 7540   4.619   2.316   5.649
 2214SOL    HW1 7541   4.710   2.303   5.689
 2214SOL    HW2 7542   4.554   2.254   5.692
 2215SOL     OW 7543   6.367   2.025   6.526
 2215SOL    HW1 7544   6.271   2.052   6.534
 2215SOL    HW2 7545   6.420   2.103   6.492
 2216SOL     OW 7546   1.914   0.952   6.366
 2216SOL    HW1 7547   1.860   1.000   6.436
 2216SOL    HW2 7548   1.853   0.896   6.310
 2217SOL     OW 7549   3.320   0.347   1.358
 2217SOL    HW1 7550   3.394   0.404   1.393
 2217SOL    HW2 7551   3.333   0.332   1.260
 2218SOL     OW 7552   0.903   0.056   0.867
 2218SOL    HW1 7553   0.924   0.004   0.785
 2218SOL    HW2 7554   0.942   0.009   0.947
 2219SOL     OW 7555   0.540   3.633   3.043
 2219SOL    HW1 7556   0.447   3.666   3.063
 2219SOL    HW2 7557   0.536   3.538   3.013
 2220SOL     OW 7558   0.077   0.916   4.456
 2220SOL    HW1 7559   0.018   0.969   4.517
 2220SOL    HW2 7560   0.160   0.969   4.436
 2221SOL     OW 7561   6.163   1.176   6.250
 2221SOL    HW1 7562   6.257   1.144   6.255
 2221SOL    HW2 7563   6.155   1.245   6.178
 2222SOL     OW 7564   3.766   0.750   1.175
 2222SOL    HW1 7565   3.837   0.792   1.232
 2222SOL    HW2 7566   3.807   0.712   1.093
 2223SOL     OW 7567   6.148   6.374   4.054
 2223SOL    HW1 7568   6.243   6.385   4.083
 2223SOL    HW2 7569   6.138   6.403   3.959
 2224SOL     OW 7570   2.152   4.588   2.246
 2224SOL    HW1 7571   2.206   4.672   2.256
 2224SOL    HW2 7572   2.062   4.601   2.286
 2225SOL     OW 7573   6.489   5.877   3.096
 2225SOL    HW1 7574   6.520   5.897   3.004
 2225SOL    HW2 7575   6.506   5.781   3.117
 2226SOL     OW 7576   4.149   4.203   0.397
 2226SOL    HW1 7577   4.162   4.218   0.299
 2226SOL    HW2 7578   4.118   4.109   0.413
 2227SOL     OW 7579   5.409   3.741   0.006
 2227SOL    HW1 7580   5.358   3.660   7.001
 2227SOL    HW2 7581   5.490   3.715   0.058
 2228SOL     OW 7582   2.660   5.671   1.211
 2228SOL    HW1 7583   2.705   5.757   1.186
 2228SOL    HW2 7584   2.697   5.639   1.299
 2229SOL     OW 7585   4.253   1.336   4.699
 2229SOL    HW1 7586   4.324   1.392   4.656
 2229SOL    HW2 7587   4.214   1.274   4.631
 2230SOL     OW 7588   0.125   5.720   5.417
 2230SOL    HW1 7589   0.165   5.639   5.461
 2230SOL    HW2 7590   0.087   5.780   5.487
 2231SOL     OW 7591   1.996   0.681   1.370
 2231SOL    HW1 7592   2.077   0.707   1.422
 2231SOL    HW2 7593   2.003   0.716   1.277
 2232SOL     OW 7594   1.312   1.899   3.859
 2232SOL    HW1 7595   1.225   1.850   3.867
 2232SOL    HW2 7596   1.364   1.864   3.782
 2233SOL     OW 7597   2.338   4.589   1.329
 2233SOL    HW1 7598   2.291   4.574   1.416
 2233SOL    HW2 7599   2.433   4.557   1.336
 2234SOL     OW 7600   4.949   2.298   1.804
 2234SOL    HW1 7601   4.966   2.205   1.836
 2234SOL    HW2 7602   5.033   2.353   1.813
 2235SOL     OW 7603   2.011   7.003   1.032
 2235SOL    HW1 7604   2.107   0.005   1.015
 2235SOL    HW2 7605   1.997   6.906   1.012
 2236SOL     OW 7606   0.642   4.428   0.071
 2236SOL    HW1 7607   0.693   4.438   0.156
 2236SOL    HW2 7608   0.657   4.336   0.034
 2237SOL     OW 7609   5.526   4.365   4.531
 2237SOL    HW1 7610   5.522   4.289   4.467
 2237SOL    HW2 7611   5.457   4.352   4.602
 2238SOL     OW 7612   5.989   5.596   1.768
 2238SOL    HW1 7613   5.980   5.585   1.867
 2238SOL    HW2 7614   5.907   5.559   1.723
 2239SOL     OW 7615   3.768   5.510   3.926
 2239SOL    HW1 7616   3.671   5.527   3.946
 2239SOL    HW2 7617   3.801   5.578   3.860
 2240SOL     OW 7618   5.611   5.894   3.993
 2240SOL    HW1 7619   5.627   5.959   3.920
 2240SOL    HW2 7620   5.538   5.831   3.967
 2241SOL     OW 7621   0.317   6.848   2.531
 2241SOL    HW1 7622   0.230   6.864   2.484
 2241SOL    HW2 7623   0.335   6.750   2.534
 2242SOL     OW 7624   5.310   2.642   2.687
 2242SOL    HW1 7625   5.215   2.663   2.662
 2242SOL    HW2 7626   5.311   2.586   2.770
 2243SOL     OW 7627   3.002   6.406   5.345
 2243SOL    HW1 7628   3.051   6.444   5.267
 2243SOL    HW2 7629   2.968   6.315   5.323
 2244SOL     OW 7630   3.483   0.624   3.222
 2244SOL    HW1 7631   3.386   0.608   3.203
 2244SOL    HW2 7632   3.538   0.584   3.149
 2245SOL     OW 7633   0.689   2.181   1.784
 2245SOL    HW1 7634   0.625   2.253   1.814
 2245SOL    HW2 7635   0.655   2.092   1.814
 2246SOL     OW 7636   1.030   1.447   4.610
 2246SOL    HW1 7637   0.947   1.498   4.631
 2246SOL    HW2 7638   1.083   1.496   4.541
 2247SOL     OW 7639   2.782   2.578   6.146
 2247SOL    HW1 7640   2.861   2.636   6.126
 2247SOL    HW2 7641   2.745   2.601   6.236
 2248SOL     OW 7642   4.205   4.053   6.548
 2248SOL    HW1 7643   4.305   4.059   6.552
 2248SOL    HW2 7644   4.176   4.054   6.452
 2249SOL     OW 7645   6.039   6.343   2.548
 2249SOL    HW1 7646   6.057   6.249   2.518
 2249SOL    HW2 7647   5.994   6.393   2.474
 2250SOL     OW 7648   5.154   3.878   0.872
 2250SOL    HW1 7649   5.130   3.856   0.778
 2250SOL    HW2 7650   5.169   3.793   0.923
 2251SOL     OW 7651   5.269   1.467   6.916
 2251SOL    HW1 7652   5.244   1.414   6.996
 2251SOL    HW2 7653   5.357   1.435   6.881
 2252SOL     OW 7654   6.802   2.532   3.858
 2252SOL    HW1 7655   6.814   2.449   3.803
 2252SOL    HW2 7656   6.765   2.508   3.947
 2253SOL     OW 7657   0.801   3.358   0.156
 2253SOL    HW1 7658   0.718   3.337   0.207
 2253SOL    HW2 7659   0.880   3.350   0.216
 2254SOL     OW 7660   2.097   2.821   5.725
 2254SOL    HW1 7661   2.187   2.857   5.749
 2254SOL    HW2 7662   2.099   2.787   5.630
 2255SOL     OW 7663   5.205   2.380   0.498
 2255SOL    HW1 7664   5.191   2.440   0.577
 2255SOL    HW2 7665   5.302   2.366   0.484
 2256SOL     OW 7666   3.962   6.741   1.560
 2256SOL    HW1 7667   3.949   6.838   1.543
 2256SOL    HW2 7668   3.947   6.721   1.657
 2257SOL     OW 7669   0.343   3.038   4.220
 2257SOL    HW1 7670   0.267   3.023   4.157
 2257SOL    HW2 7671   0.392   2.952   4.235
 2258SOL     OW 7672   0.836   5.351   5.356
 2258SOL    HW1 7673   0.799   5.331   5.447
 2258SOL    HW2 7674   0.895   5.276   5.327
 2259SOL     OW 7675   4.639   3.631   6.884
 2259SOL    HW1 7676   4.707   3.574   6.837
 2259SOL    HW2 7677   4.586   3.683   6.817
 2260SOL     OW 7678   5.456   4.575   2.875
 2260SOL    HW1 7679   5.419   4.484   2.892
 2260SOL    HW2 7680   5.517   4.600   2.951
 2261SOL     OW 7681   6.166   6.662   1.211
 2261SOL    HW1 7682   6.173   6.567   1.182
 2261SOL    HW2 7683   6.258   6.701   1.217
 2262SOL     OW 7684   5.802   2.746   2.449
 2262SOL    HW1 7685   5.778   2.759   2.545
 2262SOL    HW2 7686   5.873   2.812   2.424
 2263SOL     OW 7687   2.915   5.660   5.821
 2263SOL    HW1 7688   2.816   5.646   5.826
 2263SOL    HW2 7689   2.935   5.758   5.830
 2264SOL     OW 7690   3.391   3.501   1.709
 2264SOL    HW1 7691   3.390   3.448   1.625
 2264SOL    HW2 7692   3.298   3.504   1.748
 2265SOL     OW 7693   0.320   0.542   4.220
 2265SOL    HW1 7694   0.235   0.501   4.253
 2265SOL    HW2 7695   0.398   0.487   4.252
 2266SOL     OW 7696   6.259   1.562   1.297
 2266SOL    HW1 7697   6.235   1.465   1.293
 2266SOL    HW2 7698   6.231   1.600   1.385
 2267SOL     OW 7699   5.201   2.220   5.339
 2267SOL    HW1 7700   5.300   2.218   5.328
 2267SOL    HW2 7701   5.168   2.130   5.367
 2268SOL     OW 7702   6.338   4.033   6.464
 2268SOL    HW1 7703   6.316   3.936   6.475
 2268SOL    HW2 7704   6.290   4.069   6.384
 2269SOL     OW 7705   5.867   5.769   5.166
 2269SOL    HW1 7706   5.925   5.765   5.248
 2269SOL    HW2 7707   5.853   5.676   5.131
 2270SOL     OW 7708   3.461   3.030   0.140
 2270SOL    HW1 7709   3.376   3.079   0.160
 2270SOL    HW2 7710   3.479   3.032   0.042
 2271SOL     OW 7711   6.024   4.272   0.643
 2271SOL    HW1 7712   5.960   4.316   0.580
 2271SOL    HW2 7713   6.098   4.335   0.665
 2272SOL     OW 7714   5.874   2.061   5.256
 2272SOL    HW1 7715   5.774   2.054   5.254
 2272SOL    HW2 7716   5.914   1.970   5.246
 2273SOL     OW 7717   1.653   0.978   1.593
 2273SOL    HW1 7718   1.691   0.892   1.557
 2273SOL    HW2 7719   1.604   1.026   1.520
 2274SOL     OW 7720   0.990   2.629   6.053
 2274SOL    HW1 7721   0.893   2.610   6.038
 2274SOL    HW2 7722   1.008   2.639   6.151
 2275SOL     OW 7723   5.509   0.467   4.369
 2275SOL    HW1 7724   5.560   0.523   4.434
 2275SOL    HW2 7725   5.423   0.513   4.345
 2276SOL     OW 7726   2.976   5.015   1.452
 2276SOL    HW1 7727   2.887   4.999   1.411
 2276SOL    HW2 7728   3.017   5.098   1.413
 2277SOL     OW 7729   3.322   4.033   4.582
 2277SOL    HW1 7730   3.328   4.034   4.482
 2277SOL    HW2 7731   3.227   4.019   4.609
 2278SOL     OW 7732   5.408   6.528   4.648
 2278SOL    HW1 7733   5.350   6.480   4.583
 2278SOL    HW2 7734   5.366   6.615   4.673
 2279SOL     OW 7735   4.915   5.758   4.678
 2279SOL    HW1 7736   4.885   5.726   4.767
 2279SOL    HW2 7737   5.001   5.714   4.653
 2280SOL     OW 7738   7.013   6.556   4.644
 2280SOL    HW1 7739   6.999   6.595   4.553
 2280SOL    HW2 7740   6.964   6.469   4.650
 2281SOL     OW 7741   3.291   0.999   1.550
 2281SOL    HW1 7742   3.237   0.956   1.623
 2281SOL    HW2 7743   3.331   1.084   1.583
 2282SOL     OW 7744   5.251   0.019   4.732
 2282SOL    HW1 7745   5.337   0.022   4.782
 2282SOL    HW2 7746   5.176   0.000   4.796
 2283SOL     OW 7747   6.933   4.545   1.057
 2283SOL    HW1 7748   7.006   4.490   1.016
 2283SOL    HW2 7749   6.971   4.601   1.131
 2284SOL     OW 7750   2.218   1.654   0.338
 2284SOL    HW1 7751   2.134   1.702   0.312
 2284SOL    HW2 7752   2.201   1.597   0.418
 2285SOL     OW 7753   1.603   2.865   0.367
 2285SOL    HW1 7754   1.658   2.912   0.436
 2285SOL    HW2 7755   1.528   2.925   0.338
 2286SOL     OW 7756   6.857   6.867   4.523
 2286SOL    HW1 7757   6.797   6.811   4.466
 2286SOL    HW2 7758   6.946   6.876   4.479
 2287SOL     OW 7759   2.427   2.789   1.879
 2287SOL    HW1 7760   2.436   2.690   1.873
 2287SOL    HW2 7761   2.474   2.832   1.802
 2288SOL     OW 7762   6.792   4.690   4.698
 2288SOL    HW1 7763   6.797   4.627   4.776
 2288SOL    HW2 7764   6.719   4.756   4.714
 2289SOL     OW 7765   6.492   4.398   2.572
 2289SOL    HW1 7766   6.498   4.498   2.571
 2289SOL    HW2 7767   6.495   4.364   2.478
 2290SOL     OW 7768   2.103   3.654   2.215
 2290SOL    HW1 7769   2.153   3.596   2.151
 2290SOL    HW2 7770   2.025   3.696   2.168
 2291SOL     OW 7771   2.252   2.153   0.333
 2291SOL    HW1 7772   2.267   2.108   0.245
 2291SOL    HW2 7773   2.279   2.092   0.407
 2292SOL     OW 7774   5.423   2.304   3.075
 2292SOL    HW1 7775   5.415   2.289   3.174
 2292SOL    HW2 7776   5.381   2.227   3.027
 2293SOL     OW 7777   6.781   0.093   0.896
 2293SOL    HW1 7778   6.861   0.084   0.956
 2293SOL    HW2 7779   6.700   0.112   0.951
 2294SOL     OW 7780   3.384   1.550   6.250
 2294SOL    HW1 7781   3.452   1.486   6.287
 2294SOL    HW2 7782   3.419   1.590   6.165
 2295SOL     OW 7783   0.585   1.548   2.956
 2295SOL    HW1 7784   0.590   1.575   3.052
 2295SOL    HW2 7785   0.675   1.557   2.914
 2296SOL     OW 7786   3.389   5.338   2.733
 2296SOL    HW1 7787   3.367   5.259   2.675
 2296SOL    HW2 7788   3.324   5.343   2.809
 2297SOL     OW 7789   4.794   4.756   5.640
 2297SOL    HW1 7790   4.788   4.656   5.646
 2297SOL    HW2 7791   4.873   4.787   5.693
 2298SOL     OW 7792   4.134   3.468   2.741
 2298SOL    HW1 7793   4.063   3.403   2.768
 2298SOL    HW2 7794   4.112   3.506   2.651
 2299SOL     OW 7795   4.901   4.300   5.284
 2299SOL    HW1 7796   4.934   4.363   5.354
 2299SOL    HW2 7797   4.937   4.208   5.302
 2300SOL     OW 7798   2.691   6.715   3.369
 2300SOL    HW1 7799   2.656   6.683   3.281
 2300SOL    HW2 7800   2.732   6.638   3.418
 2301SOL     OW 7801   3.821   3.063   3.273
 2301SOL    HW1 7802   3.893   3.059   3.204
 2301SOL    HW2 7803   3.862   3.059   3.364
 2302SOL     OW 7804   3.596   0.506   1.374
 2302SOL    HW1 7805   3.672   0.477   1.432
 2302SOL    HW2 7806   3.585   0.605   1.380
 2303SOL     OW 7807   2.604   3.142   1.145
 2303SOL    HW1 7808   2.530   3.206   1.163
 2303SOL    HW2 7809   2.692   3.185   1.167
 2304SOL     OW 7810   5.852   6.140   4.373
 2304SOL    HW1 7811   5.770   6.174   4.418
 2304SOL    HW2 7812   5.905   6.217   4.337
 2305SOL     OW 7813   2.024   0.292   3.004
 2305SOL    HW1 7814   1.958   0.271   2.932
 2305SOL    HW2 7815   2.071   0.208   3.031
 2306SOL     OW 7816   1.637   5.213   1.577
 2306SOL    HW1 7817   1.667   5.236   1.484
 2306SOL    HW2 7818   1.614   5.297   1.627
 2307SOL     OW 7819   0.405   2.864   5.612
 2307SOL    HW1 7820   0.433   2.818   5.527
 2307SOL    HW2 7821   0.311   2.838   5.634
 2308SOL     OW 7822   2.871   4.599   1.301
 2308SOL    HW1 7823   2.845   4.517   1.251
 2308SOL    HW2 7824   2.967   4.619   1.286
 2309SOL     OW 7825   1.859   0.862   5.165
 2309SOL    HW1 7826   1.834   0.943   5.113
 2309SOL    HW2 7827   1.958   0.864   5.183
 2310SOL     OW 7828   5.835   5.901   1.907
 2310SOL    HW1 7829   5.916   5.881   1.852
 2310SOL    HW2 7830   5.754   5.862   1.863
 2311SOL     OW 7831   2.373   6.555   0.601
 2311SOL    HW1 7832   2.326   6.586   0.684
 2311SOL    HW2 7833   2.430   6.475   0.622
 2312SOL     OW 7834   4.994   5.683   3.294
 2312SOL    HW1 7835   4.977   5.589   3.326
 2312SOL    HW2 7836   5.046   5.680   3.209
 2313SOL     OW 7837   4.815   5.614   2.192
 2313SOL    HW1 7838   4.845   5.707   2.172
 2313SOL    HW2 7839   4.771   5.612   2.282
 2314SOL     OW 7840   4.637   6.243   2.751
 2314SOL    HW1 7841   4.608   6.152   2.721
 2314SOL    HW2 7842   4.733   6.258   2.724
 2315SOL     OW 7843   5.071   3.042   5.918
 2315SOL    HW1 7844   5.002   3.110   5.895
 2315SOL    HW2 7845   5.147   3.086   5.966
 2316SOL     OW 7846   4.504   1.763   3.965
 2316SOL    HW1 7847   4.552   1.746   4.051
 2316SOL    HW2 7848   4.564   1.739   3.888
 2317SOL     OW 7849   0.435   5.640   3.134
 2317SOL    HW1 7850   0.489   5.724   3.123
 2317SOL    HW2 7851   0.368   5.633   3.059
 2318SOL     OW 7852   0.574   2.922   3.473
 2318SOL    HW1 7853   0.541   2.838   3.517
 2318SOL    HW2 7854   0.579   2.995   3.541
 2319SOL     OW 7855   1.245   4.918   4.453
 2319SOL    HW1 7856   1.244   4.838   4.394
 2319SOL    HW2 7857   1.156   4.929   4.497
 2320SOL     OW 7858   0.745   2.446   3.861
 2320SOL    HW1 7859   0.714   2.355   3.890
 2320SOL    HW2 7860   0.676   2.514   3.886
 2321SOL     OW 7861   3.339   0.965   5.330
 2321SOL    HW1 7862   3.296   1.054   5.314
 2321SOL    HW2 7863   3.392   0.968   5.414
 2322SOL     OW 7864   2.353   1.814   5.201
 2322SOL    HW1 7865   2.442   1.821   5.156
 2322SOL    HW2 7866   2.294   1.888   5.170
 2323SOL     OW 7867   3.223   4.888   2.221
 2323SOL    HW1 7868   3.237   4.873   2.319
 2323SOL    HW2 7869   3.135   4.848   2.193
 2324SOL     OW 7870   0.087   6.409   2.990
 2324SOL    HW1 7871   7.021   6.426   2.947
 2324SOL    HW2 7872   0.136   6.339   2.939
 2325SOL     OW 7873   0.481   4.391   1.413
 2325SOL    HW1 7874   0.548   4.317   1.427
 2325SOL    HW2 7875   0.523   4.464   1.360
 2326SOL     OW 7876   3.314   4.089   6.137
 2326SOL    HW1 7877   3.316   4.159   6.208
 2326SOL    HW2 7878   3.361   4.123   6.055
 2327SOL     OW 7879   5.812   2.602   4.506
 2327SOL    HW1 7880   5.729   2.554   4.535
 2327SOL    HW2 7881   5.877   2.604   4.583
 2328SOL     OW 7882   4.641   1.638   3.332
 2328SOL    HW1 7883   4.719   1.693   3.300
 2328SOL    HW2 7884   4.605   1.678   3.416
 2329SOL     OW 7885   1.378   5.267   4.679
 2329SOL    HW1 7886   1.352   5.353   4.722
 2329SOL    HW2 7887   1.407   5.284   4.585
 2330SOL     OW 7888   6.874   4.199   2.724
 2330SOL    HW1 7889   6.780   4.210   2.694
 2330SOL    HW2 7890   6.926   4.281   2.700
 2331SOL     OW 7891   6.310   4.816   6.782
 2331SOL    HW1 7892   6.244   4.890   6.768
 2331SOL    HW2 7893   6.364   4.834   6.865
 2332SOL     OW 7894   4.144   1.775   5.231
 2332SOL    HW1 7895   4.194   1.730   5.157
 2332SOL    HW2 7896   4.066   1.825   5.192
 2333SOL     OW 7897   6.235   4.878   2.902
 2333SOL    HW1 7898   6.330   4.909   2.897
 2333SOL    HW2 7899   6.220   4.832   2.989
 2334SOL     OW 7900   2.850   0.401   0.424
 2334SOL    HW1 7901   2.804   0.422   0.510
 2334SOL    HW2 7902   2.813   0.316   0.386
 2335SOL     OW 7903   6.137   0.863   3.080
 2335SOL    HW1 7904   6.220   0.866   3.025
 2335SOL    HW2 7905   6.146   0.926   3.157
 2336SOL     OW 7906   4.348   1.927   5.484
 2336SOL    HW1 7907   4.346   1.855   5.415
 2336SOL    HW2 7908   4.420   1.907   5.550
 2337SOL     OW 7909   4.826   0.743   3.349
 2337SOL    HW1 7910   4.796   0.761   3.255
 2337SOL    HW2 7911   4.846   0.646   3.359
 2338SOL     OW 7912   0.598   0.150   6.952
 2338SOL    HW1 7913   0.687   0.195   6.940
 2338SOL    HW2 7914   0.582   0.133   0.027
 2339SOL     OW 7915   3.761   3.799   5.146
 2339SOL    HW1 7916   3.830   3.795   5.074
 2339SOL    HW2 7917   3.670   3.787   5.106
 2340SOL     OW 7918   4.659   6.703   5.617
 2340SOL    HW1 7919   4.757   6.686   5.614
 2340SOL    HW2 7920   4.610   6.626   5.575
 2341SOL     OW 7921   5.037   3.668   0.995
 2341SOL    HW1 7922   4.980   3.621   0.928
 2341SOL    HW2 7923   4.991   3.750   1.028
 2342SOL     OW 7924   0.742   5.898   5.787
 2342SOL    HW1 7925   0.813   5.949   5.737
 2342SOL    HW2 7926   0.712   5.820   5.732
 2343SOL     OW 7927   1.984   6.587   1.178
 2343SOL    HW1 7928   1.931   6.560   1.259
 2343SOL    HW2 7929   2.052   6.516   1.159
 2344SOL     OW 7930   1.890   0.993   1.304
 2344SOL    HW1 7931   1.818   0.995   1.234
 2344SOL    HW2 7932   1.862   0.930   1.377
 2345SOL     OW 7933   2.129   6.403   5.359
 2345SOL    HW1 7934   2.213   6.392   5.413
 2345SOL    HW2 7935   2.083   6.315   5.351
 2346SOL     OW 7936   4.874   3.179   4.911
 2346SOL    HW1 7937   4.877   3.261   4.967
 2346SOL    HW2 7938   4.828   3.105   4.961
 2347SOL     OW 7939   1.966   4.069   2.060
 2347SOL    HW1 7940   2.049   4.107   2.102
 2347SOL    HW2 7941   1.973   4.077   1.960
 2348SOL     OW 7942   2.576   6.131   3.518
 2348SOL    HW1 7943   2.628   6.115   3.602
 2348SOL    HW2 7944   2.509   6.058   3.506
 2349SOL     OW 7945   0.598   6.292   0.396
 2349SOL    HW1 7946   0.582   6.237   0.314
 2349SOL    HW2 7947   0.693   6.281   0.426
 2350SOL     OW 7948   4.395   6.945   5.904
 2350SOL    HW1 7949   4.315   6.899   5.942
 2350SOL    HW2 7950   4.393   0.019   5.930
 2351SOL     OW 7951   3.002   5.443   3.431
 2351SOL    HW1 7952   2.945   5.360   3.435
 2351SOL    HW2 7953   2.977   5.504   3.506
 2352SOL     OW 7954   0.442   4.723   2.739
 2352SOL    HW1 7955   0.451   4.796   2.806
 2352SOL    HW2 7956   0.419   4.637   2.785
 2353SOL     OW 7957   2.467   4.452   4.630
 2353SOL    HW1 7958   2.510   4.450   4.720
 2353SOL    HW2 7959   2.421   4.365   4.612
 2354SOL     OW 7960   4.003   2.593   6.530
 2354SOL    HW1 7961   4.025   2.608   6.433
 2354SOL    HW2 7962   3.910   2.557   6.538
 2355SOL     OW 7963   0.806   5.222   0.611
 2355SOL    HW1 7964   0.800   5.275   0.696
 2355SOL    HW2 7965   0.721   5.232   0.560
 2356SOL     OW 7966   1.976   4.147   1.207
 2356SOL    HW1 7967   2.005   4.147   1.302
 2356SOL    HW2 7968   1.900   4.212   1.195
 2357SOL     OW 7969   3.889   4.826   4.010
 2357SOL    HW1 7970   3.929   4.907   3.966
 2357SOL    HW2 7971   3.955   4.750   4.005
 2358SOL     OW 7972   3.405   6.229   4.352
 2358SOL    HW1 7973   3.360   6.310   4.389
 2358SOL    HW2 7974   3.337   6.156   4.340
 2359SOL     OW 7975   1.972   0.913   6.093
 2359SOL    HW1 7976   2.067   0.913   6.062
 2359SOL    HW2 7977   1.968   0.936   6.190
 2360SOL     OW 7978   4.721   5.579   5.934
 2360SOL    HW1 7979   4.737   5.594   5.837
 2360SOL    HW2 7980   4.801   5.608   5.986
 2361SOL     OW 7981   2.684   0.381   4.036
 2361SOL    HW1 7982   2.652   0.306   4.093
 2361SOL    HW2 7983   2.774   0.359   4.000
 2362SOL     OW 7984   4.634   6.881   4.852
 2362SOL    HW1 7985   4.713   6.937   4.827
 2362SOL    HW2 7986   4.592   6.918   4.935
 2363SOL     OW 7987   4.519   2.623   5.288
 2363SOL    HW1 7988   4.549   2.627   5.383
 2363SOL    HW2 7989   4.434   2.674   5.277
 2364SOL     OW 7990   6.102   1.648   1.954
 2364SOL    HW1 7991   6.202   1.656   1.952
 2364SOL    HW2 7992   6.065   1.718   2.016
 2365SOL     OW 7993   5.584   3.885   5.779
 2365SOL    HW1 7994   5.656   3.841   5.832
 2365SOL    HW2 7995   5.510   3.819   5.762
 2366SOL     OW 7996   0.986   4.211   5.368
 2366SOL    HW1 7997   1.000   4.212   5.269
 2366SOL    HW2 7998   1.056   4.153   5.411
 2367SOL     OW 7999   1.522   3.368   6.477
 2367SOL    HW1 8000   1.543   3.452   6.427
 2367SOL    HW2 8001   1.607   3.320   6.499
 2368SOL     OW 8002   4.866   1.055   5.007
 2368SOL    HW1 8003   4.869   1.054   4.907
 2368SOL    HW2 8004   4.775   1.083   5.038
 2369SOL     OW 8005   2.606   2.337   4.032
 2369SOL    HW1 8006   2.524   2.291   4.067
 2369SOL    HW2 8007   2.611   2.325   3.933
 2370SOL     OW 8008   4.357   3.770   6.949
 2370SOL    HW1 8009   4.372   3.789   6.852
 2370SOL    HW2 8010   4.354   3.671   6.964
 2371SOL     OW 8011   1.908   5.852   1.945
 2371SOL    HW1 8012   1.878   5.905   1.866
 2371SOL    HW2 8013   1.843   5.865   2.020
 2372SOL     OW 8014   0.873   1.706   0.051
 2372SOL    HW1 8015   0.973   1.705   0.062
 2372SOL    HW2 8016   0.835   1.626   0.098
 2373SOL     OW 8017   6.358   1.024   6.713
 2373SOL    HW1 8018   6.441   0.976   6.684
 2373SOL    HW2 8019   6.376   1.073   6.798
 2374SOL     OW 8020   6.365   5.613   3.728
 2374SOL    HW1 8021   6.337   5.614   3.824
 2374SOL    HW2 8022   6.391   5.705   3.699
 2375SOL     OW 8023   0.792   0.183   4.780
 2375SOL    HW1 8024   0.756   0.101   4.824
 2375SOL    HW2 8025   0.795   0.258   4.846
 2376SOL     OW 8026   6.124   2.705   3.475
 2376SOL    HW1 8027   6.034   2.745   3.458
 2376SOL    HW2 8028   6.158   2.663   3.390
 2377SOL     OW 8029   3.437   3.655   4.514
 2377SOL    HW1 8030   3.347   3.644   4.472
 2377SOL    HW2 8031   3.508   3.636   4.445
 2378SOL     OW 8032   5.543   1.812   0.367
 2378SOL    HW1 8033   5.599   1.806   0.450
 2378SOL    HW2 8034   5.602   1.815   0.287
 2379SOL     OW 8035   6.650   3.026   6.976
 2379SOL    HW1 8036   6.721   3.095   6.983
 2379SOL    HW2 8037   6.602   3.037   6.889
 2380SOL     OW 8038   6.703   0.828   5.362
 2380SOL    HW1 8039   6.802   0.840   5.371
 2380SOL    HW2 8040   6.673   0.756   5.424
 2381SOL     OW 8041   1.468   4.477   4.852
 2381SOL    HW1 8042   1.376   4.499   4.885
 2381SOL    HW2 8043   1.526   4.451   4.930
 2382SOL     OW 8044   2.032   5.498   2.710
 2382SOL    HW1 8045   2.078   5.465   2.627
 2382SOL    HW2 8046   1.968   5.428   2.741
 2383SOL     OW 8047   5.405   6.383   6.500
 2383SOL    HW1 8048   5.307   6.363   6.503
 2383SOL    HW2 8049   5.448   6.351   6.584
 2384SOL     OW 8050   0.938   1.634   1.709
 2384SOL    HW1 8051   0.939   1.724   1.665
 2384SOL    HW2 8052   1.021   1.621   1.762
 2385SOL     OW 8053   0.285   0.599   0.931
 2385SOL    HW1 8054   0.294   0.674   0.996
 2385SOL    HW2 8055   0.350   0.527   0.955
 2386SOL     OW 8056   3.189   5.671   4.434
 2386SOL    HW1 8057   3.115   5.670   4.367
 2386SOL    HW2 8058   3.261   5.733   4.404
 2387SOL     OW 8059   6.671   2.962   4.321
 2387SOL    HW1 8060   6.589   3.018   4.310
 2387SOL    HW2 8061   6.649   2.880   4.373
 2388SOL     OW 8062   1.177   1.506   5.382
 2388SOL    HW1 8063   1.147   1.488   5.476
 2388SOL    HW2 8064   1.096   1.517   5.324
 2389SOL     OW 8065   4.398   4.620   3.950
 2389SOL    HW1 8066   4.434   4.613   3.857
 2389SOL    HW2 8067   4.473   4.610   4.016
 2390SOL     OW 8068   3.697   3.674   4.873
 2390SOL    HW1 8069   3.645   3.735   4.813
 2390SOL    HW2 8070   3.791   3.708   4.882
 2391SOL     OW 8071   3.619   4.364   6.360
 2391SOL    HW1 8072   3.594   4.275   6.397
 2391SOL    HW2 8073   3.562   4.435   6.401
 2392SOL     OW 8074   3.312   4.698   6.613
 2392SOL    HW1 8075   3.259   4.637   6.672
 2392SOL    HW2 8076   3.253   4.772   6.579
 2393SOL     OW 8077   3.794   5.505   1.228
 2393SOL    HW1 8078   3.761   5.446   1.155
 2393SOL    HW2 8079   3.792   5.455   1.315
 2394SOL     OW 8080   0.893   3.777   4.769
 2394SOL    HW1 8081   0.857   3.708   4.831
 2394SOL    HW2 8082   0.883   3.746   4.675
 2395SOL     OW 8083   6.959   2.727   6.617
 2395SOL    HW1 8084   6.962   2.723   6.717
 2395SOL    HW2 8085   0.021   2.689   6.580
 2396SOL     OW 8086   6.029   6.076   0.537
 2396SOL    HW1 8087   5.945   6.131   0.541
 2396SOL    HW2 8088   6.076   6.080   0.625
 2397SOL     OW 8089   6.737   4.950   0.259
 2397SOL    HW1 8090   6.662   4.958   0.325
 2397SOL    HW2 8091   6.711   4.886   0.187
 2398SOL     OW 8092   2.660   4.711   4.782
 2398SOL    HW1 8093   2.616   4.796   4.811
 2398SOL    HW2 8094   2.728   4.684   4.849
 2399SOL     OW 8095   4.361   1.465   3.225
 2399SOL    HW1 8096   4.326   1.379   3.187
 2399SOL    HW2 8097   4.416   1.446   3.306
 2400SOL     OW 8098   2.695   3.770   0.765
 2400SOL    HW1 8099   2.718   3.673   0.765
 2400SOL    HW2 8100   2.767   3.821   0.718
 2401SOL     OW 8101   3.186   0.387   4.919
 2401SOL    HW1 8102   3.279   0.425   4.921
 2401SOL    HW2 8103   3.125   0.448   4.968
 2402SOL     OW 8104   0.026   1.739   3.776
 2402SOL    HW1 8105   6.981   1.698   3.715
 2402SOL    HW2 8106   7.015   1.736   3.870
 2403SOL     OW 8107   3.608   3.119   0.695
 2403SOL    HW1 8108   3.568   3.067   0.771
 2403SOL    HW2 8109   3.577   3.214   0.701
 2404SOL     OW 8110   5.500   1.775   1.645
 2404SOL    HW1 8111   5.519   1.873   1.643
 2404SOL    HW2 8112   5.513   1.741   1.738
 2405SOL     OW 8113   3.654   4.058   5.249
 2405SOL    HW1 8114   3.680   3.961   5.255
 2405SOL    HW2 8115   3.569   4.066   5.197
 2406SOL     OW 8116   2.233   0.746   3.072
 2406SOL    HW1 8117   2.276   0.834   3.049
 2406SOL    HW2 8118   2.300   0.673   3.066
 2407SOL     OW 8119   4.584   2.439   2.667
 2407SOL    HW1 8120   4.562   2.470   2.759
 2407SOL    HW2 8121   4.604   2.518   2.609
 2408SOL     OW 8122   3.479   4.995   3.332
 2408SOL    HW1 8123   3.513   5.021   3.423
 2408SOL    HW2 8124   3.556   4.967   3.275
 2409SOL     OW 8125   1.793   2.541   1.640
 2409SOL    HW1 8126   1.824   2.636   1.639
 2409SOL    HW2 8127   1.782   2.510   1.545
 2410SOL     OW 8128   6.753   3.267   5.320
 2410SOL    HW1 8129   6.828   3.236   5.261
 2410SOL    HW2 8130   6.755   3.366   5.327
 2411SOL     OW 8131   3.230   4.036   5.776
 2411SOL    HW1 8132   3.138   4.073   5.769
 2411SOL    HW2 8133   3.295   4.110   5.796
 2412SOL     OW 8134   2.743   3.411   0.508
 2412SOL    HW1 8135   2.686   3.361   0.444
 2412SOL    HW2 8136   2.837   3.413   0.475
 2413SOL     OW 8137   6.102   3.630   6.662
 2413SOL    HW1 8138   6.100   3.618   6.761
 2413SOL    HW2 8139   6.084   3.543   6.617
 2414SOL     OW 8140   5.778   3.842   2.836
 2414SOL    HW1 8141   5.831   3.777   2.891
 2414SOL    HW2 8142   5.680   3.823   2.848
 2415SOL     OW 8143   2.126   0.499   1.654
 2415SOL    HW1 8144   2.129   0.473   1.751
 2415SOL    HW2 8145   2.139   0.418   1.597
 2416SOL     OW 8146   1.307   1.454   4.712
 2416SOL    HW1 8147   1.211   1.432   4.697
 2416SOL    HW2 8148   1.346   1.390   4.778
 2417SOL     OW 8149   5.478   2.069   0.646
 2417SOL    HW1 8150   5.380   2.088   0.651
 2417SOL    HW2 8151   5.494   1.986   0.593
 2418SOL     OW 8152   3.483   3.763   5.145
 2418SOL    HW1 8153   3.388   3.792   5.155
 2418SOL    HW2 8154   3.493   3.670   5.179
 2419SOL     OW 8155   0.963   6.955   5.262
 2419SOL    HW1 8156   0.941   6.883   5.326
 2419SOL    HW2 8157   1.023   0.000   5.306
 2420SOL     OW 8158   3.693   6.937   2.315
 2420SOL    HW1 8159   3.786   6.922   2.350
 2420SOL    HW2 8160   3.638   6.984   2.384
 2421SOL     OW 8161   2.968   0.283   4.591
 2421SOL    HW1 8162   2.888   0.281   4.531
 2421SOL    HW2 8163   3.045   0.326   4.544
 2422SOL     OW 8164   4.854   0.816   0.761
 2422SOL    HW1 8165   4.818   0.723   0.760
 2422SOL    HW2 8166   4.937   0.819   0.816
 2423SOL     OW 8167   1.963   5.753   2.246
 2423SOL    HW1 8168   1.973   5.760   2.345
 2423SOL    HW2 8169   2.003   5.667   2.214
 2424SOL     OW 8170   5.477   6.048   6.616
 2424SOL    HW1 8171   5.481   6.089   6.707
 2424SOL    HW2 8172   5.383   6.051   6.581
 2425SOL     OW 8173   6.195   6.285   5.077
 2425SOL    HW1 8174   6.284   6.244   5.059
 2425SOL    HW2 8175   6.145   6.229   5.143
 2426SOL     OW 8176   1.032   6.054   4.694
 2426SOL    HW1 8177   0.994   6.046   4.602
 2426SOL    HW2 8178   0.959   6.050   4.761
 2427SOL     OW 8179   5.613   5.435   6.709
 2427SOL    HW1 8180   5.669   5.500   6.658
 2427SOL    HW2 8181   5.671   5.366   6.751
 2428SOL     OW 8182   0.379   0.589   3.303
 2428SOL    HW1 8183   0.427   0.528   3.366
 2428SOL    HW2 8184   0.295   0.621   3.347
 2429SOL     OW 8185   5.916   5.255   3.008
 2429SOL    HW1 8186   5.900   5.177   3.068
 2429SOL    HW2 8187   5.918   5.339   3.063
 2430SOL     OW 8188   5.343   2.626   0.836
 2430SOL    HW1 8189   5.325   2.622   0.738
 2430SOL    HW2 8190   5.377   2.717   0.860
 2431SOL     OW 8191   4.450   0.964   1.456
 2431SOL    HW1 8192   4.507   0.988   1.377
 2431SOL    HW2 8193   4.475   0.872   1.488
 2432SOL     OW 8194   3.679   6.762   2.630
 2432SOL    HW1 8195   3.609   6.831   2.648
 2432SOL    HW2 8196   3.638   6.671   2.634
 2433SOL     OW 8197   2.543   6.689   6.940
 2433SOL    HW1 8198   2.547   6.595   6.975
 2433SOL    HW2 8199   2.565   6.690   6.843
 2434SOL     OW 8200   5.390   1.783   3.428
 2434SOL    HW1 8201   5.368   1.815   3.520
 2434SOL    HW2 8202   5.418   1.687   3.433
 2435SOL     OW 8203   5.081   4.851   0.563
 2435SOL    HW1 8204   5.083   4.949   0.542
 2435SOL    HW2 8205   4.997   4.811   0.527
 2436SOL     OW 8206   1.695   6.794   1.215
 2436SOL    HW1 8207   1.662   6.814   1.123
 2436SOL    HW2 8208   1.639   6.723   1.257
 2437SOL     OW 8209   5.239   5.600   1.104
 2437SOL    HW1 8210   5.210   5.647   1.187
 2437SOL    HW2 8211   5.333   5.568   1.114
 2438SOL     OW 8212   4.124   0.968   4.619
 2438SOL    HW1 8213   4.215   1.006   4.635
 2438SOL    HW2 8214   4.056   1.042   4.620
 2439SOL     OW 8215   1.189   4.002   0.386
 2439SOL    HW1 8216   1.211   3.905   0.380
 2439SOL    HW2 8217   1.152   4.033   0.298
 2440SOL     OW 8218   4.189   6.602   5.354
 2440SOL    HW1 8219   4.210   6.508   5.327
 2440SOL    HW2 8220   4.183   6.607   5.454
 2441SOL     OW 8221   5.783   0.486   0.226
 2441SOL    HW1 8222   5.848   0.412   0.241
 2441SOL    HW2 8223   5.700   0.470   0.280
 2442SOL     OW 8224   5.742   5.528   2.765
 2442SOL    HW1 8225   5.760   5.539   2.667
 2442SOL    HW2 8226   5.740   5.619   2.808
 2443SOL     OW 8227   2.973   0.508   6.273
 2443SOL    HW1 8228   3.007   0.457   6.194
 2443SOL    HW2 8229   2.909   0.578   6.242
 2444SOL     OW 8230   3.501   3.842   0.109
 2444SOL    HW1 8231   3.414   3.855   0.061
 2444SOL    HW2 8232   3.577   3.854   0.044
 2445SOL     OW 8233   6.846   1.528   2.220
 2445SOL    HW1 8234   6.840   1.562   2.126
 2445SOL    HW2 8235   6.829   1.430   2.222
 2446SOL     OW 8236   0.837   2.798   4.504
 2446SOL    HW1 8237   0.795   2.753   4.583
 2446SOL    HW2 8238   0.782   2.778   4.422
 2447SOL     OW 8239   2.470   1.329   1.197
 2447SOL    HW1 8240   2.465   1.307   1.099
 2447SOL    HW2 8241   2.536   1.403   1.211
 2448SOL     OW 8242   6.625   1.205   4.386
 2448SOL    HW1 8243   6.617   1.188   4.287
 2448SOL    HW2 8244   6.714   1.246   4.406
 2449SOL     OW 8245   0.496   3.850   2.799
 2449SOL    HW1 8246   0.498   3.875   2.896
 2449SOL    HW2 8247   0.458   3.758   2.789
 2450SOL     OW 8248   3.213   5.191   6.189
 2450SOL    HW1 8249   3.117   5.218   6.193
 2450SOL    HW2 8250   3.263   5.232   6.265
 2451SOL     OW 8251   1.265   0.100   3.760
 2451SOL    HW1 8252   1.183   0.093   3.817
 2451SOL    HW2 8253   1.318   0.180   3.787
 2452SOL     OW 8254   3.474   1.747   4.003
 2452SOL    HW1 8255   3.529   1.822   3.967
 2452SOL    HW2 8256   3.423   1.705   3.928
 2453SOL     OW 8257   6.904   3.435   0.633
 2453SOL    HW1 8258   6.896   3.425   0.534
 2453SOL    HW2 8259   6.813   3.454   0.672
 2454SOL     OW 8260   3.291   0.772   6.441
 2454SOL    HW1 8261   3.302   0.802   6.536
 2454SOL    HW2 8262   3.336   0.838   6.381
 2455SOL     OW 8263   4.291   0.582   0.441
 2455SOL    HW1 8264   4.226   0.511   0.411
 2455SOL    HW2 8265   4.360   0.596   0.371
 2456SOL     OW 8266   6.102   2.454   0.193
 2456SOL    HW1 8267   6.114   2.510   0.275
 2456SOL    HW2 8268   6.192   2.421   0.162
 2457SOL     OW 8269   6.156   0.296   6.727
 2457SOL    HW1 8270   6.186   0.373   6.671
 2457SOL    HW2 8271   6.163   0.322   6.824
 2458SOL     OW 8272   1.799   6.313   4.199
 2458SOL    HW1 8273   1.852   6.394   4.224
 2458SOL    HW2 8274   1.715   6.341   4.153
 2459SOL     OW 8275   2.710   5.979   5.896
 2459SOL    HW1 8276   2.810   5.975   5.893
 2459SOL    HW2 8277   2.677   6.045   5.828
 2460SOL     OW 8278   1.666   1.309   1.436
 2460SOL    HW1 8279   1.709   1.356   1.359
 2460SOL    HW2 8280   1.712   1.335   1.521
 2461SOL     OW 8281   4.945   0.586   3.100
 2461SOL    HW1 8282   4.936   0.616   3.005
 2461SOL    HW2 8283   4.856   0.559   3.135
 2462SOL     OW 8284   1.784   5.367   6.838
 2462SOL    HW1 8285   1.749   5.418   6.759
 2462SOL    HW2 8286   1.835   5.429   6.898
 2463SOL     OW 8287   6.076   2.020   6.209
 2463SOL    HW1 8288   6.141   2.023   6.133
 2463SOL    HW2 8289   6.086   1.934   6.259
 2464SOL     OW 8290   2.245   4.058   2.655
 2464SOL    HW1 8291   2.279   4.080   2.746
 2464SOL    HW2 8292   2.243   3.958   2.643
 2465SOL     OW 8293   0.941   0.294   0.454
 2465SOL    HW1 8294   0.889   0.255   0.377
 2465SOL    HW2 8295   0.991   0.374   0.422
 2466SOL     OW 8296   2.608   1.739   3.107
 2466SOL    HW1 8297   2.632   1.737   3.010
 2466SOL    HW2 8298   2.688   1.716   3.163
 2467SOL     OW 8299   4.882   1.344   5.132
 2467SOL    HW1 8300   4.906   1.441   5.122
 2467SOL    HW2 8301   4.934   1.305   5.207
 2468SOL     OW 8302   4.331   6.360   1.423
 2468SOL    HW1 8303   4.283   6.402   1.346
 2468SOL    HW2 8304   4.276   6.370   1.506
 2469SOL     OW 8305   4.497   3.956   5.624
 2469SOL    HW1 8306   4.528   3.961   5.529
 2469SOL    HW2 8307   4.430   4.029   5.641
 2470SOL     OW 8308   4.498   4.504   6.258
 2470SOL    HW1 8309   4.472   4.495   6.162
 2470SOL    HW2 8310   4.475   4.420   6.308
 2471SOL     OW 8311   2.571   6.009   0.565
 2471SOL    HW1 8312   2.663   5.979   0.539
 2471SOL    HW2 8313   2.505   5.974   0.498
 2472SOL     OW 8314   4.571   2.516   3.909
 2472SOL    HW1 8315   4.495   2.494   3.969
 2472SOL    HW2 8316   4.631   2.436   3.899
 2473SOL     OW 8317   1.867   3.859   5.017
 2473SOL    HW1 8318   1.920   3.795   5.073
 2473SOL    HW2 8319   1.899   3.952   5.035
 2474SOL     OW 8320   0.534   5.442   1.044
 2474SOL    HW1 8321   0.590   5.362   1.019
 2474SOL    HW2 8322   0.483   5.422   1.127
 2475SOL     OW 8323   4.225   0.831   3.048
 2475SOL    HW1 8324   4.319   0.862   3.029
 2475SOL    HW2 8325   4.224   0.732   3.060
 2476SOL     OW 8326   7.006   1.641   2.883
 2476SOL    HW1 8327   6.994   1.674   2.789
 2476SOL    HW2 8328   0.058   1.693   2.926
 2477SOL     OW 8329   4.576   1.390   2.105
 2477SOL    HW1 8330   4.512   1.375   2.180
 2477SOL    HW2 8331   4.526   1.422   2.024
 2478SOL     OW 8332   6.209   1.147   2.017
 2478SOL    HW1 8333   6.284   1.164   1.954
 2478SOL    HW2 8334   6.122   1.154   1.968
 2479SOL     OW 8335   1.215   3.755   1.342
 2479SOL    HW1 8336   1.217   3.682   1.274
 2479SOL    HW2 8337   1.308   3.769   1.378
 2480SOL     OW 8338   4.757   4.224   0.832
 2480SOL    HW1 8339   4.695   4.292   0.793
 2480SOL    HW2 8340   4.709   4.172   0.903
 2481SOL     OW 8341   2.342   0.343   0.678
 2481SOL    HW1 8342   2.291   0.320   0.595
 2481SOL    HW2 8343   2.307   0.429   0.716
 2482SOL     OW 8344   4.926   3.258   6.034
 2482SOL    HW1 8345   4.993   3.275   6.106
 2482SOL    HW2 8346   4.844   3.312   6.052
 2483SOL     OW 8347   2.185   1.498   0.573
 2483SOL    HW1 8348   2.091   1.484   0.606
 2483SOL    HW2 8349   2.235   1.411   0.577
 2484SOL     OW 8350   3.628   0.722   0.070
 2484SOL    HW1 8351   3.667   0.685   0.155
 2484SOL    HW2 8352   3.623   0.649   0.001
 2485SOL     OW 8353   6.363   3.830   1.386
 2485SOL    HW1 8354   6.445   3.859   1.337
 2485SOL    HW2 8355   6.364   3.867   1.478
 2486SOL     OW 8356   1.904   4.809   4.697
 2486SOL    HW1 8357   1.812   4.813   4.658
 2486SOL    HW2 8358   1.965   4.870   4.646
 2487SOL     OW 8359   3.980   5.759   0.356
 2487SOL    HW1 8360   3.881   5.747   0.364
 2487SOL    HW2 8361   4.027   5.689   0.409
 2488SOL     OW 8362   2.117   4.509   2.789
 2488SOL    HW1 8363   2.191   4.520   2.856
 2488SOL    HW2 8364   2.055   4.587   2.795
 2489SOL     OW 8365   1.231   5.431   2.486
 2489SOL    HW1 8366   1.321   5.424   2.442
 2489SOL    HW2 8367   1.160   5.433   2.416
 2490SOL     OW 8368   6.632   4.853   1.609
 2490SOL    HW1 8369   6.582   4.864   1.696
 2490SOL    HW2 8370   6.667   4.759   1.603
 2491SOL     OW 8371   2.622   5.451   1.041
 2491SOL    HW1 8372   2.631   5.489   0.949
 2491SOL    HW2 8373   2.610   5.525   1.107
 2492SOL     OW 8374   4.477   2.292   1.465
 2492SOL    HW1 8375   4.535   2.306   1.545
 2492SOL    HW2 8376   4.494   2.201   1.428
 2493SOL     OW 8377   5.697   1.023   1.858
 2493SOL    HW1 8378   5.688   1.055   1.953
 2493SOL    HW2 8379   5.786   0.978   1.847
 2494SOL     OW 8380   6.001   3.540   2.172
 2494SOL    HW1 8381   5.943   3.576   2.245
 2494SOL    HW2 8382   5.962   3.453   2.140
 2495SOL     OW 8383   5.538   0.357   4.121
 2495SOL    HW1 8384   5.506   0.266   4.145
 2495SOL    HW2 8385   5.552   0.411   4.204
 2496SOL     OW 8386   6.802   3.416   5.707
 2496SOL    HW1 8387   6.773   3.419   5.802
 2496SOL    HW2 8388   6.848   3.502   5.684
 2497SOL     OW 8389   0.737   0.623   0.673
 2497SOL    HW1 8390   0.729   0.600   0.575
 2497SOL    HW2 8391   0.695   0.550   0.727
 2498SOL     OW 8392   2.916   1.132   4.234
 2498SOL    HW1 8393   2.923   1.182   4.320
 2498SOL    HW2 8394   2.888   1.194   4.161
 2499SOL     OW 8395   6.060   2.204   3.026
 2499SOL    HW1 8396   6.054   2.238   2.932
 2499SOL    HW2 8397   6.156   2.194   3.052
 2500SOL     OW 8398   4.919   3.066   0.291
 2500SOL    HW1 8399   4.982   3.082   0.367
 2500SOL    HW2 8400   4.880   2.975   0.299
 2501SOL     OW 8401   5.489   5.660   6.872
 2501SOL    HW1 8402   5.430   5.660   6.953
 2501SOL    HW2 8403   5.524   5.568   6.856
 2502SOL     OW 8404   1.484   5.562   3.579
 2502SOL    HW1 8405   1.388   5.537   3.596
 2502SOL    HW2 8406   1.492   5.662   3.576
 2503SOL     OW 8407   3.110   5.605   4.051
 2503SOL    HW1 8408   3.029   5.612   4.109
 2503SOL    HW2 8409   3.119   5.511   4.017
 2504SOL     OW 8410   3.883   5.279   4.864
 2504SOL    HW1 8411   3.890   5.318   4.772
 2504SOL    HW2 8412   3.789   5.286   4.897
 2505SOL     OW 8413   1.549   6.144   3.542
 2505SOL    HW1 8414   1.606   6.140   3.460
 2505SOL    HW2 8415   1.503   6.056   3.555
 2506SOL     OW 8416   6.943   4.003   5.373
 2506SOL    HW1 8417   6.867   4.017   5.436
 2506SOL    HW2 8418   7.001   3.928   5.406
 2507SOL     OW 8419   0.908   4.322   0.990
 2507SOL    HW1 8420   0.874   4.227   0.991
 2507SOL    HW2 8421   0.998   4.324   0.947
 2508SOL     OW 8422   2.055   1.703   2.379
 2508SOL    HW1 8423   2.009   1.707   2.290
 2508SOL    HW2 8424   2.145   1.746   2.372
 2509SOL     OW 8425   0.011   2.660   1.697
 2509SOL    HW1 8426   6.970   2.632   1.769
 2509SOL    HW2 8427   6.988   2.652   1.608
 2510SOL     OW 8428   3.207   4.608   1.322
 2510SOL    HW1 8429   3.176   4.539   1.387
 2510SOL    HW2 8430   3.300   4.588   1.294
 2511SOL     OW 8431   2.716   1.835   3.829
 2511SOL    HW1 8432   2.801   1.793   3.797
 2511SOL    HW2 8433   2.713   1.833   3.928
 2512SOL     OW 8434   5.147   4.466   5.026
 2512SOL    HW1 8435   5.079   4.482   5.097
 2512SOL    HW2 8436   5.149   4.368   5.004
 2513SOL     OW 8437   1.004   3.985   4.901
 2513SOL    HW1 8438   1.011   3.900   4.849
 2513SOL    HW2 8439   1.074   3.987   4.972
 2514SOL     OW 8440   6.452   3.610   4.448
 2514SOL    HW1 8441   6.456   3.658   4.536
 2514SOL    HW2 8442   6.439   3.676   4.374
 2515SOL     OW 8443   1.431   6.386   0.579
 2515SOL    HW1 8444   1.465   6.470   0.537
 2515SOL    HW2 8445   1.387   6.330   0.509
 2516SOL     OW 8446   6.352   1.040   3.033
 2516SOL    HW1 8447   6.322   1.102   2.961
 2516SOL    HW2 8448   6.417   1.086   3.093
 2517SOL     OW 8449   1.074   5.416   6.124
 2517SOL    HW1 8450   1.015   5.442   6.201
 2517SOL    HW2 8451   1.074   5.490   6.057
 2518SOL     OW 8452   1.388   4.268   6.996
 2518SOL    HW1 8453   1.398   4.331   0.051
 2518SOL    HW2 8454   1.430   4.180   7.019
 2519SOL     OW 8455   5.333   6.670   3.611
 2519SOL    HW1 8456   5.359   6.705   3.701
 2519SOL    HW2 8457   5.266   6.732   3.570
 2520SOL     OW 8458   2.324   2.037   6.732
 2520SOL    HW1 8459   2.336   1.966   6.801
 2520SOL    HW2 8460   2.233   2.030   6.693
 2521SOL     OW 8461   0.991   0.213   4.990
 2521SOL    HW1 8462   0.969   0.116   4.976
 2521SOL    HW2 8463   1.090   0.226   4.986
 2522SOL     OW 8464   0.756   3.098   5.568
 2522SOL    HW1 8465   0.750   3.190   5.527
 2522SOL    HW2 8466   0.817   3.100   5.646
 2523SOL     OW 8467   0.533   2.809   2.151
 2523SOL    HW1 8468   0.633   2.810   2.149
 2523SOL    HW2 8469   0.497   2.835   2.061
 2524SOL     OW 8470   1.202   6.096   5.625
 2524SOL    HW1 8471   1.175   6.000   5.631
 2524SOL    HW2 8472   1.142   6.151   5.683
 2525SOL     OW 8473   1.096   2.374   4.676
 2525SOL    HW1 8474   1.047   2.309   4.618
 2525SOL    HW2 8475   1.072   2.468   4.649
 2526SOL     OW 8476   1.473   4.004   5.598
 2526SOL    HW1 8477   1.499   3.916   5.639
 2526SOL    HW2 8478   1.543   4.073   5.620
 2527SOL     OW 8479   5.621   5.530   4.727
 2527SOL    HW1 8480   5.618   5.615   4.674
 2527SOL    HW2 8481   5.603   5.549   4.823
 2528SOL     OW 8482   5.379   4.940   1.131
 2528SOL    HW1 8483   5.417   4.870   1.071
 2528SOL    HW2 8484   5.447   4.964   1.201
 2529SOL     OW 8485   6.611   6.770   6.313
 2529SOL    HW1 8486   6.618   6.752   6.411
 2529SOL    HW2 8487   6.670   6.846   6.288
 2530SOL     OW 8488   2.312   0.299   4.703
 2530SOL    HW1 8489   2.235   0.245   4.736
 2530SOL    HW2 8490   2.281   0.361   4.630
 2531SOL     OW 8491   5.137   5.931   4.460
 2531SOL    HW1 8492   5.172   5.847   4.420
 2531SOL    HW2 8493   5.207   6.002   4.455
 2532SOL     OW 8494   1.046   6.725   0.751
 2532SOL    HW1 8495   1.121   6.713   0.816
 2532SOL    HW2 8496   1.003   6.636   0.733
 2533SOL     OW 8497   2.925   0.296   2.896
 2533SOL    HW1 8498   3.020   0.302   2.866
 2533SOL    HW2 8499   2.881   0.218   2.852
 2534SOL     OW 8500   3.363   1.313   3.040
 2534SOL    HW1 8501   3.404   1.222   3.040
 2534SOL    HW2 8502   3.293   1.318   3.112
 2535SOL     OW 8503   3.305   2.088   6.118
 2535SOL    HW1 8504   3.215   2.045   6.107
 2535SOL    HW2 8505   3.319   2.111   6.214
 2536SOL     OW 8506   0.391   2.093   4.668
 2536SOL    HW1 8507   0.292   2.093   4.683
 2536SOL    HW2 8508   0.411   2.102   4.571
 2537SOL     OW 8509   3.866   0.127   6.327
 2537SOL    HW1 8510   3.918   0.066   6.387
 2537SOL    HW2 8511   3.929   0.182   6.272
 2538SOL     OW 8512   1.235   5.064   5.124
 2538SOL    HW1 8513   1.235   5.132   5.050
 2538SOL    HW2 8514   1.280   4.981   5.092
 2539SOL     OW 8515   4.985   0.855   5.582
 2539SOL    HW1 8516   5.083   0.868   5.565
 2539SOL    HW2 8517   4.933   0.887   5.502
 2540SOL     OW 8518   4.243   1.092   2.291
 2540SOL    HW1 8519   4.258   1.191   2.288
 2540SOL    HW2 8520   4.147   1.072   2.273
 2541SOL     OW 8521   1.868   6.652   5.192
 2541SOL    HW1 8522   1.934   6.652   5.268
 2541SOL    HW2 8523   1.784   6.607   5.221
 2542SOL     OW 8524   4.855   0.902   5.838
 2542SOL    HW1 8525   4.847   0.814   5.886
 2542SOL    HW2 8526   4.896   0.887   5.748
 2543SOL     OW 8527   1.720   1.638   3.021
 2543SOL    HW1 8528   1.807   1.591   3.028
 2543SOL    HW2 8529   1.678   1.618   2.932
 2544SOL     OW 8530   0.381   5.735   1.159
 2544SOL    HW1 8531   0.340   5.680   1.087
 2544SOL    HW2 8532   0.357   5.831   1.146
 2545SOL     OW 8533   1.911   0.650   1.759
 2545SOL    HW1 8534   1.963   0.731   1.784
 2545SOL    HW2 8535   1.972   0.582   1.719
 2546SOL     OW 8536   0.592   2.107   1.527
 2546SOL    HW1 8537   0.611   2.121   1.624
 2546SOL    HW2 8538   0.496   2.131   1.508
 2547SOL     OW 8539   6.003   3.466   0.215
 2547SOL    HW1 8540   6.027   3.409   0.293
 2547SOL    HW2 8541   6.074   3.535   0.201
 2548SOL     OW 8542   2.389   6.692   5.612
 2548SOL    HW1 8543   2.307   6.647   5.648
 2548SOL    HW2 8544   2.446   6.724   5.687
 2549SOL     OW 8545   1.619   0.363   1.275
 2549SOL    HW1 8546   1.572   0.315   1.349
 2549SOL    HW2 8547   1.598   0.461   1.279
 2550SOL     OW 8548   6.656   0.480   5.834
 2550SOL    HW1 8549   6.663   0.512   5.740
 2550SOL    HW2 8550   6.573   0.518   5.876
 2551SOL     OW 8551   3.785   5.104   0.583
 2551SOL    HW1 8552   3.862   5.147   0.535
 2551SOL    HW2 8553   3.820   5.034   0.645
 2552SOL     OW 8554   2.023   5.588   6.366
 2552SOL    HW1 8555   2.100   5.593   6.430
 2552SOL    HW2 8556   1.980   5.678   6.358
 2553SOL     OW 8557   4.342   3.328   6.668
 2553SOL    HW1 8558   4.297   3.282   6.591
 2553SOL    HW2 8559   4.309   3.290   6.754
 2554SOL     OW 8560   1.811   6.290   7.018
 2554SOL    HW1 8561   1.753   6.315   6.940
 2554SOL    HW2 8562   1.907   6.309   6.994
 2555SOL     OW 8563   6.184   6.758   6.922
 2555SOL    HW1 8564   6.089   6.747   6.952
 2555SOL    HW2 8565   6.241   6.689   6.965
 2556SOL     OW 8566   4.644   5.184   0.035
 2556SOL    HW1 8567   4.626   5.093   7.019
 2556SOL    HW2 8568   4.563   5.215   0.086
 2557SOL     OW 8569   2.661   2.857   6.266
 2557SOL    HW1 8570   2.672   2.948   6.305
 2557SOL    HW2 8571   2.681   2.861   6.168
 2558SOL     OW 8572   4.587   3.262   5.893
 2558SOL    HW1 8573   4.494   3.269   5.928
 2558SOL    HW2 8574   4.648   3.320   5.948
 2559SOL     OW 8575   6.035   3.817   3.887
 2559SOL    HW1 8576   6.075   3.729   3.862
 2559SOL    HW2 8577   6.077   3.889   3.831
 2560SOL     OW 8578   5.507   3.396   3.882
 2560SOL    HW1 8579   5.410   3.382   3.863
 2560SOL    HW2 8580   5.531   3.356   3.970
 2561SOL     OW 8581   2.423   0.310   4.329
 2561SOL    HW1 8582   2.506   0.263   4.298
 2561SOL    HW2 8583   2.353   0.305   4.257
 2562SOL     OW 8584   1.372   5.651   2.312
 2562SOL    HW1 8585   1.468   5.678   2.310
 2562SOL    HW2 8586   1.317   5.724   2.352
 2563SOL     OW 8587   3.860   2.295   0.159
 2563SOL    HW1 8588   3.890   2.320   0.251
 2563SOL    HW2 8589   3.829   2.377   0.110
 2564SOL     OW 8590   1.789   6.508   6.352
 2564SOL    HW1 8591   1.747   6.423   6.382
 2564SOL    HW2 8592   1.884   6.511   6.384
 2565SOL     OW 8593   6.982   0.520   0.598
 2565SOL    HW1 8594   6.903   0.577   0.577
 2565SOL    HW2 8595   6.978   0.435   0.545
 2566SOL     OW 8596   1.459   6.937   1.381
 2566SOL    HW1 8597   1.487   7.019   1.431
 2566SOL    HW2 8598   1.402   6.880   1.439
 2567SOL     OW 8599   1.034   1.269   1.595
 2567SOL    HW1 8600   1.029   1.191   1.657
 2567SOL    HW2 8601   0.943   1.307   1.582
 2568SOL     OW 8602   3.194   6.774   0.056
 2568SOL    HW1 8603   3.219   6.798   6.984
 2568SOL    HW2 8604   3.123   6.837   0.088
 2569SOL     OW 8605   2.872   1.048   1.682
 2569SOL    HW1 8606   2.849   1.052   1.585
 2569SOL    HW2 8607   2.798   1.089   1.736
 2570SOL     OW 8608   5.824   0.515   6.888
 2570SOL    HW1 8609   5.782   0.564   6.965
 2570SOL    HW2 8610   5.921   0.502   6.905
 2571SOL     OW 8611   1.800   4.319   5.299
 2571SOL    HW1 8612   1.785   4.345   5.203
 2571SOL    HW2 8613   1.731   4.364   5.356
 2572SOL     OW 8614   2.273   5.228   0.348
 2572SOL    HW1 8615   2.203   5.169   0.389
 2572SOL    HW2 8616   2.233   5.279   0.272
 2573SOL     OW 8617   6.777   1.713   1.841
 2573SOL    HW1 8618   6.724   1.701   1.925
 2573SOL    HW2 8619   6.717   1.744   1.768
 2574SOL     OW 8620   6.273   3.689   0.036
 2574SOL    HW1 8621   6.313   3.767   7.010
 2574SOL    HW2 8622   6.187   3.663   7.014
 2575SOL     OW 8623   5.313   5.382   6.645
 2575SOL    HW1 8624   5.398   5.418   6.606
 2575SOL    HW2 8625   5.237   5.402   6.583
 2576SOL     OW 8626   3.627   0.224   4.421
 2576SOL    HW1 8627   3.596   0.135   4.386
 2576SOL    HW2 8628   3.547   0.277   4.449
 2577SOL     OW 8629   3.675   6.848   1.641
 2577SOL    HW1 8630   3.722   6.770   1.599
 2577SOL    HW2 8631   3.639   6.821   1.730
 2578SOL     OW 8632   5.052   2.234   3.273
 2578SOL    HW1 8633   5.068   2.136   3.280
 2578SOL    HW2 8634   5.061   2.276   3.363
 2579SOL     OW 8635   1.750   6.173   2.637
 2579SOL    HW1 8636   1.805   6.184   2.720
 2579SOL    HW2 8637   1.776   6.244   2.571
 2580SOL     OW 8638   2.520   3.021   6.901
 2580SOL    HW1 8639   2.454   3.054   6.969
 2580SOL    HW2 8640   2.544   3.095   6.839
 2581SOL     OW 8641   0.172   4.023   0.965
 2581SOL    HW1 8642   0.243   4.041   1.033
 2581SOL    HW2 8643   0.197   3.942   0.912
 2582SOL     OW 8644   1.066   4.647   2.193
 2582SOL    HW1 8645   0.978   4.654   2.240
 2582SOL    HW2 8646   1.106   4.557   2.209
 2583SOL     OW 8647   0.607   1.678   0.662
 2583SOL    HW1 8648   0.553   1.748   0.615
 2583SOL    HW2 8649   0.688   1.657   0.608
 2584SOL     OW 8650   4.262   5.599   0.291
 2584SOL    HW1 8651   4.168   5.569   0.272
 2584SOL    HW2 8652   4.314   5.523   0.330
 2585SOL     OW 8653   5.132   2.466   0.797
 2585SOL    HW1 8654   5.200   2.530   0.834
 2585SOL    HW2 8655   5.063   2.447   0.867
 2586SOL     OW 8656   3.644   1.350   3.143
 2586SOL    HW1 8657   3.602   1.430   3.185
 2586SOL    HW2 8658   3.611   1.267   3.188
 2587SOL     OW 8659   0.375   1.139   3.441
 2587SOL    HW1 8660   0.422   1.054   3.417
 2587SOL    HW2 8661   0.361   1.143   3.540
 2588SOL     OW 8662   4.138   0.568   5.965
 2588SOL    HW1 8663   4.228   0.553   6.005
 2588SOL    HW2 8664   4.067   0.540   6.030
 2589SOL     OW 8665   0.358   5.940   6.621
 2589SOL    HW1 8666   0.353   5.999   6.540
 2589SOL    HW2 8667   0.331   5.847   6.597
 2590SOL     OW 8668   3.348   6.083   0.945
 2590SOL    HW1 8669   3.411   6.108   1.018
 2590SOL    HW2 8670   3.255   6.102   0.973
 2591SOL     OW 8671   7.004   5.801   2.206
 2591SOL    HW1 8672   0.001   5.896   2.230
 2591SOL    HW2 8673   6.915   5.774   2.244
 2592SOL     OW 8674   3.545   6.161   1.115
 2592SOL    HW1 8675   3.622   6.112   1.074
 2592SOL    HW2 8676   3.517   6.114   1.199
 2593SOL     OW 8677   3.267   5.603   1.074
 2593SOL    HW1 8678   3.356   5.559   1.087
 2593SOL    HW2 8679   3.217   5.556   1.001
 2594SOL     OW 8680   1.045   5.064   6.334
 2594SOL    HW1 8681   1.097   4.995   6.284
 2594SOL    HW2 8682   0.977   5.106   6.273
 2595SOL     OW 8683   6.442   1.657   4.107
 2595SOL    HW1 8684   6.437   1.729   4.176
 2595SOL    HW2 8685   6.445   1.698   4.016
 2596SOL     OW 8686   3.698   1.754   1.833
 2596SOL    HW1 8687   3.637   1.827   1.865
 2596SOL    HW2 8688   3.661   1.665   1.860
 2597SOL     OW 8689   1.620   4.591   5.893
 2597SOL    HW1 8690   1.584   4.520   5.953
 2597SOL    HW2 8691   1.660   4.548   5.812
 2598SOL     OW 8692   5.930   1.242   3.453
 2598SOL    HW1 8693   5.982   1.206   3.376
 2598SOL    HW2 8694   5.856   1.178   3.477
 2599SOL     OW 8695   1.929   6.716   0.953
 2599SOL    HW1 8696   1.838   6.681   0.931
 2599SOL    HW2 8697   1.958   6.682   1.042
 2600SOL     OW 8698   5.450   3.410   4.710
 2600SOL    HW1 8699   5.420   3.355   4.788
 2600SOL    HW2 8700   5.517   3.358   4.657
 2601SOL     OW 8701   2.116   1.867   0.681
 2601SOL    HW1 8702   2.041   1.808   0.713
 2601SOL    HW2 8703   2.085   1.962   0.679
 2602SOL     OW 8704   0.632   4.263   3.968
 2602SOL    HW1 8705   0.602   4.339   4.025
 2602SOL    HW2 8706   0.569   4.251   3.891
 2603SOL     OW 8707   2.426   1.329   3.218
 2603SOL    HW1 8708   2.366   1.298   3.292
 2603SOL    HW2 8709   2.521   1.313   3.243
 2604SOL     OW 8710   4.905   2.131   2.687
 2604SOL    HW1 8711   4.820   2.164   2.645
 2604SOL    HW2 8712   4.905   2.031   2.688
 2605SOL     OW 8713   2.067   4.158   3.271
 2605SOL    HW1 8714   2.144   4.153   3.334
 2605SOL    HW2 8715   1.989   4.110   3.311
 2606SOL     OW 8716   5.716   4.667   2.164
 2606SOL    HW1 8717   5.643   4.714   2.213
 2606SOL    HW2 8718   5.677   4.588   2.115
 2607SOL     OW 8719   1.447   1.386   1.128
 2607SOL    HW1 8720   1.397   1.316   1.077
 2607SOL    HW2 8721   1.546   1.373   1.114
 2608SOL     OW 8722   4.598   4.737   1.506
 2608SOL    HW1 8723   4.567   4.790   1.584
 2608SOL    HW2 8724   4.550   4.649   1.504
 2609SOL     OW 8725   6.976   1.410   0.573
 2609SOL    HW1 8726   6.946   1.383   0.664
 2609SOL    HW2 8727   6.981   1.510   0.568
 2610SOL     OW 8728   0.756   4.801   4.788
 2610SOL    HW1 8729   0.664   4.763   4.779
 2610SOL    HW2 8730   0.775   4.861   4.710
 2611SOL     OW 8731   4.505   6.917   1.033
 2611SOL    HW1 8732   4.495   6.918   1.132
 2611SOL    HW2 8733   4.593   6.958   1.008
 2612SOL     OW 8734   6.792   6.939   5.859
 2612SOL    HW1 8735   6.849   6.992   5.797
 2612SOL    HW2 8736   6.700   6.979   5.864
 2613SOL     OW 8737   2.575   6.260   6.375
 2613SOL    HW1 8738   2.503   6.276   6.442
 2613SOL    HW2 8739   2.623   6.175   6.397
 2614SOL     OW 8740   6.931   0.394   5.504
 2614SOL    HW1 8741   6.975   0.375   5.592
 2614SOL    HW2 8742   6.996   0.376   5.430
 2615SOL     OW 8743   0.248   2.794   3.256
 2615SOL    HW1 8744   0.180   2.822   3.324
 2615SOL    HW2 8745   0.260   2.867   3.189
 2616SOL     OW 8746   3.435   3.520   5.223
 2616SOL    HW1 8747   3.483   3.474   5.148
 2616SOL    HW2 8748   3.447   3.467   5.307
 2617SOL     OW 8749   3.416   6.689   0.538
 2617SOL    HW1 8750   3.343   6.701   0.471
 2617SOL    HW2 8751   3.505   6.700   0.494
 2618SOL     OW 8752   6.858   0.608   4.348
 2618SOL    HW1 8753   6.823   0.610   4.255
 2618SOL    HW2 8754   6.792   0.562   4.408
 2619SOL     OW 8755   4.284   1.896   3.169
 2619SOL    HW1 8756   4.266   1.801   3.194
 2619SOL    HW2 8757   4.302   1.901   3.071
 2620SOL     OW 8758   6.758   0.114   3.314
 2620SOL    HW1 8759   6.677   0.089   3.368
 2620SOL    HW2 8760   6.734   0.113   3.217
 2621SOL     OW 8761   1.045   5.709   2.567
 2621SOL    HW1 8762   1.116   5.768   2.607
 2621SOL    HW2 8763   1.088   5.633   2.519
 2622SOL     OW 8764   1.890   3.508   5.231
 2622SOL    HW1 8765   1.957   3.445   5.268
 2622SOL    HW2 8766   1.933   3.597   5.214
 2623SOL     OW 8767   1.470   0.669   5.736
 2623SOL    HW1 8768   1.420   0.651   5.651
 2623SOL    HW2 8769   1.538   0.598   5.750
 2624SOL     OW 8770   6.564   1.234   5.516
 2624SOL    HW1 8771   6.502   1.211   5.441
 2624SOL    HW2 8772   6.549   1.329   5.543
 2625SOL     OW 8773   1.918   3.272   5.016
 2625SOL    HW1 8774   1.996   3.333   5.005
 2625SOL    HW2 8775   1.894   3.233   4.927
 2626SOL     OW 8776   0.524   0.490   6.038
 2626SOL    HW1 8777   0.567   0.523   6.122
 2626SOL    HW2 8778   0.475   0.565   5.993
 2627SOL     OW 8779   1.444   1.154   5.790
 2627SOL    HW1 8780   1.428   1.210   5.709
 2627SOL    HW2 8781   1.359   1.107   5.816
 2628SOL     OW 8782   1.814   4.669   5.567
 2628SOL    HW1 8783   1.906   4.697   5.594
 2628SOL    HW2 8784   1.772   4.741   5.512
 2629SOL     OW 8785   3.273   3.094   1.644
 2629SOL    HW1 8786   3.342   3.063   1.579
 2629SOL    HW2 8787   3.218   3.167   1.601
 2630SOL     OW 8788   3.423   2.089   2.809
 2630SOL    HW1 8789   3.523   2.090   2.805
 2630SOL    HW2 8790   3.394   2.104   2.903
 2631SOL     OW 8791   5.361   1.113   5.373
 2631SOL    HW1 8792   5.440   1.068   5.332
 2631SOL    HW2 8793   5.324   1.181   5.310
 2632SOL     OW 8794   4.881   3.034   6.425
 2632SOL    HW1 8795   4.921   2.966   6.488
 2632SOL    HW2 8796   4.955   3.090   6.386
 2633SOL     OW 8797   0.712   2.384   4.750
 2633SOL    HW1 8798   0.626   2.433   4.736
 2633SOL    HW2 8799   0.755   2.365   4.662
 2634SOL     OW 8800   0.624   4.600   3.373
 2634SOL    HW1 8801   0.635   4.672   3.305
 2634SOL    HW2 8802   0.582   4.638   3.456
 2635SOL     OW 8803   6.700   5.493   5.675
 2635SOL    HW1 8804   6.785   5.488   5.728
 2635SOL    HW2 8805   6.717   5.461   5.582
 2636SOL     OW 8806   3.857   0.864   4.976
 2636SOL    HW1 8807   3.832   0.801   5.048
 2636SOL    HW2 8808   3.811   0.839   4.891
 2637SOL     OW 8809   4.925   1.477   3.435
 2637SOL    HW1 8810   4.870   1.463   3.354
 2637SOL    HW2 8811   4.982   1.397   3.451
 2638SOL     OW 8812   6.530   0.282   4.052
 2638SOL    HW1 8813   6.561   0.272   4.147
 2638SOL    HW2 8814   6.588   0.348   4.005
 2639SOL     OW 8815   0.331   5.505   0.863
 2639SOL    HW1 8816   0.248   5.492   0.917
 2639SOL    HW2 8817   0.412   5.485   0.919
 2640SOL     OW 8818   0.551   6.276   5.459
 2640SOL    HW1 8819   0.550   6.216   5.539
 2640SOL    HW2 8820   0.630   6.337   5.465
 2641SOL     OW 8821   5.618   3.128   2.374
 2641SOL    HW1 8822   5.632   3.219   2.336
 2641SOL    HW2 8823   5.589   3.066   2.302
 2642SOL     OW 8824   4.780   6.493   3.726
 2642SOL    HW1 8825   4.705   6.481   3.660
 2642SOL    HW2 8826   4.788   6.410   3.782
 2643SOL     OW 8827   0.562   3.626   3.490
 2643SOL    HW1 8828   0.652   3.615   3.532
 2643SOL    HW2 8829   0.547   3.553   3.424
 2644SOL     OW 8830   5.461   6.433   5.610
 2644SOL    HW1 8831   5.559   6.423   5.627
 2644SOL    HW2 8832   5.446   6.460   5.515
 2645SOL     OW 8833   4.311   5.950   4.052
 2645SOL    HW1 8834   4.221   5.951   4.097
 2645SOL    HW2 8835   4.367   5.879   4.093
 2646SOL     OW 8836   5.928   0.846   6.333
 2646SOL    HW1 8837   5.917   0.747   6.343
 2646SOL    HW2 8838   5.914   0.872   6.237
 2647SOL     OW 8839   6.622   7.017   1.716
 2647SOL    HW1 8840   6.630   6.923   1.682
 2647SOL    HW2 8841   6.560   0.046   1.656
 2648SOL     OW 8842   0.416   0.030   4.123
 2648SOL    HW1 8843   0.403   6.958   4.154
 2648SOL    HW2 8844   0.342   0.055   4.061
 2649SOL     OW 8845   5.712   3.351   7.017
 2649SOL    HW1 8846   5.621   3.311   7.017
 2649SOL    HW2 8847   5.780   3.280   6.999
 2650SOL     OW 8848   1.333   4.722   3.768
 2650SOL    HW1 8849   1.405   4.723   3.837
 2650SOL    HW2 8850   1.254   4.672   3.803
 2651SOL     OW 8851   1.886   1.480   1.156
 2651SOL    HW1 8852   1.928   1.437   1.236
 2651SOL    HW2 8853   1.870   1.577   1.175
 2652SOL     OW 8854   4.083   3.516   4.694
 2652SOL    HW1 8855   4.089   3.483   4.600
 2652SOL    HW2 8856   4.066   3.439   4.756
 2653SOL     OW 8857   5.202   6.412   4.938
 2653SOL    HW1 8858   5.206   6.511   4.950
 2653SOL    HW2 8859   5.293   6.373   4.953
 2654SOL     OW 8860   4.738   6.417   2.040
 2654SOL    HW1 8861   4.780   6.356   2.107
 2654SOL    HW2 8862   4.677   6.481   2.088
 2655SOL     OW 8863   4.449   6.047   4.321
 2655SOL    HW1 8864   4.431   6.137   4.282
 2655SOL    HW2 8865   4.497   5.991   4.252
 2656SOL     OW 8866   4.010   4.841   4.766
 2656SOL    HW1 8867   3.995   4.747   4.797
 2656SOL    HW2 8868   4.103   4.869   4.789
 2657SOL     OW 8869   1.125   4.229   6.629
 2657SOL    HW1 8870   1.146   4.149   6.574
 2657SOL    HW2 8871   1.026   4.247   6.626
 2658SOL     OW 8872   4.847   4.421   1.047
 2658SOL    HW1 8873   4.786   4.349   1.013
 2658SOL    HW2 8874   4.834   4.503   0.991
 2659SOL     OW 8875   5.334   3.022   4.533
 2659SOL    HW1 8876   5.400   3.034   4.607
 2659SOL    HW2 8877   5.320   3.109   4.486
 2660SOL     OW 8878   1.987   0.222   1.814
 2660SOL    HW1 8879   2.005   0.152   1.745
 2660SOL    HW2 8880   2.072   0.272   1.833
 2661SOL     OW 8881   2.242   0.397   1.299
 2661SOL    HW1 8882   2.176   0.372   1.369
 2661SOL    HW2 8883   2.217   0.353   1.213
 2662SOL     OW 8884   4.884   6.546   4.712
 2662SOL    HW1 8885   4.825   6.625   4.700
 2662SOL    HW2 8886   4.833   6.471   4.753
 2663SOL     OW 8887   3.184   4.042   6.745
 2663SOL    HW1 8888   3.283   4.025   6.744
 2663SOL    HW2 8889   3.150   4.034   6.838
 2664SOL     OW 8890   4.236   3.630   5.489
 2664SOL    HW1 8891   4.239   3.555   5.422
 2664SOL    HW2 8892   4.238   3.717   5.442
 2665SOL     OW 8893   2.782   3.103   5.309
 2665SOL    HW1 8894   2.839   3.021   5.304
 2665SOL    HW2 8895   2.696   3.087   5.260
 2666SOL     OW 8896   6.000   4.783   1.324
 2666SOL    HW1 8897   5.996   4.776   1.424
 2666SOL    HW2 8898   5.916   4.824   1.290
 2667SOL     OW 8899   0.235   5.790   4.246
 2667SOL    HW1 8900   0.187   5.856   4.188
 2667SOL    HW2 8901   0.323   5.769   4.205
 2668SOL     OW 8902   6.980   2.881   4.971
 2668SOL    HW1 8903   6.914   2.953   4.995
 2668SOL    HW2 8904   6.943   2.826   4.895
 2669SOL     OW 8905   2.824   4.479   5.410
 2669SOL    HW1 8906   2.868   4.424   5.339
 2669SOL    HW2 8907   2.824   4.575   5.383
 2670SOL     OW 8908   5.318   2.920   5.719
 2670SOL    HW1 8909   5.381   2.982   5.671
 2670SOL    HW2 8910   5.336   2.924   5.817
 2671SOL     OW 8911   4.354   5.740   6.410
 2671SOL    HW1 8912   4.307   5.807   6.468
 2671SOL    HW2 8913   4.370   5.656   6.463
 2672SOL     OW 8914   1.861   4.976   0.529
 2672SOL    HW1 8915   1.876   4.878   0.542
 2672SOL    HW2 8916   1.766   4.992   0.501
 2673SOL     OW 8917   6.053   1.212   2.516
 2673SOL    HW1 8918   6.021   1.216   2.421
 2673SOL    HW2 8919   6.075   1.118   2.540
 2674SOL     OW 8920   1.022   4.462   3.837
 2674SOL    HW1 8921   1.107   4.440   3.886
 2674SOL    HW2 8922   1.043   4.475   3.740
 2675SOL     OW 8923   6.129   5.124   4.119
 2675SOL    HW1 8924   6.078   5.063   4.179
 2675SOL    HW2 8925   6.087   5.215   4.120
 2676SOL     OW 8926   3.877   2.111   0.935
 2676SOL    HW1 8927   3.782   2.135   0.919
 2676SOL    HW2 8928   3.935   2.158   0.868
 2677SOL     OW 8929   2.625   3.726   0.451
 2677SOL    HW1 8930   2.590   3.691   0.365
 2677SOL    HW2 8931   2.580   3.813   0.473
 2678SOL     OW 8932   0.444   2.951   1.600
 2678SOL    HW1 8933   0.516   2.945   1.668
 2678SOL    HW2 8934   0.471   2.902   1.517
 2679SOL     OW 8935   2.196   4.399   1.772
 2679SOL    HW1 8936   2.226   4.327   1.834
 2679SOL    HW2 8937   2.130   4.458   1.820
 2680SOL     OW 8938   1.145   1.627   0.496
 2680SOL    HW1 8939   1.204   1.623   0.577
 2680SOL    HW2 8940   1.201   1.634   0.414
 2681SOL     OW 8941   1.685   2.687   4.487
 2681SOL    HW1 8942   1.673   2.612   4.553
 2681SOL    HW2 8943   1.780   2.717   4.488
 2682SOL     OW 8944   4.854   4.496   3.281
 2682SOL    HW1 8945   4.889   4.412   3.240
 2682SOL    HW2 8946   4.761   4.480   3.315
 2683SOL     OW 8947   2.697   5.551   1.468
 2683SOL    HW1 8948   2.733   5.465   1.433
 2683SOL    HW2 8949   2.655   5.536   1.557
 2684SOL     OW 8950   4.864   5.485   1.717
 2684SOL    HW1 8951   4.819   5.396   1.710
 2684SOL    HW2 8952   4.817   5.550   1.658
 2685SOL     OW 8953   5.811   6.373   5.987
 2685SOL    HW1 8954   5.824   6.449   6.050
 2685SOL    HW2 8955   5.718   6.336   5.999
 2686SOL     OW 8956   1.794   1.814   5.663
 2686SOL    HW1 8957   1.762   1.749   5.594
 2686SOL    HW2 8958   1.802   1.766   5.751
 2687SOL     OW 8959   4.866   4.971   1.251
 2687SOL    HW1 8960   4.927   4.897   1.280
 2687SOL    HW2 8961   4.777   4.960   1.295
 2688SOL     OW 8962   3.493   4.065   0.292
 2688SOL    HW1 8963   3.482   3.973   0.254
 2688SOL    HW2 8964   3.589   4.091   0.290
 2689SOL     OW 8965   1.481   4.540   3.460
 2689SOL    HW1 8966   1.560   4.592   3.428
 2689SOL    HW2 8967   1.403   4.602   3.474
 2690SOL     OW 8968   3.678   2.906   4.244
 2690SOL    HW1 8969   3.627   2.866   4.321
 2690SOL    HW2 8970   3.619   2.906   4.163
 2691SOL     OW 8971   2.006   5.462   3.170
 2691SOL    HW1 8972   1.915   5.420   3.177
 2691SOL    HW2 8973   2.006   5.548   3.222
 2692SOL     OW 8974   3.031   5.829   2.579
 2692SOL    HW1 8975   3.009   5.768   2.502
 2692SOL    HW2 8976   3.076   5.911   2.544
 2693SOL     OW 8977   2.449   5.446   3.696
 2693SOL    HW1 8978   2.422   5.362   3.648
 2693SOL    HW2 8979   2.544   5.438   3.726
 2694SOL     OW 8980   3.538   5.969   2.857
 2694SOL    HW1 8981   3.583   5.901   2.915
 2694SOL    HW2 8982   3.603   6.042   2.835
 2695SOL     OW 8983   5.787   0.686   1.904
 2695SOL    HW1 8984   5.854   0.738   1.852
 2695SOL    HW2 8985   5.808   0.692   2.002
 2696SOL     OW 8986   3.852   3.258   5.872
 2696SOL    HW1 8987   3.910   3.275   5.793
 2696SOL    HW2 8988   3.760   3.294   5.854
 2697SOL     OW 8989   3.179   1.185   2.783
 2697SOL    HW1 8990   3.269   1.153   2.814
 2697SOL    HW2 8991   3.122   1.204   2.862
 2698SOL     OW 8992   1.701   5.868   0.499
 2698SOL    HW1 8993   1.722   5.932   0.573
 2698SOL    HW2 8994   1.746   5.780   0.517
 2699SOL     OW 8995   2.103   6.000   0.217
 2699SOL    HW1 8996   2.025   6.023   0.275
 2699SOL    HW2 8997   2.185   5.988   0.274
 2700SOL     OW 8998   2.514   3.635   0.180
 2700SOL    HW1 8999   2.419   3.664   0.164
 2700SOL    HW2 9000   2.557   3.613   0.092
 2701SOL     OW 9001   5.309   1.572   6.024
 2701SOL    HW1 9002   5.281   1.476   6.012
 2701SOL    HW2 9003   5.318   1.593   6.121
 2702SOL     OW 9004   0.845   3.129   3.163
 2702SOL    HW1 9005   0.928   3.120   3.219
 2702SOL    HW2 9006   0.795   3.042   3.163
 2703SOL     OW 9007   1.088   0.021   1.410
 2703SOL    HW1 9008   1.113   0.023   1.506
 2703SOL    HW2 9009   1.106   6.953   1.372
 2704SOL     OW 9010   0.114   5.376   1.640
 2704SOL    HW1 9011   0.178   5.446   1.673
 2704SOL    HW2 9012   0.100   5.387   1.542
 2705SOL     OW 9013   0.199   5.365   4.801
 2705SOL    HW1 9014   0.258   5.354   4.721
 2705SOL    HW2 9015   0.212   5.286   4.862
 2706SOL     OW 9016   6.515   5.117   2.349
 2706SOL    HW1 9017   6.505   5.019   2.361
 2706SOL    HW2 9018   6.513   5.162   2.439
 2707SOL     OW 9019   4.162   6.937   3.814
 2707SOL    HW1 9020   4.132   0.009   3.794
 2707SOL    HW2 9021   4.192   6.894   3.729
 2708SOL     OW 9022   0.553   2.816   0.458
 2708SOL    HW1 9023   0.637   2.825   0.513
 2708SOL    HW2 9024   0.551   2.726   0.415
 2709SOL     OW 9025   5.332   6.953   6.762
 2709SOL    HW1 9026   5.375   7.010   6.692
 2709SOL    HW2 9027   5.241   6.925   6.731
 2710SOL     OW 9028   0.477   3.698   4.095
 2710SOL    HW1 9029   0.531   3.683   4.177
 2710SOL    HW2 9030   0.509   3.638   4.022
 2711SOL     OW 9031   2.416   0.563   4.096
 2711SOL    HW1 9032   2.443   0.641   4.152
 2711SOL    HW2 9033   2.464   0.567   4.008
 2712SOL     OW 9034   3.087   4.309   1.413
 2712SOL    HW1 9035   3.078   4.320   1.511
 2712SOL    HW2 9036   2.997   4.316   1.369
 2713SOL     OW 9037   2.497   2.391   4.622
 2713SOL    HW1 9038   2.516   2.487   4.606
 2713SOL    HW2 9039   2.482   2.376   4.720
 2714SOL     OW 9040   3.750   2.571   0.315
 2714SOL    HW1 9041   3.795   2.657   0.340
 2714SOL    HW2 9042   3.653   2.588   0.300
 2715SOL     OW 9043   5.190   1.591   1.135
 2715SOL    HW1 9044   5.092   1.593   1.156
 2715SOL    HW2 9045   5.241   1.569   1.218
 2716SOL     OW 9046   5.254   3.901   2.327
 2716SOL    HW1 9047   5.207   3.975   2.280
 2716SOL    HW2 9048   5.188   3.830   2.353
 2717SOL     OW 9049   0.712   7.015   2.851
 2717SOL    HW1 9050   0.668   6.927   2.837
 2717SOL    HW2 9051   0.739   0.003   2.947
 2718SOL     OW 9052   1.413   1.647   4.864
 2718SOL    HW1 9053   1.358   1.730   4.871
 2718SOL    HW2 9054   1.358   1.574   4.823
 2719SOL     OW 9055   0.491   4.854   2.028
 2719SOL    HW1 9056   0.512   4.770   1.978
 2719SOL    HW2 9057   0.411   4.839   2.086
 2720SOL     OW 9058   2.121   5.673   1.914
 2720SOL    HW1 9059   2.190   5.676   1.986
 2720SOL    HW2 9060   2.038   5.721   1.945
 2721SOL     OW 9061   2.866   0.053   3.525
 2721SOL    HW1 9062   2.962   0.031   3.504
 2721SOL    HW2 9063   2.845   0.146   3.495
 2722SOL     OW 9064   0.041   5.223   0.533
 2722SOL    HW1 9065   0.086   5.298   0.581
 2722SOL    HW2 9066   6.969   5.213   0.565
 2723SOL     OW 9067   0.374   6.915   6.697
 2723SOL    HW1 9068   0.406   6.832   6.744
 2723SOL    HW2 9069   0.385   6.993   6.759
 2724SOL     OW 9070   2.092   6.571   0.158
 2724SOL    HW1 9071   2.025   6.526   0.218
 2724SOL    HW2 9072   2.150   6.501   0.116
 2725SOL     OW 9073   5.207   4.475   4.468
 2725SOL    HW1 9074   5.183   4.427   4.552
 2725SOL    HW2 9075   5.154   4.438   4.392
 2726SOL     OW 9076   0.431   2.207   0.821
 2726SOL    HW1 9077   0.379   2.126   0.795
 2726SOL    HW2 9078   0.471   2.192   0.912
 2727SOL     OW 9079   0.531   5.187   3.412
 2727SOL    HW1 9080   0.527   5.106   3.471
 2727SOL    HW2 9081   0.569   5.263   3.464
 2728SOL     OW 9082   4.469   6.695   5.799
 2728SOL    HW1 9083   4.547   6.693   5.736
 2728SOL    HW2 9084   4.461   6.787   5.838
 2729SOL     OW 9085   0.110   6.073   0.710
 2729SOL    HW1 9086   0.180   6.015   0.752
 2729SOL    HW2 9087   0.151   6.125   0.636
 2730SOL     OW 9088   1.836   6.002   1.722
 2730SOL    HW1 9089   1.914   5.990   1.660
 2730SOL    HW2 9090   1.832   6.097   1.751
 2731SOL     OW 9091   3.518   4.040   2.977
 2731SOL    HW1 9092   3.534   3.961   2.918
 2731SOL    HW2 9093   3.549   4.123   2.930
 2732SOL     OW 9094   5.301   3.039   1.701
 2732SOL    HW1 9095   5.264   3.120   1.747
 2732SOL    HW2 9096   5.251   2.958   1.731
 2733SOL     OW 9097   6.329   2.062   4.233
 2733SOL    HW1 9098   6.352   1.969   4.261
 2733SOL    HW2 9099   6.229   2.071   4.225
 2734SOL     OW 9100   3.021   5.790   1.091
 2734SOL    HW1 9101   3.090   5.729   1.130
 2734SOL    HW2 9102   2.952   5.810   1.160
 2735SOL     OW 9103   1.134   3.491   1.656
 2735SOL    HW1 9104   1.224   3.531   1.640
 2735SOL    HW2 9105   1.108   3.506   1.752
 2736SOL     OW 9106   5.913   6.129   4.911
 2736SOL    HW1 9107   6.001   6.158   4.873
 2736SOL    HW2 9108   5.841   6.147   4.844
 2737SOL     OW 9109   2.742   3.871   5.751
 2737SOL    HW1 9110   2.655   3.829   5.777
 2737SOL    HW2 9111   2.769   3.938   5.819
 2738SOL     OW 9112   4.988   6.407   1.709
 2738SOL    HW1 9113   4.948   6.495   1.735
 2738SOL    HW2 9114   4.942   6.373   1.627
 2739SOL     OW 9115   0.727   4.545   1.620
 2739SOL    HW1 9116   0.685   4.489   1.548
 2739SOL    HW2 9117   0.728   4.641   1.591
 2740SOL     OW 9118   0.070   3.789   2.678
 2740SOL    HW1 9119   0.117   3.876   2.691
 2740SOL    HW2 9120   7.016   3.801   2.613
 2741SOL     OW 9121   6.188   0.708   4.842
 2741SOL    HW1 9122   6.110   0.749   4.888
 2741SOL    HW2 9123   6.217   0.767   4.766
 2742SOL     OW 9124   2.083   5.015   0.367
 2742SOL    HW1 9125   2.161   4.957   0.386
 2742SOL    HW2 9126   2.020   5.015   0.445
 2743SOL     OW 9127   6.268   4.788   2.251
 2743SOL    HW1 9128   6.233   4.876   2.221
 2743SOL    HW2 9129   6.193   4.723   2.259
 2744SOL     OW 9130   4.620   2.184   0.057
 2744SOL    HW1 9131   4.647   2.110   7.017
 2744SOL    HW2 9132   4.577   2.257   0.004
 2745SOL     OW 9133   0.017   0.046   5.433
 2745SOL    HW1 9134   7.000   7.001   5.371
 2745SOL    HW2 9135   0.006   0.014   5.527
 2746SOL     OW 9136   2.166   1.571   4.573
 2746SOL    HW1 9137   2.233   1.643   4.558
 2746SOL    HW2 9138   2.162   1.549   4.670
 2747SOL     OW 9139   5.803   3.785   6.718
 2747SOL    HW1 9140   5.789   3.795   6.816
 2747SOL    HW2 9141   5.899   3.764   6.700
 2748SOL     OW 9142   5.012   1.343   1.763
 2748SOL    HW1 9143   5.094   1.302   1.723
 2748SOL    HW2 9144   4.992   1.430   1.716
 2749SOL     OW 9145   0.181   4.378   2.372
 2749SOL    HW1 9146   0.174   4.338   2.463
 2749SOL    HW2 9147   0.278   4.390   2.349
 2750SOL     OW 9148   0.926   4.555   1.217
 2750SOL    HW1 9149   0.934   4.458   1.241
 2750SOL    HW2 9150   0.989   4.609   1.272
 2751SOL     OW 9151   1.197   4.395   1.369
 2751SOL    HW1 9152   1.188   4.396   1.469
 2751SOL    HW2 9153   1.128   4.334   1.331
 2752SOL     OW 9154   4.059   5.420   5.503
 2752SOL    HW1 9155   3.985   5.480   5.533
 2752SOL    HW2 9156   4.095   5.369   5.581
 2753SOL     OW 9157   0.353   6.799   5.311
 2753SOL    HW1 9158   0.320   6.869   5.248
 2753SOL    HW2 9159   0.323   6.822   5.404
 2754SOL     OW 9160   0.726   0.385   1.990
 2754SOL    HW1 9161   0.653   0.318   2.008
 2754SOL    HW2 9162   0.690   0.457   1.931
 2755SOL     OW 9163   2.317   6.665   2.846
 2755SOL    HW1 9164   2.331   6.704   2.937
 2755SOL    HW2 9165   2.382   6.592   2.831
 2756SOL     OW 9166   5.575   5.301   6.317
 2756SOL    HW1 9167   5.660   5.248   6.327
 2756SOL    HW2 9168   5.502   5.257   6.369
 2757SOL     OW 9169   2.635   0.233   0.069
 2757SOL    HW1 9170   2.612   0.196   7.001
 2757SOL    HW2 9171   2.708   0.300   0.059
 2758SOL     OW 9172   3.801   6.569   3.856
 2758SOL    HW1 9173   3.884   6.560   3.800
 2758SOL    HW2 9174   3.722   6.581   3.796
 2759SOL     OW 9175   5.737   6.817   5.535
 2759SOL    HW1 9176   5.664   6.849   5.596
 2759SOL    HW2 9177   5.819   6.798   5.590
 2760SOL     OW 9178   0.708   5.828   2.000
 2760SOL    HW1 9179   0.645   5.864   1.931
 2760SOL    HW2 9180   0.655   5.787   2.075
 2761SOL     OW 9181   2.098   5.235   5.199
 2761SOL    HW1 9182   2.141   5.181   5.127
 2761SOL    HW2 9183   2.119   5.332   5.186
 2762SOL     OW 9184   1.356   0.961   4.954
 2762SOL    HW1 9185   1.389   1.025   4.885
 2762SOL    HW2 9186   1.303   0.889   4.909
 2763SOL     OW 9187   4.726   1.923   3.297
 2763SOL    HW1 9188   4.732   2.022   3.310
 2763SOL    HW2 9189   4.813   1.880   3.322
 2764SOL     OW 9190   6.065   0.530   1.731
 2764SOL    HW1 9191   6.069   0.620   1.687
 2764SOL    HW2 9192   6.040   0.460   1.664
 2765SOL     OW 9193   6.152   7.003   0.863
 2765SOL    HW1 9194   6.055   7.017   0.842
 2765SOL    HW2 9195   6.182   6.916   0.822
 2766SOL     OW 9196   5.052   2.853   0.760
 2766SOL    HW1 9197   4.993   2.802   0.822
 2766SOL    HW2 9198   5.118   2.907   0.812
 2767SOL     OW 9199   0.000   5.462   0.088
 2767SOL    HW1 9200   0.074   5.431   0.029
 2767SOL    HW2 9201   6.976   5.383   0.127
 2768SOL     OW 9202   4.122   0.669   1.228
 2768SOL    HW1 9203   4.101   0.708   1.138
 2768SOL    HW2 9204   4.058   0.595   1.248
 2769SOL     OW 9205   2.092   4.978   4.508
 2769SOL    HW1 9206   2.105   4.912   4.434
 2769SOL    HW2 9207   2.166   4.968   4.575
 2770SOL     OW 9208   4.322   6.260   6.172
 2770SOL    HW1 9209   4.412   6.231   6.205
 2770SOL    HW2 9210   4.267   6.179   6.150
 2771SOL     OW 9211   6.262   0.901   3.511
 2771SOL    HW1 9212   6.339   0.871   3.456
 2771SOL    HW2 9213   6.260   0.850   3.597
 2772SOL     OW 9214   3.934   1.882   0.785
 2772SOL    HW1 9215   3.937   1.968   0.836
 2772SOL    HW2 9216   4.010   1.824   0.812
 2773SOL     OW 9217   6.303   2.077   5.103
 2773SOL    HW1 9218   6.233   2.089   5.033
 2773SOL    HW2 9219   6.259   2.076   5.193
 2774SOL     OW 9220   5.717   3.044   2.626
 2774SOL    HW1 9221   5.676   3.050   2.535
 2774SOL    HW2 9222   5.706   2.952   2.662
 2775SOL     OW 9223   6.368   4.675   5.658
 2775SOL    HW1 9224   6.342   4.590   5.611
 2775SOL    HW2 9225   6.315   4.751   5.620
 2776SOL     OW 9226   4.484   4.769   5.891
 2776SOL    HW1 9227   4.439   4.777   5.803
 2776SOL    HW2 9228   4.574   4.813   5.888
 2777SOL     OW 9229   3.108   1.892   1.688
 2777SOL    HW1 9230   3.150   1.826   1.626
 2777SOL    HW2 9231   3.180   1.946   1.733
 2778SOL     OW 9232   1.684   0.210   5.593
 2778SOL    HW1 9233   1.656   0.197   5.688
 2778SOL    HW2 9234   1.725   0.300   5.582
 2779SOL     OW 9235   4.761   6.556   1.412
 2779SOL    HW1 9236   4.750   6.548   1.313
 2779SOL    HW2 9237   4.820   6.635   1.432
 2780SOL     OW 9238   6.673   6.837   6.956
 2780SOL    HW1 9239   6.732   6.844   6.875
 2780SOL    HW2 9240   6.617   6.754   6.949
 2781SOL     OW 9241   5.551   6.655   1.487
 2781SOL    HW1 9242   5.479   6.637   1.421
 2781SOL    HW2 9243   5.526   6.616   1.575
 2782SOL     OW 9244   4.528   2.145   6.092
 2782SOL    HW1 9245   4.489   2.164   6.182
 2782SOL    HW2 9246   4.463   2.091   6.038
 2783SOL     OW 9247   5.088   4.463   2.765
 2783SOL    HW1 9248   5.080   4.408   2.848
 2783SOL    HW2 9249   5.056   4.556   2.783
 2784SOL     OW 9250   3.260   1.729   2.622
 2784SOL    HW1 9251   3.275   1.632   2.606
 2784SOL    HW2 9252   3.162   1.749   2.622
 2785SOL     OW 9253   5.189   2.691   0.542
 2785SOL    HW1 9254   5.202   2.763   0.473
 2785SOL    HW2 9255   5.112   2.715   0.601
 2786SOL     OW 9256   5.438   0.079   3.062
 2786SOL    HW1 9257   5.417   0.058   2.966
 2786SOL    HW2 9258   5.355   0.105   3.110
 2787SOL     OW 9259   4.908   0.666   5.992
 2787SOL    HW1 9260   4.873   0.729   6.062
 2787SOL    HW2 9261   5.004   0.645   6.012
 2788SOL     OW 9262   2.306   4.901   6.011
 2788SOL    HW1 9263   2.302   4.962   6.090
 2788SOL    HW2 9264   2.227   4.917   5.952
 2789SOL     OW 9265   1.599   2.631   3.684
 2789SOL    HW1 9266   1.612   2.621   3.585
 2789SOL    HW2 9267   1.531   2.702   3.702
 2790SOL     OW 9268   3.399   5.775   2.370
 2790SOL    HW1 9269   3.490   5.779   2.411
 2790SOL    HW2 9270   3.356   5.687   2.391
 2791SOL     OW 9271   0.185   3.085   3.179
 2791SOL    HW1 9272   0.272   3.095   3.226
 2791SOL    HW2 9273   0.112   3.123   3.234
 2792SOL     OW 9274   1.772   6.776   4.102
 2792SOL    HW1 9275   1.809   6.857   4.147
 2792SOL    HW2 9276   1.717   6.803   4.023
 2793SOL     OW 9277   5.732   4.114   1.663
 2793SOL    HW1 9278   5.827   4.108   1.694
 2793SOL    HW2 9279   5.699   4.023   1.638
 2794SOL     OW 9280   0.156   2.596   6.553
 2794SOL    HW1 9281   0.170   2.586   6.651
 2794SOL    HW2 9282   0.239   2.633   6.511
 2795SOL     OW 9283   0.780   3.110   0.303
 2795SOL    HW1 9284   0.878   3.128   0.291
 2795SOL    HW2 9285   0.755   3.129   0.398
 2796SOL     OW 9286   0.181   6.428   3.591
 2796SOL    HW1 9287   0.110   6.481   3.638
 2796SOL    HW2 9288   0.138   6.353   3.541
 2797SOL     OW 9289   4.876   5.371   4.780
 2797SOL    HW1 9290   4.879   5.296   4.846
 2797SOL    HW2 9291   4.863   5.457   4.829
 2798SOL     OW 9292   0.472   5.449   1.805
 2798SOL    HW1 9293   0.396   5.509   1.829
 2798SOL    HW2 9294   0.474   5.370   1.866
 2799SOL     OW 9295   5.838   5.236   6.392
 2799SOL    HW1 9296   5.820   5.302   6.465
 2799SOL    HW2 9297   5.933   5.242   6.363
 2800SOL     OW 9298   4.478   6.251   0.191
 2800SOL    HW1 9299   4.396   6.194   0.189
 2800SOL    HW2 9300   4.465   6.325   0.257
 2801SOL     OW 9301   6.676   5.770   5.732
 2801SOL    HW1 9302   6.593   5.786   5.679
 2801SOL    HW2 9303   6.704   5.675   5.724
 2802SOL     OW 9304   5.126   0.558   4.957
 2802SOL    HW1 9305   5.056   0.616   4.999
 2802SOL    HW2 9306   5.098   0.533   4.865
 2803SOL     OW 9307   4.166   5.741   6.161
 2803SOL    HW1 9308   4.194   5.729   6.257
 2803SOL    HW2 9309   4.099   5.671   6.137
 2804SOL     OW 9310   0.367   4.506   5.253
 2804SOL    HW1 9311   0.319   4.559   5.183
 2804SOL    HW2 9312   0.443   4.457   5.210
 2805SOL     OW 9313   6.169   3.014   1.999
 2805SOL    HW1 9314   6.118   3.055   1.924
 2805SOL    HW2 9315   6.157   3.068   2.082
 2806SOL     OW 9316   0.436   3.664   6.253
 2806SOL    HW1 9317   0.504   3.645   6.182
 2806SOL    HW2 9318   0.355   3.703   6.211
 2807SOL     OW 9319   3.842   6.611   4.130
 2807SOL    HW1 9320   3.830   6.529   4.187
 2807SOL    HW2 9321   3.826   6.587   4.034
 2808SOL     OW 9322   6.305   4.560   2.020
 2808SOL    HW1 9323   6.402   4.582   2.010
 2808SOL    HW2 9324   6.293   4.492   2.092
 2809SOL     OW 9325   5.713   2.828   0.847
 2809SOL    HW1 9326   5.708   2.862   0.941
 2809SOL    HW2 9327   5.700   2.729   0.847
 2810SOL     OW 9328   3.490   5.274   3.736
 2810SOL    HW1 9329   3.494   5.328   3.652
 2810SOL    HW2 9330   3.442   5.326   3.807
 2811SOL     OW 9331   1.182   1.919   3.439
 2811SOL    HW1 9332   1.174   2.004   3.388
 2811SOL    HW2 9333   1.132   1.927   3.525
 2812SOL     OW 9334   5.492   3.029   6.835
 2812SOL    HW1 9335   5.564   3.054   6.770
 2812SOL    HW2 9336   5.424   2.972   6.789
 2813SOL     OW 9337   0.416   0.381   6.616
 2813SOL    HW1 9338   0.393   0.319   6.540
 2813SOL    HW2 9339   0.477   0.453   6.583
 2814SOL     OW 9340   3.821   3.587   5.308
 2814SOL    HW1 9341   3.793   3.675   5.268
 2814SOL    HW2 9342   3.753   3.517   5.284
 2815SOL     OW 9343   6.679   6.731   6.013
 2815SOL    HW1 9344   6.726   6.777   5.938
 2815SOL    HW2 9345   6.713   6.765   6.101
 2816SOL     OW 9346   6.254   5.025   3.403
 2816SOL    HW1 9347   6.222   4.977   3.485
 2816SOL    HW2 9348   6.353   5.041   3.410
 2817SOL     OW 9349   3.540   6.795   1.881
 2817SOL    HW1 9350   3.487   6.878   1.896
 2817SOL    HW2 9351   3.542   6.741   1.965
 2818SOL     OW 9352   0.377   0.468   1.620
 2818SOL    HW1 9353   0.327   0.382   1.636
 2818SOL    HW2 9354   0.466   0.447   1.579
 2819SOL     OW 9355   0.557   0.847   1.783
 2819SOL    HW1 9356   0.488   0.810   1.846
 2819SOL    HW2 9357   0.596   0.930   1.822
 2820SOL     OW 9358   0.764   2.541   2.947
 2820SOL    HW1 9359   0.753   2.631   2.904
 2820SOL    HW2 9360   0.681   2.487   2.933
 2821SOL     OW 9361   4.090   4.109   6.324
 2821SOL    HW1 9362   4.045   4.162   6.395
 2821SOL    HW2 9363   4.022   4.060   6.270
 2822SOL     OW 9364   4.062   2.177   0.739
 2822SOL    HW1 9365   4.070   2.277   0.740
 2822SOL    HW2 9366   4.149   2.136   0.765
 2823SOL     OW 9367   4.616   0.926   0.804
 2823SOL    HW1 9368   4.633   1.004   0.864
 2823SOL    HW2 9369   4.703   0.880   0.783
 2824SOL     OW 9370   1.908   1.740   3.383
 2824SOL    HW1 9371   1.837   1.682   3.343
 2824SOL    HW2 9372   1.878   1.774   3.471
 2825SOL     OW 9373   5.453   6.616   6.761
 2825SOL    HW1 9374   5.416   6.621   6.668
 2825SOL    HW2 9375   5.463   6.708   6.798
 2826SOL     OW 9376   4.832   1.190   7.005
 2826SOL    HW1 9377   4.931   1.190   6.990
 2826SOL    HW2 9378   4.812   1.211   0.079
 2827SOL     OW 9379   0.840   1.499   5.957
 2827SOL    HW1 9380   0.808   1.593   5.966
 2827SOL    HW2 9381   0.917   1.484   6.019
 2828SOL     OW 9382   2.689   1.639   0.583
 2828SOL    HW1 9383   2.606   1.621   0.636
 2828SOL    HW2 9384   2.677   1.724   0.531
 2829SOL     OW 9385   3.085   3.427   5.047
 2829SOL    HW1 9386   3.011   3.463   4.991
 2829SOL    HW2 9387   3.162   3.400   4.989
 2830SOL     OW 9388   2.050   3.168   5.698
 2830SOL    HW1 9389   2.148   3.167   5.680
 2830SOL    HW2 9390   2.013   3.259   5.680
 2831SOL     OW 9391   0.750   4.516   3.730
 2831SOL    HW1 9392   0.755   4.424   3.770
 2831SOL    HW2 9393   0.839   4.541   3.693
 2832SOL     OW 9394   0.935   3.287   2.144
 2832SOL    HW1 9395   0.935   3.201   2.094
 2832SOL    HW2 9396   0.871   3.281   2.221
 2833SOL     OW 9397   2.871   1.942   2.343
 2833SOL    HW1 9398   2.858   2.035   2.310
 2833SOL    HW2 9399   2.912   1.886   2.270
 2834SOL     OW 9400   4.108   5.904   5.920
 2834SOL    HW1 9401   4.148   5.884   6.009
 2834SOL    HW2 9402   4.135   5.834   5.854
 2835SOL     OW 9403   0.711   6.259   1.902
 2835SOL    HW1 9404   0.625   6.270   1.852
 2835SOL    HW2 9405   0.772   6.199   1.850
 2836SOL     OW 9406   0.120   6.886   2.368
 2836SOL    HW1 9407   0.137   6.837   2.283
 2836SOL    HW2 9408   0.073   6.972   2.349
 2837SOL     OW 9409   4.513   5.126   2.570
 2837SOL    HW1 9410   4.525   5.105   2.667
 2837SOL    HW2 9411   4.444   5.065   2.530
 2838SOL     OW 9412   3.346   3.956   0.860
 2838SOL    HW1 9413   3.316   3.895   0.934
 2838SOL    HW2 9414   3.359   3.903   0.776
 2839SOL     OW 9415   6.631   2.719   2.926
 2839SOL    HW1 9416   6.666   2.637   2.882
 2839SOL    HW2 9417   6.684   2.738   3.009
 2840SOL     OW 9418   1.237   0.372   3.237
 2840SOL    HW1 9419   1.248   0.283   3.281
 2840SOL    HW2 9420   1.284   0.442   3.291
 2841SOL     OW 9421   6.980   1.194   6.084
 2841SOL    HW1 9422   7.019   1.199   6.176
 2841SOL    HW2 9423   6.973   1.286   6.045
 2842SOL     OW 9424   0.573   3.995   3.658
 2842SOL    HW1 9425   0.670   3.981   3.637
 2842SOL    HW2 9426   0.560   3.995   3.757
 2843SOL     OW 9427   2.300   2.427   2.559
 2843SOL    HW1 9428   2.204   2.409   2.582
 2843SOL    HW2 9429   2.312   2.525   2.542
 2844SOL     OW 9430   6.950   5.237   6.905
 2844SOL    HW1 9431   6.955   5.257   6.807
 2844SOL    HW2 9432   6.948   5.323   6.956
 2845SOL     OW 9433   5.788   3.540   1.724
 2845SOL    HW1 9434   5.791   3.456   1.669
 2845SOL    HW2 9435   5.881   3.564   1.751
 2846SOL     OW 9436   4.305   1.090   0.359
 2846SOL    HW1 9437   4.235   1.051   0.418
 2846SOL    HW2 9438   4.297   1.190   0.359
 2847SOL     OW 9439   5.109   3.936   3.315
 2847SOL    HW1 9440   5.026   3.979   3.351
 2847SOL    HW2 9441   5.168   4.005   3.275
 2848SOL     OW 9442   1.941   2.764   5.340
 2848SOL    HW1 9443   1.895   2.740   5.255
 2848SOL    HW2 9444   1.998   2.846   5.326
 2849SOL     OW 9445   4.197   0.292   0.675
 2849SOL    HW1 9446   4.252   0.210   0.693
 2849SOL    HW2 9447   4.179   0.299   0.577
 2850SOL     OW 9448   1.903   0.160   2.768
 2850SOL    HW1 9449   1.874   0.206   2.684
 2850SOL    HW2 9450   1.998   0.129   2.757
 2851SOL     OW 9451   5.824   1.766   5.986
 2851SOL    HW1 9452   5.764   1.836   5.947
 2851SOL    HW2 9453   5.793   1.743   6.078
 2852SOL     OW 9454   6.414   3.612   6.773
 2852SOL    HW1 9455   6.386   3.590   6.866
 2852SOL    HW2 9456   6.408   3.530   6.716
 2853SOL     OW 9457   1.960   1.152   6.893
 2853SOL    HW1 9458   2.001   1.061   6.892
 2853SOL    HW2 9459   1.928   1.175   6.801
 2854SOL     OW 9460   4.881   0.653   5.082
 2854SOL    HW1 9461   4.843   0.588   5.146
 2854SOL    HW2 9462   4.811   0.719   5.055
 2855SOL     OW 9463   2.150   1.977   5.987
 2855SOL    HW1 9464   2.205   1.920   5.926
 2855SOL    HW2 9465   2.114   2.055   5.936
 2856SOL     OW 9466   0.319   3.482   5.668
 2856SOL    HW1 9467   0.361   3.545   5.602
 2856SOL    HW2 9468   0.347   3.508   5.761
 2857SOL     OW 9469   1.938   2.948   2.040
 2857SOL    HW1 9470   1.841   2.965   2.021
 2857SOL    HW2 9471   1.982   2.914   1.958
 2858SOL     OW 9472   4.782   4.235   2.020
 2858SOL    HW1 9473   4.685   4.241   2.045
 2858SOL    HW2 9474   4.833   4.307   2.068
 2859SOL     OW 9475   5.573   0.592   6.755
 2859SOL    HW1 9476   5.672   0.594   6.763
 2859SOL    HW2 9477   5.533   0.569   6.844
 2860SOL     OW 9478   2.250   2.166   1.684
 2860SOL    HW1 9479   2.300   2.145   1.768
 2860SOL    HW2 9480   2.316   2.188   1.612
 2861SOL     OW 9481   3.704   4.893   5.990
 2861SOL    HW1 9482   3.664   4.901   6.081
 2861SOL    HW2 9483   3.634   4.865   5.924
 2862SOL     OW 9484   5.147   1.876   2.262
 2862SOL    HW1 9485   5.111   1.962   2.225
 2862SOL    HW2 9486   5.075   1.806   2.258
 2863SOL     OW 9487   4.421   1.410   6.848
 2863SOL    HW1 9488   4.519   1.425   6.835
 2863SOL    HW2 9489   4.370   1.465   6.782
 2864SOL     OW 9490   3.991   1.634   1.930
 2864SOL    HW1 9491   3.920   1.659   1.864
 2864SOL    HW2 9492   3.947   1.601   2.015
 2865SOL     OW 9493   3.694   5.879   6.011
 2865SOL    HW1 9494   3.714   5.835   6.098
 2865SOL    HW2 9495   3.598   5.909   6.010
 2866SOL     OW 9496   6.704   5.494   6.608
 2866SOL    HW1 9497   6.711   5.519   6.705
 2866SOL    HW2 9498   6.753   5.562   6.552
 2867SOL     OW 9499   0.050   5.895   3.397
 2867SOL    HW1 9500   0.103   5.811   3.383
 2867SOL    HW2 9501   0.040   5.943   3.310
 2868SOL     OW 9502   1.666   1.034   5.415
 2868SOL    HW1 9503   1.591   1.022   5.480
 2868SOL    HW2 9504   1.638   1.095   5.341
 2869SOL     OW 9505   6.777   1.387   3.574
 2869SOL    HW1 9506   6.735   1.296   3.581
 2869SOL    HW2 9507   6.710   1.451   3.536
 2870SOL     OW 9508   0.520   1.250   4.891
 2870SOL    HW1 9509   0.597   1.260   4.955
 2870SOL    HW2 9510   0.547   1.283   4.801
 2871SOL     OW 9511   0.073   1.503   6.233
 2871SOL    HW1 9512   0.062   1.602   6.237
 2871SOL    HW2 9513   0.121   1.479   6.148
 2872SOL     OW 9514   2.332   2.357   1.988
 2872SOL    HW1 9515   2.264   2.412   2.036
 2872SOL    HW2 9516   2.334   2.265   2.027
 2873SOL     OW 9517   6.534   5.638   2.681
 2873SOL    HW1 9518   6.525   5.703   2.605
 2873SOL    HW2 9519   6.628   5.605   2.685
 2874SOL     OW 9520   4.964   0.189   3.424
 2874SOL    HW1 9521   4.989   0.276   3.465
 2874SOL    HW2 9522   4.905   0.138   3.486
 2875SOL     OW 9523   5.336   0.597   1.061
 2875SOL    HW1 9524   5.287   0.683   1.052
 2875SOL    HW2 9525   5.322   0.560   1.152
 2876SOL     OW 9526   1.852   0.072   2.471
 2876SOL    HW1 9527   1.880   0.150   2.416
 2876SOL    HW2 9528   1.933   0.022   2.502
 2877SOL     OW 9529   2.561   1.832   5.973
 2877SOL    HW1 9530   2.648   1.815   6.019
 2877SOL    HW2 9531   2.578   1.862   5.879
 2878SOL     OW 9532   3.891   4.483   5.400
 2878SOL    HW1 9533   3.969   4.433   5.363
 2878SOL    HW2 9534   3.812   4.422   5.407
 2879SOL     OW 9535   5.463   5.275   0.208
 2879SOL    HW1 9536   5.532   5.261   0.136
 2879SOL    HW2 9537   5.378   5.229   0.182
 2880SOL     OW 9538   6.932   0.801   1.905
 2880SOL    HW1 9539   6.890   0.722   1.860
 2880SOL    HW2 9540   6.898   0.807   1.999
 2881SOL     OW 9541   4.863   5.774   6.303
 2881SOL    HW1 9542   4.763   5.775   6.310
 2881SOL    HW2 9543   4.902   5.829   6.377
 2882SOL     OW 9544   6.752   5.618   2.371
 2882SOL    HW1 9545   6.742   5.555   2.294
 2882SOL    HW2 9546   6.841   5.604   2.414
 2883SOL     OW 9547   6.076   0.177   3.066
 2883SOL    HW1 9548   6.085   0.093   3.012
 2883SOL    HW2 9549   6.073   0.256   3.005
 2884SOL     OW 9550   1.184   0.068   2.688
 2884SOL    HW1 9551   1.169   0.110   2.598
 2884SOL    HW2 9552   1.199   0.139   2.756
 2885SOL     OW 9553   1.526   3.917   3.399
 2885SOL    HW1 9554   1.429   3.911   3.377
 2885SOL    HW2 9555   1.543   3.998   3.455
 2886SOL     OW 9556   1.100   4.014   5.942
 2886SOL    HW1 9557   1.060   3.935   5.990
 2886SOL    HW2 9558   1.199   4.005   5.940
 2887SOL     OW 9559   0.632   0.924   5.783
 2887SOL    HW1 9560   0.654   1.018   5.810
 2887SOL    HW2 9561   0.533   0.911   5.785
 2888SOL     OW 9562   0.120   4.488   6.538
 2888SOL    HW1 9563   0.156   4.514   6.449
 2888SOL    HW2 9564   0.024   4.462   6.529
 2889SOL     OW 9565   2.706   6.160   2.511
 2889SOL    HW1 9566   2.616   6.185   2.476
 2889SOL    HW2 9567   2.736   6.074   2.470
 2890SOL     OW 9568   1.594   6.424   0.242
 2890SOL    HW1 9569   1.602   6.483   0.161
 2890SOL    HW2 9570   1.523   6.459   0.303
 2891SOL     OW 9571   1.012   4.887   3.516
 2891SOL    HW1 9572   1.064   4.875   3.432
 2891SOL    HW2 9573   0.964   4.975   3.514
 2892SOL     OW 9574   5.723   3.539   0.426
 2892SOL    HW1 9575   5.794   3.487   0.473
 2892SOL    HW2 9576   5.709   3.626   0.473
 2893SOL     OW 9577   6.800   5.414   4.631
 2893SOL    HW1 9578   6.734   5.359   4.579
 2893SOL    HW2 9579   6.891   5.371   4.625
 2894SOL     OW 9580   0.987   3.873   2.204
 2894SOL    HW1 9581   0.990   3.866   2.304
 2894SOL    HW2 9582   1.065   3.927   2.172
 2895SOL     OW 9583   5.125   2.526   5.853
 2895SOL    HW1 9584   5.145   2.431   5.878
 2895SOL    HW2 9585   5.199   2.561   5.796
 2896SOL     OW 9586   4.665   5.481   5.301
 2896SOL    HW1 9587   4.662   5.481   5.401
 2896SOL    HW2 9588   4.749   5.526   5.270
 2897SOL     OW 9589   3.957   5.066   3.456
 2897SOL    HW1 9590   3.928   5.130   3.528
 2897SOL    HW2 9591   3.957   4.973   3.493
 2898SOL     OW 9592   4.487   4.728   4.514
 2898SOL    HW1 9593   4.515   4.823   4.499
 2898SOL    HW2 9594   4.467   4.713   4.611
 2899SOL     OW 9595   1.144   1.676   0.063
 2899SOL    HW1 9596   1.228   1.716   0.027
 2899SOL    HW2 9597   1.142   1.578   0.041
 2900SOL     OW 9598   1.630   3.459   5.999
 2900SOL    HW1 9599   1.621   3.481   5.902
 2900SOL    HW2 9600   1.726   3.442   6.020
 2901SOL     OW 9601   3.498   5.445   3.052
 2901SOL    HW1 9602   3.455   5.481   2.970
 2901SOL    HW2 9603   3.428   5.422   3.120
 2902SOL     OW 9604   5.583   5.751   3.195
 2902SOL    HW1 9605   5.678   5.734   3.221
 2902SOL    HW2 9606   5.579   5.828   3.132
 2903SOL     OW 9607   3.095   0.410   0.688
 2903SOL    HW1 9608   2.995   0.418   0.683
 2903SOL    HW2 9609   3.131   0.384   0.598
 2904SOL     OW 9610   2.334   4.562   4.410
 2904SOL    HW1 9611   2.390   4.528   4.485
 2904SOL    HW2 9612   2.335   4.497   4.334
 2905SOL     OW 9613   1.370   2.272   4.698
 2905SOL    HW1 9614   1.279   2.308   4.678
 2905SOL    HW2 9615   1.420   2.337   4.755
 2906SOL     OW 9616   4.245   5.416   2.296
 2906SOL    HW1 9617   4.332   5.397   2.250
 2906SOL    HW2 9618   4.183   5.460   2.231
 2907SOL     OW 9619   0.729   1.058   3.280
 2907SOL    HW1 9620   0.655   1.091   3.222
 2907SOL    HW2 9621   0.741   1.120   3.358
 2908SOL     OW 9622   5.569   6.625   3.414
 2908SOL    HW1 9623   5.536   6.719   3.415
 2908SOL    HW2 9624   5.491   6.562   3.413
 2909SOL     OW 9625   1.757   5.647   3.927
 2909SOL    HW1 9626   1.676   5.615   3.976
 2909SOL    HW2 9627   1.820   5.691   3.991
 2910SOL     OW 9628   4.877   0.729   4.539
 2910SOL    HW1 9629   4.903   0.740   4.443
 2910SOL    HW2 9630   4.785   0.690   4.544
 2911SOL     OW 9631   1.187   5.667   3.556
 2911SOL    HW1 9632   1.199   5.569   3.548
 2911SOL    HW2 9633   1.108   5.696   3.502
 2912SOL     OW 9634   5.298   0.294   6.219
 2912SOL    HW1 9635   5.251   0.343   6.146
 2912SOL    HW2 9636   5.321   0.202   6.188
 2913SOL     OW 9637   2.952   5.130   2.561
 2913SOL    HW1 9638   2.901   5.044   2.560
 2913SOL    HW2 9639   3.010   5.135   2.479
 2914SOL     OW 9640   6.595   5.986   6.454
 2914SOL    HW1 9641   6.614   6.027   6.364
 2914SOL    HW2 9642   6.672   6.005   6.515
 2915SOL     OW 9643   4.648   1.709   3.728
 2915SOL    HW1 9644   4.707   1.628   3.724
 2915SOL    HW2 9645   4.597   1.716   3.643
 2916SOL     OW 9646   0.716   6.547   0.937
 2916SOL    HW1 9647   0.703   6.627   0.995
 2916SOL    HW2 9648   0.763   6.475   0.989
 2917SOL     OW 9649   2.532   0.462   3.342
 2917SOL    HW1 9650   2.434   0.447   3.333
 2917SOL    HW2 9651   2.582   0.404   3.278
 2918SOL     OW 9652   5.814   4.579   4.959
 2918SOL    HW1 9653   5.726   4.533   4.954
 2918SOL    HW2 9654   5.800   4.674   4.987
 2919SOL     OW 9655   5.676   0.828   2.589
 2919SOL    HW1 9656   5.714   0.771   2.661
 2919SOL    HW2 9657   5.730   0.816   2.505
 2920SOL     OW 9658   2.912   1.514   1.305
 2920SOL    HW1 9659   2.987   1.475   1.359
 2920SOL    HW2 9660   2.829   1.461   1.319
 2921SOL     OW 9661   0.741   0.351   4.556
 2921SOL    HW1 9662   0.765   0.284   4.626
 2921SOL    HW2 9663   0.642   0.365   4.556
 2922SOL     OW 9664   4.720   1.077   1.051
 2922SOL    HW1 9665   4.796   1.101   0.990
 2922SOL    HW2 9666   4.633   1.099   1.006
 2923SOL     OW 9667   6.224   5.072   2.399
 2923SOL    HW1 9668   6.299   5.098   2.459
 2923SOL    HW2 9669   6.153   5.025   2.451
 2924SOL     OW 9670   6.780   2.244   5.990
 2924SOL    HW1 9671   6.869   2.202   6.006
 2924SOL    HW2 9672   6.787   2.343   6.002
 2925SOL     OW 9673   4.920   0.572   2.335
 2925SOL    HW1 9674   5.004   0.597   2.287
 2925SOL    HW2 9675   4.857   0.650   2.335
 2926SOL     OW 9676   0.093   2.053   4.035
 2926SOL    HW1 9677   0.132   2.130   3.985
 2926SOL    HW2 9678   0.154   1.974   4.030
 2927SOL     OW 9679   1.279   3.802   0.858
 2927SOL    HW1 9680   1.218   3.736   0.814
 2927SOL    HW2 9681   1.371   3.791   0.820
 2928SOL     OW 9682   6.899   1.296   6.428
 2928SOL    HW1 9683   6.973   1.347   6.384
 2928SOL    HW2 9684   6.820   1.293   6.367
 2929SOL     OW 9685   0.473   2.120   0.198
 2929SOL    HW1 9686   0.567   2.126   0.164
 2929SOL    HW2 9687   0.443   2.209   0.230
 2930SOL     OW 9688   4.814   0.528   4.839
 2930SOL    HW1 9689   4.833   0.571   4.927
 2930SOL    HW2 9690   4.899   0.498   4.797
 2931SOL     OW 9691   5.371   4.899   6.930
 2931SOL    HW1 9692   5.462   4.910   6.970
 2931SOL    HW2 9693   5.327   4.818   6.970
 2932SOL     OW 9694   0.715   5.395   1.951
 2932SOL    HW1 9695   0.805   5.431   1.924
 2932SOL    HW2 9696   0.650   5.471   1.959
 2933SOL     OW 9697   0.282   5.388   3.234
 2933SOL    HW1 9698   0.323   5.476   3.260
 2933SOL    HW2 9699   0.266   5.334   3.317
 2934SOL     OW 9700   4.539   1.594   0.399
 2934SOL    HW1 9701   4.564   1.667   0.335
 2934SOL    HW2 9702   4.555   1.505   0.357
 2935SOL     OW 9703   6.384   3.292   6.841
 2935SOL    HW1 9704   6.318   3.345   6.894
 2935SOL    HW2 9705   6.376   3.316   6.745
 2936SOL     OW 9706   3.918   6.742   0.768
 2936SOL    HW1 9707   3.820   6.749   0.747
 2936SOL    HW2 9708   3.951   6.652   0.741
 2937SOL     OW 9709   5.088   4.530   0.836
 2937SOL    HW1 9710   5.146   4.455   0.869
 2937SOL    HW2 9711   5.002   4.493   0.801
 2938SOL     OW 9712   4.823   4.841   6.436
 2938SOL    HW1 9713   4.829   4.939   6.452
 2938SOL    HW2 9714   4.741   4.821   6.382
 2939SOL     OW 9715   1.765   0.999   2.773
 2939SOL    HW1 9716   1.765   0.899   2.767
 2939SOL    HW2 9717   1.715   1.037   2.695
 2940SOL     OW 9718   5.453   4.986   5.931
 2940SOL    HW1 9719   5.367   5.034   5.921
 2940SOL    HW2 9720   5.513   5.009   5.854
 2941SOL     OW 9721   1.977   1.856   4.597
 2941SOL    HW1 9722   2.000   1.759   4.598
 2941SOL    HW2 9723   2.003   1.896   4.509
 2942SOL     OW 9724   2.640   2.274   0.398
 2942SOL    HW1 9725   2.719   2.316   0.442
 2942SOL    HW2 9726   2.587   2.224   0.467
 2943SOL     OW 9727   4.664   4.311   3.565
 2943SOL    HW1 9728   4.659   4.280   3.470
 2943SOL    HW2 9729   4.593   4.379   3.582
 2944SOL     OW 9730   3.008   5.976   4.363
 2944SOL    HW1 9731   3.106   5.960   4.368
 2944SOL    HW2 9732   2.991   6.068   4.325
 2945SOL     OW 9733   2.913   3.748   3.570
 2945SOL    HW1 9734   3.001   3.747   3.521
 2945SOL    HW2 9735   2.900   3.837   3.613
 2946SOL     OW 9736   0.795   4.670   6.138
 2946SOL    HW1 9737   0.887   4.641   6.166
 2946SOL    HW2 9738   0.733   4.666   6.216
 2947SOL     OW 9739   0.098   3.671   1.006
 2947SOL    HW1 9740   0.181   3.691   1.059
 2947SOL    HW2 9741   0.020   3.667   1.068
 2948SOL     OW 9742   0.715   4.263   5.381
 2948SOL    HW1 9743   0.810   4.251   5.413
 2948SOL    HW2 9744   0.658   4.290   5.458
 2949SOL     OW 9745   2.609   5.343   0.684
 2949SOL    HW1 9746   2.599   5.437   0.717
 2949SOL    HW2 9747   2.579   5.337   0.589
 2950SOL     OW 9748   5.350   4.567   4.241
 2950SOL    HW1 9749   5.312   4.551   4.332
 2950SOL    HW2 9750   5.349   4.665   4.222
 2951SOL     OW 9751   6.143   0.650   0.661
 2951SOL    HW1 9752   6.210   0.579   0.678
 2951SOL    HW2 9753   6.174   0.708   0.585
 2952SOL     OW 9754   6.937   4.385   5.236
 2952SOL    HW1 9755   6.957   4.295   5.198
 2952SOL    HW2 9756   6.848   4.382   5.282
 2953SOL     OW 9757   4.992   3.226   2.182
 2953SOL    HW1 9758   4.961   3.255   2.091
 2953SOL    HW2 9759   5.084   3.187   2.174
 2954SOL     OW 9760   0.945   5.816   1.837
 2954SOL    HW1 9761   0.858   5.850   1.874
 2954SOL    HW2 9762   0.926   5.750   1.764
 2955SOL     OW 9763   0.863   4.094   2.182
 2955SOL    HW1 9764   0.890   3.999   2.197
 2955SOL    HW2 9765   0.902   4.126   2.096
 2956SOL     OW 9766   5.307   5.971   3.293
 2956SOL    HW1 9767   5.317   5.898   3.361
 2956SOL    HW2 9768   5.271   5.934   3.208
 2957SOL     OW 9769   6.072   3.550   1.867
 2957SOL    HW1 9770   6.034   3.556   1.959
 2957SOL    HW2 9771   6.144   3.480   1.865
 2958SOL     OW 9772   2.683   4.657   4.186
 2958SOL    HW1 9773   2.611   4.606   4.140
 2958SOL    HW2 9774   2.671   4.649   4.285
 2959SOL     OW 9775   4.748   4.193   0.306
 2959SOL    HW1 9776   4.746   4.244   0.392
 2959SOL    HW2 9777   4.675   4.126   0.305
 2960SOL     OW 9778   3.295   0.916   6.857
 2960SOL    HW1 9779   3.307   1.013   6.836
 2960SOL    HW2 9780   3.337   0.861   6.784
 2961SOL     OW 9781   5.261   3.710   2.748
 2961SOL    HW1 9782   5.198   3.762   2.805
 2961SOL    HW2 9783   5.238   3.613   2.753
 2962SOL     OW 9784   5.108   6.969   2.997
 2962SOL    HW1 9785   5.119   0.029   3.053
 2962SOL    HW2 9786   5.129   6.888   3.052
 2963SOL     OW 9787   2.244   0.818   6.040
 2963SOL    HW1 9788   2.335   0.854   6.059
 2963SOL    HW2 9789   2.230   0.733   6.092
 2964SOL     OW 9790   0.386   0.115   3.408
 2964SOL    HW1 9791   0.425   0.195   3.454
 2964SOL    HW2 9792   0.456   0.073   3.349
 2965SOL     OW 9793   0.032   1.425   3.979
 2965SOL    HW1 9794   6.955   1.414   3.989
 2965SOL    HW2 9795   0.078   1.378   4.055
 2966SOL     OW 9796   5.088   5.953   3.658
 2966SOL    HW1 9797   5.007   5.914   3.614
 2966SOL    HW2 9798   5.087   6.053   3.646
 2967SOL     OW 9799   6.519   0.739   4.914
 2967SOL    HW1 9800   6.532   0.828   4.871
 2967SOL    HW2 9801   6.594   0.720   4.976
 2968SOL     OW 9802   1.145   2.739   6.534
 2968SOL    HW1 9803   1.133   2.752   6.632
 2968SOL    HW2 9804   1.242   2.748   6.511
 2969SOL     OW 9805   5.053   1.467   4.081
 2969SOL    HW1 9806   5.087   1.425   4.165
 2969SOL    HW2 9807   5.110   1.438   4.004
 2970SOL     OW 9808   1.852   4.043   6.372
 2970SOL    HW1 9809   1.875   4.099   6.452
 2970SOL    HW2 9810   1.913   4.067   6.297
 2971SOL     OW 9811   5.144   4.318   0.182
 2971SOL    HW1 9812   5.097   4.369   0.109
 2971SOL    HW2 9813   5.162   4.379   0.259
 2972SOL     OW 9814   6.292   4.596   6.488
 2972SOL    HW1 9815   6.359   4.524   6.502
 2972SOL    HW2 9816   6.231   4.571   6.412
 2973SOL     OW 9817   5.674   6.395   2.771
 2973SOL    HW1 9818   5.694   6.318   2.710
 2973SOL    HW2 9819   5.629   6.468   2.719
 2974SOL     OW 9820   1.033   4.741   3.069
 2974SOL    HW1 9821   1.010   4.825   3.117
 2974SOL    HW2 9822   1.078   4.677   3.132
 2975SOL     OW 9823   5.557   3.310   4.131
 2975SOL    HW1 9824   5.629   3.247   4.160
 2975SOL    HW2 9825   5.542   3.378   4.203
 2976SOL     OW 9826   4.567   1.973   2.783
 2976SOL    HW1 9827   4.559   2.051   2.721
 2976SOL    HW2 9828   4.630   1.906   2.744
 2977SOL     OW 9829   2.624   6.845   2.730
 2977SOL    HW1 9830   2.625   6.748   2.708
 2977SOL    HW2 9831   2.659   6.859   2.823
 2978SOL     OW 9832   5.385   4.410   0.111
 2978SOL    HW1 9833   5.304   4.384   0.164
 2978SOL    HW2 9834   5.391   4.352   0.030
 2979SOL     OW 9835   3.686   0.846   4.058
 2979SOL    HW1 9836   3.689   0.944   4.077
 2979SOL    HW2 9837   3.720   0.796   4.138
 2980SOL     OW 9838   1.160   5.879   5.124
 2980SOL    HW1 9839   1.208   5.796   5.095
 2980SOL    HW2 9840   1.123   5.865   5.215
 2981SOL     OW 9841   2.386   1.358   5.913
 2981SOL    HW1 9842   2.478   1.321   5.903
 2981SOL    HW2 9843   2.378   1.442   5.861
 2982SOL     OW 9844   3.572   4.963   2.687
 2982SOL    HW1 9845   3.474   4.948   2.692
 2982SOL    HW2 9846   3.591   5.061   2.673
 2983SOL     OW 9847   0.402   1.636   2.766
 2983SOL    HW1 9848   0.367   1.546   2.742
 2983SOL    HW2 9849   0.477   1.627   2.832
 2984SOL     OW 9850   5.163   5.059   1.318
 2984SOL    HW1 9851   5.192   5.150   1.290
 2984SOL    HW2 9852   5.185   4.993   1.246
 2985SOL     OW 9853   1.781   2.902   5.550
 2985SOL    HW1 9854   1.836   2.843   5.490
 2985SOL    HW2 9855   1.696   2.854   5.574
 2986SOL     OW 9856   3.399   4.195   3.919
 2986SOL    HW1 9857   3.447   4.202   4.007
 2986SOL    HW2 9858   3.422   4.274   3.863
 2987SOL     OW 9859   6.374   1.572   4.448
 2987SOL    HW1 9860   6.351   1.476   4.461
 2987SOL    HW2 9861   6.453   1.595   4.506
 2988SOL     OW 9862   1.531   5.687   2.597
 2988SOL    HW1 9863   1.578   5.749   2.659
 2988SOL    HW2 9864   1.565   5.699   2.504
 2989SOL     OW 9865   6.288   5.834   6.089
 2989SOL    HW1 9866   6.376   5.803   6.126
 2989SOL    HW2 9867   6.228   5.861   6.164
 2990SOL     OW 9868   3.699   1.895   4.797
 2990SOL    HW1 9869   3.785   1.944   4.781
 2990SOL    HW2 9870   3.676   1.900   4.894
 2991SOL     OW 9871   6.740   4.124   5.197
 2991SOL    HW1 9872   6.778   4.151   5.109
 2991SOL    HW2 9873   6.798   4.052   5.237
 2992SOL     OW 9874   2.657   6.280   4.973
 2992SOL    HW1 9875   2.641   6.376   4.999
 2992SOL    HW2 9876   2.745   6.273   4.926
 2993SOL     OW 9877   0.739   4.841   1.673
 2993SOL    HW1 9878   0.823   4.832   1.620
 2993SOL    HW2 9879   0.747   4.790   1.758
 2994SOL     OW 9880   4.303   6.054   0.210
 2994SOL    HW1 9881   4.214   6.058   0.163
 2994SOL    HW2 9882   4.357   5.979   0.171
 2995SOL     OW 9883   3.041   2.016   5.990
 2995SOL    HW1 9884   2.963   2.051   6.042
 2995SOL    HW2 9885   3.039   1.916   5.992
 2996SOL     OW 9886   1.217   1.428   3.282
 2996SOL    HW1 9887   1.262   1.363   3.343
 2996SOL    HW2 9888   1.192   1.511   3.332
 2997SOL     OW 9889   6.071   0.204   2.622
 2997SOL    HW1 9890   6.045   0.254   2.705
 2997SOL    HW2 9891   6.094   0.110   2.646
 2998SOL     OW 9892   4.528   7.014   3.916
 2998SOL    HW1 9893   4.618   0.019   3.950
 2998SOL    HW2 9894   4.457   0.046   3.961
 2999SOL     OW 9895   2.515   5.229   5.020
 2999SOL    HW1 9896   2.577   5.155   5.044
 2999SOL    HW2 9897   2.553   5.316   5.052
 3000SOL     OW 9898   2.827   3.596   6.689
 3000SOL    HW1 9899   2.859   3.643   6.607
 3000SOL    HW2 9900   2.846   3.653   6.769
 3001SOL     OW 9901   5.566   0.008   6.265
 3001SOL    HW1 9902   5.568   0.094   6.316
 3001SOL    HW2 9903   5.506   0.017   6.186
 3002SOL     OW 9904   3.310   1.447   6.722
 3002SOL    HW1 9905   3.316   1.513   6.648
 3002SOL    HW2 9906   3.339   1.490   6.808
 3003SOL     OW 9907   1.566   7.004   0.387
 3003SOL    HW1 9908   1.481   6.953   0.380
 3003SOL    HW2 9909   1.601   6.998   0.480
 3004SOL     OW 9910   1.149   4.824   2.797
 3004SOL    HW1 9911   1.122   4.772   2.879
 3004SOL    HW2 9912   1.222   4.888   2.821
 3005SOL     OW 9913   2.549   2.028   0.822
 3005SOL    HW1 9914   2.635   2.033   0.873
 3005SOL    HW2 9915   2.569   2.025   0.724
 3006SOL     OW 9916   5.558   1.675   5.023
 3006SOL    HW1 9917   5.563   1.576   5.031
 3006SOL    HW2 9918   5.572   1.702   4.927
 3007SOL     OW 9919   5.387   4.671   1.226
 3007SOL    HW1 9920   5.451   4.690   1.151
 3007SOL    HW2 9921   5.405   4.734   1.302
 3008SOL     OW 9922   3.613   2.210   6.120
 3008SOL    HW1 9923   3.518   2.209   6.087
 3008SOL    HW2 9924   3.613   2.215   6.220
 3009SOL     OW 9925   0.273   1.874   2.668
 3009SOL    HW1 9926   0.328   1.792   2.683
 3009SOL    HW2 9927   0.315   1.930   2.597
 3010SOL     OW 9928   3.680   5.899   3.576
 3010SOL    HW1 9929   3.749   5.951   3.524
 3010SOL    HW2 9930   3.612   5.862   3.513
 3011SOL     OW 9931   5.954   1.218   2.259
 3011SOL    HW1 9932   6.007   1.160   2.197
 3011SOL    HW2 9933   5.967   1.314   2.235
 3012SOL     OW 9934   1.947   3.576   5.977
 3012SOL    HW1 9935   1.926   3.480   5.997
 3012SOL    HW2 9936   2.022   3.607   6.035
 3013SOL     OW 9937   5.884   5.887   4.507
 3013SOL    HW1 9938   5.897   5.982   4.478
 3013SOL    HW2 9939   5.915   5.825   4.436
 3014SOL     OW 9940   4.407   2.369   4.671
 3014SOL    HW1 9941   4.447   2.452   4.632
 3014SOL    HW2 9942   4.434   2.361   4.767
 3015SOL     OW 9943   3.372   1.700   0.427
 3015SOL    HW1 9944   3.297   1.749   0.382
 3015SOL    HW2 9945   3.385   1.736   0.519
 3016SOL     OW 9946   2.675   6.275   4.185
 3016SOL    HW1 9947   2.679   6.374   4.202
 3016SOL    HW2 9948   2.650   6.228   4.269
 3017SOL     OW 9949   6.517   4.852   2.326
 3017SOL    HW1 9950   6.505   4.815   2.418
 3017SOL    HW2 9951   6.439   4.825   2.269
 3018SOL     OW 9952   3.001   6.730   5.999
 3018SOL    HW1 9953   2.954   6.817   5.986
 3018SOL    HW2 9954   3.081   6.744   6.058
 3019SOL     OW 9955   0.850   0.253   6.886
 3019SOL    HW1 9956   0.807   0.340   6.910
 3019SOL    HW2 9957   0.927   0.236   6.948
 3020SOL     OW 9958   3.783   2.919   1.573
 3020SOL    HW1 9959   3.823   2.840   1.527
 3020SOL    HW2 9960   3.688   2.929   1.545
 3021SOL     OW 9961   3.093   6.988   6.418
 3021SOL    HW1 9962   3.006   7.011   6.462
 3021SOL    HW2 9963   3.100   0.017   6.332
 3022SOL     OW 9964   3.501   5.752   4.413
 3022SOL    HW1 9965   3.525   5.688   4.486
 3022SOL    HW2 9966   3.534   5.844   4.436
 3023SOL     OW 9967   3.270   0.049   3.057
 3023SOL    HW1 9968   3.298   6.977   3.077
 3023SOL    HW2 9969   3.338   0.113   3.094
 3024SOL     OW 9970   4.816   0.055   4.763
 3024SOL    HW1 9971   4.769   0.131   4.807
 3024SOL    HW2 9972   4.827   0.075   4.665
 3025SOL     OW 9973   3.069   0.252   0.367
 3025SOL    HW1 9974   2.996   0.321   0.372
 3025SOL    HW2 9975   3.029   0.162   0.353
 3026SOL     OW 9976   1.544   0.477   6.894
 3026SOL    HW1 9977   1.546   0.382   6.864
 3026SOL    HW2 9978   1.634   0.503   6.930
 3027SOL     OW 9979   3.944   0.654   2.988
 3027SOL    HW1 9980   3.946   0.556   3.008
 3027SOL    HW2 9981   3.869   0.674   2.924
 3028SOL     OW 9982   1.160   3.868   5.662
 3028SOL    HW1 9983   1.232   3.814   5.619
 3028SOL    HW2 9984   1.152   3.843   5.758
 3029SOL     OW 9985   6.982   2.489   5.299
 3029SOL    HW1 9986   6.915   2.415   5.293
 3029SOL    HW2 9987   6.998   2.511   5.396
 3030SOL     OW 9988   0.163   3.348   6.999
 3030SOL    HW1 9989   0.153   3.424   6.935
 3030SOL    HW2 9990   0.231   3.284   6.965
 3031SOL     OW 9991   0.541   3.994   0.184
 3031SOL    HW1 9992   0.521   3.897   0.171
 3031SOL    HW2 9993   0.595   4.006   0.268
 3032SOL     OW 9994   2.887   0.128   0.697
 3032SOL    HW1 9995   2.982   0.106   0.677
 3032SOL    HW2 9996   2.833   0.127   0.613
 3033SOL     OW 9997   6.150   2.026   1.640
 3033SOL    HW1 9998   6.118   2.071   1.557
 3033SOL    HW2 9999   6.072   1.987   1.689
 3034SOL     OW10000   1.981   5.624   2.955
 3034SOL    HW110001   1.987   5.558   3.030
 3034SOL    HW210002   1.993   5.577   2.868
 3035SOL     OW10003   0.127   3.088   6.867
 3035SOL    HW110004   0.035   3.116   6.839
 3035SOL    HW210005   0.189   3.097   6.789
 3036SOL     OW10006   1.962   1.299   6.497
 3036SOL    HW110007   1.907   1.217   6.514
 3036SOL    HW210008   2.053   1.286   6.536
 3037SOL     OW10009   6.240   5.948   5.179
 3037SOL    HW110010   6.276   5.981   5.267
 3037SOL    HW210011   6.309   5.890   5.135
 3038SOL     OW10012   5.322   6.063   5.941
 3038SOL    HW110013   5.350   6.158   5.933
 3038SOL    HW210014   5.393   6.011   5.990
 3039SOL     OW10015   6.410   3.201   0.311
 3039SOL    HW110016   6.389   3.283   0.257
 3039SOL    HW210017   6.495   3.161   0.278
 3040SOL     OW10018   3.708   4.270   6.111
 3040SOL    HW110019   3.686   4.300   6.204
 3040SOL    HW210020   3.807   4.259   6.102
 3041SOL     OW10021   2.119   2.708   4.275
 3041SOL    HW110022   2.186   2.662   4.217
 3041SOL    HW210023   2.049   2.642   4.303
 3042SOL     OW10024   4.880   5.874   1.957
 3042SOL    HW110025   4.790   5.835   1.940
 3042SOL    HW210026   4.874   5.974   1.955
 3043SOL     OW10027   2.493   4.578   1.729
 3043SOL    HW110028   2.424   4.638   1.688
 3043SOL    HW210029   2.475   4.571   1.828
 3044SOL     OW10030   3.788   4.164   5.735
 3044SOL    HW110031   3.721   4.237   5.749
 3044SOL    HW210032   3.763   4.110   5.655
 3045SOL     OW10033   4.193   0.283   3.061
 3045SOL    HW110034   4.233   0.260   2.973
 3045SOL    HW210035   4.242   0.236   3.134
 3046SOL     OW10036   2.554   0.676   6.251
 3046SOL    HW110037   2.490   0.667   6.328
 3046SOL    HW210038   2.526   0.752   6.193
 3047SOL     OW10039   6.488   0.389   2.070
 3047SOL    HW110040   6.465   0.476   2.026
 3047SOL    HW210041   6.442   0.384   2.159
 3048SOL     OW10042   3.916   2.331   1.728
 3048SOL    HW110043   3.830   2.332   1.780
 3048SOL    HW210044   3.901   2.283   1.642
 3049SOL     OW10045   1.815   6.569   2.285
 3049SOL    HW110046   1.746   6.600   2.350
 3049SOL    HW210047   1.783   6.586   2.192
 3050SOL     OW10048   3.057   1.248   1.637
 3050SOL    HW110049   2.991   1.177   1.661
 3050SOL    HW210050   3.150   1.214   1.653
 3051SOL     OW10051   2.160   4.585   6.849
 3051SOL    HW110052   2.250   4.575   6.806
 3051SOL    HW210053   2.168   4.567   6.947
 3052SOL     OW10054   5.031   6.057   1.531
 3052SOL    HW110055   5.081   6.022   1.611
 3052SOL    HW210056   5.074   6.142   1.500
 3053SOL     OW10057   6.864   2.075   6.924
 3053SOL    HW110058   6.812   2.131   6.859
 3053SOL    HW210059   6.866   1.980   6.891
 3054SOL     OW10060   6.803   1.800   0.668
 3054SOL    HW110061   6.742   1.728   0.635
 3054SOL    HW210062   6.804   1.875   0.601
 3055SOL     OW10063   5.015   0.456   4.260
 3055SOL    HW110064   4.982   0.547   4.286
 3055SOL    HW210065   5.115   0.458   4.253
 3056SOL     OW10066   6.600   0.433   4.960
 3056SOL    HW110067   6.697   0.454   4.945
 3056SOL    HW210068   6.577   0.346   4.915
 3057SOL     OW10069   4.583   6.219   2.391
 3057SOL    HW110070   4.593   6.143   2.455
 3057SOL    HW210071   4.626   6.196   2.304
 3058SOL     OW10072   0.198   4.364   1.894
 3058SOL    HW110073   0.221   4.338   1.801
 3058SOL    HW210074   0.264   4.324   1.958
 3059SOL     OW10075   2.889   1.974   4.246
 3059SOL    HW110076   2.919   1.961   4.340
 3059SOL    HW210077   2.893   2.072   4.223
 3060SOL     OW10078   0.872   5.519   0.312
 3060SOL    HW110079   0.945   5.473   0.363
 3060SOL    HW210080   0.831   5.589   0.370
 3061SOL     OW10081   0.152   6.920   4.720
 3061SOL    HW110082   0.182   6.876   4.636
 3061SOL    HW210083   0.052   6.915   4.727
 3062SOL     OW10084   1.950   0.373   0.923
 3062SOL    HW110085   2.009   0.293   0.913
 3062SOL    HW210086   1.884   0.376   0.848
 3063SOL     OW10087   2.556   4.914   2.000
 3063SOL    HW110088   2.641   4.896   1.951
 3063SOL    HW210089   2.479   4.889   1.942
 3064SOL     OW10090   5.509   4.323   2.296
 3064SOL    HW110091   5.530   4.275   2.381
 3064SOL    HW210092   5.456   4.264   2.236
 3065SOL     OW10093   2.122   0.859   0.523
 3065SOL    HW110094   2.166   0.837   0.610
 3065SOL    HW210095   2.135   0.956   0.502
 3066SOL     OW10096   4.640   5.491   1.071
 3066SOL    HW110097   4.560   5.484   1.129
 3066SOL    HW210098   4.694   5.571   1.097
 3067SOL     OW10099   3.250   1.949   5.449
 3067SOL    HW110100   3.347   1.941   5.429
 3067SOL    HW210101   3.200   1.975   5.367
 3068SOL     OW10102   6.758   0.167   0.639
 3068SOL    HW110103   6.677   0.123   0.602
 3068SOL    HW210104   6.773   0.137   0.733
 3069SOL     OW10105   7.020   5.868   1.723
 3069SOL    HW110106   6.943   5.901   1.778
 3069SOL    HW210107   0.056   5.809   1.779
 3070SOL     OW10108   2.589   1.485   0.052
 3070SOL    HW110109   2.573   1.386   0.048
 3070SOL    HW210110   2.683   1.505   0.025
 3071SOL     OW10111   6.289   5.853   3.376
 3071SOL    HW110112   6.275   5.928   3.312
 3071SOL    HW210113   6.345   5.782   3.333
 3072SOL     OW10114   2.166   6.144   6.750
 3072SOL    HW110115   2.117   6.169   6.833
 3072SOL    HW210116   2.152   6.046   6.732
 3073SOL     OW10117   5.737   2.979   4.240
 3073SOL    HW110118   5.818   3.033   4.218
 3073SOL    HW210119   5.756   2.882   4.223
 3074SOL     OW10120   5.601   4.312   0.754
 3074SOL    HW110121   5.640   4.339   0.665
 3074SOL    HW210122   5.597   4.213   0.760
 3075SOL     OW10123   2.752   6.380   1.659
 3075SOL    HW110124   2.667   6.432   1.671
 3075SOL    HW210125   2.823   6.418   1.717
 3076SOL     OW10126   6.709   0.458   4.557
 3076SOL    HW110127   6.637   0.517   4.594
 3076SOL    HW210128   6.759   0.415   4.632
 3077SOL     OW10129   5.358   5.303   1.626
 3077SOL    HW110130   5.272   5.319   1.675
 3077SOL    HW210131   5.427   5.270   1.690
 3078SOL     OW10132   6.940   2.995   3.027
 3078SOL    HW110133   0.017   2.985   3.020
 3078SOL    HW210134   6.899   2.991   2.935
 3079SOL     OW10135   2.337   2.375   2.922
 3079SOL    HW110136   2.392   2.443   2.873
 3079SOL    HW210137   2.358   2.284   2.886
 3080SOL     OW10138   4.785   4.564   2.675
 3080SOL    HW110139   4.717   4.635   2.691
 3080SOL    HW210140   4.749   4.476   2.706
 3081SOL     OW10141   0.849   2.875   4.916
 3081SOL    HW110142   0.796   2.889   5.000
 3081SOL    HW210143   0.943   2.905   4.930
 3082SOL     OW10144   2.835   6.546   4.012
 3082SOL    HW110145   2.738   6.548   3.989
 3082SOL    HW210146   2.846   6.558   4.111
 3083SOL     OW10147   3.288   5.947   4.312
 3083SOL    HW110148   3.299   5.917   4.217
 3083SOL    HW210149   3.368   5.920   4.365
 3084SOL     OW10150   6.847   3.852   5.058
 3084SOL    HW110151   6.893   3.771   5.020
 3084SOL    HW210152   6.916   3.917   5.090
 3085SOL     OW10153   6.273   4.772   0.692
 3085SOL    HW110154   6.177   4.760   0.716
 3085SOL    HW210155   6.298   4.869   0.703
 3086SOL     OW10156   4.918   1.621   1.195
 3086SOL    HW110157   4.852   1.696   1.206
 3086SOL    HW210158   4.898   1.572   1.111
 3087SOL     OW10159   0.845   5.297   3.944
 3087SOL    HW110160   0.770   5.359   3.966
 3087SOL    HW210161   0.815   5.233   3.872
 3088SOL     OW10162   1.892   4.932   4.998
 3088SOL    HW110163   1.820   4.882   5.046
 3088SOL    HW210164   1.981   4.907   5.036
 3089SOL     OW10165   1.701   3.218   6.309
 3089SOL    HW110166   1.603   3.231   6.326
 3089SOL    HW210167   1.715   3.138   6.251
 3090SOL     OW10168   2.436   2.272   1.518
 3090SOL    HW110169   2.449   2.370   1.509
 3090SOL    HW210170   2.513   2.232   1.568
 3091SOL     OW10171   1.386   0.267   1.679
 3091SOL    HW110172   1.319   0.327   1.635
 3091SOL    HW210173   1.362   0.255   1.775
 3092SOL     OW10174   4.712   1.260   0.527
 3092SOL    HW110175   4.795   1.216   0.561
 3092SOL    HW210176   4.733   1.354   0.500
 3093SOL     OW10177   5.544   6.352   6.056
 3093SOL    HW110178   5.470   6.341   5.989
 3093SOL    HW210179   5.543   6.275   6.119
 3094SOL     OW10180   1.922   6.877   4.480
 3094SOL    HW110181   1.980   6.948   4.442
 3094SOL    HW210182   1.831   6.914   4.499
 3095SOL     OW10183   2.535   5.202   5.365
 3095SOL    HW110184   2.518   5.145   5.284
 3095SOL    HW210185   2.570   5.291   5.335
 3096SOL     OW10186   1.668   5.729   5.270
 3096SOL    HW110187   1.620   5.641   5.265
 3096SOL    HW210188   1.603   5.803   5.250
 3097SOL     OW10189   6.191   2.556   0.434
 3097SOL    HW110190   6.266   2.493   0.456
 3097SOL    HW210191   6.115   2.539   0.497
 3098SOL     OW10192   2.329   2.963   1.587
 3098SOL    HW110193   2.275   2.880   1.594
 3098SOL    HW210194   2.274   3.042   1.613
 3099SOL     OW10195   0.959   7.016   3.673
 3099SOL    HW110196   1.013   6.986   3.751
 3099SOL    HW210197   0.985   0.088   3.649
 3100SOL     OW10198   6.850   5.650   3.880
 3100SOL    HW110199   6.777   5.718   3.880
 3100SOL    HW210200   6.834   5.583   3.953
 3101SOL     OW10201   5.633   6.802   6.899
 3101SOL    HW110202   5.606   6.739   6.972
 3101SOL    HW210203   5.634   6.896   6.935
 3102SOL     OW10204   6.685   4.882   2.077
 3102SOL    HW110205   6.684   4.859   2.175
 3102SOL    HW210206   6.702   4.980   2.066
 3103SOL     OW10207   4.448   0.664   2.435
 3103SOL    HW110208   4.481   0.725   2.363
 3103SOL    HW210209   4.419   0.719   2.514
 3104SOL     OW10210   5.068   0.473   4.718
 3104SOL    HW110211   5.089   0.533   4.641
 3104SOL    HW210212   5.117   0.386   4.706
 3105SOL     OW10213   6.241   4.484   1.123
 3105SOL    HW110214   6.190   4.564   1.091
 3105SOL    HW210215   6.200   4.401   1.085
 3106SOL     OW10216   5.642   1.029   3.348
 3106SOL    HW110217   5.690   0.961   3.404
 3106SOL    HW210218   5.565   1.066   3.400
 3107SOL     OW10219   4.457   1.300   5.042
 3107SOL    HW110220   4.508   1.370   4.992
 3107SOL    HW210221   4.415   1.340   5.123
 3108SOL     OW10222   1.615   6.349   3.856
 3108SOL    HW110223   1.668   6.283   3.803
 3108SOL    HW210224   1.534   6.377   3.804
 3109SOL     OW10225   5.794   6.096   3.087
 3109SOL    HW110226   5.816   6.156   3.164
 3109SOL    HW210227   5.878   6.053   3.053
 3110SOL     OW10228   1.077   2.579   2.169
 3110SOL    HW110229   1.105   2.582   2.073
 3110SOL    HW210230   0.977   2.575   2.174
 3111SOL     OW10231   6.493   5.442   3.554
 3111SOL    HW110232   6.554   5.510   3.513
 3111SOL    HW210233   6.453   5.478   3.638
 3112SOL     OW10234   4.489   2.839   0.002
 3112SOL    HW110235   4.489   2.915   0.066
 3112SOL    HW210236   4.487   2.874   6.931
 3113SOL     OW10237   2.611   5.645   4.052
 3113SOL    HW110238   2.514   5.642   4.027
 3113SOL    HW210239   2.637   5.740   4.071
 3114SOL     OW10240   4.481   1.731   1.105
 3114SOL    HW110241   4.523   1.655   1.155
 3114SOL    HW210242   4.382   1.727   1.114
 3115SOL     OW10243   3.783   3.828   6.617
 3115SOL    HW110244   3.801   3.762   6.545
 3115SOL    HW210245   3.869   3.867   6.650
 3116SOL     OW10246   0.481   2.787   6.816
 3116SOL    HW110247   0.581   2.785   6.808
 3116SOL    HW210248   0.456   2.818   6.908
 3117SOL     OW10249   4.282   3.496   5.226
 3117SOL    HW110250   4.275   3.397   5.237
 3117SOL    HW210251   4.363   3.517   5.171
 3118SOL     OW10252   0.895   5.161   2.290
 3118SOL    HW110253   0.803   5.164   2.251
 3118SOL    HW210254   0.891   5.121   2.382
 3119SOL     OW10255   2.275   3.384   6.035
 3119SOL    HW110256   2.220   3.453   6.083
 3119SOL    HW210257   2.235   3.293   6.049
 3120SOL     OW10258   3.406   0.528   4.867
 3120SOL    HW110259   3.469   0.499   4.795
 3120SOL    HW210260   3.447   0.602   4.920
 3121SOL     OW10261   0.120   0.578   3.669
 3121SOL    HW110262   0.210   0.606   3.637
 3121SOL    HW210263   0.107   0.606   3.764
 3122SOL     OW10264   4.214   6.408   6.388
 3122SOL    HW110265   4.267   6.349   6.327
 3122SOL    HW210266   4.205   6.499   6.346
 3123SOL     OW10267   2.560   1.785   3.601
 3123SOL    HW110268   2.593   1.846   3.672
 3123SOL    HW210269   2.495   1.834   3.542
 3124SOL     OW10270   4.290   0.073   4.552
 3124SOL    HW110271   4.363   0.089   4.618
 3124SOL    HW210272   4.268   6.997   4.550
 3125SOL     OW10273   0.234   2.250   5.262
 3125SOL    HW110274   0.236   2.347   5.236
 3125SOL    HW210275   0.285   2.196   5.195
 3126SOL     OW10276   5.685   4.329   5.384
 3126SOL    HW110277   5.689   4.326   5.484
 3126SOL    HW210278   5.613   4.267   5.352
 3127SOL     OW10279   1.476   3.553   5.206
 3127SOL    HW110280   1.507   3.482   5.143
 3127SOL    HW210281   1.544   3.626   5.211
 3128SOL     OW10282   2.581   0.417   6.156
 3128SOL    HW110283   2.574   0.513   6.182
 3128SOL    HW210284   2.616   0.364   6.233
 3129SOL     OW10285   6.036   3.856   6.312
 3129SOL    HW110286   5.974   3.914   6.365
 3129SOL    HW210287   6.112   3.828   6.370
 3130SOL     OW10288   1.612   4.055   1.022
 3130SOL    HW110289   1.643   3.960   1.027
 3130SOL    HW210290   1.668   4.111   1.084
 3131SOL     OW10291   0.618   2.796   1.423
 3131SOL    HW110292   0.678   2.727   1.465
 3131SOL    HW210293   0.661   2.832   1.341
 3132SOL     OW10294   3.717   5.749   6.276
 3132SOL    HW110295   3.685   5.807   6.351
 3132SOL    HW210296   3.772   5.674   6.314
 3133SOL     OW10297   3.877   1.696   3.623
 3133SOL    HW110298   3.875   1.647   3.711
 3133SOL    HW210299   3.966   1.683   3.580
 3134SOL     OW10300   4.626   4.007   1.735
 3134SOL    HW110301   4.588   4.090   1.775
 3134SOL    HW210302   4.552   3.947   1.705
 3135SOL     OW10303   4.443   0.916   5.382
 3135SOL    HW110304   4.391   0.909   5.296
 3135SOL    HW210305   4.438   0.829   5.431
 3136SOL     OW10306   5.265   0.903   1.161
 3136SOL    HW110307   5.305   0.893   1.252
 3136SOL    HW210308   5.256   1.000   1.138
 3137SOL     OW10309   6.731   0.413   2.207
 3137SOL    HW110310   6.653   0.408   2.145
 3137SOL    HW210311   6.815   0.429   2.155
 3138SOL     OW10312   5.873   4.468   3.664
 3138SOL    HW110313   5.882   4.558   3.622
 3138SOL    HW210314   5.957   4.416   3.648
 3139SOL     OW10315   5.188   6.356   0.652
 3139SOL    HW110316   5.258   6.422   0.679
 3139SOL    HW210317   5.163   6.372   0.557
 3140SOL     OW10318   6.650   0.042   0.117
 3140SOL    HW110319   6.626   0.017   0.023
 3140SOL    HW210320   6.708   6.994   0.157
 3141SOL     OW10321   0.578   6.130   6.261
 3141SOL    HW110322   0.516   6.134   6.339
 3141SOL    HW210323   0.549   6.056   6.199
 3142SOL     OW10324   3.870   6.343   1.996
 3142SOL    HW110325   3.784   6.393   2.010
 3142SOL    HW210326   3.931   6.361   2.072
 3143SOL     OW10327   6.465   1.962   6.773
 3143SOL    HW110328   6.443   1.978   6.677
 3143SOL    HW210329   6.479   1.865   6.789
 3144SOL     OW10330   4.036   4.160   1.567
 3144SOL    HW110331   4.135   4.156   1.586
 3144SOL    HW210332   4.012   4.252   1.535
 3145SOL     OW10333   2.110   6.028   0.850
 3145SOL    HW110334   2.093   5.950   0.789
 3145SOL    HW210335   2.125   5.994   0.943
 3146SOL     OW10336   1.696   0.428   3.789
 3146SOL    HW110337   1.757   0.475   3.854
 3146SOL    HW210338   1.608   0.412   3.833
 3147SOL     OW10339   3.193   5.731   1.404
 3147SOL    HW110340   3.154   5.818   1.434
 3147SOL    HW210341   3.135   5.656   1.433
 3148SOL     OW10342   5.905   5.858   4.891
 3148SOL    HW110343   5.881   5.955   4.889
 3148SOL    HW210344   5.905   5.827   4.986
 3149SOL     OW10345   2.373   1.139   5.502
 3149SOL    HW110346   2.466   1.120   5.472
 3149SOL    HW210347   2.312   1.067   5.467
 3150SOL     OW10348   6.034   5.384   4.131
 3150SOL    HW110349   5.935   5.381   4.113
 3150SOL    HW210350   6.077   5.448   4.066
 3151SOL     OW10351   5.884   1.530   5.267
 3151SOL    HW110352   5.829   1.478   5.332
 3151SOL    HW210353   5.963   1.476   5.239
 3152SOL     OW10354   1.435   5.406   0.471
 3152SOL    HW110355   1.461   5.479   0.535
 3152SOL    HW210356   1.353   5.360   0.505
 3153SOL     OW10357   5.810   4.815   0.988
 3153SOL    HW110358   5.780   4.828   1.082
 3153SOL    HW210359   5.824   4.718   0.970
 3154SOL     OW10360   6.340   1.439   6.358
 3154SOL    HW110361   6.361   1.459   6.262
 3154SOL    HW210362   6.241   1.431   6.369
 3155SOL     OW10363   6.337   4.986   0.295
 3155SOL    HW110364   6.251   4.956   0.337
 3155SOL    HW210365   6.331   5.084   0.276
 3156SOL     OW10366   3.270   2.947   3.341
 3156SOL    HW110367   3.292   2.960   3.438
 3156SOL    HW210368   3.233   3.031   3.304
 3157SOL     OW10369   2.544   1.971   4.811
 3157SOL    HW110370   2.573   2.062   4.840
 3157SOL    HW210371   2.614   1.932   4.751
 3158SOL     OW10372   4.460   0.953   3.343
 3158SOL    HW110373   4.524   1.026   3.368
 3158SOL    HW210374   4.506   0.888   3.283
 3159SOL     OW10375   5.617   1.547   6.992
 3159SOL    HW110376   5.669   1.520   0.051
 3159SOL    HW210377   5.582   1.465   6.946
 3160SOL     OW10378   0.171   6.355   5.745
 3160SOL    HW110379   0.088   6.308   5.774
 3160SOL    HW210380   0.238   6.355   5.820
 3161SOL     OW10381   1.882   2.365   3.227
 3161SOL    HW110382   1.873   2.390   3.324
 3161SOL    HW210383   1.969   2.399   3.191
 3162SOL     OW10384   1.455   6.647   2.280
 3162SOL    HW110385   1.443   6.550   2.259
 3162SOL    HW210386   1.537   6.660   2.335
 3163SOL     OW10387   4.498   2.599   5.927
 3163SOL    HW110388   4.464   2.510   5.957
 3163SOL    HW210389   4.491   2.664   6.002
 3164SOL     OW10390   4.291   4.798   0.867
 3164SOL    HW110391   4.356   4.818   0.793
 3164SOL    HW210392   4.300   4.868   0.938
 3165SOL     OW10393   0.516   6.225   1.179
 3165SOL    HW110394   0.507   6.276   1.093
 3165SOL    HW210395   0.428   6.182   1.201
 3166SOL     OW10396   4.336   1.904   4.390
 3166SOL    HW110397   4.410   1.931   4.328
 3166SOL    HW210398   4.363   1.920   4.484
 3167SOL     OW10399   6.412   4.292   0.784
 3167SOL    HW110400   6.385   4.197   0.770
 3167SOL    HW210401   6.338   4.352   0.756
 3168SOL     OW10402   4.412   2.348   6.678
 3168SOL    HW110403   4.349   2.417   6.640
 3168SOL    HW210404   4.417   2.270   6.616
 3169SOL     OW10405   2.146   3.838   4.454
 3169SOL    HW110406   2.055   3.848   4.415
 3169SOL    HW210407   2.152   3.887   4.540
 3170SOL     OW10408   4.047   0.283   1.526
 3170SOL    HW110409   4.001   0.223   1.461
 3170SOL    HW210410   4.060   0.373   1.484
 3171SOL     OW10411   0.170   0.345   1.278
 3171SOL    HW110412   0.226   0.278   1.326
 3171SOL    HW210413   0.219   0.432   1.271
 3172SOL     OW10414   6.917   4.897   0.454
 3172SOL    HW110415   6.842   4.914   0.391
 3172SOL    HW210416   6.985   4.970   0.446
 3173SOL     OW10417   2.915   2.414   0.102
 3173SOL    HW110418   2.848   2.421   0.028
 3173SOL    HW210419   2.868   2.406   0.190
 3174SOL     OW10420   3.132   2.668   6.780
 3174SOL    HW110421   3.033   2.666   6.764
 3174SOL    HW210422   3.179   2.683   6.693
 3175SOL     OW10423   0.050   0.838   0.914
 3175SOL    HW110424   0.030   0.744   0.889
 3175SOL    HW210425   0.074   0.842   1.011
 3176SOL     OW10426   1.571   5.062   4.982
 3176SOL    HW110427   1.655   5.107   4.952
 3176SOL    HW210428   1.561   4.974   4.935
 3177SOL     OW10429   4.763   4.010   4.090
 3177SOL    HW110430   4.770   3.921   4.044
 3177SOL    HW210431   4.742   4.080   4.022
 3178SOL     OW10432   6.189   2.147   0.334
 3178SOL    HW110433   6.105   2.140   0.389
 3178SOL    HW210434   6.206   2.243   0.311
 3179SOL     OW10435   1.211   3.317   2.102
 3179SOL    HW110436   1.121   3.316   2.145
 3179SOL    HW210437   1.235   3.224   2.073
 3180SOL     OW10438   4.440   1.067   0.142
 3180SOL    HW110439   4.375   1.065   0.219
 3180SOL    HW210440   4.528   1.103   0.174
 3181SOL     OW10441   6.775   1.574   3.025
 3181SOL    HW110442   6.855   1.600   2.971
 3181SOL    HW210443   6.805   1.521   3.105
 3182SOL     OW10444   3.039   0.955   5.464
 3182SOL    HW110445   3.053   0.968   5.563
 3182SOL    HW210446   3.107   0.891   5.429
 3183SOL     OW10447   4.333   4.401   1.701
 3183SOL    HW110448   4.411   4.356   1.744
 3183SOL    HW210449   4.288   4.461   1.767
 3184SOL     OW10450   0.762   2.574   2.211
 3184SOL    HW110451   0.691   2.504   2.219
 3184SOL    HW210452   0.757   2.635   2.291
 3185SOL     OW10453   6.289   5.548   7.016
 3185SOL    HW110454   6.199   5.503   7.020
 3185SOL    HW210455   6.323   5.547   6.922
 3186SOL     OW10456   3.636   1.454   1.840
 3186SOL    HW110457   3.557   1.431   1.896
 3186SOL    HW210458   3.713   1.396   1.865
 3187SOL     OW10459   4.420   3.991   0.487
 3187SOL    HW110460   4.471   4.076   0.501
 3187SOL    HW210461   4.480   3.923   0.443
 3188SOL     OW10462   2.497   0.646   4.490
 3188SOL    HW110463   2.420   0.581   4.492
 3188SOL    HW210464   2.569   0.609   4.431
 3189SOL     OW10465   1.406   1.657   1.818
 3189SOL    HW110466   1.415   1.589   1.745
 3189SOL    HW210467   1.326   1.713   1.803
 3190SOL     OW10468   0.026   6.321   0.838
 3190SOL    HW110469   0.074   6.234   0.833
 3190SOL    HW210470   0.084   6.394   0.802
 3191SOL     OW10471   4.848   0.334   0.967
 3191SOL    HW110472   4.806   0.292   0.887
 3191SOL    HW210473   4.946   0.310   0.970
 3192SOL     OW10474   0.135   2.688   1.224
 3192SOL    HW110475   0.219   2.634   1.213
 3192SOL    HW210476   0.146   2.752   1.300
 3193SOL     OW10477   3.935   1.449   6.769
 3193SOL    HW110478   4.011   1.465   6.705
 3193SOL    HW210479   3.866   1.520   6.757
 3194SOL     OW10480   1.532   2.860   6.221
 3194SOL    HW110481   1.495   2.789   6.161
 3194SOL    HW210482   1.625   2.883   6.191
 3195SOL     OW10483   2.590   2.338   3.284
 3195SOL    HW110484   2.610   2.255   3.335
 3195SOL    HW210485   2.627   2.331   3.192
 3196SOL     OW10486   0.694   1.303   5.682
 3196SOL    HW110487   0.605   1.347   5.666
 3196SOL    HW210488   0.728   1.264   5.596
 3197SOL     OW10489   1.981   6.167   3.287
 3197SOL    HW110490   1.999   6.231   3.362
 3197SOL    HW210491   1.980   6.217   3.200
 3198SOL     OW10492   5.866   2.354   5.377
 3198SOL    HW110493   5.963   2.376   5.366
 3198SOL    HW210494   5.816   2.382   5.296
 3199SOL     OW10495   4.734   2.832   2.218
 3199SOL    HW110496   4.669   2.757   2.201
 3199SOL    HW210497   4.734   2.894   2.139
 3200SOL     OW10498   0.101   2.893   2.008
 3200SOL    HW110499   0.055   2.921   1.923
 3200SOL    HW210500   0.143   2.973   2.051
 3201SOL     OW10501   5.243   4.845   4.230
 3201SOL    HW110502   5.212   4.927   4.277
 3201SOL    HW210503   5.168   4.806   4.176
 3202SOL     OW10504   0.901   4.629   1.937
 3202SOL    HW110505   0.959   4.626   2.018
 3202SOL    HW210506   0.952   4.595   1.858
 3203SOL     OW10507   6.376   2.551   6.598
 3203SOL    HW110508   6.472   2.536   6.577
 3203SOL    HW210509   6.331   2.597   6.521
 3204SOL     OW10510   4.542   6.212   1.352
 3204SOL    HW110511   4.468   6.273   1.321
 3204SOL    HW210512   4.560   6.229   1.449
 3205SOL     OW10513   0.056   3.234   6.353
 3205SOL    HW110514   0.000   3.246   6.435
 3205SOL    HW210515   0.129   3.303   6.352
 3206SOL     OW10516   0.396   6.744   5.943
 3206SOL    HW110517   0.330   6.709   6.009
 3206SOL    HW210518   0.382   6.698   5.855
 3207SOL     OW10519   1.299   0.754   5.483
 3207SOL    HW110520   1.205   0.720   5.492
 3207SOL    HW210521   1.302   0.850   5.510
 3208SOL     OW10522   4.935   6.738   5.276
 3208SOL    HW110523   4.935   6.835   5.301
 3208SOL    HW210524   4.904   6.684   5.354
 3209SOL     OW10525   4.111   5.152   3.021
 3209SOL    HW110526   4.112   5.218   3.095
 3209SOL    HW210527   4.028   5.164   2.967
 3210SOL     OW10528   0.960   4.280   1.269
 3210SOL    HW110529   0.992   4.189   1.294
 3210SOL    HW210530   0.937   4.281   1.171
 3211SOL     OW10531   1.669   3.536   1.259
 3211SOL    HW110532   1.687   3.634   1.263
 3211SOL    HW210533   1.739   3.491   1.204
 3212SOL     OW10534   2.875   0.712   0.705
 3212SOL    HW110535   2.929   0.697   0.622
 3212SOL    HW210536   2.826   0.628   0.728
 3213SOL     OW10537   0.115   6.185   2.207
 3213SOL    HW110538   0.034   6.138   2.172
 3213SOL    HW210539   0.127   6.272   2.159
 3214SOL     OW10540   5.161   5.483   0.740
 3214SOL    HW110541   5.105   5.555   0.698
 3214SOL    HW210542   5.121   5.458   0.829
 3215SOL     OW10543   0.440   3.104   0.731
 3215SOL    HW110544   0.353   3.132   0.690
 3215SOL    HW210545   0.449   3.005   0.724
 3216SOL     OW10546   5.579   5.089   1.239
 3216SOL    HW110547   5.604   5.131   1.326
 3216SOL    HW210548   5.582   5.158   1.167
 3217SOL     OW10549   6.973   5.757   2.840
 3217SOL    HW110550   6.925   5.673   2.812
 3217SOL    HW210551   0.012   5.785   2.766
 3218SOL     OW10552   4.304   0.330   3.955
 3218SOL    HW110553   4.316   0.236   3.986
 3218SOL    HW210554   4.234   0.375   4.010
 3219SOL     OW10555   0.064   2.119   3.132
 3219SOL    HW110556   0.162   2.105   3.123
 3219SOL    HW210557   0.034   2.094   3.224
 3220SOL     OW10558   6.625   5.959   5.494
 3220SOL    HW110559   6.673   5.979   5.580
 3220SOL    HW210560   6.693   5.944   5.422
 3221SOL     OW10561   3.380   0.121   1.575
 3221SOL    HW110562   3.398   0.207   1.528
 3221SOL    HW210563   3.403   0.045   1.514
 3222SOL     OW10564   4.311   1.596   2.464
 3222SOL    HW110565   4.245   1.658   2.422
 3222SOL    HW210566   4.298   1.594   2.563
 3223SOL     OW10567   2.159   5.590   6.617
 3223SOL    HW110568   2.195   5.501   6.648
 3223SOL    HW210569   2.092   5.623   6.683
 3224SOL     OW10570   4.553   3.634   0.138
 3224SOL    HW110571   4.510   3.717   0.174
 3224SOL    HW210572   4.592   3.653   0.048
 3225SOL     OW10573   4.722   3.442   6.051
 3225SOL    HW110574   4.669   3.447   6.136
 3225SOL    HW210575   4.670   3.484   5.977
 3226SOL     OW10576   1.937   1.536   4.402
 3226SOL    HW110577   2.010   1.533   4.471
 3226SOL    HW210578   1.877   1.613   4.421
 3227SOL     OW10579   3.542   1.519   0.058
 3227SOL    HW110580   3.554   1.529   6.982
 3227SOL    HW210581   3.629   1.495   0.100
 3228SOL     OW10582   5.696   4.379   2.770
 3228SOL    HW110583   5.742   4.401   2.856
 3228SOL    HW210584   5.695   4.460   2.711
 3229SOL     OW10585   3.553   1.430   5.627
 3229SOL    HW110586   3.614   1.501   5.662
 3229SOL    HW210587   3.465   1.471   5.602
 3230SOL     OW10588   1.835   3.439   4.182
 3230SOL    HW110589   1.905   3.497   4.141
 3230SOL    HW210590   1.789   3.386   4.111
 3231SOL     OW10591   2.553   0.838   1.524
 3231SOL    HW110592   2.481   0.775   1.496
 3231SOL    HW210593   2.511   0.925   1.553
 3232SOL     OW10594   3.948   4.914   5.199
 3232SOL    HW110595   3.938   4.951   5.107
 3232SOL    HW210596   3.960   4.989   5.264
 3233SOL     OW10597   0.835   2.556   1.649
 3233SOL    HW110598   0.902   2.626   1.626
 3233SOL    HW210599   0.804   2.569   1.743
 3234SOL     OW10600   0.138   1.818   6.978
 3234SOL    HW110601   0.216   1.874   7.007
 3234SOL    HW210602   0.090   1.784   0.037
 3235SOL     OW10603   4.849   1.050   1.437
 3235SOL    HW110604   4.859   1.145   1.406
 3235SOL    HW210605   4.791   1.001   1.371
 3236SOL     OW10606   1.230   3.232   0.641
 3236SOL    HW110607   1.300   3.197   0.704
 3236SOL    HW210608   1.275   3.288   0.570
 3237SOL     OW10609   5.414   1.489   3.988
 3237SOL    HW110610   5.375   1.546   4.061
 3237SOL    HW210611   5.340   1.452   3.932
 3238SOL     OW10612   0.129   4.929   0.819
 3238SOL    HW110613   0.127   4.956   0.723
 3238SOL    HW210614   0.132   4.829   0.825
 3239SOL     OW10615   6.694   1.767   1.196
 3239SOL    HW110616   6.708   1.687   1.255
 3239SOL    HW210617   6.768   1.773   1.129
 3240SOL     OW10618   1.354   6.462   5.978
 3240SOL    HW110619   1.441   6.496   5.943
 3240SOL    HW210620   1.371   6.398   6.053
 3241SOL     OW10621   4.342   1.449   5.247
 3241SOL    HW110622   4.382   1.536   5.278
 3241SOL    HW210623   4.277   1.416   5.316
 3242SOL     OW10624   3.295   4.499   0.865
 3242SOL    HW110625   3.306   4.569   0.795
 3242SOL    HW210626   3.367   4.507   0.933
 3243SOL     OW10627   5.442   4.483   0.897
 3243SOL    HW110628   5.505   4.427   0.843
 3243SOL    HW210629   5.447   4.455   0.993
 3244SOL     OW10630   4.893   6.102   0.532
 3244SOL    HW110631   4.989   6.093   0.558
 3244SOL    HW210632   4.835   6.059   0.601
 3245SOL     OW10633   4.809   2.881   5.037
 3245SOL    HW110634   4.773   2.935   5.113
 3245SOL    HW210635   4.799   2.784   5.058
 3246SOL     OW10636   5.325   0.855   2.905
 3246SOL    HW110637   5.376   0.769   2.900
 3246SOL    HW210638   5.299   0.884   2.813
 3247SOL     OW10639   5.791   4.910   2.896
 3247SOL    HW110640   5.874   4.955   2.863
 3247SOL    HW210641   5.801   4.811   2.889
 3248SOL     OW10642   6.754   3.312   1.844
 3248SOL    HW110643   6.753   3.394   1.901
 3248SOL    HW210644   6.797   3.237   1.895
 3249SOL     OW10645   3.582   4.090   4.594
 3249SOL    HW110646   3.484   4.078   4.575
 3249SOL    HW210647   3.593   4.156   4.668
 3250SOL     OW10648   5.766   6.984   2.148
 3250SOL    HW110649   5.795   6.900   2.102
 3250SOL    HW210650   5.841   0.028   2.149
 3251SOL     OW10651   3.542   0.868   2.016
 3251SOL    HW110652   3.447   0.848   1.992
 3251SOL    HW210653   3.600   0.791   1.989
 3252SOL     OW10654   2.406   2.169   2.525
 3252SOL    HW110655   2.378   2.261   2.552
 3252SOL    HW210656   2.325   2.112   2.513
 3253SOL     OW10657   5.844   3.330   2.110
 3253SOL    HW110658   5.844   3.291   2.202
 3253SOL    HW210659   5.751   3.351   2.082
 3254SOL     OW10660   5.424   5.459   5.605
 3254SOL    HW110661   5.416   5.475   5.703
 3254SOL    HW210662   5.506   5.406   5.586
 3255SOL     OW10663   5.399   5.919   1.409
 3255SOL    HW110664   5.327   5.955   1.350
 3255SOL    HW210665   5.358   5.875   1.489
 3256SOL     OW10666   4.644   0.813   0.179
 3256SOL    HW110667   4.685   0.722   0.175
 3256SOL    HW210668   4.714   0.882   0.163
 3257SOL     OW10669   1.437   1.779   1.561
 3257SOL    HW110670   1.447   1.683   1.587
 3257SOL    HW210671   1.378   1.785   1.481
 3258SOL     OW10672   3.996   4.879   1.971
 3258SOL    HW110673   4.010   4.786   1.935
 3258SOL    HW210674   3.918   4.879   2.033
 3259SOL     OW10675   4.668   5.201   3.987
 3259SOL    HW110676   4.704   5.156   3.905
 3259SOL    HW210677   4.703   5.155   4.069
 3260SOL     OW10678   1.160   1.754   0.796
 3260SOL    HW110679   1.232   1.742   0.864
 3260SOL    HW210680   1.087   1.687   0.812
 3261SOL     OW10681   4.807   6.506   0.674
 3261SOL    HW110682   4.794   6.447   0.594
 3261SOL    HW210683   4.744   6.478   0.746
 3262SOL     OW10684   3.749   2.064   2.754
 3262SOL    HW110685   3.783   1.974   2.728
 3262SOL    HW210686   3.769   2.130   2.681
 3263SOL     OW10687   3.563   1.522   3.459
 3263SOL    HW110688   3.543   1.535   3.362
 3263SOL    HW210689   3.659   1.542   3.477
 3264SOL     OW10690   1.199   4.284   1.086
 3264SOL    HW110691   1.256   4.298   1.006
 3264SOL    HW210692   1.150   4.368   1.108
 3265SOL     OW10693   4.826   1.436   5.831
 3265SOL    HW110694   4.894   1.448   5.759
 3265SOL    HW210695   4.868   1.459   5.919
 3266SOL     OW10696   0.620   2.477   6.887
 3266SOL    HW110697   0.615   2.558   6.946
 3266SOL    HW210698   0.689   2.492   6.816
 3267SOL     OW10699   3.724   1.164   6.987
 3267SOL    HW110700   3.639   1.167   0.017
 3267SOL    HW210701   3.719   1.227   6.910
 3268SOL     OW10702   1.354   4.705   0.099
 3268SOL    HW110703   1.394   4.754   0.177
 3268SOL    HW210704   1.360   4.606   0.116
 3269SOL     OW10705   4.414   4.587   2.020
 3269SOL    HW110706   4.384   4.620   2.110
 3269SOL    HW210707   4.455   4.497   2.031
 3270SOL     OW10708   0.551   4.589   4.639
 3270SOL    HW110709   0.532   4.541   4.724
 3270SOL    HW210710   0.588   4.525   4.572
 3271SOL     OW10711   5.680   3.954   2.617
 3271SOL    HW110712   5.730   3.907   2.689
 3271SOL    HW210713   5.593   3.908   2.601
 3272SOL     OW10714   3.703   3.924   6.880
 3272SOL    HW110715   3.784   3.969   6.918
 3272SOL    HW210716   3.728   3.873   6.798
 3273SOL     OW10717   0.576   6.755   2.142
 3273SOL    HW110718   0.610   6.790   2.055
 3273SOL    HW210719   0.530   6.828   2.192
 3274SOL     OW10720   4.410   1.185   1.867
 3274SOL    HW110721   4.329   1.207   1.922
 3274SOL    HW210722   4.411   1.241   1.785
 3275SOL     OW10723   0.180   0.479   6.691
 3275SOL    HW110724   0.274   0.450   6.673
 3275SOL    HW210725   0.157   0.460   6.786
 3276SOL     OW10726   3.440   6.070   0.475
 3276SOL    HW110727   3.377   5.996   0.455
 3276SOL    HW210728   3.483   6.101   0.389
 3277SOL     OW10729   5.069   0.113   0.400
 3277SOL    HW110730   5.104   0.030   0.443
 3277SOL    HW210731   5.132   0.145   0.329
 3278SOL     OW10732   0.086   0.968   5.959
 3278SOL    HW110733   0.108   0.888   6.015
 3278SOL    HW210734   0.043   1.038   6.017
 3279SOL     OW10735   6.397   1.695   0.602
 3279SOL    HW110736   6.360   1.672   0.512
 3279SOL    HW210737   6.412   1.794   0.607
 3280SOL     OW10738   3.508   5.117   4.775
 3280SOL    HW110739   3.476   5.189   4.714
 3280SOL    HW210740   3.468   5.130   4.866
 3281SOL     OW10741   2.269   5.131   1.066
 3281SOL    HW110742   2.366   5.138   1.045
 3281SOL    HW210743   2.223   5.217   1.043
 3282SOL     OW10744   0.928   5.754   4.660
 3282SOL    HW110745   0.890   5.803   4.738
 3282SOL    HW210746   0.967   5.667   4.691
 3283SOL     OW10747   4.159   1.283   1.005
 3283SOL    HW110748   4.148   1.289   1.104
 3283SOL    HW210749   4.070   1.296   0.961
 3284SOL     OW10750   6.296   5.998   6.734
 3284SOL    HW110751   6.242   6.036   6.808
 3284SOL    HW210752   6.300   6.064   6.659
 3285SOL     OW10753   5.157   2.809   3.814
 3285SOL    HW110754   5.172   2.796   3.716
 3285SOL    HW210755   5.240   2.785   3.864
 3286SOL     OW10756   4.010   3.298   2.441
 3286SOL    HW110757   4.028   3.227   2.509
 3286SOL    HW210758   3.954   3.260   2.367
 3287SOL     OW10759   1.508   6.590   6.593
 3287SOL    HW110760   1.435   6.613   6.530
 3287SOL    HW210761   1.550   6.674   6.628
 3288SOL     OW10762   0.684   5.451   6.898
 3288SOL    HW110763   0.642   5.405   6.976
 3288SOL    HW210764   0.756   5.513   6.929
 3289SOL     OW10765   2.614   6.899   5.274
 3289SOL    HW110766   2.657   6.814   5.245
 3289SOL    HW210767   2.674   6.976   5.252
 3290SOL     OW10768   0.525   0.192   1.989
 3290SOL    HW110769   0.428   0.183   1.968
 3290SOL    HW210770   0.556   0.110   2.038
 3291SOL     OW10771   0.954   6.591   0.230
 3291SOL    HW110772   1.028   6.613   0.295
 3291SOL    HW210773   0.878   6.549   0.280
 3292SOL     OW10774   0.636   1.058   0.649
 3292SOL    HW110775   0.635   1.134   0.714
 3292SOL    HW210776   0.668   0.975   0.695
 3293SOL     OW10777   0.029   3.405   3.371
 3293SOL    HW110778   0.062   3.390   3.464
 3293SOL    HW210779   7.011   3.320   3.336
 3294SOL     OW10780   0.580   1.143   6.177
 3294SOL    HW110781   0.581   1.045   6.158
 3294SOL    HW210782   0.674   1.178   6.174
 3295SOL     OW10783   1.379   3.159   1.694
 3295SOL    HW110784   1.401   3.250   1.732
 3295SOL    HW210785   1.451   3.132   1.630
 3296SOL     OW10786   2.085   6.170   2.260
 3296SOL    HW110787   2.052   6.102   2.325
 3296SOL    HW210788   2.007   6.211   2.213
 3297SOL     OW10789   2.985   0.662   4.397
 3297SOL    HW110790   3.076   0.636   4.364
 3297SOL    HW210791   2.991   0.751   4.442
 3298SOL     OW10792   5.589   1.901   4.286
 3298SOL    HW110793   5.612   1.998   4.276
 3298SOL    HW210794   5.553   1.867   4.199
 3299SOL     OW10795   2.316   6.035   4.086
 3299SOL    HW110796   2.309   5.969   4.161
 3299SOL    HW210797   2.324   6.127   4.124
 3300SOL     OW10798   0.344   0.910   5.819
 3300SOL    HW110799   0.245   0.914   5.835
 3300SOL    HW210800   0.364   0.839   5.751
 3301SOL     OW10801   1.976   3.224   2.975
 3301SOL    HW110802   1.916   3.194   2.901
 3301SOL    HW210803   1.974   3.157   3.049
 3302SOL     OW10804   1.387   5.620   5.631
 3302SOL    HW110805   1.430   5.587   5.547
 3302SOL    HW210806   1.446   5.600   5.709
 3303SOL     OW10807   3.746   2.871   2.017
 3303SOL    HW110808   3.806   2.822   1.954
 3303SOL    HW210809   3.801   2.922   2.083
 3304SOL     OW10810   1.676   5.778   4.339
 3304SOL    HW110811   1.589   5.794   4.292
 3304SOL    HW210812   1.660   5.768   4.437
 3305SOL     OW10813   2.089   1.269   3.137
 3305SOL    HW110814   2.146   1.349   3.116
 3305SOL    HW210815   2.128   1.188   3.092
 3306SOL     OW10816   2.176   5.597   4.321
 3306SOL    HW110817   2.259   5.621   4.369
 3306SOL    HW210818   2.166   5.497   4.318
 3307SOL     OW10819   6.871   5.823   6.682
 3307SOL    HW110820   6.968   5.845   6.693
 3307SOL    HW210821   6.840   5.768   6.759
 3308SOL     OW10822   4.044   5.919   6.903
 3308SOL    HW110823   4.091   5.836   6.873
 3308SOL    HW210824   4.102   5.998   6.884
 3309SOL     OW10825   0.225   5.413   2.451
 3309SOL    HW110826   0.225   5.322   2.409
 3309SOL    HW210827   0.314   5.429   2.495
 3310SOL     OW10828   7.020   4.142   5.027
 3310SOL    HW110829   0.067   4.148   5.099
 3310SOL    HW210830   7.019   4.227   4.975
 3311SOL     OW10831   2.334   3.956   1.757
 3311SOL    HW110832   2.346   4.002   1.669
 3311SOL    HW210833   2.247   3.906   1.757
 3312SOL     OW10834   3.275   4.747   5.875
 3312SOL    HW110835   3.222   4.807   5.936
 3312SOL    HW210836   3.265   4.778   5.781
 3313SOL     OW10837   6.805   5.556   2.786
 3313SOL    HW110838   6.864   5.493   2.736
 3313SOL    HW210839   6.757   5.507   2.858
 3314SOL     OW10840   2.405   1.920   4.194
 3314SOL    HW110841   2.380   1.825   4.174
 3314SOL    HW210842   2.338   1.981   4.152
 3315SOL     OW10843   6.128   3.173   4.272
 3315SOL    HW110844   6.111   3.211   4.181
 3315SOL    HW210845   6.226   3.170   4.289
 3316SOL     OW10846   4.267   1.971   6.528
 3316SOL    HW110847   4.230   2.063   6.512
 3316SOL    HW210848   4.199   1.916   6.577
 3317SOL     OW10849   4.697   3.471   1.772
 3317SOL    HW110850   4.688   3.376   1.741
 3317SOL    HW210851   4.644   3.531   1.712
 3318SOL     OW10852   3.633   0.766   0.384
 3318SOL    HW110853   3.673   0.838   0.328
 3318SOL    HW210854   3.675   0.767   0.475
 3319SOL     OW10855   6.158   0.229   4.493
 3319SOL    HW110856   6.143   0.196   4.400
 3319SOL    HW210857   6.149   0.154   4.558
 3320SOL     OW10858   5.586   0.616   5.616
 3320SOL    HW110859   5.604   0.713   5.631
 3320SOL    HW210860   5.673   0.568   5.606
 3321SOL     OW10861   4.029   1.915   1.313
 3321SOL    HW110862   3.943   1.904   1.263
 3321SOL    HW210863   4.039   2.011   1.341
 3322SOL     OW10864   5.138   3.595   1.339
 3322SOL    HW110865   5.134   3.626   1.244
 3322SOL    HW210866   5.094   3.663   1.398
 3323SOL     OW10867   2.447   3.679   6.318
 3323SOL    HW110868   2.501   3.603   6.281
 3323SOL    HW210869   2.488   3.766   6.290
 3324SOL     OW10870   1.151   3.622   6.449
 3324SOL    HW110871   1.219   3.693   6.470
 3324SOL    HW210872   1.139   3.617   6.350
 3325SOL     OW10873   2.072   2.385   6.133
 3325SOL    HW110874   1.986   2.350   6.170
 3325SOL    HW210875   2.137   2.399   6.208
 3326SOL     OW10876   5.784   1.598   2.249
 3326SOL    HW110877   5.702   1.594   2.193
 3326SOL    HW210878   5.760   1.578   2.344
 3327SOL     OW10879   3.112   6.009   1.483
 3327SOL    HW110880   3.150   5.993   1.574
 3327SOL    HW210881   3.013   6.001   1.487
 3328SOL     OW10882   4.566   1.664   1.797
 3328SOL    HW110883   4.557   1.675   1.698
 3328SOL    HW210884   4.494   1.716   1.843
 3329SOL     OW10885   5.305   0.617   4.289
 3329SOL    HW110886   5.324   0.622   4.191
 3329SOL    HW210887   5.313   0.709   4.329
 3330SOL     OW10888   6.176   6.067   1.018
 3330SOL    HW110889   6.132   6.085   1.106
 3330SOL    HW210890   6.255   6.008   1.032
 3331SOL     OW10891   0.716   3.520   1.980
 3331SOL    HW110892   0.739   3.439   1.926
 3331SOL    HW210893   0.633   3.562   1.945
 3332SOL     OW10894   6.571   4.468   0.648
 3332SOL    HW110895   6.529   4.403   0.711
 3332SOL    HW210896   6.654   4.506   0.689
 3333SOL     OW10897   2.962   4.014   6.598
 3333SOL    HW110898   3.036   4.047   6.656
 3333SOL    HW210899   2.976   4.046   6.505
 3334SOL     OW10900   2.231   4.068   2.187
 3334SOL    HW110901   2.257   4.149   2.240
 3334SOL    HW210902   2.229   3.988   2.248
 3335SOL     OW10903   4.653   6.885   6.266
 3335SOL    HW110904   4.669   6.874   6.365
 3335SOL    HW210905   4.670   6.799   6.220
 3336SOL     OW10906   1.696   6.706   4.693
 3336SOL    HW110907   1.733   6.788   4.738
 3336SOL    HW210908   1.610   6.728   4.647
 3337SOL     OW10909   3.063   3.991   1.200
 3337SOL    HW110910   3.143   4.036   1.160
 3337SOL    HW210911   3.066   4.000   1.300
 3338SOL     OW10912   0.441   2.837   0.945
 3338SOL    HW110913   0.409   2.900   1.015
 3338SOL    HW210914   0.371   2.826   0.875
 3339SOL     OW10915   1.023   6.983   6.386
 3339SOL    HW110916   0.951   6.959   6.450
 3339SOL    HW210917   0.985   0.019   6.314
 3340SOL     OW10918   3.374   1.486   2.843
 3340SOL    HW110919   3.309   1.558   2.868
 3340SOL    HW210920   3.363   1.408   2.904
 3341SOL     OW10921   1.489   4.696   4.005
 3341SOL    HW110922   1.583   4.666   4.023
 3341SOL    HW210923   1.451   4.738   4.087
 3342SOL     OW10924   1.604   6.822   3.870
 3342SOL    HW110925   1.529   6.832   3.803
 3342SOL    HW210926   1.586   6.743   3.928
 3343SOL     OW10927   5.369   4.482   6.670
 3343SOL    HW110928   5.431   4.420   6.621
 3343SOL    HW210929   5.354   4.565   6.616
 3344SOL     OW10930   5.439   3.405   3.567
 3344SOL    HW110931   5.533   3.439   3.562
 3344SOL    HW210932   5.380   3.475   3.607
 3345SOL     OW10933   1.560   4.002   6.292
 3345SOL    HW110934   1.541   4.005   6.194
 3345SOL    HW210935   1.659   3.998   6.307
 3346SOL     OW10936   0.991   0.643   0.119
 3346SOL    HW110937   1.055   0.710   0.081
 3346SOL    HW210938   0.938   0.602   0.045
 3347SOL     OW10939   1.328   2.524   5.039
 3347SOL    HW110940   1.269   2.547   4.962
 3347SOL    HW210941   1.387   2.602   5.061
 3348SOL     OW10942   4.140   3.400   4.431
 3348SOL    HW110943   4.085   3.322   4.402
 3348SOL    HW210944   4.223   3.406   4.376
 3349SOL     OW10945   2.238   5.268   3.594
 3349SOL    HW110946   2.210   5.252   3.689
 3349SOL    HW210947   2.189   5.347   3.557
 3350SOL     OW10948   0.158   2.120   5.748
 3350SOL    HW110949   0.133   2.024   5.741
 3350SOL    HW210950   0.147   2.164   5.659
 3351SOL     OW10951   4.758   0.787   2.715
 3351SOL    HW110952   4.856   0.794   2.697
 3351SOL    HW210953   4.711   0.863   2.671
 3352SOL     OW10954   6.730   3.188   1.380
 3352SOL    HW110955   6.710   3.228   1.469
 3352SOL    HW210956   6.810   3.232   1.340
 3353SOL     OW10957   2.860   5.885   1.306
 3353SOL    HW110958   2.806   5.868   1.389
 3353SOL    HW210959   2.885   5.981   1.302
 3354SOL     OW10960   3.939   2.287   5.287
 3354SOL    HW110961   3.863   2.339   5.324
 3354SOL    HW210962   3.915   2.190   5.284
 3355SOL     OW10963   1.736   1.668   6.224
 3355SOL    HW110964   1.823   1.626   6.251
 3355SOL    HW210965   1.679   1.600   6.178
 3356SOL     OW10966   0.883   5.509   6.281
 3356SOL    HW110967   0.840   5.449   6.348
 3356SOL    HW210968   0.841   5.494   6.191
 3357SOL     OW10969   2.386   3.630   1.604
 3357SOL    HW110970   2.369   3.728   1.613
 3357SOL    HW210971   2.392   3.589   1.695
 3358SOL     OW10972   4.430   1.702   2.078
 3358SOL    HW110973   4.353   1.645   2.048
 3358SOL    HW210974   4.442   1.693   2.176
 3359SOL     OW10975   0.784   6.183   3.037
 3359SOL    HW110976   0.695   6.199   3.079
 3359SOL    HW210977   0.775   6.189   2.938
 3360SOL     OW10978   1.477   1.138   6.914
 3360SOL    HW110979   1.552   1.168   6.855
 3360SOL    HW210980   1.450   1.214   6.975
 3361SOL     OW10981   6.863   4.921   4.471
 3361SOL    HW110982   6.829   4.828   4.455
 3361SOL    HW210983   6.822   4.983   4.405
 3362SOL     OW10984   3.733   1.152   2.723
 3362SOL    HW110985   3.732   1.232   2.663
 3362SOL    HW210986   3.781   1.176   2.808
 3363SOL     OW10987   6.931   2.160   1.603
 3363SOL    HW110988   6.857   2.227   1.591
 3363SOL    HW210989   6.963   2.162   1.697
 3364SOL     OW10990   1.992   4.608   4.272
 3364SOL    HW110991   2.023   4.516   4.246
 3364SOL    HW210992   2.024   4.629   4.364
 3365SOL     OW10993   0.478   2.506   4.806
 3365SOL    HW110994   0.405   2.479   4.744
 3365SOL    HW210995   0.439   2.549   4.887
 3366SOL     OW10996   5.642   5.012   4.381
 3366SOL    HW110997   5.707   4.939   4.400
 3366SOL    HW210998   5.559   4.999   4.436
 3367SOL     OW10999   3.958   3.123   2.645
 3367SOL    HW111000   3.876   3.178   2.658
 3367SOL    HW211001   3.975   3.068   2.727
 3368SOL     OW11002   0.532   5.628   6.509
 3368SOL    HW111003   0.483   5.571   6.443
 3368SOL    HW211004   0.569   5.569   6.582
 3369SOL     OW11005   3.606   1.875   0.389
 3369SOL    HW111006   3.594   1.786   0.346
 3369SOL    HW211007   3.547   1.882   0.468
 3370SOL     OW11008   6.662   6.378   1.444
 3370SOL    HW111009   6.678   6.387   1.346
 3370SOL    HW211010   6.742   6.412   1.494
 3371SOL     OW11011   2.037   2.965   1.381
 3371SOL    HW111012   2.033   3.048   1.325
 3371SOL    HW211013   2.088   2.894   1.332
 3372SOL     OW11014   6.803   2.046   6.531
 3372SOL    HW111015   6.737   2.111   6.568
 3372SOL    HW211016   6.886   2.049   6.587
 3373SOL     OW11017   0.336   2.342   4.038
 3373SOL    HW111018   0.385   2.366   4.122
 3373SOL    HW211019   0.402   2.325   3.964
 3374SOL     OW11020   1.085   6.625   3.857
 3374SOL    HW111021   1.135   6.585   3.934
 3374SOL    HW211022   1.054   6.717   3.883
 3375SOL     OW11023   0.120   4.598   0.092
 3375SOL    HW111024   0.063   4.680   0.082
 3375SOL    HW211025   0.215   4.620   0.068
 3376SOL     OW11026   3.755   2.892   4.609
 3376SOL    HW111027   3.667   2.904   4.563
 3376SOL    HW211028   3.787   2.798   4.597
 3377SOL     OW11029   6.478   5.274   5.888
 3377SOL    HW111030   6.409   5.224   5.939
 3377SOL    HW211031   6.452   5.277   5.791
 3378SOL     OW11032   1.291   6.748   0.571
 3378SOL    HW111033   1.276   6.831   0.518
 3378SOL    HW211034   1.283   6.769   0.669
 3379SOL     OW11035   1.096   1.629   4.867
 3379SOL    HW111036   1.090   1.726   4.893
 3379SOL    HW211037   1.117   1.623   4.769
 3380SOL     OW11038   5.088   6.756   4.919
 3380SOL    HW111039   5.001   6.709   4.929
 3380SOL    HW211040   5.136   6.758   5.007
 3381SOL     OW11041   0.691   3.177   1.366
 3381SOL    HW111042   0.742   3.147   1.447
 3381SOL    HW211043   0.594   3.155   1.377
 3382SOL     OW11044   0.688   2.627   6.610
 3382SOL    HW111045   0.770   2.590   6.566
 3382SOL    HW211046   0.714   2.696   6.677
 3383SOL     OW11047   3.871   5.755   1.190
 3383SOL    HW111048   3.868   5.656   1.180
 3383SOL    HW211049   3.838   5.781   1.281
 3384SOL     OW11050   2.029   3.063   0.791
 3384SOL    HW111051   2.069   3.153   0.810
 3384SOL    HW211052   2.094   3.009   0.737
 3385SOL     OW11053   6.689   3.572   4.779
 3385SOL    HW111054   6.712   3.548   4.685
 3385SOL    HW211055   6.649   3.664   4.781
 3386SOL     OW11056   5.516   4.486   0.356
 3386SOL    HW111057   5.497   4.580   0.330
 3386SOL    HW211058   5.493   4.425   0.279
 3387SOL     OW11059   3.980   0.289   3.344
 3387SOL    HW111060   3.959   0.385   3.366
 3387SOL    HW211061   3.910   0.253   3.283
 3388SOL     OW11062   5.360   3.080   2.607
 3388SOL    HW111063   5.348   3.144   2.532
 3388SOL    HW211064   5.271   3.055   2.645
 3389SOL     OW11065   6.714   5.707   5.978
 3389SOL    HW111066   6.629   5.658   5.998
 3389SOL    HW211067   6.707   5.749   5.888
 3390SOL     OW11068   5.116   6.831   5.975
 3390SOL    HW111069   5.104   6.913   6.031
 3390SOL    HW211070   5.027   6.800   5.942
 3391SOL     OW11071   4.733   2.591   4.237
 3391SOL    HW111072   4.720   2.648   4.156
 3391SOL    HW211073   4.791   2.513   4.214
 3392SOL     OW11074   3.013   6.711   3.898
 3392SOL    HW111075   2.946   6.655   3.948
 3392SOL    HW211076   3.079   6.651   3.853
 3393SOL     OW11077   6.478   5.913   0.532
 3393SOL    HW111078   6.493   5.818   0.557
 3393SOL    HW211079   6.561   5.951   0.492
 3394SOL     OW11080   5.345   3.658   0.991
 3394SOL    HW111081   5.417   3.715   1.030
 3394SOL    HW211082   5.379   3.565   0.979
 3395SOL     OW11083   5.190   2.802   3.568
 3395SOL    HW111084   5.126   2.750   3.512
 3395SOL    HW211085   5.194   2.897   3.535
 3396SOL     OW11086   5.370   1.113   3.459
 3396SOL    HW111087   5.328   1.068   3.380
 3396SOL    HW211088   5.335   1.206   3.467
 3397SOL     OW11089   3.238   5.569   6.782
 3397SOL    HW111090   3.207   5.567   6.687
 3397SOL    HW211091   3.178   5.510   6.837
 3398SOL     OW11092   0.814   0.288   4.295
 3398SOL    HW111093   0.726   0.289   4.246
 3398SOL    HW211094   0.798   0.300   4.393
 3399SOL     OW11095   5.446   5.130   3.437
 3399SOL    HW111096   5.379   5.081   3.493
 3399SOL    HW211097   5.404   5.158   3.351
 3400SOL     OW11098   5.481   3.498   6.444
 3400SOL    HW111099   5.454   3.402   6.443
 3400SOL    HW211100   5.574   3.506   6.481
 3401SOL     OW11101   6.801   3.468   6.207
 3401SOL    HW111102   6.811   3.393   6.273
 3401SOL    HW211103   6.747   3.541   6.248
 3402SOL     OW11104   5.160   5.554   6.402
 3402SOL    HW111105   5.200   5.644   6.420
 3402SOL    HW211106   5.072   5.547   6.449
 3403SOL     OW11107   4.099   5.398   6.333
 3403SOL    HW111108   4.196   5.421   6.322
 3403SOL    HW211109   4.063   5.365   6.246
 3404SOL     OW11110   5.715   2.551   0.805
 3404SOL    HW111111   5.656   2.525   0.881
 3404SOL    HW211112   5.698   2.490   0.728
 3405SOL     OW11113   6.104   4.182   6.591
 3405SOL    HW111114   6.056   4.097   6.610
 3405SOL    HW211115   6.119   4.231   6.677
 3406SOL     OW11116   1.353   3.544   2.199
 3406SOL    HW111117   1.452   3.550   2.189
 3406SOL    HW211118   1.320   3.457   2.163
 3407SOL     OW11119   1.287   4.387   6.783
 3407SOL    HW111120   1.333   4.335   6.856
 3407SOL    HW211121   1.243   4.323   6.720
 3408SOL     OW11122   5.284   2.824   4.715
 3408SOL    HW111123   5.290   2.874   4.629
 3408SOL    HW211124   5.232   2.877   4.781
 3409SOL     OW11125   3.670   5.954   0.285
 3409SOL    HW111126   3.611   6.012   0.228
 3409SOL    HW211127   3.765   5.980   0.271
 3410SOL     OW11128   6.881   6.469   1.614
 3410SOL    HW111129   6.870   6.518   1.700
 3410SOL    HW211130   6.885   6.370   1.633
 3411SOL     OW11131   0.203   2.531   0.559
 3411SOL    HW111132   0.263   2.506   0.635
 3411SOL    HW211133   0.228   2.477   0.479
 3412SOL     OW11134   4.815   3.244   1.252
 3412SOL    HW111135   4.821   3.207   1.345
 3412SOL    HW211136   4.850   3.178   1.187
 3413SOL     OW11137   6.180   1.608   0.741
 3413SOL    HW111138   6.264   1.645   0.702
 3413SOL    HW211139   6.133   1.679   0.793
 3414SOL     OW11140   3.553   1.954   6.027
 3414SOL    HW111141   3.459   1.982   6.004
 3414SOL    HW211142   3.605   2.033   6.058
 3415SOL     OW11143   2.246   2.845   3.976
 3415SOL    HW111144   2.341   2.846   4.007
 3415SOL    HW211145   2.188   2.895   4.041
 3416SOL     OW11146   5.762   6.166   0.565
 3416SOL    HW111147   5.710   6.182   0.482
 3416SOL    HW211148   5.705   6.185   0.645
 3417SOL     OW11149   0.561   6.261   4.130
 3417SOL    HW111150   0.606   6.172   4.138
 3417SOL    HW211151   0.616   6.321   4.073
 3418SOL     OW11152   3.808   5.703   3.729
 3418SOL    HW111153   3.883   5.690   3.664
 3418SOL    HW211154   3.739   5.763   3.689
 3419SOL     OW11155   2.940   5.254   6.160
 3419SOL    HW111156   2.955   5.259   6.061
 3419SOL    HW211157   2.945   5.345   6.199
 3420SOL     OW11158   5.834   3.149   3.376
 3420SOL    HW111159   5.774   3.076   3.344
 3420SOL    HW211160   5.863   3.129   3.470
 3421SOL     OW11161   4.928   2.081   3.785
 3421SOL    HW111162   4.831   2.058   3.797
 3421SOL    HW211163   4.976   2.004   3.744
 3422SOL     OW11164   3.114   0.372   0.105
 3422SOL    HW111165   3.056   0.333   0.177
 3422SOL    HW211166   3.134   0.467   0.126
 3423SOL     OW11167   6.818   4.646   6.020
 3423SOL    HW111168   6.723   4.617   6.005
 3423SOL    HW211169   6.843   4.714   5.950
 3424SOL     OW11170   2.290   6.544   1.138
 3424SOL    HW111171   2.355   6.562   1.064
 3424SOL    HW211172   2.292   6.447   1.162
 3425SOL     OW11173   4.585   4.846   2.206
 3425SOL    HW111174   4.494   4.805   2.202
 3425SOL    HW211175   4.643   4.793   2.268
 3426SOL     OW11176   4.472   2.533   1.356
 3426SOL    HW111177   4.474   2.434   1.367
 3426SOL    HW211178   4.495   2.557   1.261
 3427SOL     OW11179   0.998   1.538   0.866
 3427SOL    HW111180   0.915   1.483   0.866
 3427SOL    HW211181   1.038   1.539   0.957
 3428SOL     OW11182   3.569   5.178   0.440
 3428SOL    HW111183   3.641   5.130   0.491
 3428SOL    HW211184   3.519   5.239   0.501
 3429SOL     OW11185   0.502   2.276   1.307
 3429SOL    HW111186   0.571   2.265   1.378
 3429SOL    HW211187   0.546   2.284   1.218
 3430SOL     OW11188   2.178   5.702   5.812
 3430SOL    HW111189   2.147   5.614   5.777
 3430SOL    HW211190   2.147   5.714   5.906
 3431SOL     OW11191   1.383   5.899   1.753
 3431SOL    HW111192   1.399   5.946   1.666
 3431SOL    HW211193   1.336   5.812   1.736
 3432SOL     OW11194   2.012   4.161   5.400
 3432SOL    HW111195   1.946   4.206   5.340
 3432SOL    HW211196   1.996   4.062   5.398
 3433SOL     OW11197   1.283   0.236   4.903
 3433SOL    HW111198   1.245   0.163   4.846
 3433SOL    HW211199   1.259   0.325   4.863
 3434SOL     OW11200   3.989   0.978   2.206
 3434SOL    HW111201   4.046   0.897   2.206
 3434SOL    HW211202   3.894   0.953   2.225
 3435SOL     OW11203   2.016   1.417   1.386
 3435SOL    HW111204   2.086   1.460   1.329
 3435SOL    HW211205   2.010   1.466   1.474
 3436SOL     OW11206   3.806   6.353   0.407
 3436SOL    HW111207   3.891   6.366   0.356
 3436SOL    HW211208   3.730   6.391   0.355
 3437SOL     OW11209   2.950   6.851   5.357
 3437SOL    HW111210   3.017   6.889   5.294
 3437SOL    HW211211   2.916   6.924   5.417
 3438SOL     OW11212   0.801   3.604   0.643
 3438SOL    HW111213   0.846   3.554   0.717
 3438SOL    HW211214   0.843   3.694   0.632
 3439SOL     OW11215   3.510   5.998   4.530
 3439SOL    HW111216   3.552   6.080   4.492
 3439SOL    HW211217   3.453   6.024   4.608
 3440SOL     OW11218   3.296   3.013   1.908
 3440SOL    HW111219   3.282   3.057   1.820
 3440SOL    HW211220   3.251   2.924   1.907
 3441SOL     OW11221   6.829   5.944   6.052
 3441SOL    HW111222   6.807   5.846   6.061
 3441SOL    HW211223   6.766   5.997   6.110
 3442SOL     OW11224   1.961   4.048   1.778
 3442SOL    HW111225   1.904   4.115   1.729
 3442SOL    HW211226   2.017   3.998   1.713
 3443SOL     OW11227   4.135   6.401   2.110
 3443SOL    HW111228   4.144   6.323   2.048
 3443SOL    HW211229   4.196   6.475   2.080
 3444SOL     OW11230   4.511   5.293   6.770
 3444SOL    HW111231   4.611   5.301   6.776
 3444SOL    HW211232   4.487   5.207   6.725
 3445SOL     OW11233   5.478   5.242   2.426
 3445SOL    HW111234   5.477   5.148   2.461
 3445SOL    HW211235   5.423   5.246   2.342
 3446SOL     OW11236   6.329   0.662   1.440
 3446SOL    HW111237   6.401   0.602   1.474
 3446SOL    HW211238   6.292   0.624   1.355
 3447SOL     OW11239   4.695   6.562   1.074
 3447SOL    HW111240   4.769   6.625   1.099
 3447SOL    HW211241   4.612   6.587   1.123
 3448SOL     OW11242   3.903   0.036   6.617
 3448SOL    HW111243   3.936   6.964   6.615
 3448SOL    HW211244   3.806   0.037   6.638
 3449SOL     OW11245   6.120   5.200   4.924
 3449SOL    HW111246   6.061   5.263   4.874
 3449SOL    HW211247   6.172   5.144   4.859
 3450SOL     OW11248   0.947   1.597   6.616
 3450SOL    HW111249   0.877   1.550   6.670
 3450SOL    HW211250   0.951   1.555   6.525
 3451SOL     OW11251   2.735   6.409   6.765
 3451SOL    HW111252   2.800   6.484   6.763
 3451SOL    HW211253   2.775   6.328   6.722
 3452SOL     OW11254   5.543   0.365   6.625
 3452SOL    HW111255   5.556   0.459   6.657
 3452SOL    HW211256   5.557   0.302   6.702
 3453SOL     OW11257   6.504   5.285   6.249
 3453SOL    HW111258   6.545   5.264   6.337
 3453SOL    HW211259   6.419   5.336   6.262
 3454SOL     OW11260   1.185   3.763   5.127
 3454SOL    HW111261   1.179   3.701   5.048
 3454SOL    HW211262   1.211   3.712   5.208
 3455SOL     OW11263   2.686   1.662   4.425
 3455SOL    HW111264   2.661   1.632   4.333
 3455SOL    HW211265   2.659   1.757   4.438
 3456SOL     OW11266   5.648   4.686   1.452
 3456SOL    HW111267   5.557   4.699   1.490
 3456SOL    HW211268   5.717   4.717   1.518
 3457SOL     OW11269   3.845   5.352   4.174
 3457SOL    HW111270   3.765   5.328   4.119
 3457SOL    HW211271   3.857   5.452   4.173
 3458SOL     OW11272   4.460   0.915   2.319
 3458SOL    HW111273   4.502   0.876   2.236
 3458SOL    HW211274   4.376   0.963   2.295
 3459SOL     OW11275   5.398   2.504   2.369
 3459SOL    HW111276   5.397   2.444   2.449
 3459SOL    HW211277   5.389   2.599   2.399
 3460SOL     OW11278   3.189   1.857   0.304
 3460SOL    HW111279   3.153   1.846   0.211
 3460SOL    HW211280   3.220   1.951   0.317
 3461SOL     OW11281   4.752   3.901   6.946
 3461SOL    HW111282   4.782   3.957   6.869
 3461SOL    HW211283   4.715   3.814   6.912
 3462SOL     OW11284   0.962   3.845   5.263
 3462SOL    HW111285   0.895   3.880   5.197
 3462SOL    HW211286   1.046   3.821   5.215
 3463SOL     OW11287   0.967   4.186   1.939
 3463SOL    HW111288   0.954   4.097   1.895
 3463SOL    HW211289   0.925   4.258   1.885
 3464SOL     OW11290   0.156   4.663   5.911
 3464SOL    HW111291   0.139   4.577   5.960
 3464SOL    HW211292   0.122   4.655   5.818
 3465SOL     OW11293   1.426   2.449   2.251
 3465SOL    HW111294   1.523   2.456   2.277
 3465SOL    HW211295   1.418   2.449   2.151
 3466SOL     OW11296   6.676   5.216   6.036
 3466SOL    HW111297   6.625   5.220   5.951
 3466SOL    HW211298   6.614   5.232   6.113
 3467SOL     OW11299   1.921   2.587   6.455
 3467SOL    HW111300   1.912   2.517   6.384
 3467SOL    HW211301   2.008   2.572   6.504
 3468SOL     OW11302   4.533   6.531   2.164
 3468SOL    HW111303   4.526   6.548   2.262
 3468SOL    HW211304   4.442   6.512   2.127
 3469SOL     OW11305   5.815   0.480   3.165
 3469SOL    HW111306   5.753   0.405   3.143
 3469SOL    HW211307   5.853   0.517   3.080
 3470SOL     OW11308   6.563   3.760   0.813
 3470SOL    HW111309   6.630   3.724   0.749
 3470SOL    HW211310   6.605   3.830   0.870
 3471SOL     OW11311   3.784   4.942   4.256
 3471SOL    HW111312   3.834   4.943   4.169
 3471SOL    HW211313   3.842   4.900   4.326
 3472SOL     OW11314   2.076   0.872   2.514
 3472SOL    HW111315   1.977   0.863   2.504
 3472SOL    HW211316   2.100   0.873   2.612
 3473SOL     OW11317   6.829   1.842   6.809
 3473SOL    HW111318   6.891   1.781   6.761
 3473SOL    HW211319   6.766   1.884   6.745
 3474SOL     OW11320   2.751   5.307   1.805
 3474SOL    HW111321   2.684   5.305   1.730
 3474SOL    HW211322   2.716   5.364   1.880
 3475SOL     OW11323   0.905   5.809   4.946
 3475SOL    HW111324   0.968   5.802   5.023
 3475SOL    HW211325   0.811   5.815   4.980
 3476SOL     OW11326   3.518   1.867   3.215
 3476SOL    HW111327   3.516   1.950   3.159
 3476SOL    HW211328   3.590   1.875   3.284
 3477SOL     OW11329   3.043   5.196   1.242
 3477SOL    HW111330   3.077   5.289   1.253
 3477SOL    HW211331   3.022   5.180   1.145
 3478SOL     OW11332   2.371   5.589   4.974
 3478SOL    HW111333   2.392   5.560   4.881
 3478SOL    HW211334   2.452   5.634   5.014
 3479SOL     OW11335   1.021   1.047   2.918
 3479SOL    HW111336   0.972   0.959   2.922
 3479SOL    HW211337   1.027   1.085   3.010
 3480SOL     OW11338   0.006   7.018   5.008
 3480SOL    HW111339   6.997   6.986   4.919
 3480SOL    HW211340   0.034   0.092   5.001
 3481SOL     OW11341   4.842   6.751   0.418
 3481SOL    HW111342   4.779   6.675   0.402
 3481SOL    HW211343   4.889   6.738   0.505
 3482SOL     OW11344   5.796   1.571   0.989
 3482SOL    HW111345   5.839   1.508   0.924
 3482SOL    HW211346   5.825   1.665   0.970
 3483SOL     OW11347   4.190   1.319   1.284
 3483SOL    HW111348   4.288   1.326   1.301
 3483SOL    HW211349   4.150   1.411   1.286
 3484SOL     OW11350   3.240   3.710   1.539
 3484SOL    HW111351   3.159   3.673   1.493
 3484SOL    HW211352   3.216   3.739   1.631
 3485SOL     OW11353   1.325   0.110   4.133
 3485SOL    HW111354   1.401   0.086   4.073
 3485SOL    HW211355   1.296   0.030   4.185
 3486SOL     OW11356   2.981   1.649   2.814
 3486SOL    HW111357   2.982   1.697   2.726
 3486SOL    HW211358   2.921   1.570   2.807
 3487SOL     OW11359   5.557   2.041   5.661
 3487SOL    HW111360   5.604   2.035   5.749
 3487SOL    HW211361   5.586   1.966   5.602
 3488SOL     OW11362   5.223   2.504   4.254
 3488SOL    HW111363   5.170   2.588   4.249
 3488SOL    HW211364   5.317   2.525   4.279
 3489SOL     OW11365   2.727   6.687   0.492
 3489SOL    HW111366   2.720   6.630   0.575
 3489SOL    HW211367   2.805   6.749   0.501
 3490SOL     OW11368   4.765   4.707   6.656
 3490SOL    HW111369   4.779   4.757   6.570
 3490SOL    HW211370   4.667   4.701   6.676
 3491SOL     OW11371   5.561   2.461   4.570
 3491SOL    HW111372   5.537   2.448   4.474
 3491SOL    HW211373   5.492   2.418   4.627
 3492SOL     OW11374   0.883   5.508   1.321
 3492SOL    HW111375   0.805   5.488   1.380
 3492SOL    HW211376   0.899   5.607   1.319
 3493SOL     OW11377   6.642   5.001   6.757
 3493SOL    HW111378   6.687   4.989   6.846
 3493SOL    HW211379   6.543   4.994   6.767
 3494SOL     OW11380   3.992   0.716   1.684
 3494SOL    HW111381   3.930   0.654   1.637
 3494SOL    HW211382   4.020   0.789   1.622
 3495SOL     OW11383   4.255   5.020   2.136
 3495SOL    HW111384   4.245   4.923   2.159
 3495SOL    HW211385   4.212   5.075   2.208
 3496SOL     OW11386   0.157   3.991   0.619
 3496SOL    HW111387   0.218   4.065   0.646
 3496SOL    HW211388   0.168   3.914   0.681
 3497SOL     OW11389   4.371   6.500   3.446
 3497SOL    HW111390   4.398   6.431   3.379
 3497SOL    HW211391   4.279   6.534   3.424
 3498SOL     OW11392   1.909   2.609   0.500
 3498SOL    HW111393   1.976   2.586   0.571
 3498SOL    HW211394   1.957   2.627   0.414
 3499SOL     OW11395   4.728   2.826   4.479
 3499SOL    HW111396   4.739   2.839   4.578
 3499SOL    HW211397   4.755   2.733   4.455
 3500SOL     OW11398   0.772   3.882   5.058
 3500SOL    HW111399   0.680   3.921   5.066
 3500SOL    HW211400   0.828   3.943   5.001
 3501SOL     OW11401   1.280   5.407   3.643
 3501SOL    HW111402   1.331   5.363   3.717
 3501SOL    HW211403   1.182   5.397   3.659
 3502SOL     OW11404   6.711   2.303   1.851
 3502SOL    HW111405   6.739   2.261   1.937
 3502SOL    HW211406   6.724   2.402   1.856
 3503SOL     OW11407   5.833   6.025   5.437
 3503SOL    HW111408   5.847   6.073   5.351
 3503SOL    HW211409   5.861   6.083   5.513
 3504SOL     OW11410   2.029   2.067   1.136
 3504SOL    HW111411   2.107   2.098   1.190
 3504SOL    HW211412   1.946   2.075   1.190
 3505SOL     OW11413   5.330   4.783   5.171
 3505SOL    HW111414   5.406   4.735   5.214
 3505SOL    HW211415   5.344   4.785   5.072
 3506SOL     OW11416   4.696   6.350   5.308
 3506SOL    HW111417   4.705   6.329   5.211
 3506SOL    HW211418   4.774   6.313   5.358
 3507SOL     OW11419   2.557   0.566   0.359
 3507SOL    HW111420   2.505   0.530   0.282
 3507SOL    HW211421   2.628   0.628   0.324
 3508SOL     OW11422   3.695   2.524   6.214
 3508SOL    HW111423   3.596   2.536   6.206
 3508SOL    HW211424   3.718   2.501   6.309
 3509SOL     OW11425   5.123   6.745   6.344
 3509SOL    HW111426   5.107   6.800   6.262
 3509SOL    HW211427   5.218   6.757   6.375
 3510SOL     OW11428   2.146   1.968   1.494
 3510SOL    HW111429   2.195   2.034   1.437
 3510SOL    HW211430   2.146   2.000   1.589
 3511SOL     OW11431   1.704   4.881   6.992
 3511SOL    HW111432   1.726   4.815   6.920
 3511SOL    HW211433   1.606   4.877   7.012
 3512SOL     OW11434   6.721   3.948   0.951
 3512SOL    HW111435   6.798   3.924   1.009
 3512SOL    HW211436   6.755   3.980   0.862
 3513SOL     OW11437   6.126   4.027   0.621
 3513SOL    HW111438   6.068   4.104   0.648
 3513SOL    HW211439   6.216   4.037   0.663
 3514SOL     OW11440   6.871   1.033   2.319
 3514SOL    HW111441   6.836   1.126   2.318
 3514SOL    HW211442   6.970   1.035   2.335
 3515SOL     OW11443   4.608   6.484   2.479
 3515SOL    HW111444   4.612   6.393   2.437
 3515SOL    HW211445   4.665   6.485   2.561
 3516SOL     OW11446   4.614   0.651   1.209
 3516SOL    HW111447   4.530   0.609   1.175
 3516SOL    HW211448   4.687   0.636   1.143
 3517SOL     OW11449   0.797   2.272   6.924
 3517SOL    HW111450   0.740   2.353   6.939
 3517SOL    HW211451   0.781   2.206   6.997
 3518SOL     OW11452   5.485   4.064   4.779
 3518SOL    HW111453   5.554   4.136   4.786
 3518SOL    HW211454   5.521   3.988   4.724
 3519SOL     OW11455   2.403   0.547   6.419
 3519SOL    HW111456   2.485   0.513   6.464
 3519SOL    HW211457   2.327   0.547   6.484
 3520SOL     OW11458   3.052   5.076   0.932
 3520SOL    HW111459   3.148   5.055   0.913
 3520SOL    HW211460   2.999   5.070   0.848
 3521SOL     OW11461   5.750   3.614   1.351
 3521SOL    HW111462   5.829   3.565   1.389
 3521SOL    HW211463   5.683   3.548   1.317
 3522SOL     OW11464   4.491   5.309   2.245
 3522SOL    HW111465   4.569   5.279   2.299
 3522SOL    HW211466   4.471   5.241   2.174
 3523SOL     OW11467   2.855   4.286   5.578
 3523SOL    HW111468   2.808   4.202   5.550
 3523SOL    HW211469   2.840   4.357   5.509
 3524SOL     OW11470   2.629   1.144   0.958
 3524SOL    HW111471   2.605   1.082   1.033
 3524SOL    HW211472   2.728   1.157   0.955
 3525SOL     OW11473   0.665   4.128   2.520
 3525SOL    HW111474   0.646   4.097   2.427
 3525SOL    HW211475   0.690   4.225   2.518
 3526SOL     OW11476   2.166   6.151   3.889
 3526SOL    HW111477   2.145   6.239   3.930
 3526SOL    HW211478   2.210   6.092   3.957
 3527SOL     OW11479   6.103   3.434   5.752
 3527SOL    HW111480   6.017   3.386   5.734
 3527SOL    HW211481   6.125   3.493   5.674
 3528SOL     OW11482   1.041   5.312   3.695
 3528SOL    HW111483   1.085   5.230   3.731
 3528SOL    HW211484   0.980   5.350   3.764
 3529SOL     OW11485   4.662   6.916   5.363
 3529SOL    HW111486   4.627   6.829   5.330
 3529SOL    HW211487   4.652   6.921   5.463
 3530SOL     OW11488   3.163   4.841   3.359
 3530SOL    HW111489   3.254   4.822   3.321
 3530SOL    HW211490   3.161   4.934   3.395
 3531SOL     OW11491   4.731   4.697   1.240
 3531SOL    HW111492   4.806   4.638   1.269
 3531SOL    HW211493   4.651   4.680   1.297
 3532SOL     OW11494   2.622   0.041   0.546
 3532SOL    HW111495   2.566   0.101   0.602
 3532SOL    HW211496   2.609   0.063   0.449
 3533SOL     OW11497   1.176   2.541   3.112
 3533SOL    HW111498   1.134   2.528   3.201
 3533SOL    HW211499   1.145   2.470   3.049
 3534SOL     OW11500   6.606   1.142   4.951
 3534SOL    HW111501   6.618   1.091   5.035
 3534SOL    HW211502   6.658   1.098   4.877
 3535SOL     OW11503   6.494   5.612   0.569
 3535SOL    HW111504   6.573   5.552   0.581
 3535SOL    HW211505   6.410   5.559   0.582
 3536SOL     OW11506   2.230   2.958   3.586
 3536SOL    HW111507   2.297   2.891   3.554
 3536SOL    HW211508   2.220   2.950   3.686
 3537SOL     OW11509   2.567   5.050   0.368
 3537SOL    HW111510   2.544   5.145   0.390
 3537SOL    HW211511   2.568   4.996   0.451
 3538SOL     OW11512   3.053   0.632   4.094
 3538SOL    HW111513   2.964   0.608   4.133
 3538SOL    HW211514   3.065   0.731   4.098
 3539SOL     OW11515   5.758   3.543   6.561
 3539SOL    HW111516   5.802   3.542   6.472
 3539SOL    HW211517   5.769   3.633   6.603
 3540SOL     OW11518   2.150   1.497   5.461
 3540SOL    HW111519   2.133   1.400   5.479
 3540SOL    HW211520   2.065   1.541   5.431
 3541SOL     OW11521   2.482   2.745   6.639
 3541SOL    HW111522   2.534   2.749   6.724
 3541SOL    HW211523   2.463   2.838   6.607
 3542SOL     OW11524   6.966   3.310   0.967
 3542SOL    HW111525   6.880   3.269   0.937
 3542SOL    HW211526   7.009   3.358   0.891
 3543SOL     OW11527   1.893   3.275   4.729
 3543SOL    HW111528   1.819   3.208   4.721
 3543SOL    HW211529   1.973   3.244   4.678
 3544SOL     OW11530   1.993   4.384   6.444
 3544SOL    HW111531   1.925   4.457   6.442
 3544SOL    HW211532   2.081   4.419   6.411
 3545SOL     OW11533   3.657   5.125   6.583
 3545SOL    HW111534   3.566   5.118   6.625
 3545SOL    HW211535   3.648   5.163   6.491
 3546SOL     OW11536   6.401   4.848   3.210
 3546SOL    HW111537   6.472   4.788   3.172
 3546SOL    HW211538   6.445   4.928   3.252
 3547SOL     OW11539   6.784   4.283   4.935
 3547SOL    HW111540   6.728   4.235   4.868
 3547SOL    HW211541   6.877   4.295   4.899
 3548SOL     OW11542   5.711   0.500   6.045
 3548SOL    HW111543   5.777   0.526   5.975
 3548SOL    HW211544   5.618   0.505   6.007
 3549SOL     OW11545   1.948   4.443   6.083
 3549SOL    HW111546   2.033   4.494   6.097
 3549SOL    HW211547   1.949   4.401   5.992
 3550SOL     OW11548   5.987   2.290   4.588
 3550SOL    HW111549   6.026   2.374   4.626
 3550SOL    HW211550   6.060   2.226   4.565
 3551SOL     OW11551   4.062   1.497   4.060
 3551SOL    HW111552   4.128   1.551   4.007
 3551SOL    HW211553   4.062   1.529   4.155
 3552SOL     OW11554   6.454   6.159   1.434
 3552SOL    HW111555   6.453   6.061   1.416
 3552SOL    HW211556   6.522   6.203   1.375
 3553SOL     OW11557   3.436   5.544   6.979
 3553SOL    HW111558   3.407   5.543   6.883
 3553SOL    HW211559   3.415   5.455   7.020
 3554SOL     OW11560   4.531   2.912   0.817
 3554SOL    HW111561   4.611   2.946   0.766
 3554SOL    HW211562   4.455   2.898   0.754
 3555SOL     OW11563   1.486   3.114   4.086
 3555SOL    HW111564   1.396   3.147   4.115
 3555SOL    HW211565   1.487   3.014   4.087
 3556SOL     OW11566   3.688   0.996   3.649
 3556SOL    HW111567   3.781   1.029   3.634
 3556SOL    HW211568   3.660   0.939   3.572
 3557SOL     OW11569   1.215   6.727   4.090
 3557SOL    HW111570   1.252   6.807   4.137
 3557SOL    HW211571   1.231   6.645   4.145
 3558SOL     OW11572   2.317   4.793   1.661
 3558SOL    HW111573   2.308   4.799   1.761
 3558SOL    HW211574   2.259   4.718   1.628
 3559SOL     OW11575   0.768   6.296   4.886
 3559SOL    HW111576   0.734   6.211   4.846
 3559SOL    HW211577   0.835   6.338   4.825
 3560SOL     OW11578   2.555   4.817   3.018
 3560SOL    HW111579   2.465   4.803   2.978
 3560SOL    HW211580   2.547   4.820   3.118
 3561SOL     OW11581   5.272   3.682   5.729
 3561SOL    HW111582   5.265   3.583   5.724
 3561SOL    HW211583   5.276   3.710   5.825
 3562SOL     OW11584   3.196   1.889   3.704
 3562SOL    HW111585   3.170   1.871   3.609
 3562SOL    HW211586   3.150   1.825   3.765
 3563SOL     OW11587   6.426   1.537   6.588
 3563SOL    HW111588   6.522   1.515   6.605
 3563SOL    HW211589   6.395   1.490   6.506
 3564SOL     OW11590   0.412   4.862   2.962
 3564SOL    HW111591   0.370   4.932   2.904
 3564SOL    HW211592   0.483   4.904   3.018
 3565SOL     OW11593   3.776   5.876   3.972
 3565SOL    HW111594   3.771   5.831   3.883
 3565SOL    HW211595   3.730   5.819   4.041
 3566SOL     OW11596   6.063   1.754   6.310
 3566SOL    HW111597   6.086   1.702   6.392
 3566SOL    HW211598   6.064   1.694   6.231
 3567SOL     OW11599   0.412   2.343   6.479
 3567SOL    HW111600   0.475   2.372   6.552
 3567SOL    HW211601   0.319   2.373   6.502
 3568SOL     OW11602   5.122   4.177   4.975
 3568SOL    HW111603   5.198   4.112   4.978
 3568SOL    HW211604   5.036   4.127   4.981
 3569SOL     OW11605   2.962   2.595   6.497
 3569SOL    HW111606   2.985   2.511   6.546
 3569SOL    HW211607   2.865   2.592   6.471
 3570SOL     OW11608   5.005   7.021   6.125
 3570SOL    HW111609   5.069   0.028   6.197
 3570SOL    HW211610   4.924   0.058   6.128
 3571SOL     OW11611   0.992   5.012   0.187
 3571SOL    HW111612   1.010   5.102   0.149
 3571SOL    HW211613   1.043   4.943   0.136
 3572SOL     OW11614   5.283   4.116   3.215
 3572SOL    HW111615   5.262   4.187   3.282
 3572SOL    HW211616   5.308   4.159   3.128
 3573SOL     OW11617   0.521   4.630   3.642
 3573SOL    HW111618   0.442   4.569   3.653
 3573SOL    HW211619   0.604   4.582   3.671
 3574SOL     OW11620   0.423   4.291   0.434
 3574SOL    HW111621   0.492   4.352   0.471
 3574SOL    HW211622   0.466   4.204   0.409
 3575SOL     OW11623   5.114   4.807   2.593
 3575SOL    HW111624   5.022   4.797   2.631
 3575SOL    HW211625   5.177   4.830   2.667
 3576SOL     OW11626   1.920   1.604   5.345
 3576SOL    HW111627   1.831   1.638   5.316
 3576SOL    HW211628   1.976   1.681   5.377
 3577SOL     OW11629   1.211   2.533   6.257
 3577SOL    HW111630   1.141   2.600   6.280
 3577SOL    HW211631   1.168   2.448   6.228
 3578SOL     OW11632   3.284   2.360   0.709
 3578SOL    HW111633   3.349   2.425   0.670
 3578SOL    HW211634   3.191   2.394   0.693
 3579SOL     OW11635   6.204   3.980   4.675
 3579SOL    HW111636   6.108   4.006   4.671
 3579SOL    HW211637   6.243   3.977   4.583
 3580SOL     OW11638   6.221   2.501   1.241
 3580SOL    HW111639   6.295   2.436   1.225
 3580SOL    HW211640   6.253   2.575   1.300
 3581SOL     OW11641   0.385   6.165   3.644
 3581SOL    HW111642   0.408   6.069   3.664
 3581SOL    HW211643   0.375   6.215   3.730
 3582SOL     OW11644   0.996   2.194   5.646
 3582SOL    HW111645   0.953   2.255   5.580
 3582SOL    HW211646   0.978   2.099   5.621
 3583SOL     OW11647   1.175   3.578   6.170
 3583SOL    HW111648   1.274   3.570   6.179
 3583SOL    HW211649   1.153   3.629   6.087
 3584SOL     OW11650   6.104   5.350   6.920
 3584SOL    HW111651   6.118   5.376   6.825
 3584SOL    HW211652   6.160   5.270   6.941
 3585SOL     OW11653   4.648   6.279   4.989
 3585SOL    HW111654   4.640   6.185   5.022
 3585SOL    HW211655   4.740   6.295   4.955
 3586SOL     OW11656   0.492   2.387   5.407
 3586SOL    HW111657   0.468   2.439   5.489
 3586SOL    HW211658   0.521   2.451   5.336
 3587SOL     OW11659   2.910   5.128   6.430
 3587SOL    HW111660   2.901   5.184   6.348
 3587SOL    HW211661   2.864   5.040   6.415
 3588SOL     OW11662   1.099   2.958   5.002
 3588SOL    HW111663   1.178   2.942   4.942
 3588SOL    HW211664   1.130   3.001   5.087
 3589SOL     OW11665   4.097   2.207   4.950
 3589SOL    HW111666   4.107   2.219   4.851
 3589SOL    HW211667   4.129   2.290   4.997
 3590SOL     OW11668   1.423   2.766   6.492
 3590SOL    HW111669   1.454   2.798   6.402
 3590SOL    HW211670   1.499   2.721   6.539
 3591SOL     OW11671   4.825   3.500   6.726
 3591SOL    HW111672   4.892   3.442   6.772
 3591SOL    HW211673   4.739   3.450   6.715
 3592SOL     OW11674   6.494   4.154   2.053
 3592SOL    HW111675   6.564   4.219   2.023
 3592SOL    HW211676   6.404   4.197   2.050
 3593SOL     OW11677   1.880   5.751   4.791
 3593SOL    HW111678   1.888   5.845   4.825
 3593SOL    HW211679   1.902   5.687   4.864
 3594SOL     OW11680   4.526   0.662   3.158
 3594SOL    HW111681   4.561   0.688   3.067
 3594SOL    HW211682   4.433   0.628   3.149
 3595SOL     OW11683   2.435   5.738   6.986
 3595SOL    HW111684   2.415   5.826   6.944
 3595SOL    HW211685   2.370   5.721   0.038
 3596SOL     OW11686   6.602   2.204   3.243
 3596SOL    HW111687   6.685   2.157   3.215
 3596SOL    HW211688   6.581   2.182   3.338
 3597SOL     OW11689   2.368   1.423   4.954
 3597SOL    HW111690   2.382   1.516   4.921
 3597SOL    HW211691   2.381   1.421   5.053
 3598SOL     OW11692   1.282   6.024   6.469
 3598SOL    HW111693   1.230   6.070   6.397
 3598SOL    HW211694   1.303   5.930   6.440
 3599SOL     OW11695   0.667   1.967   5.504
 3599SOL    HW111696   0.633   2.030   5.434
 3599SOL    HW211697   0.600   1.959   5.578
 3600SOL     OW11698   1.113   3.609   0.208
 3600SOL    HW111699   1.067   3.584   0.293
 3600SOL    HW211700   1.048   3.601   0.132
 3601SOL     OW11701   5.879   5.050   6.647
 3601SOL    HW111702   5.849   4.990   6.573
 3601SOL    HW211703   5.898   4.995   6.729
 3602SOL     OW11704   1.450   2.373   0.599
 3602SOL    HW111705   1.541   2.413   0.603
 3602SOL    HW211706   1.457   2.276   0.575
 3603SOL     OW11707   3.343   0.120   3.661
 3603SOL    HW111708   3.377   0.026   3.662
 3603SOL    HW211709   3.278   0.131   3.586
 3604SOL     OW11710   0.054   4.980   2.999
 3604SOL    HW111711   0.097   4.972   3.089
 3604SOL    HW211712   0.033   5.076   2.980
 3605SOL     OW11713   5.639   3.884   5.038
 3605SOL    HW111714   5.692   3.816   4.988
 3605SOL    HW211715   5.596   3.840   5.117
 3606SOL     OW11716   0.189   6.223   5.517
 3606SOL    HW111717   0.186   6.268   5.606
 3606SOL    HW211718   0.219   6.289   5.448
 3607SOL     OW11719   5.255   6.101   1.279
 3607SOL    HW111720   5.348   6.136   1.279
 3607SOL    HW211721   5.221   6.096   1.185
 3608SOL     OW11722   6.393   1.866   3.447
 3608SOL    HW111723   6.369   1.833   3.356
 3608SOL    HW211724   6.313   1.911   3.488
 3609SOL     OW11725   0.692   0.731   4.305
 3609SOL    HW111726   0.719   0.644   4.263
 3609SOL    HW211727   0.750   0.805   4.270
 3610SOL     OW11728   1.291   0.025   6.125
 3610SOL    HW111729   1.253   6.971   6.074
 3610SOL    HW211730   1.384   0.001   6.156
 3611SOL     OW11731   4.788   6.065   6.040
 3611SOL    HW111732   4.749   6.023   5.958
 3611SOL    HW211733   4.874   6.109   6.016
 3612SOL     OW11734   5.989   6.864   6.648
 3612SOL    HW111735   6.005   6.861   6.747
 3612SOL    HW211736   5.903   6.816   6.628
 3613SOL     OW11737   4.764   5.429   1.986
 3613SOL    HW111738   4.812   5.463   1.906
 3613SOL    HW211739   4.785   5.487   2.065
 3614SOL     OW11740   3.988   3.530   2.111
 3614SOL    HW111741   3.913   3.469   2.135
 3614SOL    HW211742   3.980   3.615   2.162
 3615SOL     OW11743   5.435   5.744   0.120
 3615SOL    HW111744   5.387   5.669   0.165
 3615SOL    HW211745   5.522   5.760   0.166
 3616SOL     OW11746   0.606   3.360   6.033
 3616SOL    HW111747   0.702   3.368   6.061
 3616SOL    HW211748   0.601   3.338   5.936
 3617SOL     OW11749   4.027   1.470   6.449
 3617SOL    HW111750   4.096   1.416   6.402
 3617SOL    HW211751   3.977   1.525   6.383
 3618SOL     OW11752   2.486   1.906   5.471
 3618SOL    HW111753   2.394   1.942   5.481
 3618SOL    HW211754   2.515   1.913   5.375
 3619SOL     OW11755   5.356   2.696   4.035
 3619SOL    HW111756   5.403   2.783   4.049
 3619SOL    HW211757   5.279   2.688   4.098
 3620SOL     OW11758   6.388   6.138   6.104
 3620SOL    HW111759   6.356   6.168   6.014
 3620SOL    HW211760   6.328   6.065   6.138
 3621SOL     OW11761   3.644   2.933   5.761
 3621SOL    HW111762   3.610   2.880   5.839
 3621SOL    HW211763   3.609   2.894   5.676
 3622SOL     OW11764   1.655   1.726   4.767
 3622SOL    HW111765   1.665   1.824   4.784
 3622SOL    HW211766   1.568   1.694   4.805
 3623SOL     OW11767   6.375   5.731   4.392
 3623SOL    HW111768   6.393   5.829   4.388
 3623SOL    HW211769   6.461   5.680   4.385
 3624SOL     OW11770   2.314   6.095   1.901
 3624SOL    HW111771   2.315   6.177   1.845
 3624SOL    HW211772   2.288   6.016   1.846
 3625SOL     OW11773   5.904   3.475   6.852
 3625SOL    HW111774   5.821   3.450   6.903
 3625SOL    HW211775   5.891   3.454   6.755
 3626SOL     OW11776   1.217   3.302   6.286
 3626SOL    HW111777   1.297   3.275   6.233
 3626SOL    HW211778   1.179   3.387   6.247
 3627SOL     OW11779   3.386   2.942   3.615
 3627SOL    HW111780   3.405   2.851   3.652
 3627SOL    HW211781   3.453   2.965   3.545
 3628SOL     OW11782   1.353   1.060   1.913
 3628SOL    HW111783   1.448   1.066   1.945
 3628SOL    HW211784   1.352   1.042   1.815
 3629SOL     OW11785   6.695   2.319   5.088
 3629SOL    HW111786   6.684   2.224   5.062
 3629SOL    HW211787   6.750   2.325   5.172
 3630SOL     OW11788   4.852   2.901   3.816
 3630SOL    HW111789   4.840   2.995   3.785
 3630SOL    HW211790   4.949   2.882   3.831
 3631SOL     OW11791   1.895   6.980   3.872
 3631SOL    HW111792   1.830   7.017   3.805
 3631SOL    HW211793   1.985   7.019   3.855
 3632SOL     OW11794   4.876   6.323   1.462
 3632SOL    HW111795   4.849   6.418   1.448
 3632SOL    HW211796   4.795   6.264   1.456
 3633SOL     OW11797   3.781   1.752   5.535
 3633SOL    HW111798   3.719   1.817   5.491
 3633SOL    HW211799   3.876   1.778   5.517
 3634SOL     OW11800   0.673   5.138   4.840
 3634SOL    HW111801   0.685   5.045   4.873
 3634SOL    HW211802   0.601   5.184   4.893
 3635SOL     OW11803   2.900   6.965   5.931
 3635SOL    HW111804   2.819   6.957   5.872
 3635SOL    HW211805   2.971   7.017   5.883
 3636SOL     OW11806   0.337   5.554   0.135
 3636SOL    HW111807   0.289   5.492   0.197
 3636SOL    HW211808   0.418   5.591   0.181
 3637SOL     OW11809   6.676   1.857   1.594
 3637SOL    HW111810   6.756   1.864   1.533
 3637SOL    HW211811   6.648   1.949   1.621
 3638SOL     OW11812   0.654   4.440   4.390
 3638SOL    HW111813   0.608   4.426   4.302
 3638SOL    HW211814   0.729   4.376   4.399
 3639SOL     OW11815   3.622   4.023   0.962
 3639SOL    HW111816   3.544   3.984   0.912
 3639SOL    HW211817   3.696   4.042   0.898
 3640SOL     OW11818   3.764   0.786   0.634
 3640SOL    HW111819   3.844   0.744   0.592
 3640SOL    HW211820   3.778   0.885   0.643
 3641SOL     OW11821   5.369   3.378   3.045
 3641SOL    HW111822   5.389   3.305   2.980
 3641SOL    HW211823   5.347   3.338   3.134
 3642SOL     OW11824   5.178   0.985   0.301
 3642SOL    HW111825   5.238   1.058   0.334
 3642SOL    HW211826   5.230   0.901   0.290
 3643SOL     OW11827   2.592   6.050   5.101
 3643SOL    HW111828   2.614   5.968   5.047
 3643SOL    HW211829   2.625   6.131   5.053
 3644SOL     OW11830   6.961   1.206   1.764
 3644SOL    HW111831   0.035   1.231   1.771
 3644SOL    HW211832   6.905   1.289   1.761
 3645SOL     OW11833   0.081   2.882   3.442
 3645SOL    HW111834   7.010   2.878   3.407
 3645SOL    HW211835   0.102   2.976   3.471
 3646SOL     OW11836   6.879   4.427   6.345
 3646SOL    HW111837   6.944   4.466   6.280
 3646SOL    HW211838   6.788   4.425   6.304
 3647SOL     OW11839   2.628   3.916   6.422
 3647SOL    HW111840   2.648   3.990   6.486
 3647SOL    HW211841   2.554   3.859   6.459
 3648SOL     OW11842   3.549   5.159   2.342
 3648SOL    HW111843   3.551   5.256   2.318
 3648SOL    HW211844   3.488   5.146   2.421
 3649SOL     OW11845   4.610   2.820   1.703
 3649SOL    HW111846   4.602   2.905   1.756
 3649SOL    HW211847   4.520   2.794   1.669
 3650SOL     OW11848   0.491   5.039   1.057
 3650SOL    HW111849   0.520   4.963   1.114
 3650SOL    HW211850   0.559   5.112   1.063
 3651SOL     OW11851   0.109   7.015   4.323
 3651SOL    HW111852   0.098   0.053   4.244
 3651SOL    HW211853   0.146   6.927   4.293
 3652SOL     OW11854   5.714   6.258   3.558
 3652SOL    HW111855   5.637   6.195   3.552
 3652SOL    HW211856   5.731   6.298   3.467
 3653SOL     OW11857   0.140   1.416   4.254
 3653SOL    HW111858   0.100   1.423   4.345
 3653SOL    HW211859   0.137   1.505   4.209
 3654SOL     OW11860   2.576   4.796   1.118
 3654SOL    HW111861   2.589   4.696   1.116
 3654SOL    HW211862   2.489   4.817   1.161
 3655SOL     OW11863   1.497   6.591   3.995
 3655SOL    HW111864   1.424   6.548   4.048
 3655SOL    HW211865   1.556   6.520   3.956
 3656SOL     OW11866   0.916   3.734   1.974
 3656SOL    HW111867   0.855   3.655   1.976
 3656SOL    HW211868   0.943   3.758   2.067
 3657SOL     OW11869   5.019   5.342   5.907
 3657SOL    HW111870   5.004   5.416   5.842
 3657SOL    HW211871   4.944   5.339   5.972
 3658SOL     OW11872   2.007   5.372   5.423
 3658SOL    HW111873   2.069   5.324   5.361
 3658SOL    HW211874   1.916   5.330   5.418
 3659SOL     OW11875   1.243   3.473   4.669
 3659SOL    HW111876   1.193   3.406   4.615
 3659SOL    HW211877   1.262   3.435   4.760
 3660SOL     OW11878   5.874   6.985   3.419
 3660SOL    HW111879   5.839   0.050   3.386
 3660SOL    HW211880   5.891   6.924   3.341
 3661SOL     OW11881   5.299   1.746   5.388
 3661SOL    HW111882   5.254   1.685   5.452
 3661SOL    HW211883   5.397   1.749   5.408
 3662SOL     OW11884   4.255   6.505   3.728
 3662SOL    HW111885   4.348   6.497   3.691
 3662SOL    HW211886   4.258   6.556   3.814
 3663SOL     OW11887   1.728   1.838   0.877
 3663SOL    HW111888   1.766   1.923   0.913
 3663SOL    HW211889   1.630   1.849   0.864
 3664SOL     OW11890   5.195   2.421   1.816
 3664SOL    HW111891   5.182   2.505   1.869
 3664SOL    HW211892   5.292   2.397   1.817
 3665SOL     OW11893   2.034   6.125   5.351
 3665SOL    HW111894   2.124   6.083   5.364
 3665SOL    HW211895   1.967   6.053   5.332
 3666SOL     OW11896   1.135   4.591   3.272
 3666SOL    HW111897   1.057   4.547   3.316
 3666SOL    HW211898   1.215   4.532   3.278
 3667SOL     OW11899   0.474   0.909   2.575
 3667SOL    HW111900   0.463   0.864   2.487
 3667SOL    HW211901   0.427   0.857   2.646
 3668SOL     OW11902   1.903   1.108   1.972
 3668SOL    HW111903   1.960   1.145   2.046
 3668SOL    HW211904   1.896   1.176   1.899
 3669SOL     OW11905   4.826   0.683   3.791
 3669SOL    HW111906   4.888   0.692   3.713
 3669SOL    HW211907   4.879   0.659   3.872
 3670SOL     OW11908   2.826   5.063   0.430
 3670SOL    HW111909   2.736   5.057   0.386
 3670SOL    HW211910   2.897   5.042   0.363
 3671SOL     OW11911   6.075   1.255   3.826
 3671SOL    HW111912   6.121   1.312   3.758
 3671SOL    HW211913   6.099   1.159   3.809
 3672SOL     OW11914   6.019   1.689   1.252
 3672SOL    HW111915   5.961   1.675   1.172
 3672SOL    HW211916   6.113   1.666   1.229
 3673SOL     OW11917   3.954   6.267   6.714
 3673SOL    HW111918   3.941   6.174   6.680
 3673SOL    HW211919   3.960   6.330   6.637
 3674SOL     OW11920   0.900   6.975   5.001
 3674SOL    HW111921   0.932   6.960   5.095
 3674SOL    HW211922   0.861   6.890   4.966
 3675SOL     OW11923   2.160   3.507   4.578
 3675SOL    HW111924   2.228   3.529   4.648
 3675SOL    HW211925   2.185   3.552   4.492
 3676SOL     OW11926   5.069   4.493   3.442
 3676SOL    HW111927   5.138   4.556   3.406
 3676SOL    HW211928   4.993   4.486   3.378
 3677SOL     OW11929   2.137   5.511   3.489
 3677SOL    HW111930   2.059   5.562   3.451
 3677SOL    HW211931   2.182   5.567   3.559
 3678SOL     OW11932   0.788   2.232   5.258
 3678SOL    HW111933   0.709   2.173   5.276
 3678SOL    HW211934   0.774   2.281   5.172
 3679SOL     OW11935   0.754   0.278   3.593
 3679SOL    HW111936   0.845   0.267   3.554
 3679SOL    HW211937   0.757   0.347   3.665
 3680SOL     OW11938   5.687   2.682   3.720
 3680SOL    HW111939   5.608   2.724   3.676
 3680SOL    HW211940   5.742   2.635   3.652
 3681SOL     OW11941   0.334   0.126   6.874
 3681SOL    HW111942   0.291   0.216   6.861
 3681SOL    HW211943   0.431   0.139   6.896
 3682SOL     OW11944   5.909   2.342   0.035
 3682SOL    HW111945   5.978   2.384   0.094
 3682SOL    HW211946   5.841   2.295   0.091
 3683SOL     OW11947   6.719   0.299   2.657
 3683SOL    HW111948   6.748   0.316   2.751
 3683SOL    HW211949   6.627   0.259   2.658
 3684SOL     OW11950   2.050   4.752   0.058
 3684SOL    HW111951   2.014   4.659   0.064
 3684SOL    HW211952   1.975   4.817   0.063
 3685SOL     OW11953   6.817   6.332   6.538
 3685SOL    HW111954   6.778   6.350   6.447
 3685SOL    HW211955   6.912   6.363   6.540
 3686SOL     OW11956   5.787   5.690   3.992
 3686SOL    HW111957   5.722   5.765   4.001
 3686SOL    HW211958   5.786   5.656   3.898
 3687SOL     OW11959   3.405   5.828   5.280
 3687SOL    HW111960   3.398   5.731   5.306
 3687SOL    HW211961   3.332   5.851   5.217
 3688SOL     OW11962   6.559   3.653   6.159
 3688SOL    HW111963   6.612   3.707   6.094
 3688SOL    HW211964   6.513   3.578   6.111
 3689SOL     OW11965   2.323   0.284   6.097
 3689SOL    HW111966   2.399   0.348   6.104
 3689SOL    HW211967   2.359   0.191   6.087
 3690SOL     OW11968   5.065   5.441   0.089
 3690SOL    HW111969   5.101   5.487   0.008
 3690SOL    HW211970   4.968   5.423   0.077
 3691SOL     OW11971   2.839   2.483   6.776
 3691SOL    HW111972   2.772   2.454   6.845
 3691SOL    HW211973   2.818   2.577   6.748
 3692SOL     OW11974   0.147   5.518   5.606
 3692SOL    HW111975   0.105   5.458   5.538
 3692SOL    HW211976   0.238   5.483   5.629
 3693SOL     OW11977   1.942   3.840   2.835
 3693SOL    HW111978   1.964   3.894   2.916
 3693SOL    HW211979   1.847   3.810   2.840
 3694SOL     OW11980   1.495   6.295   2.686
 3694SOL    HW111981   1.485   6.333   2.778
 3694SOL    HW211982   1.578   6.239   2.682
 3695SOL     OW11983   6.828   2.874   1.409
 3695SOL    HW111984   6.819   2.969   1.381
 3695SOL    HW211985   6.783   2.861   1.498
 3696SOL     OW11986   3.749   5.574   5.499
 3696SOL    HW111987   3.757   5.567   5.400
 3696SOL    HW211988   3.809   5.648   5.532
 3697SOL     OW11989   0.296   6.590   2.902
 3697SOL    HW111990   0.318   6.582   2.805
 3697SOL    HW211991   0.211   6.541   2.921
 3698SOL     OW11992   2.217   1.094   4.336
 3698SOL    HW111993   2.176   1.151   4.408
 3698SOL    HW211994   2.146   1.067   4.271
 3699SOL     OW11995   1.018   1.962   3.675
 3699SOL    HW111996   1.039   2.057   3.701
 3699SOL    HW211997   1.063   1.900   3.740
 3700SOL     OW11998   0.857   6.670   4.953
 3700SOL    HW111999   0.926   6.637   5.018
 3700SOL    HW212000   0.767   6.669   4.996
 3701SOL     OW12001   1.464   0.280   3.836
 3701SOL    HW112002   1.502   0.202   3.884
 3701SOL    HW212003   1.407   0.334   3.899
 3702SOL     OW12004   6.014   6.971   2.840
 3702SOL    HW112005   6.099   6.940   2.797
 3702SOL    HW212006   5.943   6.902   2.828
 3703SOL     OW12007   5.977   1.035   5.306
 3703SOL    HW112008   5.910   1.017   5.378
 3703SOL    HW212009   5.933   1.028   5.217
 3704SOL     OW12010   3.516   1.955   1.940
 3704SOL    HW112011   3.526   1.885   2.012
 3704SOL    HW212012   3.541   2.044   1.977
 3705SOL     OW12013   4.167   5.374   3.670
 3705SOL    HW112014   4.144   5.352   3.576
 3705SOL    HW212015   4.085   5.372   3.727
 3706SOL     OW12016   1.757   3.313   6.649
 3706SOL    HW112017   1.847   3.273   6.668
 3706SOL    HW212018   1.694   3.288   6.722
 3707SOL     OW12019   5.418   4.657   4.638
 3707SOL    HW112020   5.394   4.561   4.656
 3707SOL    HW212021   5.467   4.663   4.552
 3708SOL     OW12022   0.062   0.683   6.504
 3708SOL    HW112023   0.041   0.726   6.591
 3708SOL    HW212024   0.100   0.592   6.520
 3709SOL     OW12025   3.136   0.813   0.976
 3709SOL    HW112026   3.103   0.849   0.889
 3709SOL    HW212027   3.082   0.850   1.051
 3710SOL     OW12028   6.408   5.028   6.242
 3710SOL    HW112029   6.486   4.994   6.296
 3710SOL    HW212030   6.430   5.118   6.205
 3711SOL     OW12031   0.480   0.298   4.259
 3711SOL    HW112032   0.408   0.235   4.229
 3711SOL    HW212033   0.474   0.312   4.357
 3712SOL     OW12034   0.293   5.781   6.938
 3712SOL    HW112035   0.259   5.688   6.933
 3712SOL    HW212036   0.387   5.784   6.902
 3713SOL     OW12037   0.856   6.204   5.117
 3713SOL    HW112038   0.955   6.189   5.110
 3713SOL    HW212039   0.822   6.241   5.031
 3714SOL     OW12040   4.975   5.950   5.480
 3714SOL    HW112041   4.970   6.047   5.458
 3714SOL    HW212042   5.070   5.919   5.471
 3715SOL     OW12043   0.081   4.120   2.871
 3715SOL    HW112044   7.018   4.124   2.819
 3715SOL    HW212045   0.144   4.057   2.825
 3716SOL     OW12046   6.449   0.198   5.117
 3716SOL    HW112047   6.357   0.182   5.082
 3716SOL    HW212048   6.447   0.196   5.217
 3717SOL     OW12049   6.225   6.526   6.566
 3717SOL    HW112050   6.244   6.624   6.563
 3717SOL    HW212051   6.150   6.504   6.503
 3718SOL     OW12052   1.608   0.769   0.066
 3718SOL    HW112053   1.704   0.746   0.085
 3718SOL    HW212054   1.596   0.778   6.990
 3719SOL     OW12055   5.474   4.390   1.315
 3719SOL    HW112056   5.450   4.485   1.293
 3719SOL    HW212057   5.523   4.387   1.402
 3720SOL     OW12058   5.714   2.575   6.469
 3720SOL    HW112059   5.744   2.582   6.374
 3720SOL    HW212060   5.625   2.531   6.472
 3721SOL     OW12061   6.290   4.361   1.345
 3721SOL    HW112062   6.377   4.313   1.338
 3721SOL    HW212063   6.278   4.422   1.267
 3722SOL     OW12064   6.836   5.726   0.682
 3722SOL    HW112065   6.831   5.650   0.617
 3722SOL    HW212066   6.863   5.809   0.633
 3723SOL     OW12067   6.190   5.440   1.590
 3723SOL    HW112068   6.245   5.487   1.520
 3723SOL    HW212069   6.126   5.504   1.630
 3724SOL     OW12070   1.817   4.141   4.850
 3724SOL    HW112071   1.807   4.207   4.775
 3724SOL    HW212072   1.796   4.049   4.816
 3725SOL     OW12073   5.867   5.479   0.647
 3725SOL    HW112074   5.918   5.509   0.566
 3725SOL    HW212075   5.923   5.415   0.700
 3726SOL     OW12076   5.568   3.881   0.581
 3726SOL    HW112077   5.565   3.917   0.488
 3726SOL    HW212078   5.494   3.815   0.594
 3727SOL     OW12079   7.017   2.374   5.033
 3727SOL    HW112080   0.025   2.439   4.963
 3727SOL    HW212081   7.016   2.419   5.122
 3728SOL     OW12082   1.708   3.583   6.673
 3728SOL    HW112083   1.805   3.581   6.649
 3728SOL    HW212084   1.670   3.491   6.663
 3729SOL     OW12085   1.019   2.500   3.866
 3729SOL    HW112086   1.106   2.537   3.898
 3729SOL    HW212087   1.035   2.412   3.822
 3730SOL     OW12088   2.570   4.868   5.970
 3730SOL    HW112089   2.476   4.882   6.000
 3730SOL    HW212090   2.576   4.881   5.871
 3731SOL     OW12091   0.120   1.485   0.342
 3731SOL    HW112092   0.199   1.427   0.361
 3731SOL    HW212093   0.094   1.533   0.425
 3732SOL     OW12094   2.879   1.214   0.197
 3732SOL    HW112095   2.841   1.301   0.165
 3732SOL    HW212096   2.855   1.142   0.132
 3733SOL     OW12097   1.586   3.668   2.504
 3733SOL    HW112098   1.670   3.635   2.460
 3733SOL    HW212099   1.610   3.735   2.574
 3734SOL     OW12100   5.201   1.071   2.149
 3734SOL    HW112101   5.175   1.137   2.079
 3734SOL    HW212102   5.221   1.119   2.234
 3735SOL     OW12103   1.934   0.813   3.927
 3735SOL    HW112104   2.021   0.779   3.891
 3735SOL    HW212105   1.870   0.827   3.851
 3736SOL     OW12106   0.408   2.473   0.764
 3736SOL    HW112107   0.489   2.520   0.798
 3736SOL    HW212108   0.425   2.375   0.760
 3737SOL     OW12109   5.029   0.433   3.539
 3737SOL    HW112110   5.049   0.426   3.637
 3737SOL    HW212111   4.933   0.457   3.527
 3738SOL     OW12112   6.779   6.534   2.022
 3738SOL    HW112113   6.692   6.489   2.005
 3738SOL    HW212114   6.817   6.504   2.110
 3739SOL     OW12115   2.693   4.412   1.648
 3739SOL    HW112116   2.622   4.469   1.689
 3739SOL    HW212117   2.773   4.410   1.707
 3740SOL     OW12118   5.573   0.404   0.392
 3740SOL    HW112119   5.595   0.319   0.344
 3740SOL    HW212120   5.569   0.386   0.490
 3741SOL     OW12121   5.166   3.042   0.583
 3741SOL    HW112122   5.158   3.130   0.628
 3741SOL    HW212123   5.110   2.974   0.632
 3742SOL     OW12124   3.085   1.571   6.913
 3742SOL    HW112125   3.161   1.512   6.940
 3742SOL    HW212126   3.052   1.544   6.823
 3743SOL     OW12127   5.348   3.204   0.884
 3743SOL    HW112128   5.310   3.240   0.969
 3743SOL    HW212129   5.400   3.276   0.837
 3744SOL     OW12130   1.295   5.831   2.636
 3744SOL    HW112131   1.378   5.777   2.621
 3744SOL    HW212132   1.273   5.883   2.554
 3745SOL     OW12133   3.987   4.914   1.626
 3745SOL    HW112134   3.979   4.920   1.526
 3745SOL    HW212135   3.959   4.823   1.655
 3746SOL     OW12136   5.558   1.027   2.923
 3746SOL    HW112137   5.573   1.066   2.832
 3746SOL    HW212138   5.495   0.949   2.916
 3747SOL     OW12139   2.993   6.628   5.127
 3747SOL    HW112140   3.049   6.711   5.136
 3747SOL    HW212141   2.918   6.631   5.193
 3748SOL     OW12142   6.168   1.370   0.886
 3748SOL    HW112143   6.084   1.378   0.940
 3748SOL    HW212144   6.171   1.443   0.818
 3749SOL     OW12145   1.594   5.822   3.570
 3749SOL    HW112146   1.659   5.827   3.646
 3749SOL    HW212147   1.504   5.853   3.601
 3750SOL     OW12148   1.301   4.024   0.666
 3750SOL    HW112149   1.240   4.042   0.589
 3750SOL    HW212150   1.275   3.939   0.710
 3751SOL     OW12151   0.485   3.645   1.864
 3751SOL    HW112152   0.502   3.580   1.790
 3751SOL    HW212153   0.389   3.673   1.863
 3752SOL     OW12154   5.190   0.538   6.845
 3752SOL    HW112155   5.138   0.564   6.926
 3752SOL    HW212156   5.280   0.504   6.873
 3753SOL     OW12157   6.272   6.483   4.541
 3753SOL    HW112158   6.347   6.483   4.476
 3753SOL    HW212159   6.298   6.431   4.623
 3754SOL     OW12160   2.601   0.971   1.178
 3754SOL    HW112161   2.564   0.879   1.166
 3754SOL    HW212162   2.536   1.026   1.230
 3755SOL     OW12163   5.014   4.414   4.270
 3755SOL    HW112164   5.016   4.329   4.219
 3755SOL    HW212165   4.932   4.417   4.327
 3756SOL     OW12166   2.764   5.056   6.041
 3756SOL    HW112167   2.786   5.117   6.117
 3756SOL    HW212168   2.721   4.973   6.077
 3757SOL     OW12169   6.137   5.683   0.863
 3757SOL    HW112170   6.207   5.746   0.832
 3757SOL    HW212171   6.056   5.734   0.891
 3758SOL     OW12172   2.992   1.579   4.813
 3758SOL    HW112173   2.952   1.659   4.858
 3758SOL    HW212174   2.919   1.515   4.789
 3759SOL     OW12175   4.200   6.942   6.496
 3759SOL    HW112176   4.132   6.875   6.526
 3759SOL    HW212177   4.189   0.004   6.548
 3760SOL     OW12178   1.069   1.602   4.372
 3760SOL    HW112179   0.979   1.578   4.335
 3760SOL    HW212180   1.136   1.534   4.344
 3761SOL     OW12181   0.357   1.147   5.219
 3761SOL    HW112182   0.442   1.119   5.176
 3761SOL    HW212183   0.370   1.151   5.318
 3762SOL     OW12184   1.458   4.557   1.056
 3762SOL    HW112185   1.437   4.648   1.018
 3762SOL    HW212186   1.427   4.487   0.992
 3763SOL     OW12187   6.897   3.358   0.377
 3763SOL    HW112188   6.993   3.368   0.348
 3763SOL    HW212189   6.837   3.374   0.299
 3764SOL     OW12190   1.592   0.164   2.392
 3764SOL    HW112191   1.673   0.121   2.432
 3764SOL    HW212192   1.590   0.261   2.417
 3765SOL     OW12193   5.425   1.445   0.849
 3765SOL    HW112194   5.330   1.473   0.863
 3765SOL    HW212195   5.477   1.459   0.933
 3766SOL     OW12196   1.802   1.674   4.143
 3766SOL    HW112197   1.809   1.771   4.168
 3766SOL    HW212198   1.848   1.618   4.212
 3767SOL     OW12199   2.391   4.361   0.490
 3767SOL    HW112200   2.410   4.459   0.476
 3767SOL    HW212201   2.476   4.314   0.515
 3768SOL     OW12202   0.351   6.621   4.357
 3768SOL    HW112203   0.324   6.659   4.446
 3768SOL    HW212204   0.346   6.521   4.361
 3769SOL     OW12205   6.107   5.788   4.675
 3769SOL    HW112206   6.106   5.743   4.764
 3769SOL    HW212207   6.013   5.806   4.646
 3770SOL     OW12208   1.093   0.594   6.348
 3770SOL    HW112209   1.111   0.522   6.281
 3770SOL    HW212210   1.153   0.672   6.330
 3771SOL     OW12211   5.252   3.278   0.123
 3771SOL    HW112212   5.275   3.241   0.213
 3771SOL    HW212213   5.236   3.376   0.130
 3772SOL     OW12214   0.518   0.965   0.314
 3772SOL    HW112215   0.585   1.034   0.342
 3772SOL    HW212216   0.430   0.986   0.357
 3773SOL     OW12217   6.024   3.444   5.226
 3773SOL    HW112218   6.015   3.540   5.253
 3773SOL    HW212219   6.066   3.393   5.300
 3774SOL     OW12220   6.046   5.544   1.212
 3774SOL    HW112221   6.043   5.599   1.295
 3774SOL    HW212222   6.097   5.593   1.141
 3775SOL     OW12223   4.317   5.283   2.890
 3775SOL    HW112224   4.250   5.229   2.940
 3775SOL    HW212225   4.325   5.249   2.797
 3776SOL     OW12226   4.162   1.701   6.788
 3776SOL    HW112227   4.103   1.768   6.742
 3776SOL    HW212228   4.140   1.700   6.886
 3777SOL     OW12229   3.759   5.410   3.098
 3777SOL    HW112230   3.784   5.361   3.182
 3777SOL    HW212231   3.662   5.395   3.079
 3778SOL     OW12232   3.102   5.204   2.354
 3778SOL    HW112233   3.091   5.303   2.344
 3778SOL    HW212234   3.090   5.160   2.265
 3779SOL     OW12235   0.719   5.042   0.290
 3779SOL    HW112236   0.817   5.059   0.284
 3779SOL    HW212237   0.701   4.944   0.283
 3780SOL     OW12238   5.723   4.924   4.962
 3780SOL    HW112239   5.748   4.873   5.045
 3780SOL    HW212240   5.766   5.014   4.964
 3781SOL     OW12241   0.571   6.725   4.239
 3781SOL    HW112242   0.598   6.763   4.328
 3781SOL    HW212243   0.495   6.661   4.251
 3782SOL     OW12244   2.378   0.236   2.866
 3782SOL    HW112245   2.444   0.248   2.793
 3782SOL    HW212246   2.306   0.173   2.835
 3783SOL     OW12247   5.794   5.310   3.998
 3783SOL    HW112248   5.733   5.359   3.935
 3783SOL    HW212249   5.740   5.262   4.067
 3784SOL     OW12250   5.139   3.068   2.892
 3784SOL    HW112251   5.162   3.162   2.868
 3784SOL    HW212252   5.222   3.012   2.895
 3785SOL     OW12253   1.563   3.495   5.733
 3785SOL    HW112254   1.649   3.521   5.689
 3785SOL    HW212255   1.526   3.413   5.689
 3786SOL     OW12256   2.422   4.921   3.580
 3786SOL    HW112257   2.359   4.940   3.505
 3786SOL    HW212258   2.515   4.947   3.554
 3787SOL     OW12259   6.588   1.663   2.832
 3787SOL    HW112260   6.633   1.741   2.788
 3787SOL    HW212261   6.647   1.626   2.903
 3788SOL     OW12262   0.029   4.777   4.820
 3788SOL    HW112263   0.043   4.866   4.776
 3788SOL    HW212264   6.985   4.724   4.766
 3789SOL     OW12265   0.473   3.664   4.571
 3789SOL    HW112266   0.381   3.641   4.539
 3789SOL    HW212267   0.500   3.598   4.642
 3790SOL     OW12268   1.300   4.333   5.617
 3790SOL    HW112269   1.282   4.364   5.711
 3790SOL    HW212270   1.259   4.243   5.603
 3791SOL     OW12271   5.102   1.039   6.036
 3791SOL    HW112272   5.007   1.013   6.019
 3791SOL    HW212273   5.133   0.996   6.121
 3792SOL     OW12274   1.239   2.198   3.290
 3792SOL    HW112275   1.262   2.164   3.199
 3792SOL    HW212276   1.289   2.282   3.309
 3793SOL     OW12277   4.771   6.645   1.753
 3793SOL    HW112278   4.749   6.690   1.840
 3793SOL    HW212279   4.863   6.671   1.724
 3794SOL     OW12280   1.781   2.549   1.201
 3794SOL    HW112281   1.732   2.485   1.141
 3794SOL    HW212282   1.807   2.503   1.285
 3795SOL     OW12283   4.825   6.085   1.123
 3795SOL    HW112284   4.814   6.054   1.217
 3795SOL    HW212285   4.740   6.070   1.073
 3796SOL     OW12286   3.330   2.075   2.532
 3796SOL    HW112287   3.230   2.085   2.534
 3796SOL    HW212288   3.367   2.089   2.623
 3797SOL     OW12289   0.856   3.689   2.461
 3797SOL    HW112290   0.789   3.668   2.390
 3797SOL    HW212291   0.820   3.759   2.522
 3798SOL     OW12292   2.703   5.216   3.946
 3798SOL    HW112293   2.707   5.306   3.901
 3798SOL    HW212294   2.617   5.171   3.921
 3799SOL     OW12295   6.376   2.461   3.852
 3799SOL    HW112296   6.330   2.373   3.857
 3799SOL    HW212297   6.417   2.472   3.761
 3800SOL     OW12298   5.554   2.533   3.926
 3800SOL    HW112299   5.634   2.586   3.897
 3800SOL    HW212300   5.491   2.593   3.975
 3801SOL     OW12301   5.821   6.355   1.492
 3801SOL    HW112302   5.841   6.449   1.466
 3801SOL    HW212303   5.769   6.353   1.577
 3802SOL     OW12304   1.381   2.343   1.640
 3802SOL    HW112305   1.392   2.287   1.558
 3802SOL    HW212306   1.457   2.326   1.703
 3803SOL     OW12307   4.150   3.292   2.159
 3803SOL    HW112308   4.081   3.358   2.132
 3803SOL    HW212309   4.174   3.307   2.255
 3804SOL     OW12310   4.845   1.042   3.765
 3804SOL    HW112311   4.845   0.990   3.680
 3804SOL    HW212312   4.786   1.122   3.755
 3805SOL     OW12313   1.579   2.737   1.207
 3805SOL    HW112314   1.662   2.682   1.220
 3805SOL    HW212315   1.508   2.681   1.164
 3806SOL     OW12316   4.014   3.774   5.778
 3806SOL    HW112317   3.943   3.748   5.713
 3806SOL    HW212318   3.972   3.815   5.859
 3807SOL     OW12319   1.725   5.662   2.831
 3807SOL    HW112320   1.667   5.727   2.880
 3807SOL    HW212321   1.806   5.641   2.887
 3808SOL     OW12322   4.494   0.850   0.440
 3808SOL    HW112323   4.515   0.833   0.344
 3808SOL    HW212324   4.435   0.931   0.448
 3809SOL     OW12325   5.415   2.316   1.570
 3809SOL    HW112326   5.449   2.403   1.533
 3809SOL    HW212327   5.435   2.312   1.668
 3810SOL     OW12328   4.722   2.700   3.658
 3810SOL    HW112329   4.658   2.649   3.715
 3810SOL    HW212330   4.750   2.783   3.705
 3811SOL     OW12331   0.600   5.728   4.808
 3811SOL    HW112332   0.647   5.724   4.897
 3811SOL    HW212333   0.511   5.684   4.816
 3812SOL     OW12334   4.483   5.210   5.343
 3812SOL    HW112335   4.473   5.300   5.300
 3812SOL    HW212336   4.580   5.193   5.360
 3813SOL     OW12337   4.076   3.160   0.541
 3813SOL    HW112338   4.133   3.225   0.590
 3813SOL    HW212339   4.014   3.115   0.605
 3814SOL     OW12340   6.125   6.990   5.980
 3814SOL    HW112341   6.145   6.970   5.884
 3814SOL    HW212342   6.168   6.921   6.038
 3815SOL     OW12343   3.405   1.852   0.660
 3815SOL    HW112344   3.496   1.839   0.701
 3815SOL    HW212345   3.376   1.947   0.673
 3816SOL     OW12346   1.017   5.742   6.389
 3816SOL    HW112347   1.013   5.831   6.343
 3816SOL    HW212348   0.975   5.673   6.331
 3817SOL     OW12349   4.969   3.734   2.542
 3817SOL    HW112350   5.012   3.824   2.554
 3817SOL    HW212351   4.997   3.695   2.454
 3818SOL     OW12352   6.517   0.817   6.625
 3818SOL    HW112353   6.553   0.725   6.609
 3818SOL    HW212354   6.529   0.872   6.543
 3819SOL     OW12355   5.284   5.261   2.230
 3819SOL    HW112356   5.224   5.333   2.262
 3819SOL    HW212357   5.230   5.180   2.206
 3820SOL     OW12358   5.350   0.074   3.558
 3820SOL    HW112359   5.438   0.032   3.578
 3820SOL    HW212360   5.317   0.124   3.637
 3821SOL     OW12361   2.384   1.831   1.831
 3821SOL    HW112362   2.287   1.825   1.806
 3821SOL    HW212363   2.404   1.924   1.861
 3822SOL     OW12364   2.213   0.526   0.958
 3822SOL    HW112365   2.120   0.496   0.937
 3822SOL    HW212366   2.260   0.455   1.011
 3823SOL     OW12367   3.184   3.417   6.622
 3823SOL    HW112368   3.217   3.335   6.576
 3823SOL    HW212369   3.231   3.497   6.584
 3824SOL     OW12370   0.560   3.293   0.312
 3824SOL    HW112371   0.601   3.203   0.326
 3824SOL    HW212372   0.494   3.312   0.384
 3825SOL     OW12373   0.312   5.398   0.383
 3825SOL    HW112374   0.244   5.401   0.457
 3825SOL    HW212375   0.402   5.423   0.419
 3826SOL     OW12376   1.271   3.764   6.831
 3826SOL    HW112377   1.212   3.842   6.854
 3826SOL    HW212378   1.215   3.684   6.812
 3827SOL     OW12379   1.875   1.278   1.711
 3827SOL    HW112380   1.908   1.362   1.669
 3827SOL    HW212381   1.884   1.202   1.646
 3828SOL     OW12382   3.607   3.524   2.980
 3828SOL    HW112383   3.672   3.588   3.022
 3828SOL    HW212384   3.658   3.458   2.925
 3829SOL     OW12385   1.646   5.009   2.465
 3829SOL    HW112386   1.565   5.062   2.491
 3829SOL    HW212387   1.625   4.912   2.472
 3830SOL     OW12388   0.633   0.949   5.321
 3830SOL    HW112389   0.617   0.970   5.225
 3830SOL    HW212390   0.576   0.872   5.349
 3831SOL     OW12391   4.887   2.470   2.632
 3831SOL    HW112392   4.909   2.429   2.543
 3831SOL    HW212393   4.800   2.519   2.626
 3832SOL     OW12394   6.106   0.991   2.734
 3832SOL    HW112395   6.152   0.902   2.732
 3832SOL    HW212396   6.171   1.062   2.759
 3833SOL     OW12397   0.459   6.378   6.644
 3833SOL    HW112398   0.445   6.454   6.580
 3833SOL    HW212399   0.557   6.361   6.655
 3834SOL     OW12400   4.080   4.645   1.303
 3834SOL    HW112401   3.989   4.636   1.342
 3834SOL    HW212402   4.148   4.639   1.376
 3835SOL     OW12403   3.907   5.655   4.833
 3835SOL    HW112404   4.002   5.674   4.855
 3835SOL    HW212405   3.901   5.617   4.740
 3836SOL     OW12406   1.129   4.294   6.221
 3836SOL    HW112407   1.227   4.284   6.237
 3836SOL    HW212408   1.078   4.237   6.285
 3837SOL     OW12409   4.562   4.760   6.346
 3837SOL    HW112410   4.534   4.676   6.298
 3837SOL    HW212411   4.519   4.763   6.436
 3838SOL     OW12412   0.922   3.667   4.521
 3838SOL    HW112413   0.895   3.578   4.484
 3838SOL    HW212414   0.925   3.734   4.448
 3839SOL     OW12415   5.360   1.010   3.200
 3839SOL    HW112416   5.434   1.066   3.164
 3839SOL    HW212417   5.392   0.916   3.214
 3840SOL     OW12418   2.733   0.854   6.470
 3840SOL    HW112419   2.652   0.861   6.528
 3840SOL    HW212420   2.810   0.899   6.514
 3841SOL     OW12421   0.017   3.263   4.278
 3841SOL    HW112422   0.061   3.343   4.236
 3841SOL    HW212423   6.957   3.293   4.326
 3842SOL     OW12424   2.271   2.677   1.559
 3842SOL    HW112425   2.340   2.610   1.583
 3842SOL    HW212426   2.233   2.655   1.469
 3843SOL     OW12427   5.952   5.083   2.112
 3843SOL    HW112428   5.967   4.989   2.081
 3843SOL    HW212429   6.039   5.123   2.142
 3844SOL     OW12430   0.759   3.239   5.835
 3844SOL    HW112431   0.812   3.187   5.902
 3844SOL    HW212432   0.821   3.286   5.772
 3845SOL     OW12433   2.928   3.678   5.727
 3845SOL    HW112434   2.994   3.698   5.655
 3845SOL    HW212435   2.855   3.746   5.727
 3846SOL     OW12436   0.047   5.305   3.656
 3846SOL    HW112437   0.029   5.400   3.681
 3846SOL    HW212438   7.005   5.245   3.705
 3847SOL     OW12439   5.317   1.661   4.183
 3847SOL    HW112440   5.335   1.660   4.282
 3847SOL    HW212441   5.247   1.729   4.163
 3848SOL     OW12442   4.500   5.698   3.111
 3848SOL    HW112443   4.477   5.792   3.135
 3848SOL    HW212444   4.574   5.698   3.044
 3849SOL     OW12445   1.506   0.960   6.137
 3849SOL    HW112446   1.459   0.998   6.217
 3849SOL    HW212447   1.529   1.033   6.074
 3850SOL     OW12448   2.398   3.517   1.335
 3850SOL    HW112449   2.491   3.548   1.313
 3850SOL    HW212450   2.377   3.541   1.430
 3851SOL     OW12451   1.202   4.830   2.535
 3851SOL    HW112452   1.170   4.819   2.629
 3851SOL    HW212453   1.198   4.741   2.488
 3852SOL     OW12454   4.206   6.230   3.662
 3852SOL    HW112455   4.217   6.324   3.693
 3852SOL    HW212456   4.284   6.176   3.692
 3853SOL     OW12457   1.364   4.450   3.236
 3853SOL    HW112458   1.411   4.377   3.187
 3853SOL    HW212459   1.409   4.465   3.324
 3854SOL     OW12460   1.519   3.141   2.918
 3854SOL    HW112461   1.616   3.140   2.892
 3854SOL    HW212462   1.503   3.071   2.988
 3855SOL     OW12463   5.471   6.164   6.304
 3855SOL    HW112464   5.393   6.108   6.330
 3855SOL    HW212465   5.470   6.249   6.357
 3856SOL     OW12466   0.060   0.409   5.733
 3856SOL    HW112467   0.152   0.373   5.716
 3856SOL    HW212468   0.057   0.446   5.826
 3857SOL     OW12469   0.233   6.355   0.126
 3857SOL    HW112470   0.181   6.272   0.149
 3857SOL    HW212471   0.246   6.359   0.027
 3858SOL     OW12472   1.922   1.056   5.498
 3858SOL    HW112473   1.826   1.034   5.485
 3858SOL    HW212474   1.970   0.976   5.533
 3859SOL     OW12475   6.061   1.359   2.727
 3859SOL    HW112476   6.038   1.298   2.802
 3859SOL    HW212477   6.055   1.310   2.640
 3860SOL     OW12478   2.991   0.424   5.355
 3860SOL    HW112479   3.065   0.491   5.344
 3860SOL    HW212480   2.993   0.359   5.280
 3861SOL     OW12481   4.553   4.762   3.423
 3861SOL    HW112482   4.509   4.851   3.410
 3861SOL    HW212483   4.548   4.736   3.519
 3862SOL     OW12484   0.824   0.546   5.203
 3862SOL    HW112485   0.872   0.509   5.283
 3862SOL    HW212486   0.856   0.640   5.187
 3863SOL     OW12487   4.940   2.762   0.045
 3863SOL    HW112488   4.975   2.669   0.035
 3863SOL    HW212489   5.015   2.827   0.037
 3864SOL     OW12490   2.481   0.494   5.138
 3864SOL    HW112491   2.475   0.586   5.099
 3864SOL    HW212492   2.552   0.493   5.209
 3865SOL     OW12493   3.310   0.169   0.047
 3865SOL    HW112494   3.407   0.188   0.061
 3865SOL    HW212495   3.257   0.252   0.065
 3866SOL     OW12496   3.884   1.000   0.924
 3866SOL    HW112497   3.825   1.070   0.965
 3866SOL    HW212498   3.833   0.914   0.917
 3867SOL     OW12499   0.997   4.620   3.611
 3867SOL    HW112500   0.980   4.548   3.544
 3867SOL    HW212501   0.989   4.709   3.567
 3868SOL     OW12502   3.215   6.946   0.448
 3868SOL    HW112503   3.306   6.944   0.405
 3868SOL    HW212504   3.224   6.970   0.544
 3869SOL     OW12505   5.949   4.201   4.721
 3869SOL    HW112506   6.003   4.189   4.804
 3869SOL    HW212507   5.860   4.240   4.744
 3870SOL     OW12508   5.165   5.818   6.581
 3870SOL    HW112509   5.168   5.771   6.670
 3870SOL    HW212510   5.075   5.858   6.567
 3871SOL     OW12511   3.642   0.509   3.021
 3871SOL    HW112512   3.682   0.547   2.938
 3871SOL    HW212513   3.612   0.415   3.004
 3872SOL     OW12514   3.558   2.979   3.390
 3872SOL    HW112515   3.518   2.946   3.305
 3872SOL    HW212516   3.657   2.993   3.377
 3873SOL     OW12517   5.885   3.052   1.591
 3873SOL    HW112518   5.902   3.062   1.689
 3873SOL    HW212519   5.871   2.956   1.569
 3874SOL     OW12520   3.948   5.948   0.135
 3874SOL    HW112521   3.986   5.933   0.044
 3874SOL    HW212522   3.978   5.874   0.196
 3875SOL     OW12523   1.668   3.068   2.019
 3875SOL    HW112524   1.630   2.977   2.010
 3875SOL    HW212525   1.662   3.098   2.114
 3876SOL     OW12526   4.660   5.094   0.379
 3876SOL    HW112527   4.672   5.020   0.313
 3876SOL    HW212528   4.568   5.089   0.417
 3877SOL     OW12529   6.596   3.051   0.652
 3877SOL    HW112530   6.612   3.016   0.744
 3877SOL    HW212531   6.498   3.062   0.637
 3878SOL     OW12532   3.569   6.956   4.450
 3878SOL    HW112533   3.619   6.951   4.364
 3878SOL    HW212534   3.472   6.972   4.433
 3879SOL     OW12535   4.937   6.152   1.949
 3879SOL    HW112536   4.952   6.242   1.909
 3879SOL    HW212537   5.009   6.132   2.015
 3880SOL     OW12538   6.120   4.664   3.746
 3880SOL    HW112539   6.121   4.593   3.816
 3880SOL    HW212540   6.133   4.623   3.656
 3881SOL     OW12541   1.111   4.045   1.328
 3881SOL    HW112542   1.128   4.016   1.234
 3881SOL    HW212543   1.197   4.051   1.378
 3882SOL     OW12544   0.841   1.671   5.650
 3882SOL    HW112545   0.891   1.624   5.723
 3882SOL    HW212546   0.743   1.650   5.658
 3883SOL     OW12547   4.249   0.903   3.790
 3883SOL    HW112548   4.343   0.938   3.792
 3883SOL    HW212549   4.193   0.955   3.855
 3884SOL     OW12550   0.606   5.389   3.580
 3884SOL    HW112551   0.584   5.453   3.507
 3884SOL    HW212552   0.522   5.348   3.616
 3885SOL     OW12553   6.322   0.741   2.467
 3885SOL    HW112554   6.292   0.836   2.474
 3885SOL    HW212555   6.392   0.723   2.536
 3886SOL     OW12556   6.168   6.115   4.799
 3886SOL    HW112557   6.225   6.144   4.876
 3886SOL    HW212558   6.226   6.070   4.731
 3887SOL     OW12559   0.348   0.365   6.334
 3887SOL    HW112560   0.313   0.334   6.245
 3887SOL    HW212561   0.422   0.431   6.320
 3888SOL     OW12562   0.044   7.008   5.687
 3888SOL    HW112563   0.131   0.024   5.718
 3888SOL    HW212564   0.038   6.913   5.715
 3889SOL     OW12565   6.394   3.478   6.019
 3889SOL    HW112566   6.310   3.509   6.063
 3889SOL    HW212567   6.376   3.392   5.970
 3890SOL     OW12568   5.731   5.807   2.840
 3890SOL    HW112569   5.676   5.881   2.880
 3890SOL    HW212570   5.814   5.795   2.894
 3891SOL     OW12571   5.740   4.509   4.499
 3891SOL    HW112572   5.756   4.525   4.401
 3891SOL    HW212573   5.649   4.470   4.512
 3892SOL     OW12574   0.262   2.253   1.174
 3892SOL    HW112575   0.349   2.263   1.223
 3892SOL    HW212576   0.259   2.164   1.128
 3893SOL     OW12577   3.856   5.019   0.821
 3893SOL    HW112578   3.786   4.992   0.887
 3893SOL    HW212579   3.920   5.082   0.865
 3894SOL     OW12580   2.372   1.988   1.113
 3894SOL    HW112581   2.390   1.946   1.024
 3894SOL    HW212582   2.413   1.934   1.186
 3895SOL     OW12583   1.770   0.369   5.260
 3895SOL    HW112584   1.705   0.299   5.228
 3895SOL    HW212585   1.757   0.384   5.358
 3896SOL     OW12586   0.330   1.714   6.067
 3896SOL    HW112587   0.299   1.723   5.972
 3896SOL    HW212588   0.317   1.800   6.115
 3897SOL     OW12589   3.679   6.026   2.304
 3897SOL    HW112590   3.590   6.027   2.259
 3897SOL    HW212591   3.686   5.946   2.364
 3898SOL     OW12592   3.567   3.529   4.019
 3898SOL    HW112593   3.588   3.580   4.102
 3898SOL    HW212594   3.613   3.440   4.022
 3899SOL     OW12595   5.468   0.351   3.860
 3899SOL    HW112596   5.413   0.272   3.832
 3899SOL    HW212597   5.473   0.355   3.959
 3900SOL     OW12598   5.225   3.099   3.884
 3900SOL    HW112599   5.204   3.003   3.862
 3900SOL    HW212600   5.281   3.138   3.811
 3901SOL     OW12601   3.160   6.470   5.008
 3901SOL    HW112602   3.085   6.531   5.031
 3901SOL    HW212603   3.217   6.454   5.088
 3902SOL     OW12604   6.525   3.791   1.742
 3902SOL    HW112605   6.457   3.864   1.745
 3902SOL    HW212606   6.591   3.805   1.816
 3903SOL     OW12607   4.720   4.893   0.227
 3903SOL    HW112608   4.780   4.940   0.163
 3903SOL    HW212609   4.666   4.824   0.179
 3904SOL     OW12610   1.716   6.689   5.500
 3904SOL    HW112611   1.726   6.603   5.549
 3904SOL    HW212612   1.659   6.675   5.419
 3905SOL     OW12613   6.027   6.830   5.623
 3905SOL    HW112614   6.013   6.885   5.705
 3905SOL    HW212615   6.057   6.890   5.548
 3906SOL     OW12616   3.228   5.328   5.264
 3906SOL    HW112617   3.166   5.271   5.319
 3906SOL    HW212618   3.298   5.368   5.323
 3907SOL     OW12619   6.505   6.510   5.406
 3907SOL    HW112620   6.540   6.564   5.329
 3907SOL    HW212621   6.406   6.499   5.395
 3908SOL     OW12622   1.917   0.864   7.003
 3908SOL    HW112623   1.848   0.935   7.020
 3908SOL    HW212624   1.944   0.822   0.068
 3909SOL     OW12625   0.386   5.126   6.061
 3909SOL    HW112626   0.409   5.072   5.980
 3909SOL    HW212627   0.354   5.066   6.134
 3910SOL     OW12628   3.687   4.249   1.665
 3910SOL    HW112629   3.700   4.348   1.670
 3910SOL    HW212630   3.728   4.215   1.580
 3911SOL     OW12631   4.311   1.574   0.201
 3911SOL    HW112632   4.385   1.638   0.179
 3911SOL    HW212633   4.224   1.609   0.166
 3912SOL     OW12634   3.742   1.131   6.486
 3912SOL    HW112635   3.698   1.193   6.550
 3912SOL    HW212636   3.841   1.143   6.492
 3913SOL     OW12637   2.845   5.950   6.522
 3913SOL    HW112638   2.805   5.947   6.430
 3913SOL    HW212639   2.893   5.864   6.540
 3914SOL     OW12640   4.500   1.206   0.952
 3914SOL    HW112641   4.527   1.282   0.894
 3914SOL    HW212642   4.410   1.225   0.993
 3915SOL     OW12643   4.359   6.040   1.502
 3915SOL    HW112644   4.401   6.124   1.535
 3915SOL    HW212645   4.334   6.050   1.406
 3916SOL     OW12646   1.883   6.359   2.501
 3916SOL    HW112647   1.894   6.399   2.409
 3916SOL    HW212648   1.935   6.414   2.567
 3917SOL     OW12649   1.351   5.248   0.158
 3917SOL    HW112650   1.369   5.216   0.065
 3917SOL    HW212651   1.430   5.300   0.191
 3918SOL     OW12652   4.425   6.215   1.949
 3918SOL    HW112653   4.336   6.202   1.905
 3918SOL    HW212654   4.460   6.306   1.927
 3919SOL     OW12655   3.413   6.652   6.469
 3919SOL    HW112656   3.327   6.645   6.419
 3919SOL    HW212657   3.396   6.644   6.567
 3920SOL     OW12658   2.644   2.020   6.408
 3920SOL    HW112659   2.688   2.105   6.438
 3920SOL    HW212660   2.632   2.022   6.309
 3921SOL     OW12661   0.634   2.939   0.160
 3921SOL    HW112662   0.702   2.992   0.210
 3921SOL    HW212663   0.544   2.951   0.204
 3922SOL     OW12664   5.048   5.135   0.046
 3922SOL    HW112665   5.083   5.117   6.976
 3922SOL    HW212666   5.018   5.230   0.052
 3923SOL     OW12667   6.071   2.028   6.951
 3923SOL    HW112668   6.164   2.063   6.940
 3923SOL    HW212669   6.009   2.082   6.895
 3924SOL     OW12670   0.631   5.227   3.174
 3924SOL    HW112671   0.601   5.221   3.269
 3924SOL    HW212672   0.641   5.323   3.148
 3925SOL     OW12673   4.376   4.378   0.703
 3925SOL    HW112674   4.365   4.279   0.705
 3925SOL    HW212675   4.350   4.417   0.791
 3926SOL     OW12676   0.190   6.604   3.360
 3926SOL    HW112677   0.188   6.524   3.419
 3926SOL    HW212678   0.170   6.577   3.266
 3927SOL     OW12679   0.158   3.629   4.515
 3927SOL    HW112680   0.149   3.565   4.591
 3927SOL    HW212681   0.101   3.709   4.533
 3928SOL     OW12682   3.689   5.498   4.891
 3928SOL    HW112683   3.627   5.520   4.815
 3928SOL    HW212684   3.777   5.545   4.876
 3929SOL     OW12685   0.149   1.940   6.717
 3929SOL    HW112686   0.186   1.874   6.652
 3929SOL    HW212687   0.119   1.892   6.800
 3930SOL     OW12688   1.581   1.924   3.393
 3930SOL    HW112689   1.533   1.865   3.328
 3930SOL    HW212690   1.639   1.988   3.343
 3931SOL     OW12691   1.830   1.871   2.424
 3931SOL    HW112692   1.812   1.908   2.515
 3931SOL    HW212693   1.909   1.810   2.429
 3932SOL     OW12694   1.669   4.301   3.961
 3932SOL    HW112695   1.629   4.310   4.053
 3932SOL    HW212696   1.708   4.388   3.933
 3933SOL     OW12697   1.920   6.688   6.935
 3933SOL    HW112698   1.933   6.783   6.906
 3933SOL    HW212699   2.003   6.656   6.981
 3934SOL     OW12700   0.204   1.274   1.751
 3934SOL    HW112701   0.258   1.201   1.710
 3934SOL    HW212702   0.218   1.359   1.700
 3935SOL     OW12703   1.666   0.796   5.326
 3935SOL    HW112704   1.750   0.806   5.273
 3935SOL    HW212705   1.646   0.881   5.375
 3936SOL     OW12706   6.939   5.959   5.071
 3936SOL    HW112707   6.875   5.941   4.996
 3936SOL    HW212708   0.009   5.970   5.035
 3937SOL     OW12709   0.414   6.571   2.636
 3937SOL    HW112710   0.504   6.540   2.668
 3937SOL    HW212711   0.398   6.537   2.544
 3938SOL     OW12712   6.075   2.990   3.793
 3938SOL    HW112713   6.142   2.932   3.746
 3938SOL    HW212714   6.009   2.932   3.841
 3939SOL     OW12715   3.103   1.814   3.447
 3939SOL    HW112716   3.009   1.829   3.418
 3939SOL    HW212717   3.165   1.830   3.370
 3940SOL     OW12718   3.798   4.872   2.155
 3940SOL    HW112719   3.730   4.858   2.083
 3940SOL    HW212720   3.753   4.904   2.238
 3941SOL     OW12721   6.318   0.814   5.092
 3941SOL    HW112722   6.338   0.782   4.999
 3941SOL    HW212723   6.234   0.771   5.125
 3942SOL     OW12724   0.816   6.397   5.596
 3942SOL    HW112725   0.875   6.412   5.517
 3942SOL    HW212726   0.864   6.342   5.664
 3943SOL     OW12727   0.868   3.455   2.636
 3943SOL    HW112728   0.957   3.466   2.681
 3943SOL    HW212729   0.834   3.545   2.607
 3944SOL     OW12730   5.644   3.950   5.523
 3944SOL    HW112731   5.550   3.983   5.514
 3944SOL    HW212732   5.659   3.913   5.615
 3945SOL     OW12733   0.964   2.347   2.675
 3945SOL    HW112734   0.992   2.443   2.674
 3945SOL    HW212735   0.873   2.338   2.635
 3946SOL     OW12736   6.196   4.144   6.132
 3946SOL    HW112737   6.139   4.094   6.067
 3946SOL    HW212738   6.139   4.205   6.187
 3947SOL     OW12739   6.059   5.285   1.387
 3947SOL    HW112740   6.074   5.337   1.471
 3947SOL    HW212741   6.052   5.187   1.409
 3948SOL     OW12742   0.482   4.750   0.571
 3948SOL    HW112743   0.478   4.847   0.594
 3948SOL    HW212744   0.570   4.729   0.529
 3949SOL     OW12745   6.314   6.698   3.234
 3949SOL    HW112746   6.285   6.676   3.141
 3949SOL    HW212747   6.251   6.655   3.299
 3950SOL     OW12748   3.288   4.313   1.220
 3950SOL    HW112749   3.377   4.281   1.253
 3950SOL    HW212750   3.222   4.314   1.296
 3951SOL     OW12751   0.364   0.722   6.987
 3951SOL    HW112752   0.301   0.739   6.911
 3951SOL    HW212753   0.373   0.806   0.019
 3952SOL     OW12754   5.957   3.399   4.773
 3952SOL    HW112755   5.995   3.383   4.864
 3952SOL    HW212756   5.860   3.378   4.773
 3953SOL     OW12757   3.352   4.456   0.380
 3953SOL    HW112758   3.396   4.456   0.290
 3953SOL    HW212759   3.395   4.386   0.438
 3954SOL     OW12760   6.056   5.195   5.198
 3954SOL    HW112761   6.031   5.287   5.227
 3954SOL    HW212762   6.075   5.195   5.100
 3955SOL     OW12763   4.690   6.663   0.096
 3955SOL    HW112764   4.739   6.613   0.167
 3955SOL    HW212765   4.686   6.760   0.119
 3956SOL     OW12766   1.483   1.938   4.041
 3956SOL    HW112767   1.418   1.918   3.968
 3956SOL    HW212768   1.491   1.858   4.101
 3957SOL     OW12769   4.392   6.903   3.279
 3957SOL    HW112770   4.342   6.956   3.348
 3957SOL    HW212771   4.329   6.875   3.206
 3958SOL     OW12772   5.781   0.272   6.152
 3958SOL    HW112773   5.712   0.232   6.212
 3958SOL    HW212774   5.747   0.359   6.116
 3959SOL     OW12775   3.607   6.775   0.741
 3959SOL    HW112776   3.556   6.733   0.666
 3959SOL    HW212777   3.607   6.874   0.730
 3960SOL     OW12778   5.629   1.674   6.191
 3960SOL    HW112779   5.665   1.729   6.266
 3960SOL    HW212780   5.639   1.577   6.212
 3961SOL     OW12781   5.388   3.196   1.965
 3961SOL    HW112782   5.454   3.231   2.032
 3961SOL    HW212783   5.430   3.195   1.874
 3962SOL     OW12784   1.839   5.772   6.605
 3962SOL    HW112785   1.869   5.832   6.530
 3962SOL    HW212786   1.762   5.716   6.575
 3963SOL     OW12787   4.782   4.767   3.731
 3963SOL    HW112788   4.832   4.760   3.645
 3963SOL    HW212789   4.781   4.679   3.777
 3964SOL     OW12790   4.322   4.878   5.069
 3964SOL    HW112791   4.306   4.960   5.124
 3964SOL    HW212792   4.299   4.897   4.973
 3965SOL     OW12793   4.071   3.826   6.663
 3965SOL    HW112794   4.111   3.914   6.638
 3965SOL    HW212795   4.121   3.752   6.619
 3966SOL     OW12796   6.907   4.775   0.023
 3966SOL    HW112797   6.941   4.729   6.963
 3966SOL    HW212798   6.956   4.862   0.034
 3967SOL     OW12799   1.644   4.944   2.920
 3967SOL    HW112800   1.656   4.861   2.864
 3967SOL    HW212801   1.699   4.936   3.003
 3968SOL     OW12802   6.545   0.455   1.001
 3968SOL    HW112803   6.562   0.411   0.913
 3968SOL    HW212804   6.572   0.393   1.075
 3969SOL     OW12805   0.823   3.998   3.144
 3969SOL    HW112806   0.746   4.056   3.170
 3969SOL    HW212807   0.794   3.903   3.140
 3970SOL     OW12808   4.808   4.932   3.951
 3970SOL    HW112809   4.781   4.870   4.025
 3970SOL    HW212810   4.801   4.885   3.863
 3971SOL     OW12811   2.690   4.963   2.558
 3971SOL    HW112812   2.717   4.877   2.515
 3971SOL    HW212813   2.705   4.958   2.656
 3972SOL     OW12814   1.472   5.079   1.922
 3972SOL    HW112815   1.513   5.046   1.837
 3972SOL    HW212816   1.376   5.103   1.906
 3973SOL     OW12817   2.364   4.004   5.716
 3973SOL    HW112818   2.329   4.069   5.785
 3973SOL    HW212819   2.350   4.042   5.625
 3974SOL     OW12820   1.778   0.902   5.743
 3974SOL    HW112821   1.877   0.916   5.744
 3974SOL    HW212822   1.750   0.852   5.825
 3975SOL     OW12823   5.588   0.265   6.376
 3975SOL    HW112824   5.576   0.288   6.473
 3975SOL    HW212825   5.555   0.341   6.320
 3976SOL     OW12826   1.870   4.710   1.303
 3976SOL    HW112827   1.799   4.705   1.233
 3976SOL    HW212828   1.960   4.710   1.260
 3977SOL     OW12829   3.147   4.330   5.519
 3977SOL    HW112830   3.056   4.363   5.545
 3977SOL    HW212831   3.156   4.330   5.420
 3978SOL     OW12832   5.736   0.800   4.423
 3978SOL    HW112833   5.689   0.808   4.335
 3978SOL    HW212834   5.674   0.758   4.490
 3979SOL     OW12835   2.253   6.198   1.522
 3979SOL    HW112836   2.293   6.149   1.599
 3979SOL    HW212837   2.243   6.136   1.444
 3980SOL     OW12838   6.941   4.143   6.409
 3980SOL    HW112839   6.911   4.238   6.408
 3980SOL    HW212840   0.019   4.140   6.414
 3981SOL     OW12841   1.718   1.651   6.547
 3981SOL    HW112842   1.726   1.726   6.482
 3981SOL    HW212843   1.706   1.565   6.497
 3982SOL     OW12844   2.204   0.757   4.220
 3982SOL    HW112845   2.170   0.845   4.189
 3982SOL    HW212846   2.285   0.770   4.278
 3983SOL     OW12847   4.067   5.939   4.349
 3983SOL    HW112848   4.109   6.009   4.291
 3983SOL    HW212849   3.968   5.957   4.357
 3984SOL     OW12850   1.849   0.523   2.869
 3984SOL    HW112851   1.914   0.562   2.934
 3984SOL    HW212852   1.899   0.483   2.792
 3985SOL     OW12853   2.660   4.579   6.923
 3985SOL    HW112854   2.687   4.485   6.905
 3985SOL    HW212855   2.679   4.602   7.018
 3986SOL     OW12856   6.929   2.313   2.945
 3986SOL    HW112857   6.974   2.394   2.907
 3986SOL    HW212858   6.991   2.265   3.006
 3987SOL     OW12859   2.429   6.179   4.588
 3987SOL    HW112860   2.357   6.193   4.520
 3987SOL    HW212861   2.409   6.234   4.669
 3988SOL     OW12862   3.618   2.820   6.016
 3988SOL    HW112863   3.537   2.772   6.048
 3988SOL    HW212864   3.690   2.754   5.994
 3989SOL     OW12865   6.245   1.752   7.013
 3989SOL    HW112866   6.277   1.836   0.035
 3989SOL    HW212867   6.314   1.722   6.946
 3990SOL     OW12868   5.674   1.549   3.960
 3990SOL    HW112869   5.576   1.537   3.943
 3990SOL    HW212870   5.724   1.470   3.926
 3991SOL     OW12871   5.830   1.515   1.809
 3991SOL    HW112872   5.819   1.448   1.883
 3991SOL    HW212873   5.890   1.588   1.839
 3992SOL     OW12874   4.152   2.215   6.490
 3992SOL    HW112875   4.148   2.223   6.590
 3992SOL    HW212876   4.156   2.307   6.450
 3993SOL     OW12877   1.012   2.261   3.462
 3993SOL    HW112878   1.094   2.249   3.407
 3993SOL    HW212879   0.937   2.292   3.404
 3994SOL     OW12880   0.902   2.986   5.837
 3994SOL    HW112881   0.901   2.975   5.937
 3994SOL    HW212882   0.884   2.898   5.794
 3995SOL     OW12883   2.089   3.604   4.305
 3995SOL    HW112884   2.148   3.681   4.329
 3995SOL    HW212885   2.015   3.596   4.372
 3996SOL     OW12886   1.255   0.661   4.482
 3996SOL    HW112887   1.353   0.677   4.468
 3996SOL    HW212888   1.202   0.714   4.416
 3997SOL     OW12889   4.881   3.177   2.543
 3997SOL    HW112890   4.840   3.212   2.628
 3997SOL    HW212891   4.902   3.253   2.482
 3998SOL     OW12892   4.685   1.363   2.758
 3998SOL    HW112893   4.752   1.425   2.799
 3998SOL    HW212894   4.598   1.411   2.749
 3999SOL     OW12895   5.165   3.502   3.358
 3999SOL    HW112896   5.235   3.460   3.301
 3999SOL    HW212897   5.080   3.513   3.306
 4000SOL     OW12898   3.327   5.637   2.870
 4000SOL    HW112899   3.346   5.734   2.853
 4000SOL    HW212900   3.260   5.604   2.803
 4001SOL     OW12901   1.756   2.236   4.209
 4001SOL    HW112902   1.733   2.232   4.112
 4001SOL    HW212903   1.720   2.321   4.248
 4002SOL     OW12904   2.840   2.980   0.296
 4002SOL    HW112905   2.911   2.913   0.273
 4002SOL    HW212906   2.842   2.998   0.394
 4003SOL     OW12907   2.790   0.114   5.234
 4003SOL    HW112908   2.852   0.176   5.186
 4003SOL    HW212909   2.698   0.152   5.234
 4004SOL     OW12910   6.514   2.617   4.067
 4004SOL    HW112911   6.458   2.574   3.996
 4004SOL    HW212912   6.456   2.676   4.124
 4005SOL     OW12913   4.994   5.209   1.052
 4005SOL    HW112914   5.090   5.191   1.030
 4005SOL    HW212915   4.968   5.298   1.014
 4006SOL     OW12916   4.242   4.640   1.803
 4006SOL    HW112917   4.295   4.699   1.743
 4006SOL    HW212918   4.297   4.615   1.883
 4007SOL     OW12919   0.769   3.298   1.847
 4007SOL    HW112920   0.703   3.236   1.889
 4007SOL    HW212921   0.796   3.263   1.758
 4008SOL     OW12922   3.615   1.721   4.614
 4008SOL    HW112923   3.649   1.769   4.533
 4008SOL    HW212924   3.627   1.778   4.695
 4009SOL     OW12925   4.775   3.004   0.689
 4009SOL    HW112926   4.858   2.948   0.687
 4009SOL    HW212927   4.798   3.097   0.717
 4010SOL     OW12928   2.035   3.955   1.028
 4010SOL    HW112929   2.109   3.983   0.967
 4010SOL    HW212930   2.006   4.033   1.083
 4011SOL     OW12931   1.149   0.413   1.643
 4011SOL    HW112932   1.119   0.376   1.731
 4011SOL    HW212933   1.212   0.489   1.658
 4012SOL     OW12934   4.605   4.492   1.408
 4012SOL    HW112935   4.585   4.424   1.478
 4012SOL    HW212936   4.700   4.485   1.380
 4013SOL     OW12937   2.680   0.179   0.907
 4013SOL    HW112938   2.756   0.131   0.863
 4013SOL    HW212939   2.694   0.181   1.006
 4014SOL     OW12940   4.303   5.559   3.789
 4014SOL    HW112941   4.264   5.490   3.728
 4014SOL    HW212942   4.232   5.591   3.852
 4015SOL     OW12943   4.276   5.454   5.953
 4015SOL    HW112944   4.346   5.474   6.022
 4015SOL    HW212945   4.189   5.436   5.998
 4016SOL     OW12946   1.018   5.783   6.677
 4016SOL    HW112947   0.974   5.785   6.587
 4016SOL    HW212948   1.088   5.712   6.677
 4017SOL     OW12949   6.847   6.863   0.168
 4017SOL    HW112950   6.786   6.852   0.090
 4017SOL    HW212951   6.871   6.772   0.205
 4018SOL     OW12952   5.933   6.387   1.791
 4018SOL    HW112953   5.875   6.305   1.797
 4018SOL    HW212954   5.885   6.458   1.740
 4019SOL     OW12955   5.847   3.706   2.354
 4019SOL    HW112956   5.886   3.701   2.445
 4019SOL    HW212957   5.819   3.800   2.334
 4020SOL     OW12958   6.084   2.200   5.926
 4020SOL    HW112959   6.098   2.109   5.886
 4020SOL    HW212960   6.049   2.262   5.855
 4021SOL     OW12961   3.068   3.768   5.927
 4021SOL    HW112962   3.125   3.840   5.885
 4021SOL    HW212963   3.036   3.706   5.856
 4022SOL     OW12964   4.076   0.250   0.114
 4022SOL    HW112965   4.103   0.155   0.130
 4022SOL    HW212966   4.157   0.308   0.110
 4023SOL     OW12967   6.556   0.769   3.998
 4023SOL    HW112968   6.581   0.765   3.902
 4023SOL    HW212969   6.467   0.725   4.011
 4024SOL     OW12970   2.617   5.049   4.617
 4024SOL    HW112971   2.708   5.025   4.653
 4024SOL    HW212972   2.582   4.973   4.563
 4025SOL     OW12973   0.622   6.119   5.251
 4025SOL    HW112974   0.703   6.122   5.193
 4025SOL    HW212975   0.625   6.195   5.317
 4026SOL     OW12976   6.799   6.724   3.802
 4026SOL    HW112977   6.706   6.702   3.833
 4026SOL    HW212978   6.811   6.823   3.800
 4027SOL     OW12979   3.205   3.305   1.371
 4027SOL    HW112980   3.184   3.210   1.350
 4027SOL    HW212981   3.304   3.316   1.378
 4028SOL     OW12982   2.283   2.626   3.191
 4028SOL    HW112983   2.274   2.547   3.130
 4028SOL    HW212984   2.279   2.710   3.138
 4029SOL     OW12985   2.892   4.367   6.478
 4029SOL    HW112986   2.960   4.298   6.455
 4029SOL    HW212987   2.834   4.335   6.553
 4030SOL     OW12988   1.063   1.837   0.301
 4030SOL    HW112989   1.063   1.830   0.201
 4030SOL    HW212990   1.076   1.746   0.341
 4031SOL     OW12991   4.817   6.431   3.324
 4031SOL    HW112992   4.786   6.447   3.231
 4031SOL    HW212993   4.892   6.494   3.346
 4032SOL     OW12994   6.786   0.243   2.412
 4032SOL    HW112995   6.760   0.308   2.341
 4032SOL    HW212996   6.793   0.290   2.500
 4033SOL     OW12997   3.022   3.437   2.282
 4033SOL    HW112998   2.947   3.421   2.217
 4033SOL    HW212999   3.101   3.474   2.234
 4034SOL     OW13000   0.038   1.997   5.184
 4034SOL    HW113001   0.013   1.902   5.167
 4034SOL    HW213002   0.136   2.009   5.171
 4035SOL     OW13003   0.010   2.783   0.629
 4035SOL    HW113004   6.991   2.785   0.538
 4035SOL    HW213005   0.107   2.808   0.622
 4036SOL     OW13006   4.974   6.789   2.580
 4036SOL    HW113007   5.048   6.831   2.632
 4036SOL    HW213008   4.917   6.860   2.539
 4037SOL     OW13009   2.447   1.566   0.694
 4037SOL    HW113010   2.436   1.622   0.776
 4037SOL    HW213011   2.358   1.553   0.650
 4038SOL     OW13012   4.634   4.434   1.814
 4038SOL    HW113013   4.635   4.405   1.719
 4038SOL    HW213014   4.585   4.367   1.870
 4039SOL     OW13015   4.860   4.461   1.357
 4039SOL    HW113016   4.913   4.429   1.435
 4039SOL    HW213017   4.896   4.419   1.273
 4040SOL     OW13018   3.094   0.096   5.794
 4040SOL    HW113019   3.149   0.170   5.833
 4040SOL    HW213020   3.087   0.110   5.695
 4041SOL     OW13021   2.312   5.439   1.314
 4041SOL    HW113022   2.297   5.531   1.352
 4041SOL    HW213023   2.300   5.442   1.215
 4042SOL     OW13024   6.112   5.391   2.417
 4042SOL    HW113025   6.198   5.441   2.410
 4042SOL    HW213026   6.130   5.293   2.432
 4043SOL     OW13027   4.924   2.412   4.254
 4043SOL    HW113028   4.875   2.408   4.341
 4043SOL    HW213029   5.022   2.402   4.271
 4044SOL     OW13030   4.748   0.361   3.764
 4044SOL    HW113031   4.655   0.349   3.799
 4044SOL    HW213032   4.745   0.422   3.684
 4045SOL     OW13033   2.678   4.758   6.440
 4045SOL    HW113034   2.691   4.747   6.342
 4045SOL    HW213035   2.755   4.719   6.489
 4046SOL     OW13036   0.509   1.391   3.974
 4046SOL    HW113037   0.425   1.443   3.954
 4046SOL    HW213038   0.518   1.380   4.073
 4047SOL     OW13039   2.283   2.613   0.966
 4047SOL    HW113040   2.337   2.539   0.924
 4047SOL    HW213041   2.326   2.640   1.052
 4048SOL     OW13042   5.345   1.917   2.465
 4048SOL    HW113043   5.293   1.991   2.509
 4048SOL    HW213044   5.312   1.905   2.371
 4049SOL     OW13045   6.238   6.042   0.014
 4049SOL    HW113046   6.290   6.125   7.019
 4049SOL    HW213047   6.300   5.967   0.036
 4050SOL     OW13048   1.760   6.534   0.844
 4050SOL    HW113049   1.818   6.500   0.770
 4050SOL    HW213050   1.664   6.518   0.822
 4051SOL     OW13051   3.875   2.825   0.353
 4051SOL    HW113052   3.789   2.876   0.358
 4051SOL    HW213053   3.948   2.886   0.323
 4052SOL     OW13054   0.052   0.436   2.383
 4052SOL    HW113055   0.113   0.404   2.311
 4052SOL    HW213056   0.105   0.462   2.463
 4053SOL     OW13057   3.139   5.325   4.068
 4053SOL    HW113058   3.118   5.362   4.159
 4053SOL    HW213059   3.190   5.240   4.078
 4054SOL     OW13060   0.629   2.885   1.799
 4054SOL    HW113061   0.648   2.929   1.887
 4054SOL    HW213062   0.573   2.803   1.814
 4055SOL     OW13063   4.025   3.683   6.200
 4055SOL    HW113064   4.011   3.782   6.197
 4055SOL    HW213065   4.116   3.662   6.162
 4056SOL     OW13066   3.723   3.263   0.404
 4056SOL    HW113067   3.730   3.275   0.305
 4056SOL    HW213068   3.689   3.347   0.446
 4057SOL     OW13069   5.690   1.830   1.344
 4057SOL    HW113070   5.655   1.852   1.436
 4057SOL    HW213071   5.644   1.888   1.277
 4058SOL     OW13072   1.604   0.654   4.220
 4058SOL    HW113073   1.653   0.567   4.223
 4058SOL    HW213074   1.633   0.705   4.139
 4059SOL     OW13075   1.365   2.807   3.699
 4059SOL    HW113076   1.271   2.787   3.725
 4059SOL    HW213077   1.369   2.829   3.601
 4060SOL     OW13078   4.859   5.869   4.398
 4060SOL    HW113079   4.955   5.897   4.411
 4060SOL    HW213080   4.837   5.796   4.462
 4061SOL     OW13081   3.326   5.001   1.741
 4061SOL    HW113082   3.227   5.014   1.745
 4061SOL    HW213083   3.365   5.005   1.833
 4062SOL     OW13084   3.195   1.656   2.984
 4062SOL    HW113085   3.218   1.739   3.035
 4062SOL    HW213086   3.118   1.675   2.923
 4063SOL     OW13087   5.820   6.459   5.278
 4063SOL    HW113088   5.814   6.369   5.234
 4063SOL    HW213089   5.883   6.517   5.226
 4064SOL     OW13090   1.754   6.369   3.553
 4064SOL    HW113091   1.699   6.453   3.554
 4064SOL    HW213092   1.695   6.290   3.539
 4065SOL     OW13093   0.483   6.468   0.698
 4065SOL    HW113094   0.528   6.500   0.614
 4065SOL    HW213095   0.515   6.522   0.776
 4066SOL     OW13096   5.266   5.454   2.786
 4066SOL    HW113097   5.215   5.539   2.772
 4066SOL    HW213098   5.355   5.475   2.826
 4067SOL     OW13099   5.943   2.895   2.265
 4067SOL    HW113100   6.019   2.831   2.263
 4067SOL    HW213101   5.877   2.871   2.193
 4068SOL     OW13102   3.317   0.984   4.007
 4068SOL    HW113103   3.401   0.973   3.954
 4068SOL    HW213104   3.334   1.041   4.087
 4069SOL     OW13105   3.907   4.465   5.913
 4069SOL    HW113106   3.957   4.399   5.969
 4069SOL    HW213107   3.825   4.421   5.875
 4070SOL     OW13108   0.684   3.581   2.238
 4070SOL    HW113109   0.587   3.600   2.252
 4070SOL    HW213110   0.700   3.553   2.143
 4071SOL     OW13111   1.186   0.771   5.205
 4071SOL    HW113112   1.274   0.816   5.190
 4071SOL    HW213113   1.195   0.704   5.279
 4072SOL     OW13114   1.155   6.058   4.256
 4072SOL    HW113115   1.086   6.044   4.327
 4072SOL    HW213116   1.115   6.108   4.180
 4073SOL     OW13117   2.101   5.392   5.969
 4073SOL    HW113118   2.153   5.358   5.890
 4073SOL    HW213119   2.077   5.314   6.028
 4074SOL     OW13120   0.971   2.982   2.235
 4074SOL    HW113121   0.899   2.978   2.304
 4074SOL    HW213122   0.942   2.930   2.154
 4075SOL     OW13123   3.931   2.148   2.533
 4075SOL    HW113124   4.029   2.159   2.519
 4075SOL    HW213125   3.887   2.123   2.446
 4076SOL     OW13126   2.209   3.467   5.619
 4076SOL    HW113127   2.113   3.442   5.633
 4076SOL    HW213128   2.214   3.558   5.578
 4077SOL     OW13129   3.402   6.703   0.254
 4077SOL    HW113130   3.372   6.681   0.162
 4077SOL    HW213131   3.463   6.782   0.252
 4078SOL     OW13132   6.634   5.078   1.479
 4078SOL    HW113133   6.608   5.142   1.552
 4078SOL    HW213134   6.623   4.984   1.511
 4079SOL     OW13135   0.429   2.225   3.370
 4079SOL    HW113136   0.522   2.243   3.337
 4079SOL    HW213137   0.431   2.214   3.470
 4080SOL     OW13138   2.629   3.231   0.871
 4080SOL    HW113139   2.605   3.234   0.968
 4080SOL    HW213140   2.546   3.237   0.816
 4081SOL     OW13141   1.444   1.835   3.631
 4081SOL    HW113142   1.445   1.891   3.547
 4081SOL    HW213143   1.391   1.752   3.615
 4082SOL     OW13144   1.252   2.082   1.025
 4082SOL    HW113145   1.309   2.164   1.013
 4082SOL    HW213146   1.302   2.015   1.081
 4083SOL     OW13147   5.909   4.340   2.959
 4083SOL    HW113148   5.909   4.241   2.946
 4083SOL    HW213149   5.987   4.380   2.911
 4084SOL     OW13150   4.721   2.281   3.030
 4084SOL    HW113151   4.767   2.212   3.086
 4084SOL    HW213152   4.779   2.304   2.952
 4085SOL     OW13153   2.589   5.602   0.771
 4085SOL    HW113154   2.523   5.651   0.828
 4085SOL    HW213155   2.678   5.647   0.777
 4086SOL     OW13156   6.944   4.934   1.077
 4086SOL    HW113157   0.001   4.943   1.016
 4086SOL    HW213158   6.953   5.000   1.152
 4087SOL     OW13159   2.201   1.470   2.862
 4087SOL    HW113160   2.234   1.483   2.955
 4087SOL    HW213161   2.122   1.530   2.846
 4088SOL     OW13162   6.566   0.974   6.406
 4088SOL    HW113163   6.588   0.930   6.319
 4088SOL    HW213164   6.486   1.033   6.394
 4089SOL     OW13165   6.488   4.899   4.466
 4089SOL    HW113166   6.411   4.962   4.457
 4089SOL    HW213167   6.536   4.918   4.552
 4090SOL     OW13168   2.135   5.710   5.342
 4090SOL    HW113169   2.077   5.751   5.272
 4090SOL    HW213170   2.085   5.706   5.428
 4091SOL     OW13171   0.416   6.111   0.172
 4091SOL    HW113172   0.334   6.066   0.139
 4091SOL    HW213173   0.413   6.208   0.148
 4092SOL     OW13174   5.769   2.541   3.490
 4092SOL    HW113175   5.836   2.504   3.427
 4092SOL    HW213176   5.696   2.473   3.505
 4093SOL     OW13177   5.183   6.712   1.223
 4093SOL    HW113178   5.208   6.640   1.288
 4093SOL    HW213179   5.221   6.690   1.133
 4094SOL     OW13180   1.101   4.719   6.416
 4094SOL    HW113181   1.083   4.696   6.512
 4094SOL    HW213182   1.113   4.817   6.406
 4095SOL     OW13183   0.574   3.703   0.176
 4095SOL    HW113184   0.621   3.633   0.230
 4095SOL    HW213185   0.511   3.658   0.113
 4096SOL     OW13186   3.782   0.664   6.372
 4096SOL    HW113187   3.820   0.714   6.450
 4096SOL    HW213188   3.856   0.643   6.307
 4097SOL     OW13189   5.121   4.605   4.802
 4097SOL    HW113190   5.055   4.532   4.785
 4097SOL    HW213191   5.175   4.583   4.883
 4098SOL     OW13192   0.972   2.697   1.316
 4098SOL    HW113193   1.013   2.702   1.407
 4098SOL    HW213194   0.891   2.638   1.319
 4099SOL     OW13195   3.673   5.372   1.034
 4099SOL    HW113196   3.642   5.292   1.084
 4099SOL    HW213197   3.664   5.356   0.936
 4100SOL     OW13198   0.925   6.983   4.393
 4100SOL    HW113199   0.965   7.014   4.306
 4100SOL    HW213200   0.924   0.037   4.458
 4101SOL     OW13201   0.975   0.950   0.157
 4101SOL    HW113202   1.019   0.928   0.244
 4101SOL    HW213203   1.027   0.911   0.082
 4102SOL     OW13204   1.796   0.337   0.669
 4102SOL    HW113205   1.696   0.340   0.675
 4102SOL    HW213206   1.825   0.244   0.645
 4103SOL     OW13207   1.030   0.027   2.109
 4103SOL    HW113208   0.959   0.078   2.060
 4103SOL    HW213209   1.021   6.952   2.088
 4104SOL     OW13210   0.267   4.965   3.418
 4104SOL    HW113211   0.281   4.938   3.323
 4104SOL    HW213212   0.348   4.942   3.472
 4105SOL     OW13213   6.373   0.443   2.789
 4105SOL    HW113214   6.462   0.472   2.825
 4105SOL    HW213215   6.326   0.387   2.856
 4106SOL     OW13216   0.188   3.153   3.610
 4106SOL    HW113217   0.156   3.240   3.648
 4106SOL    HW213218   0.148   3.077   3.662
 4107SOL     OW13219   1.178   5.658   0.441
 4107SOL    HW113220   1.128   5.593   0.498
 4107SOL    HW213221   1.163   5.637   0.344
 4108SOL     OW13222   6.250   4.797   4.623
 4108SOL    HW113223   6.202   4.714   4.596
 4108SOL    HW213224   6.335   4.805   4.569
 4109SOL     OW13225   6.228   6.815   4.765
 4109SOL    HW113226   6.185   6.789   4.852
 4109SOL    HW213227   6.177   6.776   4.689
 4110SOL     OW13228   4.242   3.974   6.142
 4110SOL    HW113229   4.294   4.033   6.079
 4110SOL    HW213230   4.224   4.024   6.226
 4111SOL     OW13231   5.610   4.979   6.301
 4111SOL    HW113232   5.653   4.895   6.267
 4111SOL    HW213233   5.510   4.968   6.300
 4112SOL     OW13234   4.795   6.177   4.292
 4112SOL    HW113235   4.833   6.187   4.384
 4112SOL    HW213236   4.721   6.110   4.294
 4113SOL     OW13237   5.405   5.438   4.560
 4113SOL    HW113238   5.462   5.465   4.637
 4113SOL    HW213239   5.438   5.483   4.477
 4114SOL     OW13240   4.694   1.963   3.772
 4114SOL    HW113241   4.643   2.017   3.704
 4114SOL    HW213242   4.689   1.866   3.748
 4115SOL     OW13243   3.102   4.931   2.950
 4115SOL    HW113244   3.191   4.969   2.972
 4115SOL    HW213245   3.048   4.921   3.033
 4116SOL     OW13246   4.206   1.610   3.057
 4116SOL    HW113247   4.276   1.559   3.107
 4116SOL    HW213248   4.217   1.595   2.959
 4117SOL     OW13249   1.155   3.530   2.634
 4117SOL    HW113250   1.255   3.533   2.633
 4117SOL    HW213251   1.120   3.532   2.540
 4118SOL     OW13252   5.335   6.805   0.304
 4118SOL    HW113253   5.255   6.757   0.266
 4118SOL    HW213254   5.388   6.845   0.229
 4119SOL     OW13255   2.952   1.668   3.867
 4119SOL    HW113256   2.997   1.690   3.953
 4119SOL    HW213257   2.993   1.585   3.828
 4120SOL     OW13258   3.046   1.420   6.060
 4120SOL    HW113259   3.012   1.348   5.999
 4120SOL    HW213260   3.063   1.381   6.151
 4121SOL     OW13261   6.617   0.020   3.948
 4121SOL    HW113262   6.571   0.109   3.947
 4121SOL    HW213263   6.550   6.970   3.966
 4122SOL     OW13264   1.609   6.385   4.561
 4122SOL    HW113265   1.649   6.295   4.544
 4122SOL    HW213266   1.676   6.456   4.542
 4123SOL     OW13267   4.152   4.786   5.340
 4123SOL    HW113268   4.105   4.757   5.424
 4123SOL    HW213269   4.093   4.850   5.290
 4124SOL     OW13270   6.639   6.613   0.667
 4124SOL    HW113271   6.685   6.532   0.705
 4124SOL    HW213272   6.637   6.685   0.735
 4125SOL     OW13273   4.305   2.384   3.037
 4125SOL    HW113274   4.399   2.416   3.024
 4125SOL    HW213275   4.241   2.458   3.016
 4126SOL     OW13276   1.684   3.401   3.130
 4126SOL    HW113277   1.732   3.315   3.148
 4126SOL    HW213278   1.587   3.390   3.154
 4127SOL     OW13279   5.815   3.647   4.802
 4127SOL    HW113280   5.889   3.714   4.797
 4127SOL    HW213281   5.837   3.569   4.743
 4128SOL     OW13282   0.636   3.533   1.215
 4128SOL    HW113283   0.622   3.597   1.291
 4128SOL    HW213284   0.722   3.484   1.228
 4129SOL     OW13285   3.179   0.878   0.260
 4129SOL    HW113286   3.273   0.911   0.250
 4129SOL    HW213287   3.132   0.886   0.172
 4130SOL     OW13288   6.656   2.756   0.471
 4130SOL    HW113289   6.591   2.831   0.487
 4130SOL    HW213290   6.639   2.715   0.382
 4131SOL     OW13291   0.296   1.731   3.118
 4131SOL    HW113292   0.396   1.731   3.128
 4131SOL    HW213293   0.259   1.649   3.163
 4132SOL     OW13294   4.896   3.991   3.482
 4132SOL    HW113295   4.873   3.895   3.499
 4132SOL    HW213296   4.845   4.024   3.403
 4133SOL     OW13297   3.200   6.070   1.741
 4133SOL    HW113298   3.272   6.138   1.725
 4133SOL    HW213299   3.137   6.105   1.811
 4134SOL     OW13300   1.680   3.791   0.994
 4134SOL    HW113301   1.770   3.749   0.988
 4134SOL    HW213302   1.631   3.776   0.908
 4135SOL     OW13303   0.185   2.500   2.105
 4135SOL    HW113304   0.190   2.550   2.019
 4135SOL    HW213305   0.094   2.460   2.115
 4136SOL     OW13306   1.476   3.646   3.127
 4136SOL    HW113307   1.409   3.706   3.171
 4136SOL    HW213308   1.471   3.554   3.168
 4137SOL     OW13309   1.727   3.159   1.114
 4137SOL    HW113310   1.675   3.165   1.199
 4137SOL    HW213311   1.812   3.210   1.124
 4138SOL     OW13312   3.944   5.609   2.691
 4138SOL    HW113313   3.970   5.655   2.606
 4138SOL    HW213314   3.978   5.515   2.689
 4139SOL     OW13315   1.320   1.116   5.191
 4139SOL    HW113316   1.296   1.073   5.104
 4139SOL    HW213317   1.277   1.206   5.197
 4140SOL     OW13318   3.236   1.110   5.103
 4140SOL    HW113319   3.285   1.150   5.025
 4140SOL    HW213320   3.159   1.168   5.128
 4141SOL     OW13321   5.355   6.483   1.345
 4141SOL    HW113322   5.409   6.440   1.273
 4141SOL    HW213323   5.289   6.417   1.382
 4142SOL     OW13324   6.561   4.763   0.658
 4142SOL    HW113325   6.469   4.741   0.691
 4142SOL    HW213326   6.628   4.741   0.729
 4143SOL     OW13327   5.696   3.036   1.062
 4143SOL    HW113328   5.668   3.024   1.157
 4143SOL    HW213329   5.701   3.134   1.041
 4144SOL     OW13330   5.026   1.285   0.280
 4144SOL    HW113331   5.010   1.212   0.346
 4144SOL    HW213332   5.049   1.369   0.329
 4145SOL     OW13333   0.288   6.640   1.528
 4145SOL    HW113334   0.245   6.553   1.505
 4145SOL    HW213335   0.296   6.697   1.446
 4146SOL     OW13336   6.679   0.213   3.621
 4146SOL    HW113337   6.627   0.138   3.581
 4146SOL    HW213338   6.773   0.210   3.588
 4147SOL     OW13339   3.828   4.671   6.090
 4147SOL    HW113340   3.861   4.598   6.029
 4147SOL    HW213341   3.795   4.748   6.035
 4148SOL     OW13342   2.719   0.560   4.374
 4148SOL    HW113343   2.696   0.471   4.413
 4148SOL    HW213344   2.808   0.590   4.409
 4149SOL     OW13345   0.271   4.372   1.265
 4149SOL    HW113346   0.357   4.375   1.316
 4149SOL    HW213347   0.268   4.449   1.201
 4150SOL     OW13348   0.945   1.044   5.715
 4150SOL    HW113349   0.869   1.080   5.769
 4150SOL    HW213350   0.911   0.977   5.650
 4151SOL     OW13351   2.579   6.397   5.620
 4151SOL    HW113352   2.592   6.439   5.710
 4151SOL    HW213353   2.626   6.452   5.551
 4152SOL     OW13354   4.279   5.550   1.941
 4152SOL    HW113355   4.347   5.555   2.015
 4152SOL    HW213356   4.300   5.620   1.872
 4153SOL     OW13357   5.949   5.061   0.928
 4153SOL    HW113358   5.889   4.984   0.912
 4153SOL    HW213359   5.943   5.126   0.852
 4154SOL     OW13360   6.737   4.894   4.195
 4154SOL    HW113361   6.671   4.969   4.192
 4154SOL    HW213362   6.692   4.812   4.231
 4155SOL     OW13363   0.380   0.810   1.106
 4155SOL    HW113364   0.467   0.814   1.057
 4155SOL    HW213365   0.340   0.902   1.112
 4156SOL     OW13366   6.069   5.451   5.252
 4156SOL    HW113367   6.105   5.518   5.188
 4156SOL    HW213368   6.052   5.495   5.340
 4157SOL     OW13369   5.473   5.591   4.331
 4157SOL    HW113370   5.471   5.542   4.244
 4157SOL    HW213371   5.440   5.685   4.317
 4158SOL     OW13372   0.666   3.092   2.234
 4158SOL    HW113373   0.687   3.178   2.281
 4158SOL    HW213374   0.688   3.015   2.294
 4159SOL     OW13375   1.656   3.107   3.291
 4159SOL    HW113376   1.558   3.126   3.291
 4159SOL    HW213377   1.689   3.102   3.385
 4160SOL     OW13378   5.444   0.477   6.974
 4160SOL    HW113379   5.483   0.386   6.983
 4160SOL    HW213380   5.436   0.519   0.043
 4161SOL     OW13381   1.014   1.989   0.931
 4161SOL    HW113382   1.085   2.048   0.970
 4161SOL    HW213383   1.051   1.938   0.853
 4162SOL     OW13384   6.461   6.082   0.258
 4162SOL    HW113385   6.479   5.984   0.251
 4162SOL    HW213386   6.364   6.097   0.276
 4163SOL     OW13387   5.264   0.572   3.822
 4163SOL    HW113388   5.301   0.490   3.867
 4163SOL    HW213389   5.306   0.581   3.732
 4164SOL     OW13390   1.882   6.938   5.155
 4164SOL    HW113391   1.917   6.965   5.245
 4164SOL    HW213392   1.870   6.839   5.153
 4165SOL     OW13393   4.109   0.114   5.949
 4165SOL    HW113394   4.175   0.117   5.874
 4165SOL    HW213395   4.112   0.024   5.993
 4166SOL     OW13396   5.635   1.534   0.556
 4166SOL    HW113397   5.630   1.467   0.630
 4166SOL    HW213398   5.551   1.529   0.501
 4167SOL     OW13399   3.125   4.263   0.038
 4167SOL    HW113400   3.108   4.297   0.130
 4167SOL    HW213401   3.214   4.216   0.037
 4168SOL     OW13402   0.284   4.085   1.195
 4168SOL    HW113403   0.291   4.176   1.236
 4168SOL    HW213404   0.287   4.016   1.268
 4169SOL     OW13405   5.963   5.083   4.521
 4169SOL    HW113406   5.924   5.155   4.464
 4169SOL    HW213407   5.896   5.055   4.590
 4170SOL     OW13408   4.505   3.296   6.246
 4170SOL    HW113409   4.439   3.234   6.287
 4170SOL    HW213410   4.568   3.244   6.189
 4171SOL     OW13411   6.255   5.723   1.120
 4171SOL    HW113412   6.206   5.723   1.033
 4171SOL    HW213413   6.337   5.665   1.111
 4172SOL     OW13414   2.075   1.745   6.440
 4172SOL    HW113415   2.091   1.680   6.514
 4172SOL    HW213416   1.976   1.759   6.429
 4173SOL     OW13417   5.261   3.669   4.795
 4173SOL    HW113418   5.263   3.580   4.841
 4173SOL    HW213419   5.351   3.689   4.757
 4174SOL     OW13420   4.525   1.144   2.808
 4174SOL    HW113421   4.576   1.229   2.812
 4174SOL    HW213422   4.449   1.154   2.744
 4175SOL     OW13423   2.092   5.257   4.094
 4175SOL    HW113424   1.999   5.267   4.130
 4175SOL    HW213425   2.107   5.323   4.021
 4176SOL     OW13426   4.139   6.366   1.645
 4176SOL    HW113427   4.048   6.406   1.631
 4176SOL    HW213428   4.137   6.308   1.727
 4177SOL     OW13429   6.132   4.887   5.679
 4177SOL    HW113430   6.131   4.973   5.628
 4177SOL    HW213431   6.141   4.906   5.777
 4178SOL     OW13432   4.196   6.681   3.950
 4178SOL    HW113433   4.275   6.695   4.009
 4178SOL    HW213434   4.174   6.768   3.904
 4179SOL     OW13435   5.531   3.747   2.827
 4179SOL    HW113436   5.525   3.684   2.904
 4179SOL    HW213437   5.439   3.763   2.790
 4180SOL     OW13438   3.774   3.742   0.483
 4180SOL    HW113439   3.684   3.699   0.475
 4180SOL    HW213440   3.814   3.753   0.392
 4181SOL     OW13441   3.905   0.761   6.885
 4181SOL    HW113442   3.964   0.773   6.965
 4181SOL    HW213443   3.840   0.838   6.880
 4182SOL     OW13444   0.697   6.272   3.500
 4182SOL    HW113445   0.795   6.291   3.501
 4182SOL    HW213446   0.649   6.345   3.452
 4183SOL     OW13447   2.869   1.484   0.078
 4183SOL    HW113448   2.924   1.516   0.000
 4183SOL    HW213449   2.888   1.541   0.158
 4184SOL     OW13450   3.286   6.760   2.749
 4184SOL    HW113451   3.347   6.834   2.776
 4184SOL    HW213452   3.267   6.766   2.652
 4185SOL     OW13453   1.183   5.124   3.127
 4185SOL    HW113454   1.105   5.185   3.113
 4185SOL    HW213455   1.268   5.177   3.125
 4186SOL     OW13456   2.672   4.863   0.016
 4186SOL    HW113457   2.606   4.918   0.069
 4186SOL    HW213458   2.631   4.775   7.015
 4187SOL     OW13459   3.693   3.577   5.611
 4187SOL    HW113460   3.777   3.625   5.585
 4187SOL    HW213461   3.697   3.553   5.708
 4188SOL     OW13462   5.559   0.950   5.246
 4188SOL    HW113463   5.628   0.925   5.315
 4188SOL    HW213464   5.484   0.884   5.249
 4189SOL     OW13465   3.116   5.117   5.003
 4189SOL    HW113466   3.168   5.199   4.982
 4189SOL    HW213467   3.153   5.040   4.951
 4190SOL     OW13468   1.059   0.710   0.720
 4190SOL    HW113469   1.087   0.804   0.742
 4190SOL    HW213470   0.991   0.680   0.788
 4191SOL     OW13471   4.925   4.318   3.614
 4191SOL    HW113472   4.976   4.390   3.566
 4191SOL    HW213473   4.830   4.318   3.581
 4192SOL     OW13474   0.421   1.022   4.071
 4192SOL    HW113475   0.393   0.954   4.004
 4192SOL    HW213476   0.517   1.046   4.056
 4193SOL     OW13477   6.412   0.925   1.382
 4193SOL    HW113478   6.366   0.846   1.423
 4193SOL    HW213479   6.353   0.965   1.311
 4194SOL     OW13480   5.562   0.268   4.744
 4194SOL    HW113481   5.629   0.342   4.756
 4194SOL    HW213482   5.511   0.255   4.828
 4195SOL     OW13483   3.955   6.351   1.136
 4195SOL    HW113484   3.903   6.323   1.218
 4195SOL    HW213485   3.899   6.412   1.081
 4196SOL     OW13486   6.191   2.321   2.144
 4196SOL    HW113487   6.158   2.376   2.220
 4196SOL    HW213488   6.126   2.248   2.124
 4197SOL     OW13489   4.755   5.249   5.570
 4197SOL    HW113490   4.708   5.204   5.645
 4197SOL    HW213491   4.852   5.222   5.570
 4198SOL     OW13492   6.333   1.951   0.157
 4198SOL    HW113493   6.290   2.021   0.213
 4198SOL    HW213494   6.393   1.994   0.089
 4199SOL     OW13495   1.874   2.038   6.114
 4199SOL    HW113496   1.859   2.135   6.136
 4199SOL    HW213497   1.971   2.017   6.120
 4200SOL     OW13498   3.474   0.674   5.937
 4200SOL    HW113499   3.521   0.731   6.004
 4200SOL    HW213500   3.383   0.650   5.971
 4201SOL     OW13501   6.136   6.750   3.683
 4201SOL    HW113502   6.042   6.773   3.709
 4201SOL    HW213503   6.200   6.810   3.730
 4202SOL     OW13504   3.575   5.739   5.658
 4202SOL    HW113505   3.656   5.693   5.694
 4202SOL    HW213506   3.561   5.712   5.563
 4203SOL     OW13507   3.678   4.954   6.866
 4203SOL    HW113508   3.578   4.949   6.857
 4203SOL    HW213509   3.711   5.039   6.826
 4204SOL     OW13510   4.143   3.624   3.388
 4204SOL    HW113511   4.107   3.548   3.334
 4204SOL    HW213512   4.113   3.711   3.348
 4205SOL     OW13513   4.339   5.893   3.538
 4205SOL    HW113514   4.284   5.815   3.568
 4205SOL    HW213515   4.402   5.919   3.611
 4206SOL     OW13516   6.667   0.364   5.456
 4206SOL    HW113517   6.763   0.365   5.483
 4206SOL    HW213518   6.654   0.425   5.377
 4207SOL     OW13519   1.690   1.753   1.730
 4207SOL    HW113520   1.612   1.718   1.782
 4207SOL    HW213521   1.696   1.852   1.743
 4208SOL     OW13522   0.162   2.868   5.490
 4208SOL    HW113523   0.135   2.964   5.489
 4208SOL    HW213524   0.130   2.825   5.575
 4209SOL     OW13525   6.609   0.775   3.735
 4209SOL    HW113526   6.696   0.725   3.734
 4209SOL    HW213527   6.537   0.718   3.696
 4210SOL     OW13528   3.922   3.055   2.176
 4210SOL    HW113529   4.017   3.082   2.157
 4210SOL    HW213530   3.916   3.013   2.266
 4211SOL     OW13531   4.569   6.509   6.334
 4211SOL    HW113532   4.625   6.565   6.273
 4211SOL    HW213533   4.474   6.508   6.302
 4212SOL     OW13534   6.208   1.791   2.569
 4212SOL    HW113535   6.259   1.723   2.623
 4212SOL    HW213536   6.126   1.819   2.618
 4213SOL     OW13537   1.872   0.436   1.413
 4213SOL    HW113538   1.936   0.513   1.418
 4213SOL    HW213539   1.900   0.373   1.341
 4214SOL     OW13540   0.699   5.273   5.571
 4214SOL    HW113541   0.600   5.287   5.573
 4214SOL    HW213542   0.720   5.175   5.575
 4215SOL     OW13543   5.226   6.900   5.714
 4215SOL    HW113544   5.209   6.885   5.811
 4215SOL    HW213545   5.325   6.897   5.697
 4216SOL     OW13546   1.741   1.583   2.501
 4216SOL    HW113547   1.659   1.536   2.468
 4216SOL    HW213548   1.760   1.663   2.444
 4217SOL     OW13549   0.990   0.503   2.502
 4217SOL    HW113550   1.013   0.537   2.593
 4217SOL    HW213551   1.023   0.568   2.433
 4218SOL     OW13552   4.151   1.178   1.620
 4218SOL    HW113553   4.058   1.217   1.620
 4218SOL    HW213554   4.145   1.080   1.639
 4219SOL     OW13555   4.011   5.995   4.049
 4219SOL    HW113556   4.023   6.068   3.982
 4219SOL    HW213557   3.933   5.938   4.022
 4220SOL     OW13558   6.287   2.847   3.658
 4220SOL    HW113559   6.378   2.807   3.653
 4220SOL    HW213560   6.234   2.820   3.577
 4221SOL     OW13561   5.676   5.464   5.937
 4221SOL    HW113562   5.661   5.371   5.970
 4221SOL    HW213563   5.689   5.463   5.838
 4222SOL     OW13564   0.078   2.514   2.857
 4222SOL    HW113565   0.080   2.579   2.782
 4222SOL    HW213566   0.151   2.447   2.845
 4223SOL     OW13567   3.449   2.978   6.894
 4223SOL    HW113568   3.357   2.987   6.856
 4223SOL    HW213569   3.514   3.030   6.838
 4224SOL     OW13570   5.061   4.199   4.117
 4224SOL    HW113571   5.104   4.120   4.161
 4224SOL    HW213572   5.045   4.179   4.021
 4225SOL     OW13573   3.935   1.417   5.747
 4225SOL    HW113574   4.030   1.399   5.721
 4225SOL    HW213575   3.904   1.347   5.811
 4226SOL     OW13576   1.146   0.685   2.112
 4226SOL    HW113577   1.096   0.600   2.095
 4226SOL    HW213578   1.241   0.664   2.134
 4227SOL     OW13579   4.065   4.619   0.798
 4227SOL    HW113580   4.045   4.662   0.886
 4227SOL    HW213581   4.148   4.659   0.759
 4228SOL     OW13582   0.861   4.369   4.929
 4228SOL    HW113583   0.786   4.311   4.897
 4228SOL    HW213584   0.918   4.318   4.993
 4229SOL     OW13585   5.164   5.562   5.555
 4229SOL    HW113586   5.256   5.540   5.587
 4229SOL    HW213587   5.102   5.567   5.633
 4230SOL     OW13588   1.318   6.063   2.789
 4230SOL    HW113589   1.339   6.138   2.725
 4230SOL    HW213590   1.317   5.977   2.739
 4231SOL     OW13591   5.870   0.212   5.778
 4231SOL    HW113592   5.780   0.229   5.737
 4231SOL    HW213593   5.858   0.156   5.860
 4232SOL     OW13594   0.408   5.273   2.978
 4232SOL    HW113595   0.485   5.223   3.017
 4232SOL    HW213596   0.349   5.307   3.052
 4233SOL     OW13597   6.813   0.677   6.388
 4233SOL    HW113598   6.901   0.692   6.434
 4233SOL    HW213599   6.820   0.707   6.293
 4234SOL     OW13600   2.304   6.521   4.921
 4234SOL    HW113601   2.264   6.570   4.843
 4234SOL    HW213602   2.238   6.517   4.995
 4235SOL     OW13603   5.556   3.555   5.918
 4235SOL    HW113604   5.554   3.490   5.842
 4235SOL    HW213605   5.629   3.531   5.982
 4236SOL     OW13606   6.319   3.734   2.658
 4236SOL    HW113607   6.359   3.717   2.748
 4236SOL    HW213608   6.331   3.653   2.601
 4237SOL     OW13609   5.693   6.163   2.559
 4237SOL    HW113610   5.758   6.147   2.634
 4237SOL    HW213611   5.705   6.092   2.490
 4238SOL     OW13612   2.583   5.866   3.338
 4238SOL    HW113613   2.503   5.910   3.297
 4238SOL    HW213614   2.631   5.813   3.268
 4239SOL     OW13615   5.982   1.812   2.694
 4239SOL    HW113616   5.917   1.875   2.651
 4239SOL    HW213617   5.965   1.808   2.793
 4240SOL     OW13618   2.087   6.251   6.983
 4240SOL    HW113619   2.154   6.213   0.023
 4240SOL    HW213620   2.123   6.334   6.941
 4241SOL     OW13621   6.439   0.782   0.308
 4241SOL    HW113622   6.462   0.695   0.353
 4241SOL    HW213623   6.449   0.772   0.209
 4242SOL     OW13624   3.011   1.436   3.722
 4242SOL    HW113625   2.973   1.352   3.761
 4242SOL    HW213626   3.077   1.413   3.651
 4243SOL     OW13627   6.621   3.028   3.532
 4243SOL    HW113628   6.618   3.060   3.437
 4243SOL    HW213629   6.530   3.040   3.574
 4244SOL     OW13630   4.455   4.066   1.311
 4244SOL    HW113631   4.431   3.969   1.312
 4244SOL    HW213632   4.415   4.111   1.391
 4245SOL     OW13633   0.512   1.600   6.232
 4245SOL    HW113634   0.452   1.650   6.168
 4245SOL    HW213635   0.457   1.564   6.307
 4246SOL     OW13636   6.689   4.024   3.568
 4246SOL    HW113637   6.748   4.094   3.527
 4246SOL    HW213638   6.735   3.984   3.647
 4247SOL     OW13639   2.924   5.599   3.661
 4247SOL    HW113640   2.847   5.646   3.616
 4247SOL    HW213641   2.972   5.664   3.719
 4248SOL     OW13642   3.028   2.133   3.500
 4248SOL    HW113643   2.967   2.062   3.465
 4248SOL    HW213644   3.048   2.199   3.428
 4249SOL     OW13645   5.484   2.768   3.566
 4249SOL    HW113646   5.389   2.799   3.556
 4249SOL    HW213647   5.513   2.722   3.483
 4250SOL     OW13648   6.021   5.012   2.784
 4250SOL    HW113649   6.048   5.108   2.788
 4250SOL    HW213650   6.094   4.955   2.822
 4251SOL     OW13651   5.295   4.430   2.021
 4251SOL    HW113652   5.343   4.343   2.010
 4251SOL    HW213653   5.233   4.445   1.944
 4252SOL     OW13654   5.376   6.951   6.471
 4252SOL    HW113655   5.447   7.018   6.447
 4252SOL    HW213656   5.415   6.882   6.533
 4253SOL     OW13657   3.188   0.291   0.923
 4253SOL    HW113658   3.270   0.342   0.949
 4253SOL    HW213659   3.152   0.329   0.838
 4254SOL     OW13660   1.231   3.663   1.960
 4254SOL    HW113661   1.259   3.702   2.048
 4254SOL    HW213662   1.136   3.631   1.966
 4255SOL     OW13663   6.777   4.153   3.948
 4255SOL    HW113664   6.778   4.141   4.047
 4255SOL    HW213665   6.698   4.106   3.910
 4256SOL     OW13666   1.911   6.474   0.626
 4256SOL    HW113667   1.895   6.378   0.602
 4256SOL    HW213668   2.007   6.496   0.612
 4257SOL     OW13669   2.438   0.867   4.035
 4257SOL    HW113670   2.468   0.856   3.940
 4257SOL    HW213671   2.467   0.956   4.069
 4258SOL     OW13672   4.447   5.891   0.759
 4258SOL    HW113673   4.425   5.810   0.705
 4258SOL    HW213674   4.366   5.950   0.766
 4259SOL     OW13675   2.672   0.455   1.022
 4259SOL    HW113676   2.655   0.385   0.952
 4259SOL    HW213677   2.770   0.473   1.027
 4260SOL     OW13678   5.728   0.337   1.566
 4260SOL    HW113679   5.685   0.334   1.657
 4260SOL    HW213680   5.671   0.392   1.505
 4261SOL     OW13681   2.167   0.112   2.730
 4261SOL    HW113682   2.224   0.036   2.700
 4261SOL    HW213683   2.161   0.179   2.656
 4262SOL     OW13684   0.917   4.992   6.716
 4262SOL    HW113685   0.908   5.055   6.794
 4262SOL    HW213686   0.945   4.902   6.749
 4263SOL     OW13687   3.163   0.315   3.314
 4263SOL    HW113688   3.115   0.228   3.321
 4263SOL    HW213689   3.182   0.350   3.406
 4264SOL     OW13690   6.504   2.198   2.448
 4264SOL    HW113691   6.540   2.109   2.473
 4264SOL    HW213692   6.455   2.237   2.526
 4265SOL     OW13693   4.727   1.607   1.452
 4265SOL    HW113694   4.653   1.612   1.518
 4265SOL    HW213695   4.729   1.692   1.398
 4266SOL     OW13696   1.873   5.392   0.152
 4266SOL    HW113697   1.823   5.316   0.112
 4266SOL    HW213698   1.859   5.474   0.096
 4267SOL     OW13699   1.842   3.057   3.506
 4267SOL    HW113700   1.807   3.069   3.598
 4267SOL    HW213701   1.898   3.136   3.481
 4268SOL     OW13702   1.138   6.310   6.776
 4268SOL    HW113703   1.122   6.211   6.772
 4268SOL    HW213704   1.215   6.329   6.837
 4269SOL     OW13705   2.911   0.525   2.593
 4269SOL    HW113706   2.941   0.554   2.683
 4269SOL    HW213707   2.953   0.437   2.570
 4270SOL     OW13708   4.064   3.133   3.084
 4270SOL    HW113709   4.158   3.135   3.051
 4270SOL    HW213710   4.052   3.205   3.153
 4271SOL     OW13711   6.741   0.947   6.724
 4271SOL    HW113712   6.669   0.933   6.656
 4271SOL    HW213713   6.760   0.861   6.770
 4272SOL     OW13714   6.859   2.408   4.576
 4272SOL    HW113715   6.832   2.333   4.636
 4272SOL    HW213716   6.828   2.495   4.615
 4273SOL     OW13717   4.737   6.706   4.549
 4273SOL    HW113718   4.792   6.780   4.510
 4273SOL    HW213719   4.645   6.739   4.566
 4274SOL     OW13720   1.089   6.207   1.988
 4274SOL    HW113721   0.991   6.228   1.983
 4274SOL    HW213722   1.101   6.108   1.989
 4275SOL     OW13723   6.628   1.931   4.420
 4275SOL    HW113724   6.699   1.879   4.372
 4275SOL    HW213725   6.617   1.896   4.512
 4276SOL     OW13726   1.536   4.906   3.614
 4276SOL    HW113727   1.590   4.911   3.698
 4276SOL    HW213728   1.439   4.894   3.637
 4277SOL     OW13729   6.183   4.719   3.133
 4277SOL    HW113730   6.276   4.739   3.164
 4277SOL    HW213731   6.175   4.621   3.112
 4278SOL     OW13732   6.744   0.199   5.137
 4278SOL    HW113733   6.649   0.224   5.157
 4278SOL    HW213734   6.745   0.113   5.085
 4279SOL     OW13735   3.270   0.474   4.154
 4279SOL    HW113736   3.199   0.536   4.123
 4279SOL    HW213737   3.332   0.454   4.078
 4280SOL     OW13738   4.545   0.514   5.677
 4280SOL    HW113739   4.507   0.465   5.755
 4280SOL    HW213740   4.588   0.450   5.614
 4281SOL     OW13741   7.013   4.842   3.476
 4281SOL    HW113742   6.936   4.886   3.429
 4281SOL    HW213743   0.074   4.894   3.459
 4282SOL     OW13744   3.514   3.906   6.202
 4282SOL    HW113745   3.458   3.984   6.171
 4282SOL    HW213746   3.529   3.913   6.300
 4283SOL     OW13747   0.933   0.726   3.532
 4283SOL    HW113748   0.874   0.696   3.457
 4283SOL    HW213749   0.877   0.760   3.607
 4284SOL     OW13750   3.919   4.901   1.367
 4284SOL    HW113751   3.858   4.976   1.343
 4284SOL    HW213752   3.976   4.877   1.288
 4285SOL     OW13753   1.523   0.594   5.424
 4285SOL    HW113754   1.441   0.643   5.453
 4285SOL    HW213755   1.594   0.660   5.397
 4286SOL     OW13756   4.525   6.528   6.009
 4286SOL    HW113757   4.506   6.566   5.918
 4286SOL    HW213758   4.554   6.433   5.999
 4287SOL     OW13759   5.701   1.410   6.295
 4287SOL    HW113760   5.649   1.327   6.313
 4287SOL    HW213761   5.741   1.443   6.380
 4288SOL     OW13762   0.085   5.799   3.947
 4288SOL    HW113763   0.082   5.866   4.021
 4288SOL    HW213764   7.015   5.764   3.930
 4289SOL     OW13765   6.586   3.109   6.311
 4289SOL    HW113766   6.564   3.018   6.346
 4289SOL    HW213767   6.542   3.123   6.222
 4290SOL     OW13768   1.444   6.484   3.271
 4290SOL    HW113769   1.437   6.505   3.369
 4290SOL    HW213770   1.424   6.567   3.219
 4291SOL     OW13771   4.469   3.574   0.410
 4291SOL    HW113772   4.535   3.647   0.425
 4291SOL    HW213773   4.484   3.501   0.477
 4292SOL     OW13774   5.798   2.953   0.385
 4292SOL    HW113775   5.829   2.912   0.470
 4292SOL    HW213776   5.857   3.030   0.361
 4293SOL     OW13777   2.810   3.097   0.551
 4293SOL    HW113778   2.711   3.099   0.560
 4293SOL    HW213779   2.847   3.019   0.601
 4294SOL     OW13780   2.005   2.204   7.003
 4294SOL    HW113781   2.090   2.254   6.989
 4294SOL    HW213782   1.944   2.256   0.041
 4295SOL     OW13783   3.787   5.862   4.596
 4295SOL    HW113784   3.770   5.853   4.498
 4295SOL    HW213785   3.884   5.876   4.612
 4296SOL     OW13786   2.698   6.889   0.729
 4296SOL    HW113787   2.787   6.928   0.754
 4296SOL    HW213788   2.651   6.952   0.667
 4297SOL     OW13789   4.671   0.394   6.283
 4297SOL    HW113790   4.704   0.324   6.346
 4297SOL    HW213791   4.580   0.424   6.312
 4298SOL     OW13792   3.738   5.263   0.229
 4298SOL    HW113793   3.760   5.165   0.223
 4298SOL    HW213794   3.700   5.283   0.320
 4299SOL     OW13795   1.259   3.077   6.436
 4299SOL    HW113796   1.231   3.160   6.388
 4299SOL    HW213797   1.358   3.065   6.426
 4300SOL     OW13798   3.225   6.790   0.785
 4300SOL    HW113799   3.295   6.725   0.814
 4300SOL    HW213800   3.143   6.741   0.755
 4301SOL     OW13801   3.950   1.596   1.527
 4301SOL    HW113802   3.888   1.672   1.544
 4301SOL    HW213803   4.043   1.631   1.516
 4302SOL     OW13804   1.132   0.289   6.479
 4302SOL    HW113805   1.103   0.351   6.406
 4302SOL    HW213806   1.209   0.234   6.447
 4303SOL     OW13807   0.101   4.061   3.637
 4303SOL    HW113808   0.158   4.000   3.692
 4303SOL    HW213809   0.079   4.143   3.690
 4304SOL     OW13810   3.146   4.067   2.963
 4304SOL    HW113811   3.110   3.975   2.982
 4304SOL    HW213812   3.218   4.088   3.029
 4305SOL     OW13813   6.996   0.262   5.233
 4305SOL    HW113814   6.902   0.245   5.202
 4305SOL    HW213815   0.001   0.189   5.296
 4306SOL     OW13816   5.504   4.167   5.752
 4306SOL    HW113817   5.415   4.166   5.797
 4306SOL    HW213818   5.565   4.103   5.798
 4307SOL     OW13819   5.190   3.994   5.667
 4307SOL    HW113820   5.108   3.947   5.632
 4307SOL    HW213821   5.245   3.930   5.719
 4308SOL     OW13822   6.550   4.984   0.477
 4308SOL    HW113823   6.557   4.925   0.558
 4308SOL    HW213824   6.462   4.970   0.433
 4309SOL     OW13825   1.295   1.076   0.147
 4309SOL    HW113826   1.222   1.128   0.191
 4309SOL    HW213827   1.373   1.136   0.131
 4310SOL     OW13828   1.391   2.460   1.958
 4310SOL    HW113829   1.429   2.391   1.897
 4310SOL    HW213830   1.428   2.550   1.934
 4311SOL     OW13831   2.116   5.896   2.727
 4311SOL    HW113832   2.109   5.813   2.783
 4311SOL    HW213833   2.167   5.966   2.777
 4312SOL     OW13834   2.027   5.295   1.610
 4312SOL    HW113835   2.054   5.341   1.694
 4312SOL    HW213836   2.105   5.293   1.547
 4313SOL     OW13837   4.506   1.407   1.707
 4313SOL    HW113838   4.549   1.319   1.689
 4313SOL    HW213839   4.571   1.469   1.751
 4314SOL     OW13840   6.120   1.281   4.105
 4314SOL    HW113841   6.055   1.221   4.152
 4314SOL    HW213842   6.092   1.290   4.009
 4315SOL     OW13843   2.503   6.315   2.370
 4315SOL    HW113844   2.486   6.277   2.279
 4315SOL    HW213845   2.559   6.398   2.362
 4316SOL     OW13846   5.581   0.789   2.055
 4316SOL    HW113847   5.589   0.698   2.095
 4316SOL    HW213848   5.621   0.789   1.964
 4317SOL     OW13849   5.113   2.420   4.692
 4317SOL    HW113850   5.058   2.338   4.706
 4317SOL    HW213851   5.053   2.499   4.684
 4318SOL     OW13852   0.588   3.233   4.888
 4318SOL    HW113853   0.569   3.180   4.971
 4318SOL    HW213854   0.610   3.170   4.813
 4319SOL     OW13855   2.191   1.689   1.481
 4319SOL    HW113856   2.170   1.787   1.486
 4319SOL    HW213857   2.167   1.654   1.391
 4320SOL     OW13858   5.634   5.428   0.372
 4320SOL    HW113859   5.588   5.383   0.295
 4320SOL    HW213860   5.603   5.388   0.458
 4321SOL     OW13861   0.034   6.605   4.916
 4321SOL    HW113862   0.015   6.602   4.818
 4321SOL    HW213863   0.103   6.675   4.934
 4322SOL     OW13864   5.942   2.542   6.845
 4322SOL    HW113865   5.909   2.493   6.926
 4322SOL    HW213866   5.997   2.481   6.788
 4323SOL     OW13867   4.674   3.719   1.358
 4323SOL    HW113868   4.733   3.666   1.298
 4323SOL    HW213869   4.581   3.719   1.321
 4324SOL     OW13870   5.400   4.271   6.494
 4324SOL    HW113871   5.378   4.185   6.540
 4324SOL    HW213872   5.338   4.284   6.417
 4325SOL     OW13873   2.464   1.098   1.608
 4325SOL    HW113874   2.430   1.121   1.517
 4325SOL    HW213875   2.496   1.181   1.653
 4326SOL     OW13876   4.432   4.940   3.883
 4326SOL    HW113877   4.477   5.016   3.930
 4326SOL    HW213878   4.424   4.863   3.946
 4327SOL     OW13879   5.801   6.055   1.541
 4327SOL    HW113880   5.764   6.112   1.615
 4327SOL    HW213881   5.887   6.015   1.570
 4328SOL     OW13882   4.723   3.793   5.631
 4328SOL    HW113883   4.738   3.704   5.587
 4328SOL    HW213884   4.627   3.818   5.620
 4329SOL     OW13885   4.510   1.462   5.521
 4329SOL    HW113886   4.574   1.411   5.463
 4329SOL    HW213887   4.453   1.397   5.572
 4330SOL     OW13888   2.235   6.370   4.455
 4330SOL    HW113889   2.272   6.462   4.468
 4330SOL    HW213890   2.136   6.373   4.469
 4331SOL     OW13891   5.617   1.528   1.638
 4331SOL    HW113892   5.693   1.532   1.703
 4331SOL    HW213893   5.583   1.621   1.621
 4332SOL     OW13894   5.350   3.609   1.949
 4332SOL    HW113895   5.309   3.661   1.875
 4332SOL    HW213896   5.413   3.541   1.912
 4333SOL     OW13897   3.352   0.988   5.642
 4333SOL    HW113898   3.352   0.996   5.742
 4333SOL    HW213899   3.336   0.893   5.616
 4334SOL     OW13900   1.468   2.499   2.529
 4334SOL    HW113901   1.426   2.516   2.440
 4334SOL    HW213902   1.409   2.535   2.601
 4335SOL     OW13903   3.267   3.776   2.513
 4335SOL    HW113904   3.239   3.769   2.609
 4335SOL    HW213905   3.241   3.865   2.477
 4336SOL     OW13906   3.067   6.474   6.557
 4336SOL    HW113907   3.094   6.562   6.518
 4336SOL    HW213908   3.034   6.413   6.485
 4337SOL     OW13909   0.653   4.371   1.093
 4337SOL    HW113910   0.742   4.362   1.048
 4337SOL    HW213911   0.661   4.436   1.168
 4338SOL     OW13912   6.069   0.410   5.407
 4338SOL    HW113913   6.029   0.358   5.332
 4338SOL    HW213914   5.999   0.472   5.445
 4339SOL     OW13915   5.710   3.161   5.436
 4339SOL    HW113916   5.725   3.091   5.367
 4339SOL    HW213917   5.786   3.162   5.501
 4340SOL     OW13918   6.693   2.799   1.975
 4340SOL    HW113919   6.601   2.835   1.961
 4340SOL    HW213920   6.746   2.865   2.028
 4341SOL     OW13921   0.569   5.845   2.261
 4341SOL    HW113922   0.570   5.944   2.245
 4341SOL    HW213923   0.475   5.811   2.258
 4342SOL     OW13924   5.472   3.751   3.610
 4342SOL    HW113925   5.539   3.815   3.572
 4342SOL    HW213926   5.386   3.758   3.559
 4343SOL     OW13927   2.697   6.645   5.216
 4343SOL    HW113928   2.675   6.607   5.126
 4343SOL    HW213929   2.618   6.635   5.277
 4344SOL     OW13930   0.513   4.397   1.840
 4344SOL    HW113931   0.556   4.333   1.904
 4344SOL    HW213932   0.476   4.475   1.891
 4345SOL     OW13933   3.394   3.747   4.864
 4345SOL    HW113934   3.436   3.811   4.929
 4345SOL    HW213935   3.433   3.762   4.774
 4346SOL     OW13936   2.152   3.213   2.506
 4346SOL    HW113937   2.172   3.311   2.512
 4346SOL    HW213938   2.124   3.191   2.412
 4347SOL     OW13939   6.632   6.518   2.417
 4347SOL    HW113940   6.715   6.478   2.456
 4347SOL    HW213941   6.654   6.607   2.376
 4348SOL     OW13942   6.659   4.733   3.953
 4348SOL    HW113943   6.594   4.678   3.899
 4348SOL    HW213944   6.610   4.779   4.026
 4349SOL     OW13945   6.045   2.184   2.415
 4349SOL    HW113946   6.108   2.135   2.354
 4349SOL    HW213947   5.952   2.149   2.402
 4350SOL     OW13948   3.611   1.507   4.073
 4350SOL    HW113949   3.555   1.464   4.002
 4350SOL    HW213950   3.616   1.605   4.056
 4351SOL     OW13951   1.737   5.151   0.770
 4351SOL    HW113952   1.785   5.122   0.852
 4351SOL    HW213953   1.692   5.072   0.728
 4352SOL     OW13954   6.416   3.522   2.517
 4352SOL    HW113955   6.364   3.531   2.433
 4352SOL    HW213956   6.437   3.425   2.533
 4353SOL     OW13957   4.235   2.926   6.589
 4353SOL    HW113958   4.198   2.899   6.500
 4353SOL    HW213959   4.166   2.981   6.638
 4354SOL     OW13960   2.300   0.099   5.564
 4354SOL    HW113961   2.303   0.059   5.472
 4354SOL    HW213962   2.215   0.151   5.575
 4355SOL     OW13963   2.097   6.896   2.270
 4355SOL    HW113964   2.088   6.807   2.315
 4355SOL    HW213965   2.007   6.927   2.240
 4356SOL     OW13966   4.996   3.925   0.575
 4356SOL    HW113967   4.988   4.012   0.624
 4356SOL    HW213968   4.949   3.932   0.487
 4357SOL     OW13969   6.492   1.100   0.890
 4357SOL    HW113970   6.530   1.185   0.854
 4357SOL    HW213971   6.539   1.022   0.848
 4358SOL     OW13972   0.583   0.068   0.772
 4358SOL    HW113973   0.657   0.087   0.837
 4358SOL    HW213974   0.605   0.110   0.684
 4359SOL     OW13975   2.166   1.458   6.106
 4359SOL    HW113976   2.231   1.434   6.034
 4359SOL    HW213977   2.180   1.553   6.133
 4360SOL     OW13978   1.423   3.178   3.428
 4360SOL    HW113979   1.331   3.170   3.464
 4360SOL    HW213980   1.487   3.192   3.504
 4361SOL     OW13981   2.412   3.320   1.156
 4361SOL    HW113982   2.390   3.378   1.235
 4361SOL    HW213983   2.328   3.276   1.123
 4362SOL     OW13984   6.143   5.655   3.191
 4362SOL    HW113985   6.115   5.652   3.287
 4362SOL    HW213986   6.164   5.562   3.160
 4363SOL     OW13987   5.939   2.039   1.248
 4363SOL    HW113988   5.897   1.948   1.248
 4363SOL    HW213989   5.871   2.107   1.219
 4364SOL     OW13990   2.862   3.494   4.621
 4364SOL    HW113991   2.784   3.456   4.572
 4364SOL    HW213992   2.947   3.469   4.574
 4365SOL     OW13993   2.093   0.854   2.239
 4365SOL    HW113994   2.183   0.897   2.226
 4365SOL    HW213995   2.074   0.847   2.337
 4366SOL     OW13996   5.935   0.278   0.302
 4366SOL    HW113997   6.025   0.274   0.259
 4366SOL    HW213998   5.933   0.219   0.383
 4367SOL     OW13999   2.332   4.232   4.573
 4367SOL    HW114000   2.353   4.194   4.483
 4367SOL    HW214001   2.312   4.158   4.637
 4368SOL     OW14002   3.833   4.781   0.689
 4368SOL    HW114003   3.811   4.866   0.738
 4368SOL    HW214004   3.872   4.715   0.753
 4369SOL     OW14005   4.125   5.407   2.682
 4369SOL    HW114006   4.181   5.454   2.613
 4369SOL    HW214007   4.162   5.426   2.773
 4370SOL     OW14008   3.966   5.679   1.717
 4370SOL    HW114009   3.951   5.769   1.757
 4370SOL    HW214010   4.052   5.678   1.666
 4371SOL     OW14011   0.783   2.172   2.181
 4371SOL    HW114012   0.781   2.150   2.083
 4371SOL    HW214013   0.878   2.192   2.208
 4372SOL     OW14014   2.593   1.815   2.831
 4372SOL    HW114015   2.609   1.735   2.773
 4372SOL    HW214016   2.675   1.872   2.833
 4373SOL     OW14017   5.769   2.059   0.375
 4373SOL    HW114018   5.722   2.141   0.341
 4373SOL    HW214019   5.785   1.996   0.299
 4374SOL     OW14020   0.893   1.624   0.586
 4374SOL    HW114021   0.978   1.631   0.535
 4374SOL    HW214022   0.897   1.546   0.648
 4375SOL     OW14023   4.256   6.779   3.084
 4375SOL    HW114024   4.238   6.811   2.992
 4375SOL    HW214025   4.279   6.681   3.082
 4376SOL     OW14026   0.328   6.945   2.091
 4376SOL    HW114027   0.364   6.994   2.171
 4376SOL    HW214028   0.305   7.010   2.019
 4377SOL     OW14029   5.678   4.490   6.809
 4377SOL    HW114030   5.754   4.426   6.821
 4377SOL    HW214031   5.667   4.510   6.711
 4378SOL     OW14032   2.363   2.661   2.824
 4378SOL    HW114033   2.365   2.720   2.905
 4378SOL    HW214034   2.286   2.688   2.766
 4379SOL     OW14035   1.712   2.658   2.582
 4379SOL    HW114036   1.791   2.655   2.520
 4379SOL    HW214037   1.635   2.611   2.540
 4380SOL     OW14038   1.318   0.014   3.024
 4380SOL    HW114039   1.398   0.056   3.066
 4380SOL    HW214040   1.333   0.004   2.926
 4381SOL     OW14041   1.706   4.436   5.062
 4381SOL    HW114042   1.729   4.521   5.109
 4381SOL    HW214043   1.621   4.399   5.100
 4382SOL     OW14044   6.848   3.124   5.016
 4382SOL    HW114045   6.792   3.181   4.955
 4382SOL    HW214046   6.933   3.173   5.038
 4383SOL     OW14047   0.681   2.808   6.040
 4383SOL    HW114048   0.774   2.828   6.072
 4383SOL    HW214049   0.629   2.893   6.036
 4384SOL     OW14050   6.370   1.855   5.375
 4384SOL    HW114051   6.468   1.842   5.387
 4384SOL    HW214052   6.322   1.835   5.461
 4385SOL     OW14053   6.052   2.477   5.224
 4385SOL    HW114054   6.138   2.434   5.251
 4385SOL    HW214055   6.067   2.535   5.144
 4386SOL     OW14056   2.401   2.987   6.561
 4386SOL    HW114057   2.461   3.067   6.555
 4386SOL    HW214058   2.316   3.013   6.605
 4387SOL     OW14059   6.703   1.460   1.030
 4387SOL    HW114060   6.680   1.378   0.978
 4387SOL    HW214061   6.625   1.487   1.086
 4388SOL     OW14062   5.186   2.384   6.634
 4388SOL    HW114063   5.209   2.290   6.657
 4388SOL    HW214064   5.210   2.401   6.538
 4389SOL     OW14065   6.673   3.381   0.796
 4389SOL    HW114066   6.592   3.406   0.744
 4389SOL    HW214067   6.664   3.287   0.830
 4390SOL     OW14068   3.751   1.080   1.512
 4390SOL    HW114069   3.736   1.028   1.596
 4390SOL    HW214070   3.791   1.169   1.535
 4391SOL     OW14071   1.997   5.710   6.811
 4391SOL    HW114072   2.036   5.789   6.857
 4391SOL    HW214073   1.940   5.740   6.735
 4392SOL     OW14074   0.025   3.020   4.621
 4392SOL    HW114075   0.079   3.028   4.537
 4392SOL    HW214076   7.012   3.111   4.646
 4393SOL     OW14077   6.111   0.581   2.418
 4393SOL    HW114078   6.110   0.544   2.325
 4393SOL    HW214079   6.181   0.652   2.425
 4394SOL     OW14080   6.348   5.756   2.266
 4394SOL    HW114081   6.430   5.812   2.280
 4394SOL    HW214082   6.295   5.753   2.350
 4395SOL     OW14083   2.936   6.479   1.845
 4395SOL    HW114084   2.978   6.413   1.906
 4395SOL    HW214085   3.004   6.546   1.816
 4396SOL     OW14086   2.098   2.140   3.679
 4396SOL    HW114087   2.019   2.135   3.618
 4396SOL    HW214088   2.142   2.051   3.685
 4397SOL     OW14089   6.876   1.231   4.685
 4397SOL    HW114090   6.884   1.136   4.657
 4397SOL    HW214091   6.921   1.243   4.774
 4398SOL     OW14092   0.393   3.836   5.678
 4398SOL    HW114093   0.469   3.893   5.710
 4398SOL    HW214094   0.428   3.762   5.621
 4399SOL     OW14095   2.340   0.212   1.896
 4399SOL    HW114096   2.388   0.227   1.809
 4399SOL    HW214097   2.394   0.151   1.954
 4400SOL     OW14098   3.131   6.313   5.567
 4400SOL    HW114099   3.056   6.279   5.622
 4400SOL    HW214100   3.095   6.354   5.483
 4401SOL     OW14101   3.930   6.687   6.199
 4401SOL    HW114102   3.845   6.739   6.189
 4401SOL    HW214103   3.975   6.681   6.110
 4402SOL     OW14104   2.630   0.349   1.955
 4402SOL    HW114105   2.548   0.330   2.009
 4402SOL    HW214106   2.625   0.442   1.917
 4403SOL     OW14107   1.290   0.138   1.935
 4403SOL    HW114108   1.293   0.052   1.883
 4403SOL    HW214109   1.322   0.122   2.028
 4404SOL     OW14110   1.116   4.926   5.696
 4404SOL    HW114111   1.189   4.903   5.760
 4404SOL    HW214112   1.153   4.981   5.621
 4405SOL     OW14113   1.690   3.991   0.650
 4405SOL    HW114114   1.772   4.028   0.693
 4405SOL    HW214115   1.609   4.035   0.690
 4406SOL     OW14116   0.302   3.592   0.630
 4406SOL    HW114117   0.239   3.602   0.553
 4406SOL    HW214118   0.377   3.657   0.620
 4407SOL     OW14119   6.308   5.271   0.297
 4407SOL    HW114120   6.332   5.301   0.204
 4407SOL    HW214121   6.386   5.289   0.358
 4408SOL     OW14122   3.571   0.576   1.061
 4408SOL    HW114123   3.591   0.646   0.992
 4408SOL    HW214124   3.591   0.612   1.152
 4409SOL     OW14125   5.055   1.115   2.669
 4409SOL    HW114126   5.049   1.025   2.626
 4409SOL    HW214127   5.100   1.106   2.758
 4410SOL     OW14128   1.198   5.290   6.833
 4410SOL    HW114129   1.280   5.233   6.835
 4410SOL    HW214130   1.168   5.302   6.739
 4411SOL     OW14131   3.969   3.951   4.369
 4411SOL    HW114132   3.957   3.901   4.455
 4411SOL    HW214133   4.013   3.892   4.302
 4412SOL     OW14134   4.387   6.129   4.834
 4412SOL    HW114135   4.440   6.058   4.788
 4412SOL    HW214136   4.346   6.091   4.917
 4413SOL     OW14137   5.978   4.947   4.274
 4413SOL    HW114138   5.969   4.989   4.364
 4413SOL    HW214139   6.032   4.863   4.282
 4414SOL     OW14140   3.292   5.034   1.247
 4414SOL    HW114141   3.228   5.111   1.238
 4414SOL    HW214142   3.253   4.953   1.204
 4415SOL     OW14143   4.188   2.613   0.548
 4415SOL    HW114144   4.212   2.651   0.458
 4415SOL    HW214145   4.249   2.651   0.617
 4416SOL     OW14146   3.696   1.122   4.124
 4416SOL    HW114147   3.752   1.204   4.108
 4416SOL    HW214148   3.659   1.125   4.216
 4417SOL     OW14149   5.665   3.969   3.581
 4417SOL    HW114150   5.614   4.000   3.501
 4417SOL    HW214151   5.731   4.040   3.608
 4418SOL     OW14152   6.018   1.876   2.078
 4418SOL    HW114153   6.033   1.972   2.055
 4418SOL    HW214154   6.057   1.856   2.168
 4419SOL     OW14155   5.720   6.114   6.466
 4419SOL    HW114156   5.735   6.083   6.372
 4419SOL    HW214157   5.633   6.079   6.500
 4420SOL     OW14158   4.985   0.740   1.751
 4420SOL    HW114159   4.941   0.650   1.757
 4420SOL    HW214160   5.081   0.729   1.723
 4421SOL     OW14161   2.578   1.388   5.405
 4421SOL    HW114162   2.528   1.470   5.379
 4421SOL    HW214163   2.514   1.322   5.447
 4422SOL     OW14164   2.299   3.904   6.987
 4422SOL    HW114165   2.229   3.949   6.930
 4422SOL    HW214166   2.260   3.822   0.006
 4423SOL     OW14167   0.126   3.166   5.873
 4423SOL    HW114168   0.069   3.142   5.952
 4423SOL    HW214169   0.067   3.183   5.794
 4424SOL     OW14170   5.631   1.137   4.452
 4424SOL    HW114171   5.714   1.082   4.458
 4424SOL    HW214172   5.601   1.143   4.357
 4425SOL     OW14173   2.841   3.868   0.537
 4425SOL    HW114174   2.767   3.811   0.500
 4425SOL    HW214175   2.858   3.944   0.474
 4426SOL     OW14176   6.909   1.636   3.582
 4426SOL    HW114177   6.868   1.691   3.509
 4426SOL    HW214178   6.912   1.541   3.553
 4427SOL     OW14179   0.658   6.428   2.631
 4427SOL    HW114180   0.723   6.361   2.595
 4427SOL    HW214181   0.673   6.440   2.729
 4428SOL     OW14182   3.231   0.510   3.141
 4428SOL    HW114183   3.180   0.506   3.055
 4428SOL    HW214184   3.207   0.432   3.198
 4429SOL     OW14185   2.481   6.440   2.804
 4429SOL    HW114186   2.581   6.436   2.811
 4429SOL    HW214187   2.442   6.354   2.837
 4430SOL     OW14188   4.804   4.025   4.882
 4430SOL    HW114189   4.823   3.930   4.854
 4430SOL    HW214190   4.710   4.048   4.859
 4431SOL     OW14191   2.407   1.142   1.983
 4431SOL    HW114192   2.389   1.076   2.056
 4431SOL    HW214193   2.463   1.217   2.019
 4432SOL     OW14194   2.598   3.267   5.949
 4432SOL    HW114195   2.539   3.334   5.904
 4432SOL    HW214196   2.561   3.175   5.936
 4433SOL     OW14197   4.889   2.023   4.190
 4433SOL    HW114198   4.825   2.043   4.116
 4433SOL    HW214199   4.866   2.077   4.270
 4434SOL     OW14200   5.300   1.450   3.499
 4434SOL    HW114201   5.229   1.380   3.510
 4434SOL    HW214202   5.320   1.462   3.402
 4435SOL     OW14203   4.928   3.168   1.498
 4435SOL    HW114204   4.985   3.247   1.521
 4435SOL    HW214205   4.907   3.117   1.581
 4436SOL     OW14206   4.279   1.408   1.561
 4436SOL    HW114207   4.230   1.323   1.578
 4436SOL    HW214208   4.363   1.411   1.615
 4437SOL     OW14209   6.435   2.109   2.790
 4437SOL    HW114210   6.377   2.068   2.861
 4437SOL    HW214211   6.435   2.050   2.709
 4438SOL     OW14212   5.074   6.848   6.683
 4438SOL    HW114213   5.036   6.831   6.774
 4438SOL    HW214214   5.029   6.788   6.617
 4439SOL     OW14215   0.216   4.196   1.664
 4439SOL    HW114216   0.173   4.126   1.722
 4439SOL    HW214217   0.312   4.173   1.651
 4440SOL     OW14218   2.631   4.826   0.839
 4440SOL    HW114219   2.644   4.837   0.937
 4440SOL    HW214220   2.720   4.827   0.793
 4441SOL     OW14221   0.025   2.062   2.742
 4441SOL    HW114222   0.022   2.010   2.828
 4441SOL    HW214223   0.111   2.042   2.695
 4442SOL     OW14224   2.264   5.204   4.292
 4442SOL    HW114225   2.198   5.188   4.219
 4442SOL    HW214226   2.219   5.252   4.368
 4443SOL     OW14227   0.677   3.565   6.892
 4443SOL    HW114228   0.678   3.465   6.886
 4443SOL    HW214229   0.583   3.598   6.886
 4444SOL     OW14230   3.096   4.348   5.248
 4444SOL    HW114231   3.049   4.420   5.196
 4444SOL    HW214232   3.070   4.259   5.212
 4445SOL     OW14233   1.145   6.553   0.425
 4445SOL    HW114234   1.095   6.520   0.505
 4445SOL    HW214235   1.217   6.616   0.455
 4446SOL     OW14236   5.049   1.000   1.618
 4446SOL    HW114237   4.998   0.956   1.693
 4446SOL    HW214238   4.986   1.022   1.544
 4447SOL     OW14239   5.719   4.132   5.942
 4447SOL    HW114240   5.767   4.045   5.954
 4447SOL    HW214241   5.774   4.206   5.982
 4448SOL     OW14242   2.823   3.991   1.499
 4448SOL    HW114243   2.771   3.934   1.435
 4448SOL    HW214244   2.921   3.980   1.480
 4449SOL     OW14245   5.177   0.706   6.073
 4449SOL    HW114246   5.143   0.771   6.141
 4449SOL    HW214247   5.267   0.735   6.041
 4450SOL     OW14248   3.163   3.182   5.338
 4450SOL    HW114249   3.123   3.160   5.248
 4450SOL    HW214250   3.174   3.281   5.346
 4451SOL     OW14251   6.575   4.669   3.100
 4451SOL    HW114252   6.664   4.624   3.103
 4451SOL    HW214253   6.519   4.630   3.026
 4452SOL     OW14254   4.936   6.281   4.521
 4452SOL    HW114255   5.017   6.259   4.575
 4452SOL    HW214256   4.951   6.367   4.472
 4453SOL     OW14257   1.030   3.058   1.379
 4453SOL    HW114258   1.057   3.153   1.360
 4453SOL    HW214259   0.978   3.022   1.301
 4454SOL     OW14260   1.749   1.996   0.167
 4454SOL    HW114261   1.754   1.965   0.262
 4454SOL    HW214262   1.743   2.095   0.164
 4455SOL     OW14263   4.385   6.136   5.887
 4455SOL    HW114264   4.336   6.104   5.968
 4455SOL    HW214265   4.392   6.061   5.821
 4456SOL     OW14266   2.958   6.249   1.994
 4456SOL    HW114267   2.924   6.195   1.917
 4456SOL    HW214268   2.953   6.195   2.078
 4457SOL     OW14269   4.339   1.092   2.577
 4457SOL    HW114270   4.312   1.090   2.481
 4457SOL    HW214271   4.287   1.163   2.625
 4458SOL     OW14272   1.700   2.500   0.583
 4458SOL    HW114273   1.690   2.533   0.677
 4458SOL    HW214274   1.787   2.532   0.545
 4459SOL     OW14275   4.030   1.167   4.226
 4459SOL    HW114276   3.975   1.220   4.290
 4459SOL    HW214277   4.093   1.228   4.178
 4460SOL     OW14278   2.354   2.599   5.779
 4460SOL    HW114279   2.407   2.684   5.784
 4460SOL    HW214280   2.309   2.594   5.689
 4461SOL     OW14281   1.196   0.120   1.088
 4461SOL    HW114282   1.294   0.125   1.106
 4461SOL    HW214283   1.151   0.201   1.125
 4462SOL     OW14284   5.979   5.064   1.518
 4462SOL    HW114285   6.007   5.108   1.604
 4462SOL    HW214286   5.928   4.981   1.539
 4463SOL     OW14287   5.345   1.324   0.634
 4463SOL    HW114288   5.388   1.364   0.715
 4463SOL    HW214289   5.382   1.367   0.551
 4464SOL     OW14290   0.177   5.441   0.620
 4464SOL    HW114291   0.132   5.530   0.618
 4464SOL    HW214292   0.254   5.445   0.684
 4465SOL     OW14293   2.926   6.056   1.807
 4465SOL    HW114294   2.883   6.093   1.724
 4465SOL    HW214295   2.912   5.957   1.809
 4466SOL     OW14296   1.455   1.761   3.128
 4466SOL    HW114297   1.462   1.842   3.069
 4466SOL    HW214298   1.534   1.701   3.112
 4467SOL     OW14299   1.931   5.901   2.512
 4467SOL    HW114300   1.983   5.917   2.596
 4467SOL    HW214301   1.866   5.826   2.527
 4468SOL     OW14302   2.262   3.789   0.393
 4468SOL    HW114303   2.265   3.703   0.444
 4468SOL    HW214304   2.190   3.847   0.432
 4469SOL     OW14305   3.443   0.443   1.633
 4469SOL    HW114306   3.356   0.490   1.621
 4469SOL    HW214307   3.516   0.510   1.645
 4470SOL     OW14308   6.755   2.234   2.176
 4470SOL    HW114309   6.659   2.260   2.169
 4470SOL    HW214310   6.764   2.156   2.237
 4471SOL     OW14311   0.864   2.154   6.298
 4471SOL    HW114312   0.948   2.177   6.248
 4471SOL    HW214313   0.881   2.161   6.396
 4472SOL     OW14314   1.467   3.555   1.906
 4472SOL    HW114315   1.377   3.588   1.935
 4472SOL    HW214316   1.537   3.589   1.969
 4473SOL     OW14317   5.837   2.732   4.262
 4473SOL    HW114318   5.829   2.683   4.348
 4473SOL    HW214319   5.931   2.765   4.251
 4474SOL     OW14320   2.244   0.620   2.114
 4474SOL    HW114321   2.174   0.689   2.135
 4474SOL    HW214322   2.327   0.666   2.083
 4475SOL     OW14323   1.548   4.016   2.562
 4475SOL    HW114324   1.549   4.106   2.604
 4475SOL    HW214325   1.455   3.978   2.567
 4476SOL     OW14326   4.852   6.838   3.240
 4476SOL    HW114327   4.840   6.757   3.297
 4476SOL    HW214328   4.950   6.851   3.221
 4477SOL     OW14329   1.840   6.889   4.852
 4477SOL    HW114330   1.822   6.936   4.939
 4477SOL    HW214331   1.875   6.798   4.871
 4478SOL     OW14332   3.466   6.850   3.059
 4478SOL    HW114333   3.553   6.842   3.108
 4478SOL    HW214334   3.400   6.786   3.099
 4479SOL     OW14335   0.774   1.745   1.252
 4479SOL    HW114336   0.692   1.691   1.273
 4479SOL    HW214337   0.770   1.831   1.303
 4480SOL     OW14338   1.087   4.509   5.189
 4480SOL    HW114339   1.048   4.597   5.214
 4480SOL    HW214340   1.175   4.497   5.235
 4481SOL     OW14341   3.463   5.954   4.914
 4481SOL    HW114342   3.480   6.049   4.890
 4481SOL    HW214343   3.550   5.906   4.922
 4482SOL     OW14344   1.332   2.942   4.875
 4482SOL    HW114345   1.374   3.026   4.910
 4482SOL    HW214346   1.390   2.903   4.803
 4483SOL     OW14347   5.833   2.497   2.379
 4483SOL    HW114348   5.870   2.510   2.287
 4483SOL    HW214349   5.822   2.586   2.423
 4484SOL     OW14350   2.692   2.298   6.241
 4484SOL    HW114351   2.758   2.369   6.264
 4484SOL    HW214352   2.603   2.320   6.281
 4485SOL     OW14353   5.401   1.485   4.698
 4485SOL    HW114354   5.352   1.445   4.620
 4485SOL    HW214355   5.468   1.551   4.664
 4486SOL     OW14356   5.655   4.971   5.501
 4486SOL    HW114357   5.697   5.002   5.415
 4486SOL    HW214358   5.709   4.896   5.539
 4487SOL     OW14359   2.695   2.641   6.471
 4487SOL    HW114360   2.671   2.720   6.415
 4487SOL    HW214361   2.616   2.612   6.525
 4488SOL     OW14362   0.889   3.423   6.111
 4488SOL    HW114363   0.881   3.495   6.180
 4488SOL    HW214364   0.961   3.360   6.138
 4489SOL     OW14365   5.167   5.376   5.118
 4489SOL    HW114366   5.185   5.405   5.212
 4489SOL    HW214367   5.153   5.456   5.060
 4490SOL     OW14368   6.398   2.389   1.898
 4490SOL    HW114369   6.322   2.327   1.919
 4490SOL    HW214370   6.481   2.356   1.942
 4491SOL     OW14371   6.436   3.098   4.016
 4491SOL    HW114372   6.521   3.095   3.963
 4491SOL    HW214373   6.370   3.158   3.969
 4492SOL     OW14374   6.076   4.702   1.613
 4492SOL    HW114375   6.038   4.611   1.595
 4492SOL    HW214376   6.105   4.707   1.709
 4493SOL     OW14377   4.645   5.373   4.608
 4493SOL    HW114378   4.585   5.315   4.663
 4493SOL    HW214379   4.737   5.333   4.607
 4494SOL     OW14380   0.433   0.979   6.614
 4494SOL    HW114381   0.431   1.053   6.547
 4494SOL    HW214382   0.412   1.015   6.705
 4495SOL     OW14383   3.887   6.477   4.577
 4495SOL    HW114384   3.820   6.414   4.617
 4495SOL    HW214385   3.954   6.426   4.524
 4496SOL     OW14386   5.331   6.355   0.964
 4496SOL    HW114387   5.239   6.388   0.983
 4496SOL    HW214388   5.352   6.368   0.867
 4497SOL     OW14389   5.722   1.799   6.918
 4497SOL    HW114390   5.692   1.704   6.918
 4497SOL    HW214391   5.650   1.857   6.880
 4498SOL     OW14392   0.129   3.344   0.261
 4498SOL    HW114393   0.123   3.331   0.162
 4498SOL    HW214394   0.204   3.290   0.298
 4499SOL     OW14395   5.410   3.871   4.243
 4499SOL    HW114396   5.400   3.954   4.188
 4499SOL    HW214397   5.461   3.802   4.191
 4500SOL     OW14398   3.180   2.987   4.766
 4500SOL    HW114399   3.260   2.926   4.772
 4500SOL    HW214400   3.133   2.988   4.855
 4501SOL     OW14401   6.849   3.416   3.078
 4501SOL    HW114402   6.825   3.462   3.164
 4501SOL    HW214403   6.828   3.478   3.002
 4502SOL     OW14404   0.409   2.704   6.539
 4502SOL    HW114405   0.495   2.701   6.487
 4502SOL    HW214406   0.427   2.736   6.632
 4503SOL     OW14407   3.503   6.932   1.443
 4503SOL    HW114408   3.562   6.976   1.375
 4503SOL    HW214409   3.554   6.922   1.529
 4504SOL     OW14410   6.750   0.998   4.545
 4504SOL    HW114411   6.679   1.051   4.498
 4504SOL    HW214412   6.801   0.944   4.478
 4505SOL     OW14413   6.043   5.203   1.761
 4505SOL    HW114414   6.097   5.279   1.726
 4505SOL    HW214415   5.962   5.238   1.808
 4506SOL     OW14416   4.743   2.790   3.400
 4506SOL    HW114417   4.771   2.884   3.385
 4506SOL    HW214418   4.760   2.765   3.496
 4507SOL     OW14419   5.805   4.626   2.902
 4507SOL    HW114420   5.879   4.560   2.913
 4507SOL    HW214421   5.722   4.592   2.947
 4508SOL     OW14422   1.838   5.580   7.004
 4508SOL    HW114423   1.893   5.611   6.927
 4508SOL    HW214424   1.766   5.647   0.001
 4509SOL     OW14425   4.420   2.357   2.042
 4509SOL    HW114426   4.377   2.353   2.132
 4509SOL    HW214427   4.496   2.291   2.038
 4510SOL     OW14428   3.914   1.651   4.351
 4510SOL    HW114429   3.856   1.714   4.300
 4510SOL    HW214430   4.008   1.685   4.351
 4511SOL     OW14431   6.037   3.692   6.939
 4511SOL    HW114432   5.982   3.608   6.933
 4511SOL    HW214433   6.020   3.737   0.004
 4512SOL     OW14434   2.838   1.743   5.460
 4512SOL    HW114435   2.803   1.799   5.385
 4512SOL    HW214436   2.934   1.719   5.442
 4513SOL     OW14437   0.524   4.787   6.674
 4513SOL    HW114438   0.557   4.779   6.768
 4513SOL    HW214439   0.599   4.815   6.615
 4514SOL     OW14440   3.954   2.109   6.351
 4514SOL    HW114441   3.921   2.175   6.283
 4514SOL    HW214442   4.029   2.149   6.403
 4515SOL     OW14443   0.242   1.731   5.815
 4515SOL    HW114444   0.177   1.679   5.760
 4515SOL    HW214445   0.305   1.781   5.755
 4516SOL     OW14446   1.710   0.204   0.322
 4516SOL    HW114447   1.648   0.130   0.297
 4516SOL    HW214448   1.674   0.291   0.287
 4517SOL     OW14449   4.317   0.959   6.634
 4517SOL    HW114450   4.416   0.968   6.642
 4517SOL    HW214451   4.278   1.049   6.615
 4518SOL     OW14452   0.167   0.130   2.566
 4518SOL    HW114453   0.266   0.135   2.583
 4518SOL    HW214454   0.151   0.086   2.477
 4519SOL     OW14455   0.043   6.912   1.355
 4519SOL    HW114456   7.019   6.975   1.292
 4519SOL    HW214457   0.000   6.822   1.349
 4520SOL     OW14458   4.439   6.485   4.649
 4520SOL    HW114459   4.521   6.427   4.643
 4520SOL    HW214460   4.463   6.574   4.686
 4521SOL     OW14461   6.832   2.186   4.738
 4521SOL    HW114462   6.889   2.189   4.819
 4521SOL    HW214463   6.736   2.183   4.765
 4522SOL     OW14464   5.344   5.536   3.527
 4522SOL    HW114465   5.314   5.627   3.501
 4522SOL    HW214466   5.404   5.499   3.456
 4523SOL     OW14467   0.905   4.690   0.002
 4523SOL    HW114468   0.876   4.729   0.090
 4523SOL    HW214469   1.001   4.711   7.008
 4524SOL     OW14470   6.131   2.701   2.192
 4524SOL    HW114471   6.051   2.643   2.208
 4524SOL    HW214472   6.214   2.650   2.211
 4525SOL     OW14473   4.386   1.996   5.910
 4525SOL    HW114474   4.455   1.972   5.842
 4525SOL    HW214475   4.319   1.922   5.918
 4526SOL     OW14476   6.864   0.060   0.401
 4526SOL    HW114477   6.831   6.990   0.420
 4526SOL    HW214478   6.822   0.124   0.466
 4527SOL     OW14479   5.867   1.487   3.590
 4527SOL    HW114480   5.822   1.457   3.674
 4527SOL    HW214481   5.890   1.408   3.534
 4528SOL     OW14482   4.730   0.407   0.483
 4528SOL    HW114483   4.813   0.462   0.489
 4528SOL    HW214484   4.752   0.317   0.443
 4529SOL     OW14485   2.010   0.418   5.128
 4529SOL    HW114486   2.029   0.334   5.077
 4529SOL    HW214487   1.923   0.409   5.176
 4530SOL     OW14488   1.836   5.082   4.409
 4530SOL    HW114489   1.926   5.044   4.433
 4530SOL    HW214490   1.774   5.074   4.487
 4531SOL     OW14491   0.733   2.896   5.169
 4531SOL    HW114492   0.774   2.813   5.206
 4531SOL    HW214493   0.681   2.943   5.241
 4532SOL     OW14494   6.476   1.299   2.220
 4532SOL    HW114495   6.545   1.342   2.162
 4532SOL    HW214496   6.399   1.362   2.233
 4533SOL     OW14497   1.249   1.875   1.718
 4533SOL    HW114498   1.323   1.820   1.680
 4533SOL    HW214499   1.242   1.961   1.668
 4534SOL     OW14500   4.744   4.392   4.442
 4534SOL    HW114501   4.654   4.412   4.402
 4534SOL    HW214502   4.748   4.428   4.535
 4535SOL     OW14503   3.268   1.118   2.265
 4535SOL    HW114504   3.221   1.035   2.233
 4535SOL    HW214505   3.238   1.141   2.357
 4536SOL     OW14506   4.203   1.626   4.647
 4536SOL    HW114507   4.180   1.573   4.729
 4536SOL    HW214508   4.271   1.695   4.670
 4537SOL     OW14509   4.261   3.538   0.253
 4537SOL    HW114510   4.354   3.549   0.286
 4537SOL    HW214511   4.224   3.451   0.285
 4538SOL     OW14512   1.706   0.011   2.872
 4538SOL    HW114513   1.781   0.074   2.852
 4538SOL    HW214514   1.633   0.059   2.919
 4539SOL     OW14515   3.234   6.373   4.750
 4539SOL    HW114516   3.237   6.394   4.847
 4539SOL    HW214517   3.245   6.458   4.697
 4540SOL     OW14518   2.406   2.341   6.274
 4540SOL    HW114519   2.400   2.314   6.178
 4540SOL    HW214520   2.391   2.439   6.283
 4541SOL     OW14521   5.701   1.873   0.170
 4541SOL    HW114522   5.674   1.888   0.075
 4541SOL    HW214523   5.801   1.872   0.177
 4542SOL     OW14524   6.799   1.442   1.732
 4542SOL    HW114525   6.799   1.539   1.756
 4542SOL    HW214526   6.743   1.428   1.650
 4543SOL     OW14527   4.768   1.951   1.978
 4543SOL    HW114528   4.780   1.853   1.995
 4543SOL    HW214529   4.757   1.967   1.880
 4544SOL     OW14530   3.601   5.829   6.612
 4544SOL    HW114531   3.515   5.821   6.662
 4544SOL    HW214532   3.676   5.846   6.676
 4545SOL     OW14533   5.665   3.282   4.566
 4545SOL    HW114534   5.612   3.206   4.604
 4545SOL    HW214535   5.760   3.255   4.553
 4546SOL     OW14536   1.333   1.076   4.710
 4546SOL    HW114537   1.380   1.136   4.644
 4546SOL    HW214538   1.240   1.110   4.725
 4547SOL     OW14539   6.570   2.091   1.394
 4547SOL    HW114540   6.508   2.016   1.370
 4547SOL    HW214541   6.557   2.116   1.490
 4548SOL     OW14542   1.288   3.471   4.051
 4548SOL    HW114543   1.277   3.568   4.030
 4548SOL    HW214544   1.308   3.420   3.967
 4549SOL     OW14545   6.934   4.344   1.855
 4549SOL    HW114546   7.002   4.365   1.926
 4549SOL    HW214547   6.977   4.350   1.765
 4550SOL     OW14548   0.912   5.200   3.277
 4550SOL    HW114549   0.885   5.187   3.372
 4550SOL    HW214550   0.831   5.219   3.221
 4551SOL     OW14551   6.934   3.306   4.667
 4551SOL    HW114552   6.872   3.300   4.745
 4551SOL    HW214553   6.883   3.326   4.584
 4552SOL     OW14554   6.763   2.841   1.704
 4552SOL    HW114555   6.742   2.808   1.796
 4552SOL    HW214556   6.726   2.933   1.692
 4553SOL     OW14557   3.545   4.573   6.803
 4553SOL    HW114558   3.466   4.620   6.764
 4553SOL    HW214559   3.626   4.632   6.794
 4554SOL     OW14560   6.237   6.415   1.135
 4554SOL    HW114561   6.192   6.346   1.079
 4554SOL    HW214562   6.324   6.441   1.094
 4555SOL     OW14563   2.570   2.128   5.249
 4555SOL    HW114564   2.509   2.085   5.315
 4555SOL    HW214565   2.649   2.166   5.297
 4556SOL     OW14566   5.473   2.957   4.008
 4556SOL    HW114567   5.399   3.017   3.979
 4556SOL    HW214568   5.531   3.006   4.073
 4557SOL     OW14569   4.941   6.343   5.464
 4557SOL    HW114570   5.023   6.314   5.414
 4557SOL    HW214571   4.952   6.323   5.561
 4558SOL     OW14572   0.168   4.348   5.365
 4558SOL    HW114573   0.078   4.368   5.328
 4558SOL    HW214574   0.231   4.422   5.341
 4559SOL     OW14575   0.686   3.942   1.954
 4559SOL    HW114576   0.682   3.848   1.987
 4559SOL    HW214577   0.763   3.951   1.890
 4560SOL     OW14578   5.408   4.197   1.924
 4560SOL    HW114579   5.465   4.131   1.975
 4560SOL    HW214580   5.340   4.147   1.870
 4561SOL     OW14581   2.422   1.853   3.262
 4561SOL    HW114582   2.471   1.798   3.194
 4561SOL    HW214583   2.367   1.922   3.214
 4562SOL     OW14584   2.317   6.320   6.079
 4562SOL    HW114585   2.351   6.357   5.993
 4562SOL    HW214586   2.293   6.224   6.067
 4563SOL     OW14587   0.249   2.727   0.795
 4563SOL    HW114588   0.308   2.646   0.800
 4563SOL    HW214589   0.153   2.699   0.798
 4564SOL     OW14590   6.906   5.568   1.735
 4564SOL    HW114591   6.983   5.615   1.778
 4564SOL    HW214592   6.933   5.475   1.710
 4565SOL     OW14593   0.589   1.003   5.069
 4565SOL    HW114594   0.574   0.927   5.006
 4565SOL    HW214595   0.678   1.044   5.051
 4566SOL     OW14596   6.900   2.837   0.387
 4566SOL    HW114597   6.890   2.924   0.340
 4566SOL    HW214598   6.817   2.816   0.438
 4567SOL     OW14599   6.231   1.325   5.999
 4567SOL    HW114600   6.181   1.301   5.916
 4567SOL    HW214601   6.315   1.374   5.974
 4568SOL     OW14602   2.195   3.118   6.011
 4568SOL    HW114603   2.250   3.038   6.037
 4568SOL    HW214604   2.138   3.095   5.932
 4569SOL     OW14605   2.094   1.714   3.038
 4569SOL    HW114606   2.022   1.665   2.988
 4569SOL    HW214607   2.183   1.675   3.014
 4570SOL     OW14608   6.990   6.630   2.713
 4570SOL    HW114609   0.007   6.688   2.784
 4570SOL    HW214610   6.919   6.680   2.664
 4571SOL     OW14611   4.253   4.465   6.388
 4571SOL    HW114612   4.264   4.563   6.373
 4571SOL    HW214613   4.230   4.420   6.301
 4572SOL     OW14614   2.164   0.433   6.557
 4572SOL    HW114615   2.169   0.442   6.656
 4572SOL    HW214616   2.117   0.347   6.534
 4573SOL     OW14617   6.383   0.156   0.809
 4573SOL    HW114618   6.383   0.225   0.881
 4573SOL    HW214619   6.289   0.138   0.780
 4574SOL     OW14620   5.810   3.770   0.626
 4574SOL    HW114621   5.737   3.837   0.612
 4574SOL    HW214622   5.865   3.798   0.705
 4575SOL     OW14623   5.565   1.088   6.078
 4575SOL    HW114624   5.629   1.011   6.077
 4575SOL    HW214625   5.496   1.075   6.007
 4576SOL     OW14626   2.722   6.164   5.675
 4576SOL    HW114627   2.801   6.203   5.722
 4576SOL    HW214628   2.667   6.238   5.636
 4577SOL     OW14629   1.168   1.979   4.453
 4577SOL    HW114630   1.213   1.895   4.485
 4577SOL    HW214631   1.219   2.016   4.375
 4578SOL     OW14632   0.597   3.037   5.359
 4578SOL    HW114633   0.674   3.033   5.423
 4578SOL    HW214634   0.513   3.056   5.410
 4579SOL     OW14635   3.915   0.563   3.339
 4579SOL    HW114636   3.912   0.654   3.380
 4579SOL    HW214637   3.859   0.560   3.257
 4580SOL     OW14638   5.765   4.630   0.637
 4580SOL    HW114639   5.734   4.541   0.604
 4580SOL    HW214640   5.686   4.688   0.656
 4581SOL     OW14641   2.450   5.234   2.838
 4581SOL    HW114642   2.367   5.180   2.826
 4581SOL    HW214643   2.497   5.204   2.921
 4582SOL     OW14644   5.137   0.156   5.073
 4582SOL    HW114645   5.087   0.085   5.023
 4582SOL    HW214646   5.211   0.192   5.015
 4583SOL     OW14647   2.747   2.278   6.592
 4583SOL    HW114648   2.654   2.253   6.617
 4583SOL    HW214649   2.777   2.355   6.649
 4584SOL     OW14650   0.119   4.152   5.567
 4584SOL    HW114651   0.126   4.070   5.510
 4584SOL    HW214652   0.111   4.232   5.509
 4585SOL     OW14653   2.711   6.049   3.731
 4585SOL    HW114654   2.697   6.114   3.805
 4585SOL    HW214655   2.634   5.985   3.728
 4586SOL     OW14656   4.111   4.954   0.547
 4586SOL    HW114657   4.143   4.917   0.460
 4586SOL    HW214658   4.049   4.888   0.590
 4587SOL     OW14659   3.631   4.024   3.328
 4587SOL    HW114660   3.678   4.030   3.240
 4587SOL    HW214661   3.695   3.988   3.397
 4588SOL     OW14662   2.439   3.579   5.436
 4588SOL    HW114663   2.477   3.486   5.437
 4588SOL    HW214664   2.510   3.644   5.411
 4589SOL     OW14665   6.563   0.985   2.286
 4589SOL    HW114666   6.526   1.072   2.253
 4589SOL    HW214667   6.592   0.995   2.381
 4590SOL     OW14668   4.824   5.675   0.926
 4590SOL    HW114669   4.866   5.766   0.920
 4590SOL    HW214670   4.791   5.648   0.835
 4591SOL     OW14671   1.286   6.911   4.297
 4591SOL    HW114672   1.289   6.811   4.306
 4591SOL    HW214673   1.305   6.952   4.387
 4592SOL     OW14674   2.467   1.633   2.462
 4592SOL    HW114675   2.392   1.569   2.479
 4592SOL    HW214676   2.533   1.628   2.537
 4593SOL     OW14677   5.307   5.750   2.784
 4593SOL    HW114678   5.232   5.813   2.763
 4593SOL    HW214679   5.349   5.719   2.699
 4594SOL     OW14680   2.819   1.361   3.122
 4594SOL    HW114681   2.765   1.311   3.190
 4594SOL    HW214682   2.814   1.459   3.142
 4595SOL     OW14683   4.235   3.329   5.694
 4595SOL    HW114684   4.321   3.375   5.672
 4595SOL    HW214685   4.246   3.276   5.778
 4596SOL     OW14686   5.957   0.313   1.934
 4596SOL    HW114687   6.006   0.399   1.918
 4596SOL    HW214688   5.951   0.296   2.032
 4597SOL     OW14689   3.855   5.533   6.359
 4597SOL    HW114690   3.820   5.510   6.450
 4597SOL    HW214691   3.950   5.502   6.351
 4598SOL     OW14692   1.545   6.132   0.170
 4598SOL    HW114693   1.564   6.227   0.196
 4598SOL    HW214694   1.610   6.102   0.100
 4599SOL     OW14695   1.762   4.684   0.313
 4599SOL    HW114696   1.845   4.663   0.260
 4599SOL    HW214697   1.701   4.740   0.257
 4600SOL     OW14698   1.485   5.404   5.479
 4600SOL    HW114699   1.409   5.366   5.532
 4600SOL    HW214700   1.564   5.343   5.485
 4601SOL     OW14701   1.948   1.420   5.109
 4601SOL    HW114702   1.968   1.333   5.154
 4601SOL    HW214703   1.929   1.489   5.179
 4602SOL     OW14704   2.843   6.510   1.157
 4602SOL    HW114705   2.902   6.460   1.221
 4602SOL    HW214706   2.900   6.569   1.099
 4603SOL     OW14707   3.290   6.280   0.454
 4603SOL    HW114708   3.343   6.197   0.469
 4603SOL    HW214709   3.316   6.349   0.522
 4604SOL     OW14710   4.960   0.124   6.919
 4604SOL    HW114711   4.948   0.031   6.953
 4604SOL    HW214712   4.999   0.181   6.992
 4605SOL     OW14713   1.987   6.711   2.447
 4605SOL    HW114714   2.038   6.656   2.514
 4605SOL    HW214715   1.952   6.652   2.375
 4606SOL     OW14716   0.675   6.481   2.376
 4606SOL    HW114717   0.666   6.404   2.313
 4606SOL    HW214718   0.679   6.446   2.470
 4607SOL     OW14719   1.685   3.610   1.618
 4607SOL    HW114720   1.620   3.534   1.628
 4607SOL    HW214721   1.644   3.683   1.565
 4608SOL     OW14722   0.748   6.094   3.720
 4608SOL    HW114723   0.769   6.008   3.675
 4608SOL    HW214724   0.701   6.155   3.656
 4609SOL     OW14725   4.419   5.282   6.481
 4609SOL    HW114726   4.402   5.363   6.538
 4609SOL    HW214727   4.418   5.201   6.539
 4610SOL     OW14728   4.964   1.893   0.776
 4610SOL    HW114729   4.897   1.961   0.806
 4610SOL    HW214730   4.945   1.866   0.682
 4611SOL     OW14731   0.729   6.240   6.080
 4611SOL    HW114732   0.684   6.201   6.160
 4611SOL    HW214733   0.684   6.325   6.054
 4612SOL     OW14734   1.015   6.328   0.098
 4612SOL    HW114735   1.014   6.419   0.140
 4612SOL    HW214736   1.097   6.320   0.041
 4613SOL     OW14737   1.813   5.595   1.821
 4613SOL    HW114738   1.781   5.528   1.888
 4613SOL    HW214739   1.860   5.669   1.869
 4614SOL     OW14740   6.240   3.373   3.204
 4614SOL    HW114741   6.291   3.421   3.276
 4614SOL    HW214742   6.303   3.347   3.131
 4615SOL     OW14743   1.978   0.694   6.603
 4615SOL    HW114744   2.042   0.650   6.666
 4615SOL    HW214745   2.027   0.763   6.550
 4616SOL     OW14746   6.126   1.368   4.570
 4616SOL    HW114747   6.056   1.432   4.539
 4616SOL    HW214748   6.162   1.318   4.491
 4617SOL     OW14749   0.585   2.381   2.308
 4617SOL    HW114750   0.631   2.296   2.286
 4617SOL    HW214751   0.643   2.436   2.368
 4618SOL     OW14752   2.412   2.703   5.214
 4618SOL    HW114753   2.431   2.791   5.171
 4618SOL    HW214754   2.316   2.678   5.199
 4619SOL     OW14755   3.389   6.461   3.622
 4619SOL    HW114756   3.327   6.497   3.553
 4619SOL    HW214757   3.469   6.420   3.577
 4620SOL     OW14758   2.698   5.135   0.846
 4620SOL    HW114759   2.625   5.120   0.912
 4620SOL    HW214760   2.681   5.220   0.796
 4621SOL     OW14761   4.999   0.452   2.825
 4621SOL    HW114762   4.961   0.370   2.867
 4621SOL    HW214763   4.946   0.476   2.744
 4622SOL     OW14764   3.002   4.609   0.548
 4622SOL    HW114765   3.033   4.515   0.561
 4622SOL    HW214766   2.999   4.656   0.636
 4623SOL     OW14767   5.543   5.990   1.116
 4623SOL    HW114768   5.561   5.944   1.203
 4623SOL    HW214769   5.625   6.040   1.088
 4624SOL     OW14770   3.698   6.785   3.182
 4624SOL    HW114771   3.702   6.685   3.183
 4624SOL    HW214772   3.785   6.822   3.149
 4625SOL     OW14773   2.003   4.261   1.471
 4625SOL    HW114774   2.018   4.359   1.462
 4625SOL    HW214775   1.937   4.243   1.544
 4626SOL     OW14776   5.593   4.441   2.075
 4626SOL    HW114777   5.571   4.395   2.161
 4626SOL    HW214778   5.561   4.385   1.998
 4627SOL     OW14779   1.900   4.626   4.925
 4627SOL    HW114780   1.965   4.551   4.915
 4627SOL    HW214781   1.911   4.690   4.849
 4628SOL     OW14782   5.496   4.030   3.797
 4628SOL    HW114783   5.554   4.015   3.717
 4628SOL    HW214784   5.553   4.044   3.878
 4629SOL     OW14785   2.829   5.045   5.561
 4629SOL    HW114786   2.846   5.035   5.659
 4629SOL    HW214787   2.755   4.984   5.534
 4630SOL     OW14788   2.868   6.480   2.229
 4630SOL    HW114789   2.800   6.479   2.302
 4630SOL    HW214790   2.823   6.464   2.141
 4631SOL     OW14791   1.786   5.874   3.773
 4631SOL    HW114792   1.742   5.817   3.843
 4631SOL    HW214793   1.886   5.866   3.781
 4632SOL     OW14794   3.059   4.829   2.466
 4632SOL    HW114795   3.020   4.810   2.376
 4632SOL    HW214796   2.997   4.796   2.537
 4633SOL     OW14797   5.972   0.819   4.956
 4633SOL    HW114798   5.987   0.799   5.052
 4633SOL    HW214799   5.878   0.793   4.931
 4634SOL     OW14800   2.989   4.142   5.757
 4634SOL    HW114801   2.924   4.188   5.697
 4634SOL    HW214802   2.939   4.089   5.826
 4635SOL     OW14803   5.072   3.581   1.694
 4635SOL    HW114804   5.150   3.642   1.678
 4635SOL    HW214805   5.032   3.600   1.784
 4636SOL     OW14806   1.880   4.537   0.112
 4636SOL    HW114807   1.957   4.480   0.142
 4636SOL    HW214808   1.794   4.494   0.141
 4637SOL     OW14809   0.885   6.116   1.286
 4637SOL    HW114810   0.823   6.095   1.210
 4637SOL    HW214811   0.958   6.048   1.288
 4638SOL     OW14812   4.034   4.695   6.873
 4638SOL    HW114813   4.096   4.670   6.798
 4638SOL    HW214814   3.960   4.752   6.837
 4639SOL     OW14815   3.624   3.421   5.838
 4639SOL    HW114816   3.662   3.440   5.929
 4639SOL    HW214817   3.529   3.452   5.835
 4640SOL     OW14818   4.816   3.860   3.781
 4640SOL    HW114819   4.828   3.812   3.694
 4640SOL    HW214820   4.848   3.802   3.856
 4641SOL     OW14821   2.277   0.475   4.504
 4641SOL    HW114822   2.322   0.408   4.445
 4641SOL    HW214823   2.188   0.498   4.466
 4642SOL     OW14824   1.305   6.449   4.176
 4642SOL    HW114825   1.215   6.408   4.190
 4642SOL    HW214826   1.374   6.397   4.227
 4643SOL     OW14827   6.574   2.185   0.525
 4643SOL    HW114828   6.493   2.147   0.569
 4643SOL    HW214829   6.647   2.196   0.592
 4644SOL     OW14830   0.404   5.410   5.649
 4644SOL    HW114831   0.399   5.312   5.670
 4644SOL    HW214832   0.423   5.461   5.733
 4645SOL     OW14833   0.319   0.045   3.870
 4645SOL    HW114834   0.294   7.010   3.792
 4645SOL    HW214835   0.392   0.108   3.843
 4646SOL     OW14836   2.295   5.669   3.682
 4646SOL    HW114837   2.358   5.595   3.660
 4646SOL    HW214838   2.317   5.707   3.772
 4647SOL     OW14839   1.858   6.946   3.095
 4647SOL    HW114840   1.772   6.948   3.044
 4647SOL    HW214841   1.935   6.955   3.031
 4648SOL     OW14842   3.496   0.946   2.691
 4648SOL    HW114843   3.546   0.864   2.719
 4648SOL    HW214844   3.558   1.024   2.689
 4649SOL     OW14845   4.991   0.856   0.006
 4649SOL    HW114846   4.982   0.756   0.001
 4649SOL    HW214847   4.949   0.888   0.091
 4650SOL     OW14848   4.900   5.626   2.807
 4650SOL    HW114849   4.836   5.549   2.803
 4650SOL    HW214850   4.960   5.624   2.727
 4651SOL     OW14851   6.195   3.103   0.081
 4651SOL    HW114852   6.214   3.071   7.010
 4651SOL    HW214853   6.255   3.056   0.146
 4652SOL     OW14854   6.397   6.345   4.199
 4652SOL    HW114855   6.389   6.268   4.262
 4652SOL    HW214856   6.427   6.426   4.250
 4653SOL     OW14857   5.004   5.495   0.981
 4653SOL    HW114858   5.075   5.540   1.035
 4653SOL    HW214859   4.932   5.561   0.959
 4654SOL     OW14860   0.386   6.732   0.447
 4654SOL    HW114861   0.368   6.638   0.420
 4654SOL    HW214862   0.398   6.788   0.365
 4655SOL     OW14863   5.758   4.169   1.113
 4655SOL    HW114864   5.794   4.196   1.024
 4655SOL    HW214865   5.725   4.250   1.161
 4656SOL     OW14866   1.083   0.242   2.485
 4656SOL    HW114867   1.067   0.337   2.511
 4656SOL    HW214868   1.117   0.238   2.391
 4657SOL     OW14869   4.254   5.814   1.844
 4657SOL    HW114870   4.286   5.840   1.935
 4657SOL    HW214871   4.172   5.868   1.822
 4658SOL     OW14872   3.841   0.879   3.127
 4658SOL    HW114873   3.861   0.797   3.073
 4658SOL    HW214874   3.887   0.873   3.215
 4659SOL     OW14875   3.355   4.612   5.486
 4659SOL    HW114876   3.449   4.643   5.470
 4659SOL    HW214877   3.339   4.527   5.436
 4660SOL     OW14878   0.806   4.577   5.565
 4660SOL    HW114879   0.761   4.572   5.654
 4660SOL    HW214880   0.746   4.539   5.495
 4661SOL     OW14881   3.066   4.606   6.149
 4661SOL    HW114882   3.125   4.532   6.180
 4661SOL    HW214883   3.059   4.603   6.049
 4662SOL     OW14884   3.275   0.123   5.307
 4662SOL    HW114885   3.322   0.209   5.326
 4662SOL    HW214886   3.280   0.103   5.209
 4663SOL     OW14887   0.328   1.573   1.238
 4663SOL    HW114888   0.286   1.493   1.280
 4663SOL    HW214889   0.262   1.647   1.231
 4664SOL     OW14890   1.730   0.963   1.096
 4664SOL    HW114891   1.682   0.875   1.087
 4664SOL    HW214892   1.767   0.989   1.007
 4665SOL     OW14893   3.297   6.552   6.706
 4665SOL    HW114894   3.284   6.528   6.802
 4665SOL    HW214895   3.228   6.506   6.650
 4666SOL     OW14896   2.013   2.661   0.257
 4666SOL    HW114897   2.007   2.594   0.184
 4666SOL    HW214898   1.956   2.740   0.235
 4667SOL     OW14899   6.683   3.539   1.996
 4667SOL    HW114900   6.635   3.509   2.078
 4667SOL    HW214901   6.667   3.636   1.982
 4668SOL     OW14902   4.317   2.168   3.235
 4668SOL    HW114903   4.322   2.073   3.206
 4668SOL    HW214904   4.330   2.229   3.157
 4669SOL     OW14905   4.658   6.395   6.987
 4669SOL    HW114906   4.586   6.453   0.005
 4669SOL    HW214907   4.689   6.330   0.034
 4670SOL     OW14908   1.986   2.348   5.693
 4670SOL    HW114909   1.944   2.335   5.603
 4670SOL    HW214910   1.967   2.441   5.725
 4671SOL     OW14911   6.890   2.991   0.144
 4671SOL    HW114912   6.877   2.904   0.097
 4671SOL    HW214913   6.893   3.066   0.077
 4672SOL     OW14914   2.637   4.873   5.477
 4672SOL    HW114915   2.701   4.818   5.424
 4672SOL    HW214916   2.544   4.845   5.455
 4673SOL     OW14917   5.119   6.982   2.280
 4673SOL    HW114918   5.211   6.947   2.299
 4673SOL    HW214919   5.090   0.018   2.356
 4674SOL     OW14920   5.149   0.887   6.300
 4674SOL    HW114921   5.087   0.949   6.348
 4674SOL    HW214922   5.231   0.872   6.356
 4675SOL     OW14923   2.513   1.182   6.743
 4675SOL    HW114924   2.506   1.266   6.689
 4675SOL    HW214925   2.438   1.178   6.809
 4676SOL     OW14926   6.840   6.324   4.199
 4676SOL    HW114927   6.776   6.297   4.272
 4676SOL    HW214928   6.931   6.336   4.238
 4677SOL     OW14929   2.251   1.225   6.592
 4677SOL    HW114930   2.265   1.132   6.625
 4677SOL    HW214931   2.337   1.261   6.556
 4678SOL     OW14932   1.776   4.347   3.349
 4678SOL    HW114933   1.708   4.346   3.276
 4678SOL    HW214934   1.862   4.386   3.316
 4679SOL     OW14935   3.473   1.217   0.097
 4679SOL    HW114936   3.443   1.121   0.097
 4679SOL    HW214937   3.398   1.275   0.067
 4680SOL     OW14938   2.739   1.369   0.498
 4680SOL    HW114939   2.823   1.337   0.542
 4680SOL    HW214940   2.719   1.462   0.528
 4681SOL     OW14941   5.060   6.148   5.994
 4681SOL    HW114942   5.147   6.108   5.966
 4681SOL    HW214943   5.076   6.213   6.069
 4682SOL     OW14944   4.354   4.360   5.750
 4682SOL    HW114945   4.431   4.340   5.690
 4682SOL    HW214946   4.289   4.420   5.703
 4683SOL     OW14947   4.004   4.818   2.815
 4683SOL    HW114948   4.053   4.817   2.902
 4683SOL    HW214949   3.906   4.820   2.832
 4684SOL     OW14950   6.631   1.878   5.540
 4684SOL    HW114951   6.589   1.807   5.597
 4684SOL    HW214952   6.730   1.874   5.548
 4685SOL     OW14953   0.768   6.372   5.317
 4685SOL    HW114954   0.835   6.446   5.309
 4685SOL    HW214955   0.802   6.291   5.269
 4686SOL     OW14956   4.616   4.968   6.882
 4686SOL    HW114957   4.702   4.976   6.832
 4686SOL    HW214958   4.604   4.874   6.913
 4687SOL     OW14959   6.622   3.834   4.890
 4687SOL    HW114960   6.546   3.836   4.954
 4687SOL    HW214961   6.708   3.845   4.939
 4688SOL     OW14962   6.394   3.796   5.028
 4688SOL    HW114963   6.332   3.816   5.103
 4688SOL    HW214964   6.399   3.697   5.014
 4689SOL     OW14965   6.034   0.367   0.638
 4689SOL    HW114966   6.020   0.465   0.624
 4689SOL    HW214967   5.995   0.340   0.726
 4690SOL     OW14968   1.207   0.517   6.978
 4690SOL    HW114969   1.218   0.434   6.922
 4690SOL    HW214970   1.286   0.529   0.015
 4691SOL     OW14971   2.866   5.089   1.921
 4691SOL    HW114972   2.818   5.164   1.873
 4691SOL    HW214973   2.833   5.001   1.885
 4692SOL     OW14974   5.859   5.326   1.930
 4692SOL    HW114975   5.949   5.362   1.958
 4692SOL    HW214976   5.801   5.314   2.010
 4693SOL     OW14977   1.048   0.987   3.345
 4693SOL    HW114978   0.949   0.975   3.357
 4693SOL    HW214979   1.089   0.899   3.321
 4694SOL     OW14980   2.194   0.251   0.215
 4694SOL    HW114981   2.166   0.329   0.271
 4694SOL    HW214982   2.262   0.197   0.265
 4695SOL     OW14983   1.985   3.794   1.616
 4695SOL    HW114984   2.033   3.717   1.575
 4695SOL    HW214985   2.006   3.799   1.714
 4696SOL     OW14986   0.187   4.119   6.397
 4696SOL    HW114987   0.188   4.026   6.434
 4696SOL    HW214988   0.228   4.181   6.463
 4697SOL     OW14989   2.216   3.296   0.789
 4697SOL    HW114990   2.292   3.283   0.726
 4697SOL    HW214991   2.198   3.394   0.800
 4698SOL     OW14992   4.622   5.869   3.506
 4698SOL    HW114993   4.522   5.865   3.503
 4698SOL    HW214994   4.651   5.960   3.536
 4699SOL     OW14995   1.692   6.859   1.907
 4699SOL    HW114996   1.649   6.949   1.917
 4699SOL    HW214997   1.722   6.848   1.812
 4700SOL     OW14998   6.737   1.853   2.713
 4700SOL    HW114999   6.714   1.944   2.678
 4700SOL    HW215000   6.788   1.862   2.798
 4701SOL     OW15001   2.255   2.296   7.011
 4701SOL    HW115002   2.311   2.287   0.071
 4701SOL    HW215003   2.273   2.218   6.951
 4702SOL     OW15004   5.055   4.729   6.319
 4702SOL    HW115005   4.985   4.795   6.346
 4702SOL    HW215006   5.043   4.706   6.222
 4703SOL     OW15007   0.929   1.548   1.459
 4703SOL    HW115008   0.937   1.572   1.556
 4703SOL    HW215009   0.848   1.591   1.420
 4704SOL     OW15010   1.294   6.935   0.341
 4704SOL    HW115011   1.305   6.940   0.241
 4704SOL    HW215012   1.246   7.016   0.373
 4705SOL     OW15013   3.142   3.323   1.875
 4705SOL    HW115014   3.097   3.240   1.908
 4705SOL    HW215015   3.129   3.330   1.776
 4706SOL     OW15016   3.737   0.061   6.918
 4706SOL    HW115017   3.712   7.000   6.967
 4706SOL    HW215018   3.680   0.070   6.836
 4707SOL     OW15019   1.948   6.114   1.368
 4707SOL    HW115020   1.872   6.173   1.397
 4707SOL    HW215021   1.972   6.052   1.442
 4708SOL     OW15022   1.170   1.778   6.506
 4708SOL    HW115023   1.194   1.736   6.418
 4708SOL    HW215024   1.098   1.724   6.550
 4709SOL     OW15025   4.670   5.987   5.787
 4709SOL    HW115026   4.760   6.017   5.756
 4709SOL    HW215027   4.602   6.009   5.717
 4710SOL     OW15028   3.679   1.183   5.160
 4710SOL    HW115029   3.680   1.107   5.225
 4710SOL    HW215030   3.598   1.240   5.177
 4711SOL     OW15031   5.343   0.966   1.424
 4711SOL    HW115032   5.397   0.915   1.491
 4711SOL    HW215033   5.269   1.014   1.472
 4712SOL     OW15034   2.891   4.395   0.294
 4712SOL    HW115035   2.819   4.415   0.360
 4712SOL    HW215036   2.966   4.347   0.339
 4713SOL     OW15037   3.152   3.137   0.627
 4713SOL    HW115038   3.104   3.122   0.713
 4713SOL    HW215039   3.099   3.200   0.569
 4714SOL     OW15040   1.390   2.558   6.753
 4714SOL    HW115041   1.424   2.560   6.659
 4714SOL    HW215042   1.365   2.465   6.778
 4715SOL     OW15043   6.744   2.998   2.426
 4715SOL    HW115044   6.705   2.927   2.485
 4715SOL    HW215045   6.819   3.043   2.474
 4716SOL     OW15046   4.927   5.932   6.525
 4716SOL    HW115047   4.908   6.015   6.472
 4716SOL    HW215048   4.849   5.912   6.584
 4717SOL     OW15049   0.541   6.765   3.613
 4717SOL    HW115050   0.496   6.676   3.621
 4717SOL    HW215051   0.471   6.837   3.615
 4718SOL     OW15052   5.749   2.248   1.196
 4718SOL    HW115053   5.705   2.322   1.246
 4718SOL    HW215054   5.693   2.223   1.117
 4719SOL     OW15055   5.269   3.314   2.341
 4719SOL    HW115056   5.249   3.364   2.257
 4719SOL    HW215057   5.276   3.216   2.321
 4720SOL     OW15058   2.332   5.208   5.884
 4720SOL    HW115059   2.252   5.207   5.824
 4720SOL    HW215060   2.407   5.159   5.841
 4721SOL     OW15061   6.778   2.382   1.547
 4721SOL    HW115062   6.848   2.444   1.513
 4721SOL    HW215063   6.699   2.435   1.579
 4722SOL     OW15064   0.756   6.033   6.472
 4722SOL    HW115065   0.743   6.008   6.569
 4722SOL    HW215066   0.674   6.007   6.421
 4723SOL     OW15067   1.728   3.816   5.955
 4723SOL    HW115068   1.791   3.892   5.941
 4723SOL    HW215069   1.778   3.736   5.986
 4724SOL     OW15070   5.608   6.257   3.009
 4724SOL    HW115071   5.689   6.201   3.027
 4724SOL    HW215072   5.616   6.298   2.918
 4725SOL     OW15073   6.204   5.696   2.901
 4725SOL    HW115074   6.132   5.712   2.969
 4725SOL    HW215075   6.174   5.626   2.836
 4726SOL     OW15076   1.460   2.496   5.909
 4726SOL    HW115077   1.508   2.474   5.824
 4726SOL    HW215078   1.459   2.415   5.968
 4727SOL     OW15079   0.799   5.961   0.623
 4727SOL    HW115080   0.826   5.867   0.643
 4727SOL    HW215081   0.733   5.962   0.548
 4728SOL     OW15082   5.281   0.694   1.755
 4728SOL    HW115083   5.322   0.785   1.743
 4728SOL    HW215084   5.317   0.652   1.838
 4729SOL     OW15085   2.679   1.637   1.034
 4729SOL    HW115086   2.711   1.565   0.972
 4729SOL    HW215087   2.746   1.711   1.035
 4730SOL     OW15088   3.243   5.883   5.049
 4730SOL    HW115089   3.168   5.853   4.991
 4730SOL    HW215090   3.323   5.903   4.991
 4731SOL     OW15091   4.379   0.190   6.905
 4731SOL    HW115092   4.285   0.223   6.904
 4731SOL    HW215093   4.427   0.225   6.825
 4732SOL     OW15094   1.138   3.114   5.861
 4732SOL    HW115095   1.187   3.058   5.927
 4732SOL    HW215096   1.047   3.075   5.846
 4733SOL     OW15097   1.340   4.477   3.949
 4733SOL    HW115098   1.401   4.551   3.978
 4733SOL    HW215099   1.393   4.396   3.928
 4734SOL     OW15100   4.534   2.501   0.728
 4734SOL    HW115101   4.466   2.564   0.765
 4734SOL    HW215102   4.495   2.409   0.720
 4735SOL     OW15103   0.288   5.716   4.989
 4735SOL    HW115104   0.368   5.663   5.019
 4735SOL    HW215105   0.215   5.654   4.962
 4736SOL     OW15106   7.015   2.159   6.649
 4736SOL    HW115107   0.002   2.229   6.720
 4736SOL    HW215108   0.051   2.081   6.672
 4737SOL     OW15109   2.391   4.442   2.533
 4737SOL    HW115110   2.389   4.424   2.631
 4737SOL    HW215111   2.449   4.374   2.488
 4738SOL     OW15112   0.515   6.277   3.097
 4738SOL    HW115113   0.533   6.342   3.171
 4738SOL    HW215114   0.418   6.257   3.093
 4739SOL     OW15115   4.527   6.099   3.320
 4739SOL    HW115116   4.625   6.086   3.310
 4739SOL    HW215117   4.507   6.197   3.330
 4740SOL     OW15118   1.570   1.092   1.334
 4740SOL    HW115119   1.621   1.074   1.250
 4740SOL    HW215120   1.604   1.175   1.378
 4741SOL     OW15121   3.614   3.377   1.031
 4741SOL    HW115122   3.688   3.442   1.011
 4741SOL    HW215123   3.653   3.287   1.048
 4742SOL     OW15124   3.445   6.913   5.339
 4742SOL    HW115125   3.404   6.821   5.332
 4742SOL    HW215126   3.373   6.980   5.356
 4743SOL     OW15127   1.835   3.624   3.216
 4743SOL    HW115128   1.771   3.548   3.214
 4743SOL    HW215129   1.804   3.692   3.282
 4744SOL     OW15130   1.408   4.584   0.692
 4744SOL    HW115131   1.391   4.628   0.604
 4744SOL    HW215132   1.506   4.577   0.708
 4745SOL     OW15133   3.199   3.470   5.564
 4745SOL    HW115134   3.136   3.415   5.619
 4745SOL    HW215135   3.160   3.561   5.549
 4746SOL     OW15136   5.339   6.501   2.845
 4746SOL    HW115137   5.279   6.479   2.768
 4746SOL    HW215138   5.308   6.451   2.926
 4747SOL     OW15139   1.514   3.669   0.086
 4747SOL    HW115140   1.489   3.737   0.018
 4747SOL    HW215141   1.614   3.658   0.088
 4748SOL     OW15142   2.386   5.725   1.271
 4748SOL    HW115143   2.481   5.721   1.240
 4748SOL    HW215144   2.328   5.754   1.195
 4749SOL     OW15145   2.308   6.028   5.985
 4749SOL    HW115146   2.265   5.982   5.907
 4749SOL    HW215147   2.358   5.961   6.039
 4750SOL     OW15148   0.061   4.011   4.796
 4750SOL    HW115149   0.160   4.008   4.812
 4750SOL    HW215150   0.015   4.043   4.880
 4751SOL     OW15151   4.103   1.960   2.663
 4751SOL    HW115152   4.026   2.003   2.616
 4751SOL    HW215153   4.080   1.945   2.759
 4752SOL     OW15154   4.247   1.268   6.611
 4752SOL    HW115155   4.242   1.246   6.708
 4752SOL    HW215156   4.295   1.354   6.598
 4753SOL     OW15157   6.282   0.186   4.043
 4753SOL    HW115158   6.265   0.156   3.949
 4753SOL    HW215159   6.357   0.252   4.043
 4754SOL     OW15160   5.676   4.290   4.742
 4754SOL    HW115161   5.610   4.341   4.797
 4754SOL    HW215162   5.672   4.323   4.647
 4755SOL     OW15163   3.245   0.615   0.154
 4755SOL    HW115164   3.198   0.699   0.182
 4755SOL    HW215165   3.335   0.611   0.198
 4756SOL     OW15166   5.592   3.086   6.254
 4756SOL    HW115167   5.604   2.989   6.273
 4756SOL    HW215168   5.636   3.109   6.166
 4757SOL     OW15169   2.635   1.694   1.535
 4757SOL    HW115170   2.610   1.669   1.629
 4757SOL    HW215171   2.706   1.765   1.538
 4758SOL     OW15172   1.708   6.684   3.458
 4758SOL    HW115173   1.769   6.705   3.534
 4758SOL    HW215174   1.753   6.709   3.372
 4759SOL     OW15175   6.683   4.429   5.274
 4759SOL    HW115176   6.623   4.504   5.301
 4759SOL    HW215177   6.658   4.397   5.184
 4760SOL     OW15178   2.364   2.002   0.113
 4760SOL    HW115179   2.395   1.926   0.170
 4760SOL    HW215180   2.287   1.972   0.057
 4761SOL     OW15181   1.211   6.262   0.735
 4761SOL    HW115182   1.235   6.169   0.706
 4761SOL    HW215183   1.292   6.320   0.733
 4762SOL     OW15184   1.717   5.352   1.995
 4762SOL    HW115185   1.696   5.320   1.902
 4762SOL    HW215186   1.644   5.323   2.057
 4763SOL     OW15187   5.994   0.284   2.387
 4763SOL    HW115188   6.066   0.322   2.330
 4763SOL    HW215189   6.032   0.255   2.475
 4764SOL     OW15190   4.782   3.878   5.234
 4764SOL    HW115191   4.876   3.910   5.246
 4764SOL    HW215192   4.783   3.786   5.195
 4765SOL     OW15193   4.534   0.533   5.296
 4765SOL    HW115194   4.443   0.534   5.337
 4765SOL    HW215195   4.527   0.554   5.199
 4766SOL     OW15196   5.776   5.640   3.730
 4766SOL    HW115197   5.820   5.582   3.661
 4766SOL    HW215198   5.677   5.637   3.718
 4767SOL     OW15199   3.087   5.462   5.029
 4767SOL    HW115200   3.010   5.421   5.079
 4767SOL    HW215201   3.172   5.447   5.080
 4768SOL     OW15202   4.466   2.140   6.513
 4768SOL    HW115203   4.393   2.072   6.521
 4768SOL    HW215204   4.554   2.096   6.530
 4769SOL     OW15205   5.093   5.830   6.960
 4769SOL    HW115206   5.175   5.887   6.971
 4769SOL    HW215207   5.119   5.742   6.921
 4770SOL     OW15208   6.382   1.820   4.327
 4770SOL    HW115209   6.364   1.736   4.378
 4770SOL    HW215210   6.463   1.865   4.365
 4771SOL     OW15211   2.785   5.963   5.495
 4771SOL    HW115212   2.747   6.027   5.562
 4771SOL    HW215213   2.852   5.904   5.540
 4772SOL     OW15214   3.982   5.306   0.492
 4772SOL    HW115215   4.067   5.325   0.541
 4772SOL    HW215216   3.906   5.348   0.541
 4773SOL     OW15217   6.791   4.975   4.964
 4773SOL    HW115218   6.693   4.977   4.984
 4773SOL    HW215219   6.821   4.880   4.954
 4774SOL     OW15220   1.883   3.369   1.084
 4774SOL    HW115221   1.952   3.429   1.043
 4774SOL    HW215222   1.920   3.328   1.168
 4775SOL     OW15223   5.910   6.494   2.968
 4775SOL    HW115224   5.821   6.480   2.926
 4775SOL    HW215225   5.969   6.544   2.904
 4776SOL     OW15226   1.224   6.811   5.632
 4776SOL    HW115227   1.243   6.788   5.537
 4776SOL    HW215228   1.307   6.799   5.687
 4777SOL     OW15229   1.342   4.839   1.425
 4777SOL    HW115230   1.313   4.934   1.410
 4777SOL    HW215231   1.441   4.837   1.441
 4778SOL     OW15232   6.694   3.262   3.900
 4778SOL    HW115233   6.677   3.278   3.802
 4778SOL    HW215234   6.658   3.339   3.953
 4779SOL     OW15235   5.857   6.698   2.523
 4779SOL    HW115236   5.840   6.786   2.479
 4779SOL    HW215237   5.769   6.654   2.542
 4780SOL     OW15238   5.898   2.220   6.784
 4780SOL    HW115239   5.978   2.274   6.761
 4780SOL    HW215240   5.854   2.258   6.865
 4781SOL     OW15241   2.674   5.707   3.155
 4781SOL    HW115242   2.744   5.729   3.087
 4781SOL    HW215243   2.612   5.638   3.118
 4782SOL     OW15244   6.408   5.555   6.776
 4782SOL    HW115245   6.330   5.504   6.738
 4782SOL    HW215246   6.428   5.633   6.716
 4783SOL     OW15247   5.191   3.945   6.941
 4783SOL    HW115248   5.245   3.861   6.930
 4783SOL    HW215249   5.213   4.009   6.868
 4784SOL     OW15250   6.529   2.844   6.376
 4784SOL    HW115251   6.436   2.809   6.362
 4784SOL    HW215252   6.589   2.806   6.306
 4785SOL     OW15253   1.022   6.322   3.098
 4785SOL    HW115254   0.960   6.259   3.052
 4785SOL    HW215255   1.113   6.313   3.060
 4786SOL     OW15256   2.168   0.124   0.829
 4786SOL    HW115257   2.107   0.066   0.775
 4786SOL    HW215258   2.259   0.126   0.788
 4787SOL     OW15259   3.981   1.000   2.608
 4787SOL    HW115260   3.953   1.065   2.678
 4787SOL    HW215261   3.901   0.957   2.567
 4788SOL     OW15262   6.623   6.281   0.151
 4788SOL    HW115263   6.575   6.198   0.181
 4788SOL    HW215264   6.564   6.360   0.164
 4789SOL     OW15265   5.403   1.524   1.892
 4789SOL    HW115266   5.334   1.495   1.958
 4789SOL    HW215267   5.358   1.568   1.814
 4790SOL     OW15268   5.624   1.788   5.684
 4790SOL    HW115269   5.562   1.774   5.762
 4790SOL    HW215270   5.686   1.710   5.676
 4791SOL     OW15271   0.483   3.037   1.168
 4791SOL    HW115272   0.467   3.106   1.097
 4791SOL    HW215273   0.460   3.075   1.257
 4792SOL     OW15274   2.835   4.794   3.783
 4792SOL    HW115275   2.749   4.843   3.797
 4792SOL    HW215276   2.911   4.850   3.817
 4793SOL     OW15277   2.144   2.908   5.129
 4793SOL    HW115278   2.121   3.005   5.132
 4793SOL    HW215279   2.243   2.896   5.124
 4794SOL     OW15280   5.542   6.854   4.657
 4794SOL    HW115281   5.446   6.830   4.672
 4794SOL    HW215282   5.566   6.838   4.561
 4795SOL     OW15283   6.136   2.235   3.932
 4795SOL    HW115284   6.212   2.170   3.941
 4795SOL    HW215285   6.144   2.306   4.002
 4796SOL     OW15286   4.576   1.029   5.151
 4796SOL    HW115287   4.501   1.066   5.098
 4796SOL    HW215288   4.546   1.014   5.245
 4797SOL     OW15289   0.600   6.720   5.255
 4797SOL    HW115290   0.610   6.622   5.239
 4797SOL    HW215291   0.507   6.739   5.285
 4798SOL     OW15292   0.367   4.192   5.717
 4798SOL    HW115293   0.292   4.175   5.654
 4798SOL    HW215294   0.406   4.105   5.747
 4799SOL     OW15295   3.687   1.836   0.700
 4799SOL    HW115296   3.669   1.742   0.727
 4799SOL    HW215297   3.783   1.859   0.719
 4800SOL     OW15298   2.184   3.022   6.882
 4800SOL    HW115299   2.162   3.058   6.791
 4800SOL    HW215300   2.282   3.028   6.897
 4801SOL     OW15301   3.253   2.784   0.099
 4801SOL    HW115302   3.204   2.706   0.059
 4801SOL    HW215303   3.218   2.869   0.060
 4802SOL     OW15304   0.364   6.513   2.378
 4802SOL    HW115305   0.430   6.571   2.330
 4802SOL    HW215306   0.295   6.481   2.313
 4803SOL     OW15307   6.990   4.719   6.768
 4803SOL    HW115308   0.028   4.790   6.732
 4803SOL    HW215309   6.956   4.663   6.693
 4804SOL     OW15310   6.930   6.224   1.683
 4804SOL    HW115311   6.999   6.176   1.738
 4804SOL    HW215312   6.894   6.162   1.613
 4805SOL     OW15313   5.736   1.318   1.997
 4805SOL    HW115314   5.647   1.333   1.954
 4805SOL    HW215315   5.726   1.255   2.075
 4806SOL     OW15316   1.111   4.486   2.631
 4806SOL    HW115317   1.112   4.517   2.727
 4806SOL    HW215318   1.023   4.509   2.590
 4807SOL     OW15319   0.205   4.771   0.402
 4807SOL    HW115320   0.278   4.751   0.468
 4807SOL    HW215321   0.166   4.685   0.369
 4808SOL     OW15322   4.794   5.394   0.017
 4808SOL    HW115323   4.750   5.305   0.029
 4808SOL    HW215324   4.725   5.466   0.018
 4809SOL     OW15325   3.698   5.496   0.549
 4809SOL    HW115326   3.612   5.461   0.512
 4809SOL    HW215327   3.727   5.575   0.495
 4810SOL     OW15328   1.568   4.280   2.748
 4810SOL    HW115329   1.632   4.248   2.818
 4810SOL    HW215330   1.524   4.365   2.780
 4811SOL     OW15331   2.960   4.030   1.730
 4811SOL    HW115332   2.886   4.026   1.663
 4811SOL    HW215333   3.026   3.958   1.710
 4812SOL     OW15334   0.528   6.136   2.245
 4812SOL    HW115335   0.516   6.152   2.343
 4812SOL    HW215336   0.619   6.166   2.217
 4813SOL     OW15337   5.509   1.369   6.828
 4813SOL    HW115338   5.525   1.270   6.833
 4813SOL    HW215339   5.514   1.399   6.733
 4814SOL     OW15340   0.113   3.137   1.086
 4814SOL    HW115341   0.039   3.192   1.048
 4814SOL    HW215342   0.099   3.041   1.062
 4815SOL     OW15343   5.310   4.065   2.671
 4815SOL    HW115344   5.383   4.007   2.635
 4815SOL    HW215345   5.348   4.155   2.695
 4816SOL     OW15346   2.325   4.887   1.198
 4816SOL    HW115347   2.301   4.978   1.164
 4816SOL    HW215348   2.249   4.825   1.183
 4817SOL     OW15349   2.512   1.804   0.225
 4817SOL    HW115350   2.509   1.734   0.296
 4817SOL    HW215351   2.603   1.805   0.183
 4818SOL     OW15352   0.174   0.402   4.635
 4818SOL    HW115353   0.122   0.336   4.581
 4818SOL    HW215354   0.163   0.493   4.596
 4819SOL     OW15355   2.274   2.149   1.325
 4819SOL    HW115356   2.323   2.112   1.246
 4819SOL    HW215357   2.339   2.174   1.397
 4820SOL     OW15358   6.558   2.487   1.663
 4820SOL    HW115359   6.579   2.412   1.726
 4820SOL    HW215360   6.463   2.481   1.635
 4821SOL     OW15361   0.828   0.032   2.396
 4821SOL    HW115362   0.823   6.959   2.426
 4821SOL    HW215363   0.830   0.092   2.476
 4822SOL     OW15364   1.857   3.635   4.501
 4822SOL    HW115365   1.786   3.589   4.450
 4822SOL    HW215366   1.874   3.587   4.587
 4823SOL     OW15367   0.940   0.419   4.043
 4823SOL    HW115368   0.974   0.511   4.063
 4823SOL    HW215369   0.842   0.415   4.065
 4824SOL     OW15370   5.091   2.131   4.036
 4824SOL    HW115371   5.027   2.109   4.110
 4824SOL    HW215372   5.040   2.142   3.950
 4825SOL     OW15373   2.059   1.805   4.949
 4825SOL    HW115374   2.081   1.889   4.898
 4825SOL    HW215375   2.077   1.820   5.046
 4826SOL     OW15376   0.184   1.183   6.270
 4826SOL    HW115377   0.239   1.223   6.343
 4826SOL    HW215378   0.241   1.173   6.187
 4827SOL     OW15379   6.450   1.907   1.217
 4827SOL    HW115380   6.543   1.878   1.235
 4827SOL    HW215381   6.404   1.841   1.158
 4828SOL     OW15382   5.514   3.460   1.224
 4828SOL    HW115383   5.481   3.395   1.292
 4828SOL    HW215384   5.494   3.426   1.132
 4829SOL     OW15385   4.232   6.599   0.234
 4829SOL    HW115386   4.153   6.641   0.190
 4829SOL    HW215387   4.267   6.660   0.306
 4830SOL     OW15388   4.516   6.689   3.720
 4830SOL    HW115389   4.558   6.620   3.662
 4830SOL    HW215390   4.583   6.721   3.787
 4831SOL     OW15391   0.196   4.595   6.282
 4831SOL    HW115392   0.139   4.677   6.270
 4831SOL    HW215393   0.176   4.531   6.208
 4832SOL     OW15394   3.406   3.084   5.067
 4832SOL    HW115395   3.466   3.157   5.099
 4832SOL    HW215396   3.462   3.005   5.041
 4833SOL     OW15397   4.944   2.337   2.850
 4833SOL    HW115398   4.922   2.401   2.777
 4833SOL    HW215399   4.952   2.245   2.813
 4834SOL     OW15400   4.129   6.784   1.204
 4834SOL    HW115401   4.182   6.865   1.230
 4834SOL    HW215402   4.032   6.801   1.220
 4835SOL     OW15403   6.844   0.832   6.152
 4835SOL    HW115404   6.845   0.800   6.057
 4835SOL    HW215405   6.933   0.870   6.176
 4836SOL     OW15406   5.031   2.903   4.479
 4836SOL    HW115407   4.954   2.935   4.423
 4836SOL    HW215408   5.061   2.978   4.539
 4837SOL     OW15409   6.147   4.314   1.836
 4837SOL    HW115410   6.224   4.374   1.813
 4837SOL    HW215411   6.167   4.266   1.922
 4838SOL     OW15412   0.854   4.762   0.988
 4838SOL    HW115413   0.760   4.780   0.962
 4838SOL    HW215414   0.858   4.738   1.085
 4839SOL     OW15415   1.608   2.480   6.227
 4839SOL    HW115416   1.565   2.390   6.228
 4839SOL    HW215417   1.540   2.550   6.249
 4840SOL     OW15418   0.021   5.788   5.827
 4840SOL    HW115419   7.016   5.791   5.923
 4840SOL    HW215420   0.004   5.697   5.791
 4841SOL     OW15421   3.018   6.262   2.312
 4841SOL    HW115422   2.976   6.181   2.271
 4841SOL    HW215423   2.956   6.340   2.303
 4842SOL     OW15424   3.656   4.929   2.379
 4842SOL    HW115425   3.617   5.018   2.357
 4842SOL    HW215426   3.655   4.916   2.478
 4843SOL     OW15427   6.327   3.103   0.591
 4843SOL    HW115428   6.336   3.123   0.494
 4843SOL    HW215429   6.263   3.027   0.603
 4844SOL     OW15430   6.610   3.272   5.573
 4844SOL    HW115431   6.684   3.319   5.622
 4844SOL    HW215432   6.630   3.270   5.476
 4845SOL     OW15433   5.644   5.288   5.471
 4845SOL    HW115434   5.601   5.341   5.398
 4845SOL    HW215435   5.743   5.285   5.455
 4846SOL     OW15436   0.323   2.877   3.778
 4846SOL    HW115437   0.398   2.913   3.833
 4846SOL    HW215438   0.319   2.777   3.787
 4847SOL     OW15439   2.857   1.030   6.244
 4847SOL    HW115440   2.860   1.127   6.267
 4847SOL    HW215441   2.816   0.978   6.319
 4848SOL     OW15442   1.676   0.741   3.973
 4848SOL    HW115443   1.773   0.766   3.969
 4848SOL    HW215444   1.620   0.820   3.946
 4849SOL     OW15445   1.294   6.745   6.806
 4849SOL    HW115446   1.260   6.837   6.788
 4849SOL    HW215447   1.216   6.682   6.810
 4850SOL     OW15448   4.101   1.742   2.314
 4850SOL    HW115449   4.160   1.804   2.261
 4850SOL    HW215450   4.017   1.791   2.341
 4851SOL     OW15451   4.312   5.962   5.681
 4851SOL    HW115452   4.380   5.996   5.616
 4851SOL    HW215453   4.220   5.983   5.648
 4852SOL     OW15454   1.126   6.156   5.192
 4852SOL    HW115455   1.169   6.220   5.129
 4852SOL    HW215456   1.140   6.062   5.158
 4853SOL     OW15457   3.240   1.293   3.530
 4853SOL    HW115458   3.331   1.252   3.526
 4853SOL    HW215459   3.248   1.393   3.523
 4854SOL     OW15460   4.587   0.418   1.405
 4854SOL    HW115461   4.560   0.514   1.396
 4854SOL    HW215462   4.527   0.372   1.470
 4855SOL     OW15463   6.097   2.686   2.621
 4855SOL    HW115464   6.047   2.599   2.617
 4855SOL    HW215465   6.060   2.741   2.696
 4856SOL     OW15466   1.669   3.776   2.750
 4856SOL    HW115467   1.702   3.704   2.811
 4856SOL    HW215468   1.592   3.823   2.792
 4857SOL     OW15469   1.969   2.113   5.015
 4857SOL    HW115470   2.014   2.105   4.926
 4857SOL    HW215471   1.887   2.169   5.006
 4858SOL     OW15472   0.417   0.754   4.412
 4858SOL    HW115473   0.504   0.739   4.366
 4858SOL    HW215474   0.350   0.687   4.380
 4859SOL     OW15475   7.022   0.859   4.776
 4859SOL    HW115476   0.065   0.797   4.820
 4859SOL    HW215477   0.041   0.949   4.765
 4860SOL     OW15478   4.277   4.606   1.486
 4860SOL    HW115479   4.300   4.541   1.559
 4860SOL    HW215480   4.305   4.698   1.514
 4861SOL     OW15481   5.240   4.685   0.049
 4861SOL    HW115482   5.310   4.614   0.061
 4861SOL    HW215483   5.178   4.658   6.997
 4862SOL     OW15484   2.645   4.598   4.450
 4862SOL    HW115485   2.637   4.656   4.531
 4862SOL    HW215486   2.579   4.523   4.455
 4863SOL     OW15487   6.191   3.994   1.613
 4863SOL    HW115488   6.134   3.992   1.531
 4863SOL    HW215489   6.170   3.915   1.670
 4864SOL     OW15490   3.970   1.236   2.455
 4864SOL    HW115491   3.993   1.148   2.497
 4864SOL    HW215492   3.914   1.289   2.519
 4865SOL     OW15493   2.155   0.023   4.423
 4865SOL    HW115494   2.123   0.115   4.399
 4865SOL    HW215495   2.175   0.019   4.520
 4866SOL     OW15496   6.241   2.513   1.690
 4866SOL    HW115497   6.237   2.613   1.694
 4866SOL    HW215498   6.298   2.479   1.765
 4867SOL     OW15499   3.657   5.334   2.023
 4867SOL    HW115500   3.725   5.383   1.968
 4867SOL    HW215501   3.696   5.247   2.054
 4868SOL     OW15502   6.560   5.187   3.016
 4868SOL    HW115503   6.564   5.239   2.930
 4868SOL    HW215504   6.624   5.227   3.082
 4869SOL     OW15505   1.306   1.134   1.306
 4869SOL    HW115506   1.281   1.151   1.211
 4869SOL    HW215507   1.405   1.131   1.315
 4870SOL     OW15508   0.243   5.593   1.744
 4870SOL    HW115509   0.302   5.651   1.687
 4870SOL    HW215510   0.203   5.648   1.817
 4871SOL     OW15511   1.469   1.330   3.599
 4871SOL    HW115512   1.548   1.282   3.561
 4871SOL    HW215513   1.483   1.429   3.591
 4872SOL     OW15514   6.219   6.315   3.604
 4872SOL    HW115515   6.218   6.273   3.514
 4872SOL    HW215516   6.156   6.266   3.665
 4873SOL     OW15517   6.664   5.444   2.979
 4873SOL    HW115518   6.586   5.503   3.001
 4873SOL    HW215519   6.693   5.395   3.061
 4874SOL     OW15520   6.400   3.707   2.905
 4874SOL    HW115521   6.317   3.660   2.934
 4874SOL    HW215522   6.458   3.726   2.984
 4875SOL     OW15523   6.056   2.458   1.493
 4875SOL    HW115524   6.124   2.471   1.565
 4875SOL    HW215525   6.091   2.493   1.406
 4876SOL     OW15526   5.566   1.824   4.027
 4876SOL    HW115527   5.485   1.842   3.970
 4876SOL    HW215528   5.604   1.734   4.003
 4877SOL     OW15529   1.535   1.840   6.659
 4877SOL    HW115530   1.588   1.766   6.617
 4877SOL    HW215531   1.586   1.878   6.737
 4878SOL     OW15532   6.334   1.441   2.523
 4878SOL    HW115533   6.353   1.487   2.610
 4878SOL    HW215534   6.292   1.352   2.541
 4879SOL     OW15535   4.372   6.611   2.617
 4879SOL    HW115536   4.446   6.599   2.551
 4879SOL    HW215537   4.405   6.585   2.708
 4880SOL     OW15538   5.480   3.256   0.528
 4880SOL    HW115539   5.492   3.339   0.583
 4880SOL    HW215540   5.532   3.181   0.570
 4881SOL     OW15541   1.760   0.846   6.624
 4881SOL    HW115542   1.833   0.778   6.635
 4881SOL    HW215543   1.726   0.873   6.714
 4882SOL     OW15544   4.986   1.343   4.843
 4882SOL    HW115545   5.052   1.399   4.893
 4882SOL    HW215546   4.932   1.289   4.907
 4883SOL     OW15547   4.970   4.817   1.826
 4883SOL    HW115548   4.992   4.798   1.922
 4883SOL    HW215549   4.994   4.738   1.770
 4884SOL     OW15550   2.435   6.405   1.365
 4884SOL    HW115551   2.490   6.488   1.369
 4884SOL    HW215552   2.395   6.388   1.455
 4885SOL     OW15553   2.634   5.354   2.063
 4885SOL    HW115554   2.568   5.295   2.110
 4885SOL    HW215555   2.716   5.364   2.120
 4886SOL     OW15556   1.054   5.294   1.248
 4886SOL    HW115557   1.012   5.246   1.171
 4886SOL    HW215558   1.008   5.382   1.261
 4887SOL     OW15559   0.768   0.446   2.772
 4887SOL    HW115560   0.847   0.404   2.817
 4887SOL    HW215561   0.756   0.539   2.807
 4888SOL     OW15562   2.473   0.064   3.807
 4888SOL    HW115563   2.513   7.000   3.776
 4888SOL    HW215564   2.493   0.077   3.904
 4889SOL     OW15565   0.020   1.189   5.745
 4889SOL    HW115566   7.015   1.277   5.782
 4889SOL    HW215567   0.035   1.124   5.820
 4890SOL     OW15568   0.424   0.985   0.008
 4890SOL    HW115569   0.519   0.959   0.028
 4890SOL    HW215570   0.417   1.085   0.006
 4891SOL     OW15571   1.679   4.274   6.654
 4891SOL    HW115572   1.630   4.354   6.688
 4891SOL    HW215573   1.654   4.258   6.558
 4892SOL     OW15574   3.259   5.798   1.818
 4892SOL    HW115575   3.291   5.796   1.913
 4892SOL    HW215576   3.242   5.893   1.791
 4893SOL     OW15577   6.894   3.433   1.627
 4893SOL    HW115578   6.847   3.392   1.705
 4893SOL    HW215579   6.829   3.483   1.571
 4894SOL     OW15580   2.313   1.243   3.449
 4894SOL    HW115581   2.217   1.247   3.478
 4894SOL    HW215582   2.372   1.246   3.530
 4895SOL     OW15583   0.877   4.645   3.992
 4895SOL    HW115584   0.876   4.565   3.933
 4895SOL    HW215585   0.959   4.643   4.050
 4896SOL     OW15586   1.992   4.894   2.218
 4896SOL    HW115587   1.917   4.952   2.248
 4896SOL    HW215588   1.985   4.805   2.263
 4897SOL     OW15589   1.864   3.692   5.730
 4897SOL    HW115590   1.909   3.643   5.805
 4897SOL    HW215591   1.812   3.769   5.767
 4898SOL     OW15592   4.108   0.905   4.335
 4898SOL    HW115593   4.120   0.904   4.434
 4898SOL    HW215594   4.104   0.999   4.302
 4899SOL     OW15595   5.453   5.618   3.000
 4899SOL    HW115596   5.473   5.658   2.910
 4899SOL    HW215597   5.509   5.664   3.070
 4900SOL     OW15598   2.683   6.514   4.554
 4900SOL    HW115599   2.681   6.414   4.552
 4900SOL    HW215600   2.775   6.547   4.532
 4901SOL     OW15601   3.353   0.696   5.582
 4901SOL    HW115602   3.378   0.681   5.486
 4901SOL    HW215603   3.436   0.711   5.636
 4902SOL     OW15604   2.359   1.762   4.532
 4902SOL    HW115605   2.446   1.779   4.487
 4902SOL    HW215606   2.322   1.848   4.567
 4903SOL     OW15607   3.781   5.896   6.823
 4903SOL    HW115608   3.876   5.910   6.852
 4903SOL    HW215609   3.719   5.934   6.892
 4904SOL     OW15610   2.141   0.115   4.147
 4904SOL    HW115611   2.117   0.105   4.244
 4904SOL    HW215612   2.182   0.205   4.132
 4905SOL     OW15613   4.115   6.644   2.652
 4905SOL    HW115614   4.212   6.641   2.630
 4905SOL    HW215615   4.094   6.573   2.720
 4906SOL     OW15616   5.116   2.433   6.353
 4906SOL    HW115617   5.082   2.525   6.335
 4906SOL    HW215618   5.216   2.435   6.357
 4907SOL     OW15619   4.613   5.812   1.925
 4907SOL    HW115620   4.586   5.722   1.960
 4907SOL    HW215621   4.600   5.881   1.996
 4908SOL     OW15622   5.654   5.238   0.014
 4908SOL    HW115623   5.704   5.285   6.963
 4908SOL    HW215624   5.651   5.140   7.017
 4909SOL     OW15625   6.764   7.002   4.161
 4909SOL    HW115626   6.709   6.992   4.078
 4909SOL    HW215627   6.749   0.071   4.200
 4910SOL     OW15628   5.750   0.723   4.855
 4910SOL    HW115629   5.701   0.649   4.903
 4910SOL    HW215630   5.693   0.805   4.854
 4911SOL     OW15631   1.485   3.730   4.139
 4911SOL    HW115632   1.503   3.670   4.217
 4911SOL    HW215633   1.391   3.764   4.144
 4912SOL     OW15634   5.030   1.433   6.762
 4912SOL    HW115635   5.096   1.474   6.825
 4912SOL    HW215636   4.963   1.502   6.735
 4913SOL     OW15637   3.586   2.757   5.547
 4913SOL    HW115638   3.547   2.757   5.456
 4913SOL    HW215639   3.665   2.695   5.550
 4914SOL     OW15640   4.029   0.549   5.076
 4914SOL    HW115641   4.028   0.509   4.985
 4914SOL    HW215642   3.969   0.496   5.137
 4915SOL     OW15643   4.198   6.636   5.665
 4915SOL    HW115644   4.282   6.605   5.711
 4915SOL    HW215645   4.207   6.733   5.643
 4916SOL     OW15646   1.009   6.900   3.924
 4916SOL    HW115647   1.053   6.918   4.012
 4916SOL    HW215648   0.911   6.887   3.939
 4917SOL     OW15649   2.804   5.309   1.360
 4917SOL    HW115650   2.881   5.251   1.330
 4917SOL    HW215651   2.719   5.259   1.346
 4918SOL     OW15652   5.053   5.394   2.267
 4918SOL    HW115653   4.994   5.365   2.341
 4918SOL    HW215654   5.009   5.373   2.179
 4919SOL     OW15655   2.781   2.634   0.338
 4919SOL    HW115656   2.709   2.650   0.270
 4919SOL    HW215657   2.867   2.676   0.306
 4920SOL     OW15658   5.896   0.874   4.020
 4920SOL    HW115659   5.885   0.836   3.928
 4920SOL    HW215660   5.957   0.816   4.073
 4921SOL     OW15661   1.232   5.137   0.381
 4921SOL    HW115662   1.292   5.180   0.313
 4921SOL    HW215663   1.159   5.087   0.334
 4922SOL     OW15664   2.335   2.427   4.864
 4922SOL    HW115665   2.295   2.517   4.886
 4922SOL    HW215666   2.375   2.388   4.946
 4923SOL     OW15667   3.970   1.658   2.692
 4923SOL    HW115668   3.906   1.715   2.640
 4923SOL    HW215669   3.927   1.628   2.777
 4924SOL     OW15670   3.214   1.586   5.078
 4924SOL    HW115671   3.221   1.537   4.991
 4924SOL    HW215672   3.118   1.595   5.104
 4925SOL     OW15673   6.812   6.790   2.584
 4925SOL    HW115674   6.852   6.879   2.605
 4925SOL    HW215675   6.826   6.769   2.487
 4926SOL     OW15676   5.131   1.167   0.731
 4926SOL    HW115677   5.186   1.084   0.727
 4926SOL    HW215678   5.191   1.247   0.728
 4927SOL     OW15679   3.554   3.844   4.165
 4927SOL    HW115680   3.595   3.757   4.189
 4927SOL    HW215681   3.570   3.910   4.238
 4928SOL     OW15682   1.517   6.867   6.701
 4928SOL    HW115683   1.544   6.950   6.750
 4928SOL    HW215684   1.428   6.835   6.734
 4929SOL     OW15685   0.198   5.711   4.645
 4929SOL    HW115686   0.145   5.715   4.730
 4929SOL    HW215687   0.249   5.626   4.642
 4930SOL     OW15688   5.125   0.833   3.135
 4930SOL    HW115689   5.211   0.811   3.089
 4930SOL    HW215690   5.049   0.787   3.089
 4931SOL     OW15691   0.208   6.494   0.742
 4931SOL    HW115692   0.306   6.479   0.725
 4931SOL    HW215693   0.180   6.581   0.703
 4932SOL     OW15694   2.750   3.186   1.765
 4932SOL    HW115695   2.713   3.279   1.754
 4932SOL    HW215696   2.692   3.122   1.715
 4933SOL     OW15697   2.375   0.430   3.038
 4933SOL    HW115698   2.368   0.351   2.976
 4933SOL    HW215699   2.449   0.490   3.008
 4934SOL     OW15700   2.692   5.881   2.369
 4934SOL    HW115701   2.609   5.905   2.319
 4934SOL    HW215702   2.672   5.805   2.431
 4935SOL     OW15703   1.679   1.391   6.497
 4935SOL    HW115704   1.647   1.369   6.405
 4935SOL    HW215705   1.777   1.375   6.503
 4936SOL     OW15706   2.414   4.570   2.013
 4936SOL    HW115707   2.502   4.540   2.049
 4936SOL    HW215708   2.343   4.504   2.038
 4937SOL     OW15709   6.313   2.865   5.619
 4937SOL    HW115710   6.362   2.864   5.532
 4937SOL    HW215711   6.233   2.805   5.612
 4938SOL     OW15712   2.349   5.176   5.542
 4938SOL    HW115713   2.413   5.179   5.465
 4938SOL    HW215714   2.313   5.267   5.559
 4939SOL     OW15715   6.500   2.228   4.378
 4939SOL    HW115716   6.590   2.213   4.419
 4939SOL    HW215717   6.490   2.170   4.297
 4940SOL     OW15718   6.976   1.199   5.144
 4940SOL    HW115719   6.887   1.242   5.131
 4940SOL    HW215720   6.969   1.127   5.214
 4941SOL     OW15721   5.406   2.479   5.460
 4941SOL    HW115722   5.320   2.428   5.467
 4941SOL    HW215723   5.478   2.430   5.509
 4942SOL     OW15724   5.181   2.850   6.326
 4942SOL    HW115725   5.171   2.793   6.244
 4942SOL    HW215726   5.121   2.814   6.399
 4943SOL     OW15727   4.509   3.748   6.687
 4943SOL    HW115728   4.561   3.705   6.613
 4943SOL    HW215729   4.523   3.847   6.684
 4944SOL     OW15730   2.063   4.596   1.906
 4944SOL    HW115731   2.142   4.655   1.922
 4944SOL    HW215732   1.987   4.626   1.964
 4945SOL     OW15733   0.986   0.095   4.156
 4945SOL    HW115734   1.031   0.119   4.071
 4945SOL    HW215735   0.944   0.176   4.196
 4946SOL     OW15736   1.307   4.640   6.857
 4946SOL    HW115737   1.281   4.637   6.953
 4946SOL    HW215738   1.297   4.548   6.817
 4947SOL     OW15739   2.130   0.928   0.966
 4947SOL    HW115740   2.175   0.897   0.883
 4947SOL    HW215741   2.088   0.851   1.013
 4948SOL     OW15742   1.098   2.788   2.371
 4948SOL    HW115743   1.135   2.718   2.309
 4948SOL    HW215744   1.078   2.871   2.320
 4949SOL     OW15745   5.086   6.292   6.228
 4949SOL    HW115746   5.101   6.326   6.320
 4949SOL    HW215747   5.035   6.360   6.175
 4950SOL     OW15748   2.440   5.566   4.448
 4950SOL    HW115749   2.442   5.471   4.417
 4950SOL    HW215750   2.446   5.569   4.548
 4951SOL     OW15751   5.951   1.818   5.184
 4951SOL    HW115752   5.914   1.734   5.224
 4951SOL    HW215753   6.051   1.811   5.180
 4952SOL     OW15754   0.134   0.730   6.115
 4952SOL    HW115755   0.115   0.769   6.205
 4952SOL    HW215756   0.233   0.733   6.097
 4953SOL     OW15757   2.543   5.735   2.571
 4953SOL    HW115758   2.559   5.816   2.627
 4953SOL    HW215759   2.520   5.657   2.630
 4954SOL     OW15760   4.195   3.241   6.892
 4954SOL    HW115761   4.229   3.167   6.948
 4954SOL    HW215762   4.114   3.282   6.935
 4955SOL     OW15763   2.901   6.348   6.346
 4955SOL    HW115764   2.863   6.440   6.356
 4955SOL    HW215765   2.917   6.329   6.250
 4956SOL     OW15766   2.022   6.985   5.371
 4956SOL    HW115767   2.108   0.003   5.339
 4956SOL    HW215768   2.032   6.886   5.379
 4957SOL     OW15769   6.602   2.096   1.696
 4957SOL    HW115770   6.640   2.187   1.714
 4957SOL    HW215771   6.537   2.071   1.767
 4958SOL     OW15772   6.656   4.861   5.449
 4958SOL    HW115773   6.665   4.955   5.419
 4958SOL    HW215774   6.744   4.828   5.484
 4959SOL     OW15775   6.427   1.214   0.207
 4959SOL    HW115776   6.449   1.301   0.253
 4959SOL    HW215777   6.344   1.225   0.153
 4960SOL     OW15778   3.344   5.050   3.651
 4960SOL    HW115779   3.313   4.991   3.725
 4960SOL    HW215780   3.386   5.133   3.689
 4961SOL     OW15781   4.439   1.071   6.255
 4961SOL    HW115782   4.407   0.977   6.269
 4961SOL    HW215783   4.441   1.091   6.157
 4962SOL     OW15784   6.559   2.215   0.248
 4962SOL    HW115785   6.653   2.207   0.217
 4962SOL    HW215786   6.555   2.200   0.347
 4963SOL     OW15787   5.968   5.718   6.955
 4963SOL    HW115788   5.889   5.779   6.959
 4963SOL    HW215789   5.989   5.698   6.859
 4964SOL     OW15790   2.874   0.110   3.783
 4964SOL    HW115791   2.871   0.205   3.812
 4964SOL    HW215792   2.846   0.103   3.687
 4965SOL     OW15793   6.867   0.803   2.819
 4965SOL    HW115794   6.772   0.835   2.816
 4965SOL    HW215795   6.874   0.716   2.769
 4966SOL     OW15796   2.243   0.002   4.997
 4966SOL    HW115797   2.239   6.925   4.993
 4966SOL    HW215798   2.298   0.031   5.076
 4967SOL     OW15799   3.920   5.384   5.877
 4967SOL    HW115800   3.845   5.404   5.813
 4967SOL    HW215801   3.975   5.309   5.840
 4968SOL     OW15802   6.384   2.093   3.964
 4968SOL    HW115803   6.424   2.003   3.946
 4968SOL    HW215804   6.357   2.099   4.060
 4969SOL     OW15805   2.646   7.020   2.513
 4969SOL    HW115806   2.727   7.022   2.454
 4969SOL    HW215807   2.649   6.939   2.572
 4970SOL     OW15808   1.498   2.334   3.080
 4970SOL    HW115809   1.553   2.257   3.049
 4970SOL    HW215810   1.448   2.373   3.002
 4971SOL     OW15811   6.548   5.940   4.193
 4971SOL    HW115812   6.624   5.878   4.176
 4971SOL    HW215813   6.500   5.958   4.107
 4972SOL     OW15814   1.992   3.083   0.476
 4972SOL    HW115815   1.950   3.173   0.478
 4972SOL    HW215816   1.939   3.020   0.532
 4973SOL     OW15817   1.959   0.446   2.645
 4973SOL    HW115818   2.052   0.409   2.652
 4973SOL    HW215819   1.951   0.498   2.560
 4974SOL     OW15820   6.114   4.736   1.087
 4974SOL    HW115821   6.050   4.736   1.010
 4974SOL    HW215822   6.062   4.726   1.172
 4975SOL     OW15823   5.857   4.488   5.723
 4975SOL    HW115824   5.881   4.391   5.726
 4975SOL    HW215825   5.875   4.529   5.813
 4976SOL     OW15826   2.503   0.499   3.833
 4976SOL    HW115827   2.578   0.450   3.877
 4976SOL    HW215828   2.416   0.456   3.856
 4977SOL     OW15829   3.922   4.613   0.480
 4977SOL    HW115830   3.880   4.677   0.545
 4977SOL    HW215831   3.889   4.633   0.388
 4978SOL     OW15832   0.018   4.355   4.838
 4978SOL    HW115833   0.114   4.328   4.835
 4978SOL    HW215834   7.004   4.360   4.745
 4979SOL     OW15835   0.480   0.131   6.094
 4979SOL    HW115836   0.470   0.090   6.185
 4979SOL    HW215837   0.396   0.181   6.072
 4980SOL     OW15838   5.269   6.491   3.140
 4980SOL    HW115839   5.225   6.443   3.216
 4980SOL    HW215840   5.368   6.484   3.149
 4981SOL     OW15841   5.099   6.322   6.721
 4981SOL    HW115842   5.000   6.314   6.734
 4981SOL    HW215843   5.147   6.271   6.793
 4982SOL     OW15844   2.477   1.670   6.182
 4982SOL    HW115845   2.425   1.733   6.240
 4982SOL    HW215846   2.466   1.697   6.086
 4983SOL     OW15847   5.723   2.527   4.807
 4983SOL    HW115848   5.738   2.429   4.792
 4983SOL    HW215849   5.660   2.561   4.738
 4984SOL     OW15850   5.768   4.209   3.663
 4984SOL    HW115851   5.775   4.293   3.608
 4984SOL    HW215852   5.714   4.228   3.745
 4985SOL     OW15853   6.170   6.242   3.359
 4985SOL    HW115854   6.154   6.336   3.330
 4985SOL    HW215855   6.225   6.195   3.289
 4986SOL     OW15856   5.989   4.103   1.775
 4986SOL    HW115857   6.054   4.082   1.702
 4986SOL    HW215858   6.023   4.178   1.831
 4987SOL     OW15859   0.977   0.878   1.012
 4987SOL    HW115860   1.046   0.930   0.962
 4987SOL    HW215861   0.991   0.890   1.110
 4988SOL     OW15862   5.478   0.758   3.323
 4988SOL    HW115863   5.445   0.732   3.414
 4988SOL    HW215864   5.574   0.732   3.314
 4989SOL     OW15865   5.229   0.012   1.710
 4989SOL    HW115866   5.281   7.019   1.626
 4989SOL    HW215867   5.232   6.952   1.767
 4990SOL     OW15868   1.618   1.621   5.055
 4990SOL    HW115869   1.539   1.608   4.996
 4990SOL    HW215870   1.686   1.678   5.008
 4991SOL     OW15871   6.513   4.446   4.789
 4991SOL    HW115872   6.545   4.427   4.696
 4991SOL    HW215873   6.416   4.424   4.796
 4992SOL     OW15874   5.064   0.854   4.693
 4992SOL    HW115875   5.007   0.802   4.630
 4992SOL    HW215876   5.008   0.897   4.763
 4993SOL     OW15877   3.539   5.298   4.105
 4993SOL    HW115878   3.541   5.384   4.054
 4993SOL    HW215879   3.448   5.258   4.098
 4994SOL     OW15880   2.150   0.054   3.116
 4994SOL    HW115881   2.249   0.056   3.128
 4994SOL    HW215882   2.126   7.004   3.051
 4995SOL     OW15883   6.990   2.843   5.905
 4995SOL    HW115884   6.935   2.817   5.984
 4995SOL    HW215885   6.933   2.891   5.839
 4996SOL     OW15886   1.588   1.017   2.568
 4996SOL    HW115887   1.552   1.103   2.533
 4996SOL    HW215888   1.512   0.960   2.600
 4997SOL     OW15889   5.394   2.252   3.349
 4997SOL    HW115890   5.337   2.177   3.316
 4997SOL    HW215891   5.400   2.248   3.448
 4998SOL     OW15892   2.045   4.037   5.100
 4998SOL    HW115893   2.137   4.018   5.066
 4998SOL    HW215894   2.020   4.132   5.079
 4999SOL     OW15895   6.224   4.462   0.677
 4999SOL    HW115896   6.171   4.544   0.698
 4999SOL    HW215897   6.267   4.472   0.588
 5000SOL     OW15898   2.811   6.915   3.918
 5000SOL    HW115899   2.889   6.856   3.896
 5000SOL    HW215900   2.827   7.006   3.881
 5001SOL     OW15901   0.641   4.114   0.452
 5001SOL    HW115902   0.694   4.029   0.454
 5001SOL    HW215903   0.662   4.169   0.533
 5002SOL     OW15904   1.365   3.509   3.663
 5002SOL    HW115905   1.398   3.559   3.743
 5002SOL    HW215906   1.406   3.548   3.580
 5003SOL     OW15907   2.349   6.300   2.994
 5003SOL    HW115908   2.306   6.351   3.068
 5003SOL    HW215909   2.442   6.275   3.021
 5004SOL     OW15910   3.150   5.059   5.849
 5004SOL    HW115911   3.211   4.997   5.899
 5004SOL    HW215912   3.189   5.080   5.760
 5005SOL     OW15913   3.257   2.424   0.237
 5005SOL    HW115914   3.202   2.481   0.175
 5005SOL    HW215915   3.197   2.362   0.287
 5006SOL     OW15916   5.155   6.885   0.510
 5006SOL    HW115917   5.239   6.841   0.477
 5006SOL    HW215918   5.096   6.816   0.552
 5007SOL     OW15919   1.507   0.231   6.781
 5007SOL    HW115920   1.558   0.157   6.824
 5007SOL    HW215921   1.499   0.214   6.683
 5008SOL     OW15922   6.313   6.969   3.282
 5008SOL    HW115923   6.301   6.874   3.253
 5008SOL    HW215924   6.288   0.007   3.206
 5009SOL     OW15925   1.754   6.129   1.010
 5009SOL    HW115926   1.846   6.090   1.015
 5009SOL    HW215927   1.760   6.229   1.010
 5010SOL     OW15928   3.410   3.392   2.771
 5010SOL    HW115929   3.323   3.412   2.724
 5010SOL    HW215930   3.439   3.300   2.747
 5011SOL     OW15931   1.956   4.010   3.058
 5011SOL    HW115932   1.886   3.980   3.123
 5011SOL    HW215933   2.034   4.047   3.109
 5012SOL     OW15934   5.110   4.173   6.328
 5012SOL    HW115935   5.016   4.196   6.354
 5012SOL    HW215936   5.114   4.077   6.302
 5013SOL     OW15937   4.868   1.811   7.017
 5013SOL    HW115938   4.928   1.874   6.968
 5013SOL    HW215939   4.852   1.730   6.961
 5014SOL     OW15940   5.192   4.154   0.930
 5014SOL    HW115941   5.231   4.178   1.018
 5014SOL    HW215942   5.203   4.056   0.915
 5015SOL     OW15943   4.734   2.317   3.782
 5015SOL    HW115944   4.796   2.254   3.829
 5015SOL    HW215945   4.787   2.375   3.719
 5016SOL     OW15946   2.474   2.511   0.730
 5016SOL    HW115947   2.554   2.550   0.776
 5016SOL    HW215948   2.474   2.538   0.634
 5017SOL     OW15949   1.721   1.916   6.921
 5017SOL    HW115950   1.756   1.993   6.867
 5017SOL    HW215951   1.722   1.940   7.018
 5018SOL     OW15952   0.405   4.323   2.078
 5018SOL    HW115953   0.388   4.363   2.168
 5018SOL    HW215954   0.503   4.304   2.068
 5019SOL     OW15955   1.444   4.712   6.536
 5019SOL    HW115956   1.360   4.765   6.551
 5019SOL    HW215957   1.439   4.666   6.448
 5020SOL     OW15958   4.737   6.658   6.130
 5020SOL    HW115959   4.802   6.713   6.078
 5020SOL    HW215960   4.678   6.607   6.067
 5021SOL     OW15961   1.443   1.926   5.898
 5021SOL    HW115962   1.539   1.898   5.908
 5021SOL    HW215963   1.437   2.000   5.831
 5022SOL     OW15964   1.553   0.939   0.629
 5022SOL    HW115965   1.652   0.940   0.642
 5022SOL    HW215966   1.531   0.895   0.542
 5023SOL     OW15967   6.364   3.332   0.912
 5023SOL    HW115968   6.268   3.309   0.928
 5023SOL    HW215969   6.386   3.319   0.815
 5024SOL     OW15970   6.029   6.070   2.463
 5024SOL    HW115971   6.117   6.071   2.416
 5024SOL    HW215972   5.961   6.026   2.403
 5025SOL     OW15973   3.860   1.871   2.296
 5025SOL    HW115974   3.901   1.893   2.207
 5025SOL    HW215975   3.772   1.918   2.304
 5026SOL     OW15976   6.325   6.130   6.510
 5026SOL    HW115977   6.320   6.220   6.468
 5026SOL    HW215978   6.374   6.067   6.449
 5027SOL     OW15979   0.830   6.609   2.107
 5027SOL    HW115980   0.800   6.676   2.175
 5027SOL    HW215981   0.803   6.518   2.136
 5028SOL     OW15982   0.392   6.837   3.296
 5028SOL    HW115983   0.409   6.792   3.384
 5028SOL    HW215984   0.294   6.843   3.280
 5029SOL     OW15985   0.526   3.126   3.114
 5029SOL    HW115986   0.541   3.173   3.201
 5029SOL    HW215987   0.439   3.157   3.075
 5030SOL     OW15988   6.404   0.579   6.414
 5030SOL    HW115989   6.410   0.621   6.324
 5030SOL    HW215990   6.496   0.556   6.447
 5031SOL     OW15991   5.940   0.748   4.610
 5031SOL    HW115992   5.911   0.770   4.703
 5031SOL    HW215993   5.866   0.770   4.546
 5032SOL     OW15994   1.474   3.038   0.709
 5032SOL    HW115995   1.498   3.075   0.799
 5032SOL    HW215996   1.446   2.943   0.718
 5033SOL     OW15997   2.790   6.211   6.578
 5033SOL    HW115998   2.817   6.273   6.504
 5033SOL    HW215999   2.810   6.117   6.552
 5034SOL     OW16000   5.952   1.160   2.911
 5034SOL    HW116001   5.860   1.200   2.921
 5034SOL    HW216002   5.949   1.086   2.844
 5035SOL     OW16003   7.020   4.138   0.298
 5035SOL    HW116004   6.935   4.095   0.269
 5035SOL    HW216005   0.068   4.068   0.311
 5036SOL     OW16006   0.242   4.901   6.945
 5036SOL    HW116007   0.208   4.856   6.862
 5036SOL    HW216008   0.168   4.954   6.987
 5037SOL     OW16009   5.464   2.333   2.617
 5037SOL    HW116010   5.553   2.369   2.644
 5037SOL    HW216011   5.440   2.256   2.677
 5038SOL     OW16012   1.936   3.988   5.959
 5038SOL    HW116013   2.023   3.970   5.915
 5038SOL    HW216014   1.951   4.041   6.043
 5039SOL     OW16015   3.105   3.732   5.538
 5039SOL    HW116016   3.072   3.808   5.483
 5039SOL    HW216017   3.199   3.709   5.512
 5040SOL     OW16018   2.060   4.716   6.267
 5040SOL    HW116019   2.018   4.734   6.178
 5040SOL    HW216020   2.066   4.801   6.319
 5041SOL     OW16021   1.727   1.858   1.467
 5041SOL    HW116022   1.679   1.796   1.405
 5041SOL    HW216023   1.704   1.835   1.562
 5042SOL     OW16024   6.043   3.063   1.153
 5042SOL    HW116025   6.107   3.001   1.106
 5042SOL    HW216026   5.949   3.036   1.132
 5043SOL     OW16027   2.916   1.259   5.850
 5043SOL    HW116028   2.851   1.197   5.894
 5043SOL    HW216029   2.868   1.316   5.785
 5044SOL     OW16030   6.671   6.215   2.241
 5044SOL    HW116031   6.612   6.161   2.182
 5044SOL    HW216032   6.659   6.186   2.336
 5045SOL     OW16033   5.797   3.253   0.301
 5045SOL    HW116034   5.828   3.348   0.289
 5045SOL    HW216035   5.697   3.252   0.309
 5046SOL     OW16036   3.580   4.139   4.144
 5046SOL    HW116037   3.626   4.086   4.073
 5046SOL    HW216038   3.592   4.095   4.232
 5047SOL     OW16039   0.193   3.174   2.615
 5047SOL    HW116040   0.265   3.228   2.571
 5047SOL    HW216041   0.228   3.082   2.634
 5048SOL     OW16042   0.606   1.107   1.865
 5048SOL    HW116043   0.526   1.133   1.918
 5048SOL    HW216044   0.689   1.140   1.911
 5049SOL     OW16045   6.282   2.239   4.751
 5049SOL    HW116046   6.255   2.176   4.824
 5049SOL    HW216047   6.376   2.270   4.767
 5050SOL     OW16048   0.961   0.943   2.147
 5050SOL    HW116049   0.993   0.849   2.156
 5050SOL    HW216050   1.039   1.004   2.138
 5051SOL     OW16051   4.201   3.413   0.641
 5051SOL    HW116052   4.134   3.475   0.682
 5051SOL    HW216053   4.223   3.445   0.549
 5052SOL     OW16054   2.530   5.786   5.993
 5052SOL    HW116055   2.587   5.862   5.960
 5052SOL    HW216056   2.554   5.703   5.945
 5053SOL     OW16057   2.044   3.880   3.884
 5053SOL    HW116058   1.976   3.953   3.879
 5053SOL    HW216059   2.045   3.843   3.977
 5054SOL     OW16060   3.664   5.773   5.154
 5054SOL    HW116061   3.568   5.798   5.160
 5054SOL    HW216062   3.703   5.808   5.069
 5055SOL     OW16063   1.606   6.925   5.523
 5055SOL    HW116064   1.676   6.995   5.535
 5055SOL    HW216065   1.649   6.836   5.506
 5056SOL     OW16066   6.496   4.110   0.411
 5056SOL    HW116067   6.542   4.193   0.443
 5056SOL    HW216068   6.541   4.030   0.451
 5057SOL     OW16069   0.070   5.564   4.933
 5057SOL    HW116070   0.113   5.481   4.895
 5057SOL    HW216071   7.007   5.582   4.883
 5058SOL     OW16072   2.556   3.308   5.371
 5058SOL    HW116073   2.495   3.231   5.351
 5058SOL    HW216074   2.611   3.328   5.290
 5059SOL     OW16075   5.353   3.312   3.319
 5059SOL    HW116076   5.434   3.257   3.301
 5059SOL    HW216077   5.367   3.364   3.404
 5060SOL     OW16078   0.411   2.532   5.622
 5060SOL    HW116079   0.384   2.551   5.716
 5060SOL    HW216080   0.407   2.617   5.568
 5061SOL     OW16081   3.571   3.247   3.294
 5061SOL    HW116082   3.571   3.166   3.352
 5061SOL    HW216083   3.665   3.271   3.270
 5062SOL     OW16084   5.875   0.764   3.015
 5062SOL    HW116085   5.824   0.745   3.099
 5062SOL    HW216086   5.962   0.808   3.038
 5063SOL     OW16087   1.347   0.072   2.198
 5063SOL    HW116088   1.293   0.101   2.277
 5063SOL    HW216089   1.316   7.005   2.167
 5064SOL     OW16090   4.313   4.084   1.714
 5064SOL    HW116091   4.369   4.146   1.768
 5064SOL    HW216092   4.294   4.126   1.625
 5065SOL     OW16093   0.987   1.810   3.235
 5065SOL    HW116094   1.010   1.832   3.141
 5065SOL    HW216095   1.049   1.858   3.297
 5066SOL     OW16096   3.807   4.767   0.990
 5066SOL    HW116097   3.899   4.777   1.029
 5066SOL    HW216098   3.772   4.676   1.011
 5067SOL     OW16099   3.153   1.119   2.519
 5067SOL    HW116100   3.108   1.035   2.491
 5067SOL    HW216101   3.158   1.123   2.619
 5068SOL     OW16102   2.965   4.782   0.331
 5068SOL    HW116103   2.977   4.729   0.415
 5068SOL    HW216104   3.027   4.860   0.333
 5069SOL     OW16105   1.655   2.468   5.731
 5069SOL    HW116106   1.690   2.409   5.658
 5069SOL    HW216107   1.732   2.502   5.785
 5070SOL     OW16108   4.976   4.769   4.483
 5070SOL    HW116109   4.904   4.727   4.538
 5070SOL    HW216110   5.065   4.751   4.525
 5071SOL     OW16111   4.262   1.893   3.551
 5071SOL    HW116112   4.205   1.921   3.628
 5071SOL    HW216113   4.229   1.937   3.467
 5072SOL     OW16114   1.080   0.841   1.552
 5072SOL    HW116115   1.038   0.900   1.621
 5072SOL    HW216116   1.125   0.764   1.597
 5073SOL     OW16117   1.496   4.163   0.784
 5073SOL    HW116118   1.428   4.100   0.746
 5073SOL    HW216119   1.538   4.121   0.865
 5074SOL     OW16120   3.055   2.147   1.919
 5074SOL    HW116121   2.999   2.227   1.941
 5074SOL    HW216122   3.111   2.123   1.998
 5075SOL     OW16123   1.499   2.245   6.349
 5075SOL    HW116124   1.580   2.216   6.399
 5075SOL    HW216125   1.484   2.183   6.271
 5076SOL     OW16126   5.826   0.055   1.096
 5076SOL    HW116127   5.759   7.003   1.087
 5076SOL    HW216128   5.781   0.143   1.077
 5077SOL     OW16129   1.580   4.170   5.933
 5077SOL    HW116130   1.640   4.122   5.869
 5077SOL    HW216131   1.623   4.254   5.964
 5078SOL     OW16132   0.332   1.021   4.379
 5078SOL    HW116133   0.390   0.940   4.386
 5078SOL    HW216134   0.302   1.033   4.285
 5079SOL     OW16135   2.279   2.871   4.722
 5079SOL    HW116136   2.280   2.945   4.655
 5079SOL    HW216137   2.254   2.907   4.812
 5080SOL     OW16138   6.183   6.374   5.781
 5080SOL    HW116139   6.132   6.294   5.813
 5080SOL    HW216140   6.275   6.346   5.752
 5081SOL     OW16141   2.321   3.838   5.962
 5081SOL    HW116142   2.323   3.867   5.866
 5081SOL    HW216143   2.372   3.904   6.017
 5082SOL     OW16144   4.877   6.352   1.147
 5082SOL    HW116145   4.803   6.414   1.119
 5082SOL    HW216146   4.841   6.260   1.157
 5083SOL     OW16147   2.598   0.861   2.580
 5083SOL    HW116148   2.648   0.932   2.631
 5083SOL    HW216149   2.567   0.790   2.644
 5084SOL     OW16150   0.991   4.888   3.793
 5084SOL    HW116151   0.992   4.906   3.694
 5084SOL    HW216152   0.956   4.796   3.810
 5085SOL     OW16153   6.456   2.553   5.709
 5085SOL    HW116154   6.485   2.514   5.797
 5085SOL    HW216155   6.494   2.645   5.699
 5086SOL     OW16156   1.763   5.354   3.101
 5086SOL    HW116157   1.735   5.294   3.176
 5086SOL    HW216158   1.720   5.323   3.016
 5087SOL     OW16159   1.138   5.078   2.204
 5087SOL    HW116160   1.122   5.007   2.135
 5087SOL    HW216161   1.050   5.115   2.235
 5088SOL     OW16162   6.062   6.719   3.992
 5088SOL    HW116163   6.093   6.804   3.950
 5088SOL    HW216164   6.099   6.641   3.942
 5089SOL     OW16165   6.440   4.259   3.618
 5089SOL    HW116166   6.494   4.283   3.698
 5089SOL    HW216167   6.422   4.342   3.564
 5090SOL     OW16168   1.883   3.158   2.557
 5090SOL    HW116169   1.824   3.200   2.489
 5090SOL    HW216170   1.974   3.200   2.554
 5091SOL     OW16171   6.908   1.406   1.417
 5091SOL    HW116172   6.913   1.313   1.382
 5091SOL    HW216173   6.814   1.428   1.443
 5092SOL     OW16174   3.385   3.476   3.223
 5092SOL    HW116175   3.393   3.547   3.293
 5092SOL    HW216176   3.435   3.394   3.253
 5093SOL     OW16177   3.157   0.913   0.531
 5093SOL    HW116178   3.216   0.986   0.498
 5093SOL    HW216179   3.122   0.860   0.454
 5094SOL     OW16180   2.444   5.401   6.028
 5094SOL    HW116181   2.403   5.330   5.971
 5094SOL    HW216182   2.488   5.470   5.970
 5095SOL     OW16183   6.658   2.491   2.688
 5095SOL    HW116184   6.714   2.420   2.646
 5095SOL    HW216185   6.644   2.469   2.785
 5096SOL     OW16186   4.250   4.763   6.476
 5096SOL    HW116187   4.214   4.827   6.544
 5096SOL    HW216188   4.210   4.783   6.386
 5097SOL     OW16189   0.961   0.438   6.652
 5097SOL    HW116190   0.881   0.377   6.654
 5097SOL    HW216191   1.039   0.389   6.613
 5098SOL     OW16192   2.762   0.774   2.177
 5098SOL    HW116193   2.813   0.707   2.123
 5098SOL    HW216194   2.790   0.768   2.273
 5099SOL     OW16195   0.539   0.267   1.229
 5099SOL    HW116196   0.621   0.246   1.174
 5099SOL    HW216197   0.567   0.310   1.315
 5100SOL     OW16198   2.974   5.704   4.287
 5100SOL    HW116199   2.887   5.654   4.289
 5100SOL    HW216200   2.956   5.803   4.284
 5101SOL     OW16201   4.137   0.186   6.587
 5101SOL    HW116202   4.150   0.210   6.683
 5101SOL    HW216203   4.053   0.133   6.578
 5102SOL     OW16204   5.507   6.307   3.886
 5102SOL    HW116205   5.573   6.242   3.849
 5102SOL    HW216206   5.514   6.393   3.834
 5103SOL     OW16207   0.094   0.885   4.125
 5103SOL    HW116208   0.048   0.884   4.214
 5103SOL    HW216209   0.147   0.969   4.115
 5104SOL     OW16210   1.692   5.862   2.134
 5104SOL    HW116211   1.599   5.897   2.119
 5104SOL    HW216212   1.735   5.912   2.209
 5105SOL     OW16213   2.689   2.395   6.972
 5105SOL    HW116214   2.653   2.306   6.945
 5105SOL    HW216215   2.643   2.426   0.034
 5106SOL     OW16216   4.325   1.774   0.579
 5106SOL    HW116217   4.415   1.745   0.613
 5106SOL    HW216218   4.338   1.839   0.504
 5107SOL     OW16219   4.263   2.138   1.491
 5107SOL    HW116220   4.342   2.193   1.464
 5107SOL    HW216221   4.226   2.173   1.577
 5108SOL     OW16222   3.932   3.783   4.929
 5108SOL    HW116223   4.008   3.721   4.915
 5108SOL    HW216224   3.950   3.870   4.882
 5109SOL     OW16225   0.786   2.151   6.644
 5109SOL    HW116226   0.709   2.087   6.640
 5109SOL    HW216227   0.820   2.156   6.738
 5110SOL     OW16228   0.694   0.242   6.384
 5110SOL    HW116229   0.752   0.311   6.341
 5110SOL    HW216230   0.717   0.234   6.481
 5111SOL     OW16231   1.279   0.451   4.669
 5111SOL    HW116232   1.245   0.532   4.621
 5111SOL    HW216233   1.247   0.369   4.621
 5112SOL     OW16234   1.448   7.018   3.345
 5112SOL    HW116235   1.534   0.033   3.310
 5112SOL    HW216236   1.459   6.921   3.366
 5113SOL     OW16237   1.692   6.423   1.101
 5113SOL    HW116238   1.768   6.443   1.163
 5113SOL    HW216239   1.713   6.459   1.010
 5114SOL     OW16240   4.133   0.338   6.823
 5114SOL    HW116241   4.192   0.410   6.862
 5114SOL    HW216242   4.051   0.328   6.880
 5115SOL     OW16243   1.676   5.053   3.832
 5115SOL    HW116244   1.662   5.130   3.893
 5115SOL    HW216245   1.774   5.036   3.821
 5116SOL     OW16246   0.793   6.516   6.838
 5116SOL    HW116247   0.727   6.571   6.787
 5116SOL    HW216248   0.768   6.419   6.832
 5117SOL     OW16249   1.615   4.275   4.449
 5117SOL    HW116250   1.684   4.344   4.428
 5117SOL    HW216251   1.637   4.232   4.536
 5118SOL     OW16252   5.281   1.005   6.906
 5118SOL    HW116253   5.373   1.023   6.942
 5118SOL    HW216254   5.235   0.937   6.964
 5119SOL     OW16255   5.591   0.482   2.464
 5119SOL    HW116256   5.611   0.532   2.548
 5119SOL    HW216257   5.494   0.457   2.463
 5120SOL     OW16258   3.853   0.426   4.217
 5120SOL    HW116259   3.809   0.509   4.252
 5120SOL    HW216260   3.833   0.417   4.119
 5121SOL     OW16261   2.824   2.803   6.759
 5121SOL    HW116262   2.874   2.864   6.819
 5121SOL    HW216263   2.821   2.841   6.666
 5122SOL     OW16264   3.365   6.222   3.766
 5122SOL    HW116265   3.393   6.305   3.718
 5122SOL    HW216266   3.431   6.201   3.838
 5123SOL     OW16267   4.095   2.022   4.453
 5123SOL    HW116268   4.039   2.069   4.385
 5123SOL    HW216269   4.180   1.991   4.411
 5124SOL     OW16270   2.147   5.549   4.760
 5124SOL    HW116271   2.111   5.561   4.668
 5124SOL    HW216272   2.176   5.637   4.796
 5125SOL     OW16273   6.118   3.534   3.802
 5125SOL    HW116274   6.209   3.548   3.840
 5125SOL    HW216275   6.052   3.518   3.876
 5126SOL     OW16276   5.920   5.312   5.497
 5126SOL    HW116277   5.968   5.399   5.493
 5126SOL    HW216278   5.982   5.241   5.530
 5127SOL     OW16279   0.987   4.024   0.165
 5127SOL    HW116280   1.044   4.077   0.102
 5127SOL    HW216281   0.955   3.942   0.119
 5128SOL     OW16282   6.848   0.419   5.999
 5128SOL    HW116283   6.811   0.423   6.091
 5128SOL    HW216284   6.783   0.461   5.935
 5129SOL     OW16285   6.564   0.069   2.488
 5129SOL    HW116286   6.631   0.135   2.454
 5129SOL    HW216287   6.495   0.052   2.418
 5130SOL     OW16288   0.076   5.363   3.965
 5130SOL    HW116289   0.129   5.433   3.917
 5130SOL    HW216290   0.117   5.273   3.947
 5131SOL     OW16291   2.232   4.803   4.333
 5131SOL    HW116292   2.255   4.720   4.384
 5131SOL    HW216293   2.315   4.855   4.313
 5132SOL     OW16294   3.509   2.667   6.927
 5132SOL    HW116295   3.477   2.741   6.986
 5132SOL    HW216296   3.527   2.586   6.983
 5133SOL     OW16297   2.287   5.558   0.199
 5133SOL    HW116298   2.212   5.623   0.213
 5133SOL    HW216299   2.250   5.470   0.168
 5134SOL     OW16300   0.511   3.389   2.951
 5134SOL    HW116301   0.450   3.314   2.975
 5134SOL    HW216302   0.605   3.366   2.978
 5135SOL     OW16303   5.576   3.069   4.710
 5135SOL    HW116304   5.635   3.012   4.653
 5135SOL    HW216305   5.596   3.053   4.806
 5136SOL     OW16306   4.615   0.855   5.936
 5136SOL    HW116307   4.643   0.835   6.030
 5136SOL    HW216308   4.694   0.885   5.884
 5137SOL     OW16309   4.941   2.892   5.375
 5137SOL    HW116310   5.021   2.937   5.336
 5137SOL    HW216311   4.927   2.924   5.469
 5138SOL     OW16312   3.315   2.997   5.488
 5138SOL    HW116313   3.241   3.057   5.457
 5138SOL    HW216314   3.388   3.053   5.528
 5139SOL     OW16315   1.163   0.723   3.389
 5139SOL    HW116316   1.225   0.645   3.378
 5139SOL    HW216317   1.078   0.693   3.432
 5140SOL     OW16318   4.215   2.788   0.024
 5140SOL    HW116319   4.307   2.763   7.016
 5140SOL    HW216320   4.210   2.887   0.037
 5141SOL     OW16321   6.796   3.735   0.650
 5141SOL    HW116322   6.838   3.791   0.578
 5141SOL    HW216323   6.842   3.646   0.654
 5142SOL     OW16324   6.192   0.034   3.560
 5142SOL    HW116325   6.095   0.017   3.578
 5142SOL    HW216326   6.209   0.030   3.462
 5143SOL     OW16327   6.510   4.607   3.752
 5143SOL    HW116328   6.512   4.513   3.787
 5143SOL    HW216329   6.518   4.605   3.652
 5144SOL     OW16330   0.451   4.809   6.090
 5144SOL    HW116331   0.439   4.721   6.044
 5144SOL    HW216332   0.529   4.803   6.153
 5145SOL     OW16333   2.912   4.954   5.816
 5145SOL    HW116334   2.845   4.972   5.889
 5145SOL    HW216335   2.995   5.007   5.833
 5146SOL     OW16336   3.609   4.059   5.536
 5146SOL    HW116337   3.620   4.061   5.437
 5146SOL    HW216338   3.531   4.002   5.561
 5147SOL     OW16339   6.997   5.356   2.677
 5147SOL    HW116340   0.005   5.407   2.597
 5147SOL    HW216341   0.014   5.264   2.675
 5148SOL     OW16342   6.833   6.111   1.459
 5148SOL    HW116343   6.825   6.013   1.480
 5148SOL    HW216344   6.754   6.140   1.406
 5149SOL     OW16345   6.170   5.510   2.697
 5149SOL    HW116346   6.092   5.447   2.690
 5149SOL    HW216347   6.254   5.463   2.669
 5150SOL     OW16348   2.352   5.489   2.970
 5150SOL    HW116349   2.368   5.413   2.907
 5150SOL    HW216350   2.331   5.453   3.061
 5151SOL     OW16351   6.359   2.389   0.833
 5151SOL    HW116352   6.456   2.376   0.850
 5151SOL    HW216353   6.307   2.319   0.883
 5152SOL     OW16354   2.442   4.632   0.362
 5152SOL    HW116355   2.412   4.617   0.268
 5152SOL    HW216356   2.522   4.691   0.363
 5153SOL     OW16357   1.865   0.664   0.169
 5153SOL    HW116358   1.821   0.657   0.258
 5153SOL    HW216359   1.909   0.578   0.145
 5154SOL     OW16360   0.916   2.925   6.088
 5154SOL    HW116361   0.933   2.992   6.159
 5154SOL    HW216362   0.988   2.855   6.090
 5155SOL     OW16363   4.875   6.955   1.916
 5155SOL    HW116364   4.796   7.009   1.944
 5155SOL    HW216365   4.910   6.903   1.994
 5156SOL     OW16366   5.782   3.822   5.950
 5156SOL    HW116367   5.873   3.808   5.909
 5156SOL    HW216368   5.769   3.758   6.025
 5157SOL     OW16369   3.567   2.109   3.374
 5157SOL    HW116370   3.501   2.128   3.446
 5157SOL    HW216371   3.659   2.136   3.404
 5158SOL     OW16372   3.343   1.226   1.707
 5158SOL    HW116373   3.330   1.181   1.796
 5158SOL    HW216374   3.379   1.318   1.721
 5159SOL     OW16375   6.788   3.626   4.505
 5159SOL    HW116376   6.743   3.686   4.440
 5159SOL    HW216377   6.842   3.681   4.569
 5160SOL     OW16378   7.016   5.226   2.947
 5160SOL    HW116379   6.986   5.260   2.859
 5160SOL    HW216380   0.009   5.303   3.010
 5161SOL     OW16381   1.353   3.783   5.485
 5161SOL    HW116382   1.348   3.881   5.503
 5161SOL    HW216383   1.449   3.755   5.475
 5162SOL     OW16384   1.310   5.342   3.011
 5162SOL    HW116385   1.221   5.362   2.970
 5162SOL    HW216386   1.367   5.424   3.010
 5163SOL     OW16387   3.592   6.489   0.287
 5163SOL    HW116388   3.542   6.404   0.272
 5163SOL    HW216389   3.529   6.566   0.279
 5164SOL     OW16390   4.046   2.591   0.157
 5164SOL    HW116391   4.093   2.678   0.140
 5164SOL    HW216392   3.994   2.598   0.242
 5165SOL     OW16393   5.968   4.557   5.977
 5165SOL    HW116394   5.945   4.533   6.072
 5165SOL    HW216395   6.061   4.594   5.973
 5166SOL     OW16396   0.841   5.362   2.679
 5166SOL    HW116397   0.863   5.289   2.615
 5166SOL    HW216398   0.817   5.323   2.768
 5167SOL     OW16399   6.643   6.366   6.893
 5167SOL    HW116400   6.632   6.326   6.984
 5167SOL    HW216401   6.646   6.293   6.825
 5168SOL     OW16402   5.567   4.079   2.160
 5168SOL    HW116403   5.658   4.093   2.122
 5168SOL    HW216404   5.540   3.983   2.148
 5169SOL     OW16405   4.162   1.707   4.407
 5169SOL    HW116406   4.172   1.666   4.498
 5169SOL    HW216407   4.234   1.776   4.394
 5170SOL     OW16408   0.579   4.326   5.623
 5170SOL    HW116409   0.497   4.273   5.644
 5170SOL    HW216410   0.643   4.319   5.700
 5171SOL     OW16411   1.404   5.880   4.286
 5171SOL    HW116412   1.460   5.957   4.253
 5171SOL    HW216413   1.309   5.893   4.258
 5172SOL     OW16414   1.139   1.997   2.365
 5172SOL    HW116415   1.118   2.067   2.297
 5172SOL    HW216416   1.108   1.908   2.331
 5173SOL     OW16417   4.988   4.825   5.838
 5173SOL    HW116418   5.043   4.897   5.882
 5173SOL    HW216419   5.039   4.740   5.837
 5174SOL     OW16420   2.223   4.819   3.739
 5174SOL    HW116421   2.184   4.870   3.816
 5174SOL    HW216422   2.301   4.870   3.701
 5175SOL     OW16423   2.285   3.416   0.289
 5175SOL    HW116424   2.328   3.471   0.361
 5175SOL    HW216425   2.189   3.401   0.312
 5176SOL     OW16426   4.652   2.985   6.576
 5176SOL    HW116427   4.687   2.975   6.670
 5176SOL    HW216428   4.724   3.023   6.518
 5177SOL     OW16429   5.322   0.696   0.197
 5177SOL    HW116430   5.324   0.638   0.277
 5177SOL    HW216431   5.415   0.727   0.176
 5178SOL     OW16432   1.132   4.344   2.298
 5178SOL    HW116433   1.033   4.344   2.315
 5178SOL    HW216434   1.163   4.251   2.279
 5179SOL     OW16435   3.740   6.291   3.784
 5179SOL    HW116436   3.826   6.257   3.821
 5179SOL    HW216437   3.725   6.385   3.814
 5180SOL     OW16438   2.964   2.686   1.060
 5180SOL    HW116439   2.904   2.703   0.982
 5180SOL    HW216440   3.045   2.744   1.052
 5181SOL     OW16441   6.276   1.471   2.229
 5181SOL    HW116442   6.182   1.455   2.200
 5181SOL    HW216443   6.281   1.473   2.328
 5182SOL     OW16444   3.973   4.410   1.504
 5182SOL    HW116445   4.060   4.454   1.481
 5182SOL    HW216446   3.899   4.454   1.454
 5183SOL     OW16447   4.582   1.625   3.069
 5183SOL    HW116448   4.606   1.720   3.046
 5183SOL    HW216449   4.564   1.619   3.167
 5184SOL     OW16450   0.415   2.151   4.390
 5184SOL    HW116451   0.319   2.154   4.359
 5184SOL    HW216452   0.461   2.235   4.364
 5185SOL     OW16453   5.344   0.994   2.439
 5185SOL    HW116454   5.399   0.980   2.357
 5185SOL    HW216455   5.334   0.907   2.487
 5186SOL     OW16456   6.434   3.216   1.331
 5186SOL    HW116457   6.531   3.218   1.355
 5186SOL    HW216458   6.404   3.121   1.322
 5187SOL     OW16459   0.744   6.898   3.987
 5187SOL    HW116460   0.727   6.837   3.910
 5187SOL    HW216461   0.692   6.866   4.066
 5188SOL     OW16462   0.711   5.618   0.960
 5188SOL    HW116463   0.651   5.694   0.933
 5188SOL    HW216464   0.661   5.558   1.023
 5189SOL     OW16465   4.318   4.582   0.526
 5189SOL    HW116466   4.265   4.565   0.443
 5189SOL    HW216467   4.336   4.495   0.572
 5190SOL     OW16468   0.079   2.454   4.180
 5190SOL    HW116469   0.176   2.441   4.199
 5190SOL    HW216470   0.065   2.544   4.138
 5191SOL     OW16471   4.331   0.525   1.924
 5191SOL    HW116472   4.330   0.578   1.840
 5191SOL    HW216473   4.424   0.492   1.942
 5192SOL     OW16474   2.857   5.758   2.924
 5192SOL    HW116475   2.818   5.832   2.869
 5192SOL    HW216476   2.844   5.671   2.877
 5193SOL     OW16477   5.024   4.350   4.702
 5193SOL    HW116478   4.936   4.398   4.705
 5193SOL    HW216479   5.010   4.257   4.668
 5194SOL     OW16480   4.779   1.910   0.486
 5194SOL    HW116481   4.739   1.908   0.394
 5194SOL    HW216482   4.874   1.940   0.480
 5195SOL     OW16483   5.937   6.288   4.630
 5195SOL    HW116484   5.854   6.249   4.670
 5195SOL    HW216485   5.991   6.333   4.701
 5196SOL     OW16486   3.351   4.854   0.917
 5196SOL    HW116487   3.315   4.885   0.829
 5196SOL    HW216488   3.275   4.825   0.975
 5197SOL     OW16489   2.172   5.490   5.125
 5197SOL    HW116490   2.177   5.548   5.206
 5197SOL    HW216491   2.244   5.514   5.061
 5198SOL     OW16492   3.718   6.490   2.879
 5198SOL    HW116493   3.751   6.431   2.953
 5198SOL    HW216494   3.620   6.505   2.889
 5199SOL     OW16495   1.411   5.854   0.492
 5199SOL    HW116496   1.508   5.831   0.500
 5199SOL    HW216497   1.357   5.770   0.490
 5200SOL     OW16498   1.241   2.303   5.127
 5200SOL    HW116499   1.195   2.312   5.215
 5200SOL    HW216500   1.251   2.394   5.085
 5201SOL     OW16501   6.993   6.439   4.012
 5201SOL    HW116502   6.930   6.416   4.086
 5201SOL    HW216503   6.943   6.440   3.925
 5202SOL     OW16504   6.035   4.065   5.538
 5202SOL    HW116505   6.004   4.026   5.450
 5202SOL    HW216506   6.132   4.046   5.550
 5203SOL     OW16507   2.482   1.390   6.558
 5203SOL    HW116508   2.478   1.487   6.581
 5203SOL    HW216509   2.529   1.379   6.470
 5204SOL     OW16510   4.337   6.378   6.846
 5204SOL    HW116511   4.316   6.445   6.774
 5204SOL    HW216512   4.377   6.426   6.925
 5205SOL     OW16513   0.492   5.786   0.876
 5205SOL    HW116514   0.465   5.862   0.935
 5205SOL    HW216515   0.411   5.745   0.835
 5206SOL     OW16516   0.570   5.208   0.454
 5206SOL    HW116517   0.615   5.158   0.380
 5206SOL    HW216518   0.553   5.302   0.424
 5207SOL     OW16519   1.375   6.860   3.690
 5207SOL    HW116520   1.328   6.948   3.695
 5207SOL    HW216521   1.326   6.792   3.745
 5208SOL     OW16522   5.035   2.484   0.020
 5208SOL    HW116523   5.114   2.501   0.079
 5208SOL    HW216524   4.963   2.439   0.074
 5209SOL     OW16525   5.578   0.203   2.132
 5209SOL    HW116526   5.665   0.202   2.181
 5209SOL    HW216527   5.595   0.211   2.034
 5210SOL     OW16528   4.596   3.280   0.372
 5210SOL    HW116529   4.595   3.357   0.435
 5210SOL    HW216530   4.604   3.194   0.422
 5211SOL     OW16531   4.099   2.540   6.052
 5211SOL    HW116532   4.018   2.518   5.997
 5211SOL    HW216533   4.180   2.506   6.005
 5212SOL     OW16534   0.755   2.832   0.626
 5212SOL    HW116535   0.732   2.867   0.717
 5212SOL    HW216536   0.854   2.815   0.621
 5213SOL     OW16537   4.129   3.941   0.386
 5213SOL    HW116538   4.111   3.875   0.313
 5213SOL    HW216539   4.226   3.938   0.411
 5214SOL     OW16540   4.863   2.382   6.508
 5214SOL    HW116541   4.946   2.363   6.454
 5214SOL    HW216542   4.889   2.404   6.602
 5215SOL     OW16543   1.071   4.845   4.097
 5215SOL    HW116544   1.055   4.928   4.043
 5215SOL    HW216545   1.159   4.852   4.143
 5216SOL     OW16546   4.271   4.858   1.586
 5216SOL    HW116547   4.176   4.882   1.608
 5216SOL    HW216548   4.331   4.932   1.616
 5217SOL     OW16549   3.589   5.348   4.352
 5217SOL    HW116550   3.555   5.321   4.262
 5217SOL    HW216551   3.676   5.302   4.370
 5218SOL     OW16552   0.703   0.956   1.557
 5218SOL    HW116553   0.646   0.889   1.606
 5218SOL    HW216554   0.722   0.921   1.465
 5219SOL     OW16555   3.642   1.483   4.967
 5219SOL    HW116556   3.597   1.450   5.050
 5219SOL    HW216557   3.707   1.555   4.990
 5220SOL     OW16558   1.340   5.952   2.419
 5220SOL    HW116559   1.426   5.970   2.466
 5220SOL    HW216560   1.277   6.028   2.433
 5221SOL     OW16561   6.066   1.614   3.136
 5221SOL    HW116562   6.017   1.537   3.177
 5221SOL    HW216563   6.116   1.582   3.055
 5222SOL     OW16564   3.900   6.616   2.482
 5222SOL    HW116565   3.971   6.636   2.549
 5222SOL    HW216566   3.817   6.586   2.528
 5223SOL     OW16567   6.334   2.796   0.522
 5223SOL    HW116568   6.283   2.720   0.481
 5223SOL    HW216569   6.392   2.761   0.595
 5224SOL     OW16570   6.445   2.895   4.572
 5224SOL    HW116571   6.355   2.916   4.611
 5224SOL    HW216572   6.434   2.839   4.490
 5225SOL     OW16573   0.088   0.733   3.877
 5225SOL    HW116574   0.110   0.763   3.970
 5225SOL    HW216575   0.154   0.772   3.813
 5226SOL     OW16576   6.868   6.997   4.762
 5226SOL    HW116577   6.845   0.067   4.732
 5226SOL    HW216578   6.852   6.933   4.686
 5227SOL     OW16579   0.430   3.117   5.571
 5227SOL    HW116580   0.478   3.173   5.639
 5227SOL    HW216581   0.430   3.021   5.601
 5228SOL     OW16582   6.882   2.481   0.663
 5228SOL    HW116583   6.967   2.532   0.668
 5228SOL    HW216584   6.805   2.545   0.652
 5229SOL     OW16585   2.769   6.340   0.336
 5229SOL    HW116586   2.685   6.380   0.298
 5229SOL    HW216587   2.760   6.331   0.435
 5230SOL     OW16588   0.450   5.873   1.910
 5230SOL    HW116589   0.397   5.937   1.966
 5230SOL    HW216590   0.429   5.779   1.937
 5231SOL     OW16591   4.806   2.382   4.497
 5231SOL    HW116592   4.765   2.472   4.481
 5231SOL    HW216593   4.822   2.370   4.595
 5232SOL     OW16594   1.465   3.561   6.220
 5232SOL    HW116595   1.484   3.614   6.303
 5232SOL    HW216596   1.530   3.587   6.148
 5233SOL     OW16597   4.082   1.345   2.236
 5233SOL    HW116598   4.001   1.392   2.203
 5233SOL    HW216599   4.056   1.283   2.310
 5234SOL     OW16600   2.747   1.813   6.212
 5234SOL    HW116601   2.811   1.751   6.256
 5234SOL    HW216602   2.654   1.777   6.219
 5235SOL     OW16603   1.663   2.587   0.853
 5235SOL    HW116604   1.608   2.669   0.869
 5235SOL    HW216605   1.760   2.608   0.867
 5236SOL     OW16606   4.493   5.110   2.045
 5236SOL    HW116607   4.567   5.048   2.019
 5236SOL    HW216608   4.412   5.057   2.071
 5237SOL     OW16609   1.187   0.719   4.909
 5237SOL    HW116610   1.250   0.645   4.933
 5237SOL    HW216611   1.102   0.707   4.960
 5238SOL     OW16612   0.842   4.759   0.274
 5238SOL    HW116613   0.923   4.818   0.268
 5238SOL    HW216614   0.802   4.765   0.365
 5239SOL     OW16615   3.565   2.842   5.049
 5239SOL    HW116616   3.642   2.796   5.006
 5239SOL    HW216617   3.549   2.803   5.140
 5240SOL     OW16618   3.113   2.197   5.552
 5240SOL    HW116619   3.058   2.220   5.472
 5240SOL    HW216620   3.189   2.139   5.525
 5241SOL     OW16621   0.345   5.195   4.556
 5241SOL    HW116622   0.349   5.294   4.539
 5241SOL    HW216623   0.353   5.147   4.469
 5242SOL     OW16624   6.419   6.465   0.207
 5242SOL    HW116625   6.408   6.464   0.306
 5242SOL    HW216626   6.330   6.472   0.163
 5243SOL     OW16627   1.848   5.649   1.557
 5243SOL    HW116628   1.850   5.618   1.652
 5243SOL    HW216629   1.780   5.722   1.547
 5244SOL     OW16630   2.895   5.199   0.063
 5244SOL    HW116631   2.914   5.110   0.022
 5244SOL    HW216632   2.825   5.247   0.009
 5245SOL     OW16633   4.337   4.431   0.138
 5245SOL    HW116634   4.244   4.395   0.131
 5245SOL    HW216635   4.383   4.419   0.050
 5246SOL     OW16636   6.095   3.315   1.659
 5246SOL    HW116637   6.096   3.268   1.571
 5246SOL    HW216638   6.112   3.413   1.644
 5247SOL     OW16639   2.146   0.827   6.431
 5247SOL    HW116640   2.183   0.756   6.372
 5247SOL    HW216641   2.074   0.877   6.382
 5248SOL     OW16642   5.817   2.094   3.051
 5248SOL    HW116643   5.782   2.131   3.137
 5248SOL    HW216644   5.912   2.122   3.039
 5249SOL     OW16645   0.549   5.324   6.183
 5249SOL    HW116646   0.496   5.274   6.115
 5249SOL    HW216647   0.641   5.342   6.148
 5250SOL     OW16648   2.280   5.866   6.661
 5250SOL    HW116649   2.244   5.775   6.642
 5250SOL    HW216650   2.349   5.889   6.592
 5251SOL     OW16651   0.399   3.293   6.863
 5251SOL    HW116652   0.400   3.226   6.789
 5251SOL    HW216653   0.485   3.288   6.913
 5252SOL     OW16654   1.989   6.734   0.448
 5252SOL    HW116655   1.931   6.660   0.483
 5252SOL    HW216656   2.054   6.762   0.519
 5253SOL     OW16657   5.923   4.527   4.721
 5253SOL    HW116658   5.860   4.513   4.644
 5253SOL    HW216659   5.870   4.544   4.804
 5254SOL     OW16660   4.554   0.716   2.896
 5254SOL    HW116661   4.527   0.624   2.868
 5254SOL    HW216662   4.642   0.738   2.853
 5255SOL     OW16663   5.605   1.886   5.188
 5255SOL    HW116664   5.596   1.813   5.120
 5255SOL    HW216665   5.591   1.847   5.280
 5256SOL     OW16666   4.514   1.827   3.499
 5256SOL    HW116667   4.558   1.878   3.425
 5256SOL    HW216668   4.444   1.884   3.542
 5257SOL     OW16669   5.344   6.903   2.001
 5257SOL    HW116670   5.287   6.985   2.008
 5257SOL    HW216671   5.437   6.929   1.976
 5258SOL     OW16672   5.970   3.151   1.845
 5258SOL    HW116673   5.927   3.203   1.918
 5258SOL    HW216674   6.024   3.212   1.787
 5259SOL     OW16675   5.167   6.144   2.083
 5259SOL    HW116676   5.206   6.222   2.132
 5259SOL    HW216677   5.240   6.081   2.058
 5260SOL     OW16678   4.631   3.407   0.628
 5260SOL    HW116679   4.626   3.490   0.683
 5260SOL    HW216680   4.564   3.340   0.662
 5261SOL     OW16681   0.697   3.739   6.584
 5261SOL    HW116682   0.641   3.660   6.562
 5261SOL    HW216683   0.672   3.773   6.675
 5262SOL     OW16684   2.660   1.136   3.556
 5262SOL    HW116685   2.657   1.039   3.583
 5262SOL    HW216686   2.682   1.191   3.637
 5263SOL     OW16687   2.316   1.617   4.025
 5263SOL    HW116688   2.377   1.632   3.946
 5263SOL    HW216689   2.241   1.556   3.998
 5264SOL     OW16690   6.780   2.664   2.199
 5264SOL    HW116691   6.731   2.666   2.286
 5264SOL    HW216692   6.725   2.708   2.128
 5265SOL     OW16693   6.392   3.832   4.026
 5265SOL    HW116694   6.322   3.902   4.015
 5265SOL    HW216695   6.481   3.868   3.998
 5266SOL     OW16696   3.126   5.605   0.618
 5266SOL    HW116697   3.074   5.527   0.653
 5266SOL    HW216698   3.212   5.613   0.670
 5267SOL     OW16699   5.554   3.277   5.199
 5267SOL    HW116700   5.623   3.246   5.265
 5267SOL    HW216701   5.545   3.209   5.126
 5268SOL     OW16702   5.832   1.115   6.831
 5268SOL    HW116703   5.897   1.190   6.842
 5268SOL    HW216704   5.863   1.036   6.884
 5269SOL     OW16705   1.444   6.376   2.949
 5269SOL    HW116706   1.378   6.304   2.971
 5269SOL    HW216707   1.504   6.391   3.027
 5270SOL     OW16708   6.076   0.892   1.054
 5270SOL    HW116709   6.049   0.921   0.962
 5270SOL    HW216710   6.048   0.797   1.068
 5271SOL     OW16711   6.443   5.527   5.409
 5271SOL    HW116712   6.541   5.545   5.395
 5271SOL    HW216713   6.412   5.457   5.345
 5272SOL     OW16714   2.911   5.775   1.835
 5272SOL    HW116715   2.958   5.691   1.810
 5272SOL    HW216716   2.852   5.758   1.914
 5273SOL     OW16717   6.769   3.011   3.892
 5273SOL    HW116718   6.771   2.987   3.989
 5273SOL    HW216719   6.744   3.107   3.882
 5274SOL     OW16720   6.578   6.587   2.836
 5274SOL    HW116721   6.658   6.624   2.884
 5274SOL    HW216722   6.539   6.658   2.778
 5275SOL     OW16723   3.767   2.049   1.427
 5275SOL    HW116724   3.774   2.075   1.331
 5275SOL    HW216725   3.690   2.096   1.469
 5276SOL     OW16726   1.984   0.215   1.275
 5276SOL    HW116727   2.025   0.189   1.188
 5276SOL    HW216728   1.890   0.180   1.280
 5277SOL     OW16729   1.512   1.405   2.550
 5277SOL    HW116730   1.521   1.327   2.612
 5277SOL    HW216731   1.478   1.485   2.600
 5278SOL     OW16732   6.190   6.957   3.923
 5278SOL    HW116733   6.270   6.975   3.866
 5278SOL    HW216734   6.219   6.935   4.016
 5279SOL     OW16735   2.257   5.049   6.243
 5279SOL    HW116736   2.271   4.988   6.321
 5279SOL    HW216737   2.295   5.140   6.265
 5280SOL     OW16738   2.401   6.288   4.830
 5280SOL    HW116739   2.368   6.380   4.853
 5280SOL    HW216740   2.478   6.264   4.890
 5281SOL     OW16741   7.017   2.781   2.753
 5281SOL    HW116742   0.028   2.797   2.660
 5281SOL    HW216743   6.917   2.785   2.753
 5282SOL     OW16744   2.967   2.025   3.970
 5282SOL    HW116745   2.873   2.045   3.942
 5282SOL    HW216746   2.965   1.965   4.050
 5283SOL     OW16747   4.261   7.014   1.279
 5283SOL    HW116748   4.230   7.011   1.374
 5283SOL    HW216749   4.361   7.016   1.277
 5284SOL     OW16750   4.950   3.705   3.283
 5284SOL    HW116751   4.943   3.680   3.186
 5284SOL    HW216752   5.003   3.790   3.291
 5285SOL     OW16753   2.545   4.785   3.974
 5285SOL    HW116754   2.602   4.761   4.052
 5285SOL    HW216755   2.556   4.882   3.952
 5286SOL     OW16756   1.678   4.438   0.265
 5286SOL    HW116757   1.698   4.528   0.302
 5286SOL    HW216758   1.721   4.368   0.322
 5287SOL     OW16759   2.759   6.618   0.761
 5287SOL    HW116760   2.688   6.587   0.824
 5287SOL    HW216761   2.754   6.718   0.752
 5288SOL     OW16762   3.432   0.266   1.842
 5288SOL    HW116763   3.463   0.302   1.753
 5288SOL    HW216764   3.348   0.313   1.869
 5289SOL     OW16765   1.750   4.818   6.351
 5289SOL    HW116766   1.802   4.884   6.406
 5289SOL    HW216767   1.808   4.786   6.276
 5290SOL     OW16768   1.533   5.483   5.217
 5290SOL    HW116769   1.537   5.423   5.297
 5290SOL    HW216770   1.530   5.428   5.134
 5291SOL     OW16771   2.414   5.223   6.401
 5291SOL    HW116772   2.473   5.161   6.452
 5291SOL    HW216773   2.469   5.275   6.336
 5292SOL     OW16774   5.986   3.060   6.590
 5292SOL    HW116775   6.012   3.026   6.680
 5292SOL    HW216776   5.897   3.105   6.596
 5293SOL     OW16777   0.382   0.507   5.080
 5293SOL    HW116778   0.353   0.440   5.011
 5293SOL    HW216779   0.429   0.582   5.035
 5294SOL     OW16780   4.453   3.473   5.537
 5294SOL    HW116781   4.534   3.527   5.517
 5294SOL    HW216782   4.373   3.533   5.545
 5295SOL     OW16783   5.819   0.657   2.776
 5295SOL    HW116784   5.904   0.645   2.726
 5295SOL    HW216785   5.839   0.695   2.867
 5296SOL     OW16786   2.160   5.331   0.093
 5296SOL    HW116787   2.072   5.378   0.093
 5296SOL    HW216788   2.178   5.292   0.003
 5297SOL     OW16789   1.991   2.208   1.841
 5297SOL    HW116790   1.951   2.299   1.850
 5297SOL    HW216791   2.078   2.214   1.792
 5298SOL     OW16792   0.971   5.519   1.027
 5298SOL    HW116793   0.958   5.491   1.123
 5298SOL    HW216794   0.901   5.586   1.002
 5299SOL     OW16795   2.901   2.374   0.439
 5299SOL    HW116796   2.878   2.465   0.404
 5299SOL    HW216797   2.927   2.381   0.535
 5300SOL     OW16798   0.350   5.695   2.614
 5300SOL    HW116799   0.444   5.728   2.605
 5300SOL    HW216800   0.348   5.596   2.596
 5301SOL     OW16801   4.620   1.740   0.627
 5301SOL    HW116802   4.683   1.810   0.592
 5301SOL    HW216803   4.602   1.673   0.555
 5302SOL     OW16804   5.598   4.577   3.096
 5302SOL    HW116805   5.620   4.673   3.114
 5302SOL    HW216806   5.598   4.526   3.182
 5303SOL     OW16807   6.927   6.044   3.765
 5303SOL    HW116808   0.005   6.055   3.765
 5303SOL    HW216809   6.885   6.124   3.722
 5304SOL     OW16810   6.475   1.735   5.737
 5304SOL    HW116811   6.471   1.680   5.820
 5304SOL    HW216812   6.468   1.832   5.761
 5305SOL     OW16813   1.908   6.560   4.542
 5305SOL    HW116814   1.921   6.620   4.463
 5305SOL    HW216815   1.842   6.601   4.605
 5306SOL     OW16816   0.674   5.541   5.242
 5306SOL    HW116817   0.607   5.528   5.315
 5306SOL    HW216818   0.762   5.503   5.269
 5307SOL     OW16819   4.241   6.745   6.863
 5307SOL    HW116820   4.157   6.790   6.832
 5307SOL    HW216821   4.300   6.813   6.906
 5308SOL     OW16822   0.670   6.861   4.482
 5308SOL    HW116823   0.746   6.925   4.473
 5308SOL    HW216824   0.705   6.770   4.505
 5309SOL     OW16825   3.295   3.938   2.275
 5309SOL    HW116826   3.354   3.862   2.247
 5309SOL    HW216827   3.351   4.019   2.292
 5310SOL     OW16828   5.534   2.822   1.871
 5310SOL    HW116829   5.469   2.875   1.816
 5310SOL    HW216830   5.483   2.766   1.936
 5311SOL     OW16831   0.256   5.975   1.118
 5311SOL    HW116832   0.211   6.040   1.179
 5311SOL    HW216833   0.280   6.019   1.032
 5312SOL     OW16834   6.833   3.957   2.601
 5312SOL    HW116835   6.753   3.911   2.638
 5312SOL    HW216836   6.839   4.050   2.639
 5313SOL     OW16837   1.045   6.030   0.170
 5313SOL    HW116838   1.131   6.015   0.219
 5313SOL    HW216839   1.032   6.128   0.154
 5314SOL     OW16840   3.643   4.831   0.487
 5314SOL    HW116841   3.556   4.848   0.534
 5314SOL    HW216842   3.713   4.804   0.553
 5315SOL     OW16843   4.182   4.285   1.015
 5315SOL    HW116844   4.142   4.307   0.925
 5315SOL    HW216845   4.183   4.186   1.027
 5316SOL     OW16846   6.526   5.131   4.873
 5316SOL    HW116847   6.538   5.219   4.827
 5316SOL    HW216848   6.432   5.100   4.863
 5317SOL     OW16849   6.613   1.343   4.726
 5317SOL    HW116850   6.701   1.324   4.683
 5317SOL    HW216851   6.588   1.267   4.786
 5318SOL     OW16852   0.460   1.911   5.700
 5318SOL    HW116853   0.497   1.820   5.719
 5318SOL    HW216854   0.465   1.967   5.783
 5319SOL     OW16855   5.101   6.653   0.274
 5319SOL    HW116856   5.075   6.575   0.216
 5319SOL    HW216857   5.046   6.733   0.248
 5320SOL     OW16858   5.587   5.092   6.580
 5320SOL    HW116859   5.628   5.048   6.500
 5320SOL    HW216860   5.658   5.120   6.644
 5321SOL     OW16861   0.754   4.807   2.567
 5321SOL    HW116862   0.806   4.772   2.645
 5321SOL    HW216863   0.709   4.892   2.593
 5322SOL     OW16864   3.552   6.499   6.213
 5322SOL    HW116865   3.596   6.589   6.214
 5322SOL    HW216866   3.607   6.436   6.159
 5323SOL     OW16867   3.563   3.013   0.943
 5323SOL    HW116868   3.567   2.914   0.957
 5323SOL    HW216869   3.500   3.053   1.009
 5324SOL     OW16870   3.703   2.533   1.662
 5324SOL    HW116871   3.792   2.579   1.667
 5324SOL    HW216872   3.700   2.458   1.727
 5325SOL     OW16873   6.118   6.614   3.453
 5325SOL    HW116874   6.025   6.618   3.416
 5325SOL    HW216875   6.119   6.658   3.543
 5326SOL     OW16876   6.226   5.069   2.140
 5326SOL    HW116877   6.316   5.088   2.100
 5326SOL    HW216878   6.232   5.075   2.240
 5327SOL     OW16879   0.526   5.582   5.827
 5327SOL    HW116880   0.449   5.641   5.803
 5327SOL    HW216881   0.538   5.582   5.926
 5328SOL     OW16882   4.043   2.831   5.900
 5328SOL    HW116883   4.083   2.786   5.820
 5328SOL    HW216884   3.960   2.784   5.927
 5329SOL     OW16885   7.007   3.575   6.506
 5329SOL    HW116886   0.049   3.499   6.517
 5329SOL    HW216887   0.029   3.661   6.532
 5330SOL     OW16888   3.222   4.921   0.034
 5330SOL    HW116889   3.126   4.915   0.063
 5330SOL    HW216890   3.278   4.954   0.110
 5331SOL     OW16891   5.660   1.296   0.715
 5331SOL    HW116892   5.718   1.216   0.726
 5331SOL    HW216893   5.621   1.322   0.804
 5332SOL     OW16894   6.413   4.125   6.998
 5332SOL    HW116895   6.437   4.035   6.963
 5332SOL    HW216896   6.457   4.139   0.064
 5333SOL     OW16897   1.053   0.479   3.785
 5333SOL    HW116898   0.962   0.496   3.747
 5333SOL    HW216899   1.043   0.436   3.875
 5334SOL     OW16900   3.696   5.198   5.332
 5334SOL    HW116901   3.633   5.129   5.295
 5334SOL    HW216902   3.753   5.233   5.258
 5335SOL     OW16903   0.393   5.407   2.164
 5335SOL    HW116904   0.408   5.323   2.113
 5335SOL    HW216905   0.438   5.401   2.253
 5336SOL     OW16906   1.875   2.381   3.525
 5336SOL    HW116907   1.951   2.432   3.566
 5336SOL    HW216908   1.863   2.295   3.575
 5337SOL     OW16909   5.717   4.841   1.223
 5337SOL    HW116910   5.697   4.778   1.298
 5337SOL    HW216911   5.666   4.926   1.237
 5338SOL     OW16912   5.400   1.053   6.657
 5338SOL    HW116913   5.316   1.029   6.705
 5338SOL    HW216914   5.450   0.970   6.633
 5339SOL     OW16915   5.883   1.398   3.211
 5339SOL    HW116916   5.828   1.385   3.129
 5339SOL    HW216917   5.935   1.315   3.231
 5340SOL     OW16918   5.552   4.005   1.225
 5340SOL    HW116919   5.595   4.029   1.138
 5340SOL    HW216920   5.513   3.913   1.219
 5341SOL     OW16921   3.262   4.922   5.188
 5341SOL    HW116922   3.241   4.928   5.090
 5341SOL    HW216923   3.203   4.853   5.231
 5342SOL     OW16924   4.947   6.546   4.445
 5342SOL    HW116925   4.868   6.583   4.495
 5342SOL    HW216926   5.028   6.555   4.502
 5343SOL     OW16927   3.795   3.496   4.668
 5343SOL    HW116928   3.892   3.520   4.668
 5343SOL    HW216929   3.749   3.544   4.743
 5344SOL     OW16930   0.743   1.239   0.189
 5344SOL    HW116931   0.796   1.201   0.114
 5344SOL    HW216932   0.759   1.185   0.272
 5345SOL     OW16933   4.992   0.451   6.680
 5345SOL    HW116934   5.044   0.484   6.601
 5345SOL    HW216935   5.043   0.468   6.764
 5346SOL     OW16936   2.847   5.408   4.466
 5346SOL    HW116937   2.832   5.459   4.382
 5346SOL    HW216938   2.813   5.460   4.544
 5347SOL     OW16939   6.573   3.643   3.560
 5347SOL    HW116940   6.558   3.653   3.659
 5347SOL    HW216941   6.668   3.666   3.539
 5348SOL     OW16942   6.853   0.758   5.895
 5348SOL    HW116943   6.830   0.809   5.812
 5348SOL    HW216944   6.939   0.709   5.881
 5349SOL     OW16945   2.422   3.577   0.958
 5349SOL    HW116946   2.451   3.519   1.034
 5349SOL    HW216947   2.502   3.620   0.916
 5350SOL     OW16948   2.274   6.789   5.230
 5350SOL    HW116949   2.202   6.745   5.285
 5350SOL    HW216950   2.356   6.732   5.231
 5351SOL     OW16951   0.075   5.468   2.124
 5351SOL    HW116952   7.009   5.423   2.118
 5351SOL    HW216953   0.145   5.402   2.150
 5352SOL     OW16954   2.495   4.569   3.281
 5352SOL    HW116955   2.485   4.606   3.373
 5352SOL    HW216956   2.426   4.610   3.220
 5353SOL     OW16957   4.050   5.511   3.949
 5353SOL    HW116958   3.952   5.524   3.965
 5353SOL    HW216959   4.095   5.493   4.037
 5354SOL     OW16960   2.274   4.853   0.445
 5354SOL    HW116961   2.346   4.883   0.507
 5354SOL    HW216962   2.291   4.758   0.418
 5355SOL     OW16963   6.066   4.677   4.345
 5355SOL    HW116964   5.992   4.611   4.331
 5355SOL    HW216965   6.046   4.732   4.426
 5356SOL     OW16966   6.767   3.492   2.364
 5356SOL    HW116967   6.831   3.441   2.306
 5356SOL    HW216968   6.673   3.470   2.337
 5357SOL     OW16969   4.081   4.759   1.040
 5357SOL    HW116970   4.150   4.811   0.989
 5357SOL    HW216971   4.115   4.740   1.132
 5358SOL     OW16972   4.955   2.147   1.083
 5358SOL    HW116973   4.993   2.232   1.047
 5358SOL    HW216974   4.886   2.168   1.152
 5359SOL     OW16975   2.087   1.987   6.604
 5359SOL    HW116976   2.108   1.940   6.518
 5359SOL    HW216977   2.062   1.920   6.673
 5360SOL     OW16978   5.513   5.626   3.711
 5360SOL    HW116979   5.482   5.699   3.773
 5360SOL    HW216980   5.439   5.601   3.649
 5361SOL     OW16981   2.278   6.793   4.117
 5361SOL    HW116982   2.276   6.816   4.215
 5361SOL    HW216983   2.184   6.784   4.084
 5362SOL     OW16984   6.137   6.023   2.738
 5362SOL    HW116985   6.222   6.071   2.760
 5362SOL    HW216986   6.095   6.064   2.657
 5363SOL     OW16987   5.213   6.339   5.326
 5363SOL    HW116988   5.269   6.363   5.246
 5363SOL    HW216989   5.187   6.422   5.375
 5364SOL     OW16990   6.346   6.706   1.871
 5364SOL    HW116991   6.284   6.627   1.870
 5364SOL    HW216992   6.354   6.744   1.779
 5365SOL     OW16993   3.529   3.019   2.040
 5365SOL    HW116994   3.449   3.009   1.980
 5365SOL    HW216995   3.608   2.975   1.997
 5366SOL     OW16996   6.785   6.829   2.022
 5366SOL    HW116997   6.782   6.736   1.985
 5366SOL    HW216998   6.839   6.887   1.961
 5367SOL     OW16999   6.640   6.189   1.210
 5367SOL    HW117000   6.573   6.126   1.170
 5367SOL    HW217001   6.646   6.271   1.152
 5368SOL     OW17002   6.268   6.667   2.622
 5368SOL    HW117003   6.345   6.714   2.579
 5368SOL    HW217004   6.254   6.578   2.578
 5369SOL     OW17005   2.683   5.981   0.807
 5369SOL    HW117006   2.622   5.989   0.886
 5369SOL    HW217007   2.631   5.999   0.723
 5370SOL     OW17008   4.365   3.762   1.042
 5370SOL    HW117009   4.449   3.706   1.047
 5370SOL    HW217010   4.288   3.704   1.016
 5371SOL     OW17011   6.594   4.822   5.152
 5371SOL    HW117012   6.584   4.912   5.195
 5371SOL    HW217013   6.674   4.775   5.190
 5372SOL     OW17014   1.356   6.717   2.582
 5372SOL    HW117015   1.346   6.816   2.589
 5372SOL    HW217016   1.449   6.691   2.605
 5373SOL     OW17017   4.013   6.717   5.887
 5373SOL    HW117018   4.053   6.645   5.831
 5373SOL    HW217019   3.914   6.723   5.870
 5374SOL     OW17020   2.636   4.226   0.569
 5374SOL    HW117021   2.620   4.266   0.659
 5374SOL    HW217022   2.696   4.286   0.516
 5375SOL     OW17023   0.757   5.449   6.048
 5375SOL    HW117024   0.814   5.458   5.966
 5375SOL    HW217025   0.681   5.513   6.043
 5376SOL     OW17026   1.239   2.582   1.669
 5376SOL    HW117027   1.307   2.653   1.689
 5376SOL    HW217028   1.287   2.496   1.648
 5377SOL     OW17029   1.216   0.108   3.389
 5377SOL    HW117030   1.145   0.045   3.357
 5377SOL    HW217031   1.306   0.074   3.361
 5378SOL     OW17032   6.835   0.244   1.530
 5378SOL    HW117033   6.860   0.148   1.544
 5378SOL    HW217034   6.743   0.249   1.490
 5379SOL     OW17035   1.472   3.677   4.592
 5379SOL    HW117036   1.548   3.644   4.536
 5379SOL    HW217037   1.400   3.608   4.595
 5380SOL     OW17038   2.588   6.805   1.001
 5380SOL    HW117039   2.645   6.798   1.083
 5380SOL    HW217040   2.641   6.848   0.928
 5381SOL     OW17041   6.476   6.071   2.069
 5381SOL    HW117042   6.472   5.971   2.057
 5381SOL    HW217043   6.420   6.114   1.998
 5382SOL     OW17044   3.092   2.107   2.779
 5382SOL    HW117045   3.186   2.077   2.795
 5382SOL    HW217046   3.092   2.183   2.714
 5383SOL     OW17047   1.284   2.520   4.325
 5383SOL    HW117048   1.255   2.607   4.364
 5383SOL    HW217049   1.205   2.471   4.289
 5384SOL     OW17050   4.525   5.597   4.672
 5384SOL    HW117051   4.500   5.587   4.768
 5384SOL    HW217052   4.558   5.509   4.636
 5385SOL     OW17053   5.499   3.094   5.601
 5385SOL    HW117054   5.567   3.116   5.531
 5385SOL    HW217055   5.525   3.138   5.687
 5386SOL     OW17056   5.913   1.561   4.485
 5386SOL    HW117057   5.901   1.600   4.394
 5386SOL    HW217058   5.840   1.593   4.545
 5387SOL     OW17059   2.575   6.986   3.385
 5387SOL    HW117060   2.633   6.905   3.377
 5387SOL    HW217061   2.623   0.035   3.436
 5388SOL     OW17062   1.628   6.614   2.506
 5388SOL    HW117063   1.653   6.710   2.517
 5388SOL    HW217064   1.659   6.562   2.586
 5389SOL     OW17065   4.002   1.709   4.889
 5389SOL    HW117066   4.048   1.620   4.884
 5389SOL    HW217067   4.008   1.754   4.800
 5390SOL     OW17068   5.168   4.228   3.494
 5390SOL    HW117069   5.131   4.312   3.455
 5390SOL    HW217070   5.267   4.237   3.505
 5391SOL     OW17071   3.114   1.829   0.039
 5391SOL    HW117072   3.145   1.755   7.001
 5391SOL    HW217073   3.087   1.907   7.006
 5392SOL     OW17074   5.301   3.742   1.687
 5392SOL    HW117075   5.401   3.730   1.681
 5392SOL    HW217076   5.278   3.838   1.673
 5393SOL     OW17077   4.662   0.791   5.020
 5393SOL    HW117078   4.607   0.711   5.044
 5393SOL    HW217079   4.633   0.870   5.073
 5394SOL     OW17080   0.919   5.779   1.252
 5394SOL    HW117081   0.827   5.801   1.282
 5394SOL    HW217082   0.938   5.823   1.165
 5395SOL     OW17083   5.040   0.856   0.987
 5395SOL    HW117084   5.046   0.956   0.980
 5395SOL    HW217085   5.124   0.821   1.027
 5396SOL     OW17086   5.505   5.077   1.582
 5396SOL    HW117087   5.504   5.091   1.681
 5396SOL    HW217088   5.447   5.146   1.538
 5397SOL     OW17089   0.006   2.104   1.838
 5397SOL    HW117090   6.976   2.051   1.905
 5397SOL    HW217091   0.073   2.161   1.887
 5398SOL     OW17092   3.469   2.164   3.768
 5398SOL    HW117093   3.389   2.171   3.828
 5398SOL    HW217094   3.439   2.133   3.677
 5399SOL     OW17095   2.661   0.229   6.338
 5399SOL    HW117096   2.597   0.157   6.367
 5399SOL    HW217097   2.730   0.189   6.278
 5400SOL     OW17098   2.761   3.475   0.785
 5400SOL    HW117099   2.752   3.457   0.687
 5400SOL    HW217100   2.732   3.394   0.836
 5401SOL     OW17101   5.770   3.973   2.342
 5401SOL    HW117102   5.759   3.956   2.440
 5401SOL    HW217103   5.719   4.055   2.317
 5402SOL     OW17104   2.559   6.303   0.604
 5402SOL    HW117105   2.656   6.318   0.621
 5402SOL    HW217106   2.546   6.210   0.568
 5403SOL     OW17107   5.107   3.742   6.426
 5403SOL    HW117108   5.092   3.803   6.348
 5403SOL    HW217109   5.201   3.754   6.460
 5404SOL     OW17110   0.883   0.290   1.590
 5404SOL    HW117111   0.903   0.205   1.639
 5404SOL    HW217112   0.962   0.351   1.596
 5405SOL     OW17113   5.828   5.290   6.821
 5405SOL    HW117114   5.917   5.334   6.825
 5405SOL    HW217115   5.836   5.203   6.773
 5406SOL     OW17116   2.155   0.803   4.790
 5406SOL    HW117117   2.116   0.894   4.806
 5406SOL    HW217118   2.250   0.801   4.821
 5407SOL     OW17119   3.498   1.148   0.679
 5407SOL    HW117120   3.433   1.168   0.752
 5407SOL    HW217121   3.450   1.141   0.592
 5408SOL     OW17122   3.529   1.272   4.860
 5408SOL    HW117123   3.595   1.199   4.843
 5408SOL    HW217124   3.577   1.351   4.898
 5409SOL     OW17125   6.554   1.609   2.481
 5409SOL    HW117126   6.471   1.558   2.506
 5409SOL    HW217127   6.634   1.556   2.507
 5410SOL     OW17128   0.874   2.405   6.573
 5410SOL    HW117129   0.923   2.413   6.660
 5410SOL    HW217130   0.822   2.319   6.572
 5411SOL     OW17131   4.935   5.095   6.147
 5411SOL    HW117132   4.891   5.179   6.116
 5411SOL    HW217133   4.880   5.053   6.219
 5412SOL     OW17134   2.551   1.377   6.292
 5412SOL    HW117135   2.494   1.311   6.242
 5412SOL    HW217136   2.536   1.468   6.255
 5413SOL     OW17137   0.701   6.925   6.827
 5413SOL    HW117138   0.670   7.012   6.865
 5413SOL    HW217139   0.788   6.898   6.869
 5414SOL     OW17140   6.354   4.293   5.403
 5414SOL    HW117141   6.334   4.363   5.334
 5414SOL    HW217142   6.453   4.279   5.408
 5415SOL     OW17143   2.834   6.298   0.616
 5415SOL    HW117144   2.862   6.261   0.704
 5415SOL    HW217145   2.909   6.351   0.577
 5416SOL     OW17146   2.628   4.754   5.157
 5416SOL    HW117147   2.579   4.708   5.230
 5416SOL    HW217148   2.699   4.693   5.120
 5417SOL     OW17149   3.929   0.270   5.198
 5417SOL    HW117150   3.940   0.248   5.101
 5417SOL    HW217151   3.833   0.257   5.224
 5418SOL     OW17152   5.584   5.606   5.044
 5418SOL    HW117153   5.517   5.534   5.023
 5418SOL    HW217154   5.676   5.571   5.027
 5419SOL     OW17155   4.146   5.955   0.449
 5419SOL    HW117156   4.070   5.898   0.417
 5419SOL    HW217157   4.207   5.976   0.373
 5420SOL     OW17158   2.375   1.835   0.872
 5420SOL    HW117159   2.442   1.899   0.836
 5420SOL    HW217160   2.284   1.856   0.835
 5421SOL     OW17161   3.479   5.272   1.631
 5421SOL    HW117162   3.521   5.356   1.596
 5421SOL    HW217163   3.492   5.198   1.565
 5422SOL     OW17164   1.692   5.478   4.819
 5422SOL    HW117165   1.729   5.445   4.733
 5422SOL    HW217166   1.766   5.495   4.884
 5423SOL     OW17167   5.660   5.031   0.457
 5423SOL    HW117168   5.652   5.126   0.489
 5423SOL    HW217169   5.570   4.997   0.431
 5424SOL     OW17170   5.085   3.938   4.193
 5424SOL    HW117171   5.169   3.896   4.227
 5424SOL    HW217172   5.009   3.912   4.251
 5425SOL     OW17173   6.426   2.599   4.722
 5425SOL    HW117174   6.405   2.504   4.748
 5425SOL    HW217175   6.364   2.628   4.650
 5426SOL     OW17176   4.320   5.520   2.524
 5426SOL    HW117177   4.282   5.476   2.443
 5426SOL    HW217178   4.336   5.617   2.506
 5427SOL     OW17179   5.605   2.527   0.477
 5427SOL    HW117180   5.702   2.531   0.456
 5427SOL    HW217181   5.564   2.617   0.464
 5428SOL     OW17182   5.105   6.626   2.219
 5428SOL    HW117183   5.179   6.692   2.231
 5428SOL    HW217184   5.082   6.618   2.122
 5429SOL     OW17185   1.763   0.119   5.044
 5429SOL    HW117186   1.807   0.044   5.092
 5429SOL    HW217187   1.675   0.139   5.087
 5430SOL     OW17188   1.928   2.970   4.907
 5430SOL    HW117189   2.004   3.035   4.901
 5430SOL    HW217190   1.893   2.967   5.000
 5431SOL     OW17191   3.444   3.653   6.829
 5431SOL    HW117192   3.353   3.674   6.866
 5431SOL    HW217193   3.478   3.732   6.779
 5432SOL     OW17194   4.715   5.564   6.534
 5432SOL    HW117195   4.708   5.664   6.540
 5432SOL    HW217196   4.652   5.523   6.601
 5433SOL     OW17197   0.845   0.090   1.347
 5433SOL    HW117198   0.816   0.143   1.426
 5433SOL    HW217199   0.939   0.058   1.361
 5434SOL     OW17200   4.435   0.989   4.747
 5434SOL    HW117201   4.496   0.910   4.759
 5434SOL    HW217202   4.412   1.027   4.837
 5435SOL     OW17203   6.367   4.006   0.774
 5435SOL    HW117204   6.383   4.014   0.873
 5435SOL    HW217205   6.401   3.918   0.742
 5436SOL     OW17206   6.394   4.320   4.088
 5436SOL    HW117207   6.313   4.270   4.058
 5436SOL    HW217208   6.368   4.412   4.118
 5437SOL     OW17209   3.259   5.069   5.526
 5437SOL    HW117210   3.270   4.970   5.532
 5437SOL    HW217211   3.323   5.106   5.459
 5438SOL     OW17212   4.853   5.159   2.041
 5438SOL    HW117213   4.834   5.251   2.007
 5438SOL    HW217214   4.781   5.096   2.012
 5439SOL     OW17215   0.954   3.521   0.016
 5439SOL    HW117216   0.938   3.515   6.940
 5439SOL    HW217217   0.899   3.453   0.064
 5440SOL     OW17218   6.559   6.790   4.057
 5440SOL    HW117219   6.521   6.741   3.979
 5440SOL    HW217220   6.612   6.726   4.114
 5441SOL     OW17221   5.155   3.588   3.000
 5441SOL    HW117222   5.212   3.507   3.015
 5441SOL    HW217223   5.062   3.560   2.977
 5442SOL     OW17224   4.318   6.824   3.601
 5442SOL    HW117225   4.293   6.785   3.513
 5442SOL    HW217226   4.384   6.765   3.647
 5443SOL     OW17227   4.403   6.138   3.842
 5443SOL    HW117228   4.501   6.148   3.861
 5443SOL    HW217229   4.362   6.078   3.912
 5444SOL     OW17230   6.593   1.233   4.108
 5444SOL    HW117231   6.509   1.258   4.058
 5444SOL    HW217232   6.671   1.282   4.070
 5445SOL     OW17233   5.803   4.559   3.362
 5445SOL    HW117234   5.803   4.478   3.304
 5445SOL    HW217235   5.725   4.555   3.425
 5446SOL     OW17236   5.878   4.866   4.727
 5446SOL    HW117237   5.931   4.791   4.766
 5446SOL    HW217238   5.805   4.892   4.790
 5447SOL     OW17239   2.175   1.568   1.234
 5447SOL    HW117240   2.275   1.572   1.240
 5447SOL    HW217241   2.145   1.623   1.156
 5448SOL     OW17242   4.516   4.759   3.679
 5448SOL    HW117243   4.457   4.834   3.707
 5448SOL    HW217244   4.612   4.782   3.699
 5449SOL     OW17245   2.007   1.155   1.503
 5449SOL    HW117246   1.950   1.101   1.441
 5449SOL    HW217247   2.050   1.230   1.452
 5450SOL     OW17248   3.298   6.685   1.401
 5450SOL    HW117249   3.350   6.769   1.390
 5450SOL    HW217250   3.359   6.606   1.388
 5451SOL     OW17251   1.785   6.143   3.766
 5451SOL    HW117252   1.844   6.178   3.693
 5451SOL    HW217253   1.766   6.046   3.751
 5452SOL     OW17254   2.621   4.526   1.415
 5452SOL    HW117255   2.711   4.559   1.383
 5452SOL    HW217256   2.633   4.469   1.495
 5453SOL     OW17257   5.443   3.786   2.146
 5453SOL    HW117258   5.374   3.832   2.202
 5453SOL    HW217259   5.398   3.719   2.087
 5454SOL     OW17260   5.541   5.623   1.634
 5454SOL    HW117261   5.538   5.545   1.696
 5454SOL    HW217262   5.494   5.701   1.677
 5455SOL     OW17263   0.132   1.948   3.638
 5455SOL    HW117264   0.080   1.949   3.552
 5455SOL    HW217265   0.099   1.874   3.696
 5456SOL     OW17266   3.607   1.598   6.500
 5456SOL    HW117267   3.636   1.646   6.418
 5456SOL    HW217268   3.570   1.508   6.475
 5457SOL     OW17269   7.006   1.980   0.846
 5457SOL    HW117270   6.958   1.892   0.852
 5457SOL    HW217271   0.021   2.004   0.935
 5458SOL     OW17272   0.124   4.644   0.792
 5458SOL    HW117273   0.078   4.691   0.717
 5458SOL    HW217274   0.106   4.545   0.786
 5459SOL     OW17275   2.234   5.098   5.015
 5459SOL    HW117276   2.225   5.003   4.984
 5459SOL    HW217277   2.329   5.127   5.008
 5460SOL     OW17278   3.041   6.880   2.216
 5460SOL    HW117279   3.108   6.841   2.278
 5460SOL    HW217280   3.078   6.883   2.124
 5461SOL     OW17281   1.051   1.001   4.518
 5461SOL    HW117282   1.054   0.907   4.552
 5461SOL    HW217283   1.141   1.026   4.482
 5462SOL     OW17284   5.241   6.012   6.414
 5462SOL    HW117285   5.158   6.032   6.362
 5462SOL    HW217286   5.222   5.940   6.481
 5463SOL     OW17287   0.275   1.528   0.082
 5463SOL    HW117288   0.207   1.499   0.014
 5463SOL    HW217289   0.239   1.605   0.135
 5464SOL     OW17290   6.024   6.115   5.186
 5464SOL    HW117291   6.068   6.026   5.174
 5464SOL    HW217292   5.965   6.134   5.107
 5465SOL     OW17293   6.815   0.281   2.919
 5465SOL    HW117294   6.867   0.365   2.937
 5465SOL    HW217295   6.741   0.274   2.986
 5466SOL     OW17296   6.114   2.701   5.756
 5466SOL    HW117297   6.061   2.630   5.803
 5466SOL    HW217298   6.203   2.709   5.800
 5467SOL     OW17299   5.945   4.061   2.939
 5467SOL    HW117300   6.029   4.051   2.885
 5467SOL    HW217301   5.877   3.995   2.907
 5468SOL     OW17302   0.059   2.609   4.490
 5468SOL    HW117303   0.050   2.510   4.483
 5468SOL    HW217304   7.000   2.653   4.451
 5469SOL     OW17305   3.269   5.718   5.991
 5469SOL    HW117306   3.327   5.675   6.061
 5469SOL    HW217307   3.269   5.660   5.909
 5470SOL     OW17308   3.805   5.186   4.391
 5470SOL    HW117309   3.783   5.093   4.363
 5470SOL    HW217310   3.848   5.235   4.315
 5471SOL     OW17311   5.591   0.531   2.162
 5471SOL    HW117312   5.613   0.536   2.260
 5471SOL    HW217313   5.615   0.441   2.127
 5472SOL     OW17314   2.896   3.755   6.888
 5472SOL    HW117315   2.832   3.760   6.965
 5472SOL    HW217316   2.949   3.840   6.884
 5473SOL     OW17317   1.389   3.357   0.467
 5473SOL    HW117318   1.385   3.371   0.368
 5473SOL    HW217319   1.444   3.429   0.509
 5474SOL     OW17320   0.378   5.930   4.665
 5474SOL    HW117321   0.436   5.864   4.711
 5474SOL    HW217322   0.295   5.884   4.632
 5475SOL     OW17323   1.654   1.679   0.668
 5475SOL    HW117324   1.720   1.721   0.731
 5475SOL    HW217325   1.568   1.662   0.717
 5476SOL     OW17326   1.828   4.700   5.178
 5476SOL    HW117327   1.855   4.678   5.084
 5476SOL    HW217328   1.898   4.668   5.241
 5477SOL     OW17329   2.146   3.722   3.359
 5477SOL    HW117330   2.208   3.796   3.337
 5477SOL    HW217331   2.112   3.680   3.275
 5478SOL     OW17332   4.532   6.549   5.407
 5478SOL    HW117333   4.493   6.616   5.343
 5478SOL    HW217334   4.607   6.500   5.363
 5479SOL     OW17335   4.720   1.945   4.678
 5479SOL    HW117336   4.761   1.891   4.605
 5479SOL    HW217337   4.768   1.926   4.764
 5480SOL     OW17338   5.485   5.065   5.128
 5480SOL    HW117339   5.405   5.025   5.083
 5480SOL    HW217340   5.484   5.039   5.225
 5481SOL     OW17341   4.791   1.448   4.705
 5481SOL    HW117342   4.877   1.420   4.748
 5481SOL    HW217343   4.715   1.426   4.766
 5482SOL     OW17344   3.804   4.029   2.642
 5482SOL    HW117345   3.830   3.980   2.560
 5482SOL    HW217346   3.716   4.074   2.628
 5483SOL     OW17347   0.476   1.803   5.348
 5483SOL    HW117348   0.559   1.855   5.367
 5483SOL    HW217349   0.454   1.810   5.250
 5484SOL     OW17350   5.806   0.699   3.781
 5484SOL    HW117351   5.880   0.632   3.793
 5484SOL    HW217352   5.727   0.654   3.741
 5485SOL     OW17353   3.132   6.925   4.660
 5485SOL    HW117354   3.128   6.987   4.739
 5485SOL    HW217355   3.043   6.925   4.614
 5486SOL     OW17356   1.749   5.919   4.631
 5486SOL    HW117357   1.659   5.940   4.670
 5486SOL    HW217358   1.795   5.851   4.687
 5487SOL     OW17359   5.230   3.064   6.505
 5487SOL    HW117360   5.237   2.995   6.433
 5487SOL    HW217361   5.249   3.022   6.594
 5488SOL     OW17362   5.316   1.167   1.045
 5488SOL    HW117363   5.304   1.256   0.999
 5488SOL    HW217364   5.409   1.160   1.081
 5489SOL     OW17365   1.034   4.921   0.864
 5489SOL    HW117366   1.115   4.864   0.850
 5489SOL    HW217367   0.961   4.866   0.905
 5490SOL     OW17368   3.445   0.320   1.106
 5490SOL    HW117369   3.446   0.285   1.013
 5490SOL    HW217370   3.494   0.407   1.110
 5491SOL     OW17371   1.971   3.576   6.589
 5491SOL    HW117372   1.972   3.512   6.512
 5491SOL    HW217373   2.052   3.634   6.585
 5492SOL     OW17374   0.650   1.912   6.704
 5492SOL    HW117375   0.625   1.822   6.669
 5492SOL    HW217376   0.749   1.916   6.719
 5493SOL     OW17377   4.041   3.588   3.970
 5493SOL    HW117378   3.979   3.605   3.893
 5493SOL    HW217379   4.028   3.495   4.003
 5494SOL     OW17380   6.711   2.863   6.613
 5494SOL    HW117381   6.800   2.818   6.609
 5494SOL    HW217382   6.651   2.826   6.543
 5495SOL     OW17383   3.756   2.396   1.416
 5495SOL    HW117384   3.824   2.331   1.449
 5495SOL    HW217385   3.697   2.425   1.492
 5496SOL     OW17386   2.827   0.306   3.455
 5496SOL    HW117387   2.890   0.378   3.483
 5496SOL    HW217388   2.743   0.348   3.420
 5497SOL     OW17389   0.092   2.314   3.921
 5497SOL    HW117390   0.178   2.329   3.971
 5497SOL    HW217391   0.020   2.369   3.962
 5498SOL     OW17392   5.132   6.998   1.237
 5498SOL    HW117393   5.171   6.909   1.217
 5498SOL    HW217394   5.056   7.016   1.174
 5499SOL     OW17395   0.185   1.135   4.157
 5499SOL    HW117396   0.274   1.136   4.111
 5499SOL    HW217397   0.179   1.212   4.221
 5500SOL     OW17398   1.921   0.178   0.128
 5500SOL    HW117399   1.842   0.185   0.190
 5500SOL    HW217400   1.906   0.103   0.064
 5501SOL     OW17401   3.728   0.154   0.948
 5501SOL    HW117402   3.803   0.171   1.012
 5501SOL    HW217403   3.749   0.075   0.891
 5502SOL     OW17404   5.689   4.120   0.074
 5502SOL    HW117405   5.705   4.161   0.164
 5502SOL    HW217406   5.591   4.101   0.063
 5503SOL     OW17407   0.014   5.594   3.674
 5503SOL    HW117408   6.965   5.602   3.744
 5503SOL    HW217409   0.019   5.679   3.622
 5504SOL     OW17410   4.219   1.492   4.927
 5504SOL    HW117411   4.216   1.449   5.018
 5504SOL    HW217412   4.229   1.421   4.857
 5505SOL     OW17413   1.724   5.517   4.416
 5505SOL    HW117414   1.642   5.460   4.421
 5505SOL    HW217415   1.704   5.600   4.365
 5506SOL     OW17416   1.227   1.723   6.205
 5506SOL    HW117417   1.304   1.757   6.260
 5506SOL    HW217418   1.219   1.778   6.122
 5507SOL     OW17419   2.603   0.200   3.610
 5507SOL    HW117420   2.531   0.161   3.668
 5507SOL    HW217421   2.627   0.291   3.642
 5508SOL     OW17422   2.234   0.952   6.637
 5508SOL    HW117423   2.198   0.907   6.718
 5508SOL    HW217424   2.191   0.913   6.555
 5509SOL     OW17425   1.035   6.173   0.979
 5509SOL    HW117426   1.113   6.205   0.925
 5509SOL    HW217427   1.002   6.247   1.038
 5510SOL     OW17428   4.871   6.175   0.872
 5510SOL    HW117429   4.852   6.147   0.966
 5510SOL    HW217430   4.821   6.259   0.852
 5511SOL     OW17431   2.715   0.630   4.111
 5511SOL    HW117432   2.706   0.541   4.066
 5511SOL    HW217433   2.719   0.618   4.210
 5512SOL     OW17434   5.741   2.007   1.606
 5512SOL    HW117435   5.751   1.987   1.704
 5512SOL    HW217436   5.819   2.061   1.575
 5513SOL     OW17437   4.100   4.738   6.231
 5513SOL    HW117438   4.007   4.738   6.194
 5513SOL    HW217439   4.157   4.801   6.178
 5514SOL     OW17440   4.962   6.045   2.355
 5514SOL    HW117441   5.056   6.047   2.320
 5514SOL    HW217442   4.952   6.110   2.430
 5515SOL     OW17443   0.045   4.613   1.511
 5515SOL    HW117444   0.053   4.521   1.548
 5515SOL    HW217445   0.077   4.614   1.416
 5516SOL     OW17446   1.215   3.925   6.239
 5516SOL    HW117447   1.270   3.935   6.322
 5516SOL    HW217448   1.266   3.959   6.160
 5517SOL     OW17449   2.060   3.182   2.236
 5517SOL    HW117450   2.124   3.208   2.164
 5517SOL    HW217451   2.043   3.084   2.231
 5518SOL     OW17452   5.649   6.536   6.495
 5518SOL    HW117453   5.652   6.599   6.418
 5518SOL    HW217454   5.564   6.483   6.490
 5519SOL     OW17455   5.443   3.163   2.866
 5519SOL    HW117456   5.458   3.080   2.919
 5519SOL    HW217457   5.442   3.140   2.768
 5520SOL     OW17458   6.700   5.431   2.165
 5520SOL    HW117459   6.711   5.336   2.193
 5520SOL    HW217460   6.687   5.436   2.066
 5521SOL     OW17461   4.516   0.059   1.590
 5521SOL    HW117462   4.443   0.006   1.633
 5521SOL    HW217463   4.477   0.138   1.542
 5522SOL     OW17464   0.260   5.139   0.933
 5522SOL    HW117465   0.207   5.062   0.898
 5522SOL    HW217466   0.357   5.126   0.910
 5523SOL     OW17467   3.817   0.066   2.109
 5523SOL    HW117468   3.749   0.137   2.096
 5523SOL    HW217469   3.776   7.010   2.157
 5524SOL     OW17470   5.078   5.118   5.023
 5524SOL    HW117471   5.131   5.202   5.039
 5524SOL    HW217472   4.984   5.142   5.000
 5525SOL     OW17473   6.907   3.201   6.994
 5525SOL    HW117474   6.874   3.286   6.951
 5525SOL    HW217475   7.005   3.209   7.012
 5526SOL     OW17476   5.186   4.842   4.692
 5526SOL    HW117477   5.234   4.887   4.767
 5526SOL    HW217478   5.149   4.754   4.723
 5527SOL     OW17479   6.423   3.720   4.683
 5527SOL    HW117480   6.427   3.748   4.779
 5527SOL    HW217481   6.352   3.651   4.671
 5528SOL     OW17482   1.173   1.943   6.787
 5528SOL    HW117483   1.081   1.908   6.807
 5528SOL    HW217484   1.174   1.983   6.695
 5529SOL     OW17485   2.055   0.527   4.241
 5529SOL    HW117486   2.089   0.618   4.219
 5529SOL    HW217487   2.017   0.485   4.158
 5530SOL     OW17488   6.939   2.440   2.094
 5530SOL    HW117489   6.892   2.357   2.124
 5530SOL    HW217490   6.880   2.519   2.110
 5531SOL     OW17491   3.872   2.976   2.423
 5531SOL    HW117492   3.918   3.014   2.502
 5531SOL    HW217493   3.781   2.943   2.450
 5532SOL     OW17494   1.451   2.075   0.476
 5532SOL    HW117495   1.550   2.089   0.470
 5532SOL    HW217496   1.412   2.071   0.384
 5533SOL     OW17497   3.556   0.869   3.108
 5533SOL    HW117498   3.533   0.796   3.172
 5533SOL    HW217499   3.653   0.864   3.084
 5534SOL     OW17500   0.580   1.469   5.916
 5534SOL    HW117501   0.557   1.502   6.008
 5534SOL    HW217502   0.677   1.445   5.912
 5535SOL     OW17503   0.465   3.285   4.544
 5535SOL    HW117504   0.368   3.263   4.532
 5535SOL    HW217505   0.479   3.329   4.632
 5536SOL     OW17506   2.734   1.019   4.443
 5536SOL    HW117507   2.717   1.096   4.382
 5536SOL    HW217508   2.831   0.995   4.441
 5537SOL     OW17509   2.937   0.590   3.580
 5537SOL    HW117510   2.837   0.591   3.591
 5537SOL    HW217511   2.979   0.637   3.658
 5538SOL     OW17512   3.018   0.238   5.121
 5538SOL    HW117513   2.956   0.249   5.044
 5538SOL    HW217514   3.112   0.229   5.088
 5539SOL     OW17515   1.535   3.118   0.200
 5539SOL    HW117516   1.594   3.185   0.155
 5539SOL    HW217517   1.528   3.141   0.298
 5540SOL     OW17518   5.983   3.788   3.541
 5540SOL    HW117519   5.943   3.722   3.604
 5540SOL    HW217520   6.002   3.873   3.589
 5541SOL     OW17521   5.865   0.952   6.077
 5541SOL    HW117522   5.843   1.049   6.066
 5541SOL    HW217523   5.958   0.936   6.042
 5542SOL     OW17524   6.347   5.152   6.564
 5542SOL    HW117525   6.311   5.071   6.516
 5542SOL    HW217526   6.446   5.158   6.549
 5543SOL     OW17527   3.322   5.327   5.974
 5543SOL    HW117528   3.331   5.266   6.053
 5543SOL    HW217529   3.262   5.284   5.906
 5544SOL     OW17530   5.481   6.609   6.079
 5544SOL    HW117531   5.501   6.512   6.084
 5544SOL    HW217532   5.531   6.650   6.003
 5545SOL     OW17533   4.269   1.666   2.736
 5545SOL    HW117534   4.177   1.648   2.702
 5545SOL    HW217535   4.274   1.760   2.770
 5546SOL     OW17536   0.999   6.660   4.674
 5546SOL    HW117537   1.096   6.683   4.664
 5546SOL    HW217538   0.976   6.653   4.771
 5547SOL     OW17539   3.461   0.526   4.348
 5547SOL    HW117540   3.408   0.501   4.267
 5547SOL    HW217541   3.414   0.599   4.397
 5548SOL     OW17542   5.599   3.523   5.493
 5548SOL    HW117543   5.697   3.541   5.498
 5548SOL    HW217544   5.582   3.450   5.426
 5549SOL     OW17545   5.002   4.132   0.757
 5549SOL    HW117546   4.911   4.122   0.796
 5549SOL    HW217547   5.066   4.163   0.827
 5550SOL     OW17548   2.307   4.748   2.521
 5550SOL    HW117549   2.387   4.774   2.467
 5550SOL    HW217550   2.297   4.648   2.518
 5551SOL     OW17551   2.274   5.405   3.205
 5551SOL    HW117552   2.194   5.406   3.145
 5551SOL    HW217553   2.247   5.441   3.295
 5552SOL     OW17554   6.401   0.457   0.090
 5552SOL    HW117555   6.476   0.521   0.073
 5552SOL    HW217556   6.437   0.364   0.095
 5553SOL     OW17557   4.880   6.331   0.394
 5553SOL    HW117558   4.875   6.239   0.432
 5553SOL    HW217559   4.976   6.362   0.395
 5554SOL     OW17560   4.662   1.602   6.043
 5554SOL    HW117561   4.672   1.697   6.073
 5554SOL    HW217562   4.648   1.600   5.944
 5555SOL     OW17563   1.484   4.179   3.813
 5555SOL    HW117564   1.563   4.211   3.865
 5555SOL    HW217565   1.477   4.230   3.728
 5556SOL     OW17566   6.885   1.499   3.289
 5556SOL    HW117567   6.926   1.590   3.293
 5556SOL    HW217568   6.803   1.497   3.345
 5557SOL     OW17569   3.252   6.754   3.216
 5557SOL    HW117570   3.156   6.740   3.238
 5557SOL    HW217571   3.294   6.667   3.189
 5558SOL     OW17572   4.313   3.723   6.049
 5558SOL    HW117573   4.290   3.807   6.098
 5558SOL    HW217574   4.293   3.736   5.952
 5559SOL     OW17575   1.625   0.137   2.100
 5559SOL    HW117576   1.544   0.100   2.144
 5559SOL    HW217577   1.701   0.138   2.164
 5560SOL     OW17578   1.166   6.659   2.359
 5560SOL    HW117579   1.114   6.745   2.366
 5560SOL    HW217580   1.249   6.667   2.414
 5561SOL     OW17581   1.098   1.524   3.859
 5561SOL    HW117582   1.011   1.522   3.810
 5561SOL    HW217583   1.093   1.463   3.938
 5562SOL     OW17584   3.878   2.359   6.824
 5562SOL    HW117585   3.805   2.338   6.759
 5562SOL    HW217586   3.843   2.419   6.896
 5563SOL     OW17587   4.156   5.152   2.351
 5563SOL    HW117588   4.064   5.170   2.387
 5563SOL    HW217589   4.209   5.237   2.351
 5564SOL     OW17590   4.513   0.696   1.486
 5564SOL    HW117591   4.518   0.716   1.388
 5564SOL    HW217592   4.605   0.687   1.523
 5565SOL     OW17593   4.596   1.783   6.441
 5565SOL    HW117594   4.502   1.759   6.415
 5565SOL    HW217595   4.596   1.830   6.529
 5566SOL     OW17596   1.444   5.168   6.851
 5566SOL    HW117597   1.528   5.213   6.822
 5566SOL    HW217598   1.451   5.070   6.833
 5567SOL     OW17599   0.219   2.870   1.410
 5567SOL    HW117600   0.291   2.851   1.477
 5567SOL    HW217601   0.168   2.951   1.438
 5568SOL     OW17602   4.291   1.603   3.901
 5568SOL    HW117603   4.358   1.674   3.923
 5568SOL    HW217604   4.332   1.513   3.911
 5569SOL     OW17605   1.537   1.667   2.819
 5569SOL    HW117606   1.471   1.605   2.862
 5569SOL    HW217607   1.499   1.701   2.733
 5570SOL     OW17608   6.179   4.531   4.616
 5570SOL    HW117609   6.236   4.504   4.693
 5570SOL    HW217610   6.083   4.531   4.643
 5571SOL     OW17611   6.891   5.978   0.598
 5571SOL    HW117612   6.971   6.021   0.639
 5571SOL    HW217613   6.861   6.032   0.519
 5572SOL     OW17614   1.200   2.273   5.412
 5572SOL    HW117615   1.145   2.194   5.440
 5572SOL    HW217616   1.268   2.293   5.481
 5573SOL     OW17617   1.967   4.279   5.853
 5573SOL    HW117618   2.030   4.317   5.785
 5573SOL    HW217619   1.931   4.192   5.820
 5574SOL     OW17620   6.469   1.935   2.576
 5574SOL    HW117621   6.548   1.874   2.587
 5574SOL    HW217622   6.387   1.881   2.559
 5575SOL     OW17623   6.920   1.256   0.827
 5575SOL    HW117624   6.937   1.241   0.924
 5575SOL    HW217625   6.822   1.265   0.810
 5576SOL     OW17626   1.343   5.298   2.194
 5576SOL    HW117627   1.305   5.206   2.195
 5576SOL    HW217628   1.274   5.362   2.159
 5577SOL     OW17629   2.815   3.355   5.143
 5577SOL    HW117630   2.848   3.262   5.162
 5577SOL    HW217631   2.807   3.368   5.044
 5578SOL     OW17632   3.430   3.772   0.411
 5578SOL    HW117633   3.345   3.719   0.417
 5578SOL    HW217634   3.474   3.754   0.323
 5579SOL     OW17635   1.116   3.648   5.894
 5579SOL    HW117636   1.028   3.644   5.846
 5579SOL    HW217637   1.154   3.556   5.903
 5580SOL     OW17638   5.101   2.653   6.139
 5580SOL    HW117639   5.065   2.592   6.068
 5580SOL    HW217640   5.028   2.674   6.205
 5581SOL     OW17641   1.925   0.290   2.300
 5581SOL    HW117642   1.892   0.371   2.349
 5581SOL    HW217643   1.909   0.300   2.202
 5582SOL     OW17644   3.196   3.605   4.390
 5582SOL    HW117645   3.138   3.683   4.415
 5582SOL    HW217646   3.147   3.520   4.410
 5583SOL     OW17647   4.147   0.506   2.623
 5583SOL    HW117648   4.192   0.464   2.544
 5583SOL    HW217649   4.129   0.602   2.602
 5584SOL     OW17650   5.883   4.440   3.940
 5584SOL    HW117651   5.897   4.530   3.981
 5584SOL    HW217652   5.869   4.449   3.842
 5585SOL     OW17653   4.682   6.157   3.846
 5585SOL    HW117654   4.683   6.065   3.886
 5585SOL    HW217655   4.772   6.177   3.808
 5586SOL     OW17656   0.007   2.369   6.836
 5586SOL    HW117657   7.007   2.465   6.851
 5586SOL    HW217658   0.011   2.321   6.924
 5587SOL     OW17659   4.001   6.118   2.696
 5587SOL    HW117660   4.002   6.113   2.596
 5587SOL    HW217661   3.962   6.035   2.734
 5588SOL     OW17662   2.208   6.148   2.812
 5588SOL    HW117663   2.115   6.185   2.818
 5588SOL    HW217664   2.266   6.194   2.879
 5589SOL     OW17665   5.874   3.930   5.319
 5589SOL    HW117666   5.794   3.966   5.367
 5589SOL    HW217667   5.865   3.947   5.221
 5590SOL     OW17668   6.293   5.308   4.306
 5590SOL    HW117669   6.348   5.348   4.232
 5590SOL    HW217670   6.208   5.359   4.316
 5591SOL     OW17671   5.500   1.278   0.205
 5591SOL    HW117672   5.587   1.261   0.159
 5591SOL    HW217673   5.425   1.261   0.141
 5592SOL     OW17674   6.529   4.928   2.944
 5592SOL    HW117675   6.566   4.851   2.997
 5592SOL    HW217676   6.572   5.013   2.974
 5593SOL     OW17677   0.157   2.985   6.394
 5593SOL    HW117678   0.254   2.995   6.369
 5593SOL    HW217679   0.110   3.072   6.381
 5594SOL     OW17680   3.469   0.809   6.656
 5594SOL    HW117681   3.491   0.761   6.570
 5594SOL    HW217682   3.553   0.824   6.708
 5595SOL     OW17683   6.427   0.748   5.518
 5595SOL    HW117684   6.418   0.655   5.485
 5595SOL    HW217685   6.388   0.812   5.451
 5596SOL     OW17686   4.728   0.483   3.199
 5596SOL    HW117687   4.650   0.546   3.202
 5596SOL    HW217688   4.696   0.392   3.170
 5597SOL     OW17689   5.877   2.084   5.552
 5597SOL    HW117690   5.913   2.168   5.592
 5597SOL    HW217691   5.880   2.090   5.453
 5598SOL     OW17692   6.012   3.317   4.031
 5598SOL    HW117693   5.940   3.300   3.965
 5598SOL    HW217694   5.996   3.405   4.076
 5599SOL     OW17695   0.866   2.820   2.031
 5599SOL    HW117696   0.854   2.741   1.972
 5599SOL    HW217697   0.927   2.886   1.987
 5600SOL     OW17698   2.213   0.345   2.570
 5600SOL    HW117699   2.203   0.437   2.533
 5600SOL    HW217700   2.214   0.279   2.495
 5601SOL     OW17701   2.804   1.279   6.357
 5601SOL    HW117702   2.735   1.342   6.320
 5601SOL    HW217703   2.839   1.316   6.443
 5602SOL     OW17704   0.210   0.455   1.900
 5602SOL    HW117705   0.178   0.519   1.830
 5602SOL    HW217706   0.299   0.484   1.934
 5603SOL     OW17707   5.656   2.539   0.123
 5603SOL    HW117708   5.634   2.620   0.069
 5603SOL    HW217709   5.692   2.568   0.212
 5604SOL     OW17710   6.462   2.475   5.279
 5604SOL    HW117711   6.475   2.480   5.378
 5604SOL    HW217712   6.470   2.379   5.249
 5605SOL     OW17713   0.557   1.004   4.643
 5605SOL    HW117714   0.611   0.920   4.639
 5605SOL    HW217715   0.460   0.980   4.650
 5606SOL     OW17716   5.454   0.165   1.001
 5606SOL    HW117717   5.398   0.088   0.970
 5606SOL    HW217718   5.443   0.241   0.937
 5607SOL     OW17719   5.795   1.337   3.843
 5607SOL    HW117720   5.889   1.335   3.878
 5607SOL    HW217721   5.746   1.256   3.875
 5608SOL     OW17722   6.604   0.929   2.848
 5608SOL    HW117723   6.554   0.928   2.761
 5608SOL    HW217724   6.622   1.023   2.875
 5609SOL     OW17725   4.497   5.573   2.109
 5609SOL    HW117726   4.536   5.486   2.142
 5609SOL    HW217727   4.520   5.646   2.174
 5610SOL     OW17728   5.135   4.536   1.772
 5610SOL    HW117729   5.206   4.502   1.710
 5610SOL    HW217730   5.047   4.535   1.724
 5611SOL     OW17731   0.876   5.134   3.541
 5611SOL    HW117732   0.943   5.204   3.567
 5611SOL    HW217733   0.805   5.129   3.611
 5612SOL     OW17734   4.452   3.017   6.397
 5612SOL    HW117735   4.525   3.009   6.464
 5612SOL    HW217736   4.363   3.009   6.442
 5613SOL     OW17737   5.155   5.625   5.281
 5613SOL    HW117738   5.147   5.608   5.380
 5613SOL    HW217739   5.233   5.685   5.264
 5614SOL     OW17740   5.526   2.713   4.731
 5614SOL    HW117741   5.460   2.784   4.757
 5614SOL    HW217742   5.488   2.659   4.656
 5615SOL     OW17743   6.382   1.383   4.001
 5615SOL    HW117744   6.283   1.387   4.005
 5615SOL    HW217745   6.421   1.462   4.050
 5616SOL     OW17746   1.980   2.524   4.949
 5616SOL    HW117747   1.977   2.559   4.856
 5616SOL    HW217748   2.073   2.533   4.986
 5617SOL     OW17749   2.117   4.990   5.520
 5617SOL    HW117750   2.215   5.008   5.533
 5617SOL    HW217751   2.085   5.038   5.439
 5618SOL     OW17752   7.011   4.857   4.166
 5618SOL    HW117753   6.911   4.858   4.175
 5618SOL    HW217754   0.022   4.763   4.172
 5619SOL     OW17755   3.905   3.629   4.353
 5619SOL    HW117756   3.944   3.543   4.385
 5619SOL    HW217757   3.976   3.686   4.313
 5620SOL     OW17758   4.158   3.992   0.037
 5620SOL    HW117759   4.173   3.896   0.059
 5620SOL    HW217760   4.245   4.040   0.035
 5621SOL     OW17761   1.515   3.004   6.976
 5621SOL    HW117762   1.500   2.905   6.977
 5621SOL    HW217763   1.517   3.039   0.047
 5622SOL     OW17764   4.109   0.260   6.206
 5622SOL    HW117765   4.139   0.212   6.124
 5622SOL    HW217766   4.181   0.258   6.274
 5623SOL     OW17767   4.687   6.328   4.621
 5623SOL    HW117768   4.772   6.306   4.571
 5623SOL    HW217769   4.630   6.246   4.625
 5624SOL     OW17770   0.313   4.446   3.698
 5624SOL    HW117771   0.239   4.421   3.636
 5624SOL    HW217772   0.279   4.446   3.792
 5625SOL     OW17773   0.109   6.721   5.680
 5625SOL    HW117774   0.206   6.695   5.679
 5625SOL    HW217775   0.074   6.723   5.586
 5626SOL     OW17776   2.570   6.460   3.946
 5626SOL    HW117777   2.590   6.369   3.983
 5626SOL    HW217778   2.568   6.456   3.846
 5627SOL     OW17779   0.250   5.033   6.405
 5627SOL    HW117780   0.164   5.011   6.361
 5627SOL    HW217781   0.249   5.129   6.435
 5628SOL     OW17782   1.804   2.847   1.544
 5628SOL    HW117783   1.875   2.890   1.487
 5628SOL    HW217784   1.714   2.881   1.517
 5629SOL     OW17785   4.303   3.069   1.662
 5629SOL    HW117786   4.378   3.088   1.725
 5629SOL    HW217787   4.338   3.023   1.581
 5630SOL     OW17788   2.262   4.126   6.566
 5630SOL    HW117789   2.166   4.099   6.555
 5630SOL    HW217790   2.274   4.170   6.655
 5631SOL     OW17791   4.846   1.433   2.166
 5631SOL    HW117792   4.748   1.442   2.152
 5631SOL    HW217793   4.865   1.353   2.222
 5632SOL     OW17794   3.084   2.496   5.820
 5632SOL    HW117795   3.103   2.550   5.738
 5632SOL    HW217796   3.122   2.404   5.810
 5633SOL     OW17797   5.776   4.796   4.495
 5633SOL    HW117798   5.742   4.702   4.497
 5633SOL    HW217799   5.821   4.817   4.581
 5634SOL     OW17800   1.759   4.980   4.146
 5634SOL    HW117801   1.858   4.971   4.136
 5634SOL    HW217802   1.732   5.074   4.125
 5635SOL     OW17803   1.628   6.442   6.779
 5635SOL    HW117804   1.579   6.504   6.718
 5635SOL    HW217805   1.726   6.464   6.779
 5636SOL     OW17806   5.582   6.961   4.900
 5636SOL    HW117807   5.561   6.874   4.947
 5636SOL    HW217808   5.577   6.948   4.801
 5637SOL     OW17809   4.569   6.664   3.233
 5637SOL    HW117810   4.505   6.741   3.241
 5637SOL    HW217811   4.629   6.663   3.313
 5638SOL     OW17812   6.923   3.701   1.193
 5638SOL    HW117813   6.915   3.797   1.169
 5638SOL    HW217814   6.850   3.649   1.148
 5639SOL     OW17815   2.718   0.244   2.293
 5639SOL    HW117816   2.667   0.160   2.313
 5639SOL    HW217817   2.655   0.314   2.260
 5640SOL     OW17818   3.414   0.800   2.471
 5640SOL    HW117819   3.428   0.838   2.380
 5640SOL    HW217820   3.439   0.868   2.540
 5641SOL     OW17821   0.149   4.693   5.450
 5641SOL    HW117822   0.204   4.632   5.393
 5641SOL    HW217823   0.099   4.757   5.392
 5642SOL     OW17824   0.378   5.788   5.299
 5642SOL    HW117825   0.286   5.757   5.326
 5642SOL    HW217826   0.372   5.881   5.264
 5643SOL     OW17827   3.935   0.930   3.671
 5643SOL    HW117828   3.927   0.837   3.708
 5643SOL    HW217829   3.999   0.982   3.727
 5644SOL     OW17830   3.634   6.983   4.733
 5644SOL    HW117831   3.730   6.995   4.711
 5644SOL    HW217832   3.579   6.993   4.650
 5645SOL     OW17833   5.474   4.981   2.631
 5645SOL    HW117834   5.407   4.910   2.655
 5645SOL    HW217835   5.519   5.013   2.715
 5646SOL     OW17836   0.928   5.815   3.679
 5646SOL    HW117837   1.016   5.792   3.719
 5646SOL    HW217838   0.933   5.810   3.580
 5647SOL     OW17839   4.571   6.907   0.651
 5647SOL    HW117840   4.567   6.808   0.661
 5647SOL    HW217841   4.664   6.934   0.625
 5648SOL     OW17842   1.757   0.097   3.647
 5648SOL    HW117843   1.751   0.045   3.562
 5648SOL    HW217844   1.675   0.153   3.659
 5649SOL     OW17845   0.338   0.773   4.670
 5649SOL    HW117846   0.239   0.757   4.664
 5649SOL    HW217847   0.378   0.764   4.578
 5650SOL     OW17848   0.907   4.968   0.632
 5650SOL    HW117849   0.958   4.967   0.718
 5650SOL    HW217850   0.862   5.056   0.620
 5651SOL     OW17851   1.462   1.475   1.614
 5651SOL    HW117852   1.548   1.436   1.645
 5651SOL    HW217853   1.400   1.401   1.586
 5652SOL     OW17854   6.755   6.782   2.314
 5652SOL    HW117855   6.742   6.783   2.215
 5652SOL    HW217856   6.735   6.873   2.350
 5653SOL     OW17857   6.969   6.366   6.865
 5653SOL    HW117858   6.870   6.370   6.851
 5653SOL    HW217859   7.014   6.367   6.776
 5654SOL     OW17860   6.367   0.489   5.431
 5654SOL    HW117861   6.383   0.441   5.345
 5654SOL    HW217862   6.323   0.427   5.496
 5655SOL     OW17863   1.332   3.998   4.689
 5655SOL    HW117864   1.299   4.071   4.748
 5655SOL    HW217865   1.265   3.923   4.688
 5656SOL     OW17866   0.140   3.783   6.676
 5656SOL    HW117867   0.105   3.871   6.708
 5656SOL    HW217868   0.166   3.790   6.580
 5657SOL     OW17869   5.617   1.787   0.684
 5657SOL    HW117870   5.549   1.810   0.754
 5657SOL    HW217871   5.601   1.694   0.651
 5658SOL     OW17872   3.959   4.137   6.678
 5658SOL    HW117873   3.919   4.211   6.624
 5658SOL    HW217874   4.046   4.109   6.636
 5659SOL     OW17875   3.948   3.074   4.582
 5659SOL    HW117876   3.994   3.077   4.670
 5659SOL    HW217877   3.885   2.997   4.579
 5660SOL     OW17878   5.288   0.005   0.860
 5660SOL    HW117879   5.363   0.033   0.802
 5660SOL    HW217880   5.208   7.006   0.804
 5661SOL     OW17881   1.627   5.193   5.246
 5661SOL    HW117882   1.701   5.212   5.181
 5661SOL    HW217883   1.562   5.130   5.205
 5662SOL     OW17884   2.899   6.197   3.572
 5662SOL    HW117885   2.992   6.207   3.607
 5662SOL    HW217886   2.847   6.136   3.631
 5663SOL     OW17887   1.908   3.260   7.012
 5663SOL    HW117888   1.935   3.304   6.927
 5663SOL    HW217889   1.922   3.161   7.004
 5664SOL     OW17890   6.510   3.994   4.589
 5664SOL    HW117891   6.441   4.047   4.639
 5664SOL    HW217892   6.507   3.899   4.619
 5665SOL     OW17893   2.131   1.068   0.213
 5665SOL    HW117894   2.138   1.057   0.312
 5665SOL    HW217895   2.084   1.153   0.192
 5666SOL     OW17896   5.985   6.533   2.339
 5666SOL    HW117897   5.948   6.604   2.399
 5666SOL    HW217898   6.057   6.573   2.281
 5667SOL     OW17899   1.234   5.496   4.443
 5667SOL    HW117900   1.166   5.426   4.421
 5667SOL    HW217901   1.202   5.549   4.522
 5668SOL     OW17902   5.334   2.251   4.143
 5668SOL    HW117903   5.313   2.332   4.198
 5668SOL    HW217904   5.249   2.217   4.100
 5669SOL     OW17905   6.779   3.551   6.840
 5669SOL    HW117906   6.762   3.636   6.891
 5669SOL    HW217907   6.719   3.479   6.874
 5670SOL     OW17908   0.002   2.688   3.755
 5670SOL    HW117909   7.003   2.764   3.693
 5670SOL    HW217910   6.943   2.631   3.767
 5671SOL     OW17911   6.720   6.106   6.684
 5671SOL    HW117912   6.794   6.039   6.676
 5671SOL    HW217913   6.729   6.175   6.613
 5672SOL     OW17914   3.930   4.354   6.455
 5672SOL    HW117915   3.837   4.390   6.448
 5672SOL    HW217916   3.995   4.420   6.415
 5673SOL     OW17917   1.111   0.262   2.218
 5673SOL    HW117918   1.102   0.167   2.190
 5673SOL    HW217919   1.038   0.316   2.176
 5674SOL     OW17920   0.273   5.074   4.785
 5674SOL    HW117921   0.299   5.123   4.702
 5674SOL    HW217922   0.335   4.998   4.800
 5675SOL     OW17923   3.824   2.540   7.018
 5675SOL    HW117924   3.804   2.627   6.973
 5675SOL    HW217925   3.910   2.547   0.047
 5676SOL     OW17926   2.055   2.863   2.267
 5676SOL    HW117927   2.140   2.824   2.234
 5676SOL    HW217928   1.995   2.885   2.190
 5677SOL     OW17929   0.947   1.276   0.467
 5677SOL    HW117930   0.872   1.211   0.480
 5677SOL    HW217931   0.914   1.369   0.484
 5678SOL     OW17932   3.936   6.374   2.337
 5678SOL    HW117933   3.952   6.465   2.375
 5678SOL    HW217934   4.004   6.356   2.266
 5679SOL     OW17935   0.281   1.511   3.885
 5679SOL    HW117936   0.270   1.533   3.789
 5679SOL    HW217937   0.196   1.473   3.921
 5680SOL     OW17938   1.564   5.140   5.651
 5680SOL    HW117939   1.582   5.042   5.665
 5680SOL    HW217940   1.528   5.180   5.735
 5681SOL     OW17941   0.044   4.335   0.720
 5681SOL    HW117942   0.122   4.276   0.700
 5681SOL    HW217943   0.012   4.318   0.814
 5682SOL     OW17944   2.334   4.756   5.404
 5682SOL    HW117945   2.387   4.692   5.348
 5682SOL    HW217946   2.262   4.706   5.452
 5683SOL     OW17947   4.070   0.865   5.946
 5683SOL    HW117948   4.008   0.884   6.023
 5683SOL    HW217949   4.095   0.768   5.948
 5684SOL     OW17950   2.307   3.194   5.618
 5684SOL    HW117951   2.283   3.291   5.610
 5684SOL    HW217952   2.383   3.173   5.556
 5685SOL     OW17953   1.728   2.935   2.516
 5685SOL    HW117954   1.731   2.846   2.561
 5685SOL    HW217955   1.806   2.990   2.546
 5686SOL     OW17956   3.266   1.377   5.877
 5686SOL    HW117957   3.333   1.431   5.928
 5686SOL    HW217958   3.181   1.370   5.930
 5687SOL     OW17959   0.838   5.149   6.933
 5687SOL    HW117960   0.869   5.197   7.015
 5687SOL    HW217961   0.758   5.094   6.955
 5688SOL     OW17962   0.357   2.520   1.360
 5688SOL    HW117963   0.307   2.539   1.445
 5688SOL    HW217964   0.388   2.425   1.360
 5689SOL     OW17965   3.769   1.388   0.463
 5689SOL    HW117966   3.833   1.321   0.424
 5689SOL    HW217967   3.679   1.376   0.421
 5690SOL     OW17968   2.291   6.138   0.077
 5690SOL    HW117969   2.246   6.075   0.139
 5690SOL    HW217970   2.335   6.086   0.003
 5691SOL     OW17971   3.294   0.842   1.934
 5691SOL    HW117972   3.250   0.922   1.893
 5691SOL    HW217973   3.227   0.767   1.940
 5692SOL     OW17974   5.883   3.435   0.622
 5692SOL    HW117975   5.948   3.477   0.685
 5692SOL    HW217976   5.814   3.385   0.674
 5693SOL     OW17977   5.623   2.349   2.298
 5693SOL    HW117978   5.710   2.390   2.323
 5693SOL    HW217979   5.551   2.419   2.299
 5694SOL     OW17980   0.898   1.548   3.340
 5694SOL    HW117981   0.829   1.557   3.412
 5694SOL    HW217982   0.883   1.619   3.272
 5695SOL     OW17983   1.195   2.838   3.148
 5695SOL    HW117984   1.215   2.886   3.063
 5695SOL    HW217985   1.186   2.740   3.129
 5696SOL     OW17986   1.008   1.474   3.066
 5696SOL    HW117987   1.016   1.399   3.132
 5696SOL    HW217988   1.067   1.549   3.095
 5697SOL     OW17989   5.947   2.144   1.494
 5697SOL    HW117990   5.951   2.241   1.472
 5697SOL    HW217991   5.934   2.091   1.410
 5698SOL     OW17992   0.900   3.907   4.019
 5698SOL    HW117993   0.827   3.957   4.065
 5698SOL    HW217994   0.929   3.957   3.937
 5699SOL     OW17995   0.843   2.651   3.179
 5699SOL    HW117996   0.789   2.733   3.194
 5699SOL    HW217997   0.821   2.612   3.090
 5700SOL     OW17998   7.000   6.904   3.225
 5700SOL    HW117999   6.914   6.897   3.274
 5700SOL    HW218000   7.001   6.989   3.172
 5701SOL     OW18001   1.211   0.811   1.865
 5701SOL    HW118002   1.261   0.895   1.885
 5701SOL    HW218003   1.164   0.779   1.947
 5702SOL     OW18004   2.654   5.860   4.914
 5702SOL    HW118005   2.565   5.894   4.886
 5702SOL    HW218006   2.726   5.902   4.859
 5703SOL     OW18007   6.759   4.577   1.803
 5703SOL    HW118008   6.695   4.597   1.877
 5703SOL    HW218009   6.827   4.510   1.834
 5704SOL     OW18010   4.732   4.688   2.383
 5704SOL    HW118011   4.829   4.668   2.392
 5704SOL    HW218012   4.680   4.602   2.381
 5705SOL     OW18013   5.224   0.245   0.198
 5705SOL    HW118014   5.292   0.204   0.138
 5705SOL    HW218015   5.245   0.342   0.210
 5706SOL     OW18016   6.890   4.026   0.757
 5706SOL    HW118017   6.864   4.108   0.706
 5706SOL    HW218018   6.946   3.967   0.699
 5707SOL     OW18019   0.383   6.444   0.349
 5707SOL    HW118020   0.353   6.434   0.255
 5707SOL    HW218021   0.464   6.387   0.365
 5708SOL     OW18022   5.201   6.030   1.749
 5708SOL    HW118023   5.258   6.085   1.688
 5708SOL    HW218024   5.131   6.089   1.791
 5709SOL     OW18025   1.347   0.804   2.594
 5709SOL    HW118026   1.255   0.800   2.633
 5709SOL    HW218027   1.346   0.763   2.503
 5710SOL     OW18028   2.560   2.871   0.730
 5710SOL    HW118029   2.481   2.862   0.792
 5710SOL    HW218030   2.527   2.890   0.638
 5711SOL     OW18031   5.467   0.996   2.204
 5711SOL    HW118032   5.379   1.017   2.162
 5711SOL    HW218033   5.508   0.917   2.159
 5712SOL     OW18034   6.381   0.057   6.345
 5712SOL    HW118035   6.287   0.089   6.334
 5712SOL    HW218036   6.424   0.106   6.422
 5713SOL     OW18037   3.339   2.814   1.464
 5713SOL    HW118038   3.334   2.747   1.389
 5713SOL    HW218039   3.287   2.780   1.542
 5714SOL     OW18040   0.370   5.811   0.456
 5714SOL    HW118041   0.452   5.761   0.484
 5714SOL    HW218042   0.364   5.896   0.510
 5715SOL     OW18043   1.057   0.116   2.995
 5715SOL    HW118044   0.975   0.069   3.030
 5715SOL    HW218045   1.132   0.050   2.988
 5716SOL     OW18046   1.980   4.161   6.626
 5716SOL    HW118047   2.024   4.240   6.583
 5716SOL    HW218048   1.892   4.188   6.664
 5717SOL     OW18049   1.355   4.834   1.130
 5717SOL    HW118050   1.397   4.825   1.221
 5717SOL    HW218051   1.266   4.878   1.139
 5718SOL     OW18052   0.319   2.573   5.018
 5718SOL    HW118053   0.249   2.514   4.977
 5718SOL    HW218054   0.326   2.552   5.116
 5719SOL     OW18055   2.710   1.788   6.537
 5719SOL    HW118056   2.771   1.732   6.481
 5719SOL    HW218057   2.688   1.872   6.489
 5720SOL     OW18058   1.467   5.404   4.974
 5720SOL    HW118059   1.546   5.441   4.925
 5720SOL    HW218060   1.446   5.313   4.938
 5721SOL     OW18061   0.258   3.496   1.281
 5721SOL    HW118062   0.276   3.553   1.201
 5721SOL    HW218063   0.183   3.536   1.334
 5722SOL     OW18064   6.869   1.521   4.881
 5722SOL    HW118065   6.830   1.600   4.834
 5722SOL    HW218066   6.917   1.463   4.815
 5723SOL     OW18067   3.825   3.348   0.661
 5723SOL    HW118068   3.841   3.288   0.583
 5723SOL    HW218069   3.903   3.410   0.673
 5724SOL     OW18070   5.669   2.899   4.912
 5724SOL    HW118071   5.655   2.828   4.843
 5724SOL    HW218072   5.752   2.880   4.963
 5725SOL     OW18073   5.139   5.665   4.364
 5725SOL    HW118074   5.080   5.597   4.321
 5725SOL    HW218075   5.151   5.642   4.460
 5726SOL     OW18076   0.270   4.523   4.584
 5726SOL    HW118077   0.321   4.585   4.643
 5726SOL    HW218078   0.175   4.554   4.577
 5727SOL     OW18079   6.664   1.606   3.853
 5727SOL    HW118080   6.723   1.683   3.830
 5727SOL    HW218081   6.578   1.613   3.803
 5728SOL     OW18082   3.839   0.398   6.688
 5728SOL    HW118083   3.911   0.356   6.633
 5728SOL    HW218084   3.848   0.369   6.783
 5729SOL     OW18085   1.247   1.407   0.736
 5729SOL    HW118086   1.325   1.464   0.760
 5729SOL    HW218087   1.163   1.447   0.774
 5730SOL     OW18088   4.766   4.923   5.953
 5730SOL    HW118089   4.826   4.878   5.887
 5730SOL    HW218090   4.822   4.973   6.019
 5731SOL     OW18091   6.991   6.574   3.691
 5731SOL    HW118092   6.983   6.579   3.592
 5731SOL    HW218093   6.919   6.629   3.733
 5732SOL     OW18094   6.522   5.478   4.781
 5732SOL    HW118095   6.446   5.473   4.716
 5732SOL    HW218096   6.603   5.516   4.736
 5733SOL     OW18097   4.428   6.707   5.206
 5733SOL    HW118098   4.333   6.691   5.180
 5733SOL    HW218099   4.488   6.670   5.136
 5734SOL     OW18100   0.943   6.793   5.497
 5734SOL    HW118101   1.026   6.837   5.531
 5734SOL    HW218102   0.878   6.784   5.572
 5735SOL     OW18103   4.141   2.234   2.148
 5735SOL    HW118104   4.126   2.295   2.070
 5735SOL    HW218105   4.060   2.178   2.163
 5736SOL     OW18106   6.319   4.419   0.239
 5736SOL    HW118107   6.335   4.491   0.306
 5736SOL    HW218108   6.262   4.453   0.164
 5737SOL     OW18109   5.571   6.961   1.137
 5737SOL    HW118110   5.559   6.938   1.234
 5737SOL    HW218111   5.503   0.007   1.111
 5738SOL     OW18112   2.506   3.013   5.937
 5738SOL    HW118113   2.558   2.949   5.880
 5738SOL    HW218114   2.427   2.966   5.977
 5739SOL     OW18115   1.509   0.925   5.608
 5739SOL    HW118116   1.503   0.993   5.681
 5739SOL    HW218117   1.521   0.834   5.648
 5740SOL     OW18118   4.233   3.611   1.818
 5740SOL    HW118119   4.259   3.537   1.880
 5740SOL    HW218120   4.153   3.657   1.853
 5741SOL     OW18121   0.414   3.944   4.324
 5741SOL    HW118122   0.414   3.901   4.414
 5741SOL    HW218123   0.508   3.951   4.290
 5742SOL     OW18124   5.331   6.764   2.232
 5742SOL    HW118125   5.330   6.816   2.146
 5742SOL    HW218126   5.419   6.777   2.278
 5743SOL     OW18127   2.662   5.029   5.137
 5743SOL    HW118128   2.750   5.059   5.175
 5743SOL    HW218129   2.653   4.930   5.149
 5744SOL     OW18130   4.803   0.826   2.364
 5744SOL    HW118131   4.739   0.866   2.429
 5744SOL    HW218132   4.784   0.862   2.273
 5745SOL     OW18133   1.355   0.866   3.988
 5745SOL    HW118134   1.419   0.930   3.944
 5745SOL    HW218135   1.313   0.808   3.918
 5746SOL     OW18136   6.023   6.687   1.595
 5746SOL    HW118137   6.085   6.612   1.618
 5746SOL    HW218138   5.993   6.677   1.500
 5747SOL     OW18139   0.123   4.577   3.112
 5747SOL    HW118140   0.033   4.579   3.156
 5747SOL    HW218141   0.113   4.599   3.015
 5748SOL     OW18142   1.609   5.727   0.223
 5748SOL    HW118143   1.613   5.767   0.131
 5748SOL    HW218144   1.631   5.797   0.291
 5749SOL     OW18145   1.516   7.019   4.840
 5749SOL    HW118146   1.588   0.023   4.776
 5749SOL    HW218147   1.507   0.067   4.911
 5750SOL     OW18148   5.638   6.435   4.513
 5750SOL    HW118149   5.555   6.469   4.558
 5750SOL    HW218150   5.626   6.338   4.491
 5751SOL     OW18151   2.902   2.287   4.441
 5751SOL    HW118152   2.914   2.317   4.346
 5751SOL    HW218153   2.807   2.259   4.456
 5752SOL     OW18154   5.928   0.867   0.280
 5752SOL    HW118155   5.935   0.861   0.180
 5752SOL    HW218156   5.844   0.821   0.309
 5753SOL     OW18157   3.710   3.317   5.294
 5753SOL    HW118158   3.631   3.313   5.355
 5753SOL    HW218159   3.784   3.262   5.332
 5754SOL     OW18160   6.493   4.069   1.049
 5754SOL    HW118161   6.562   4.019   0.998
 5754SOL    HW218162   6.523   4.164   1.062
 5755SOL     OW18163   2.094   3.131   6.270
 5755SOL    HW118164   2.039   3.048   6.279
 5755SOL    HW218165   2.122   3.143   6.175
 5756SOL     OW18166   6.168   6.507   3.831
 5756SOL    HW118167   6.217   6.435   3.782
 5756SOL    HW218168   6.127   6.570   3.765
 5757SOL     OW18169   6.654   6.317   2.781
 5757SOL    HW118170   6.620   6.410   2.795
 5757SOL    HW218171   6.597   6.271   2.712
 5758SOL     OW18172   2.550   0.736   5.028
 5758SOL    HW118173   2.506   0.806   5.085
 5758SOL    HW218174   2.561   0.771   4.935
 5759SOL     OW18175   4.877   1.230   6.674
 5759SOL    HW118176   4.946   1.300   6.693
 5759SOL    HW218177   4.910   1.141   6.706
 5760SOL     OW18178   0.585   4.611   1.337
 5760SOL    HW118179   0.529   4.649   1.410
 5760SOL    HW218180   0.628   4.686   1.286
 5761SOL     OW18181   5.718   6.759   6.640
 5761SOL    HW118182   5.683   6.768   6.734
 5761SOL    HW218183   5.714   6.662   6.613
 5762SOL     OW18184   4.688   5.872   0.311
 5762SOL    HW118185   4.688   5.889   0.410
 5762SOL    HW218186   4.772   5.822   0.287
 5763SOL     OW18187   6.958   1.062   6.551
 5763SOL    HW118188   6.938   1.142   6.495
 5763SOL    HW218189   6.872   1.018   6.577
 5764SOL     OW18190   4.569   4.919   5.611
 5764SOL    HW118191   4.650   4.866   5.636
 5764SOL    HW218192   4.578   5.013   5.644
 5765SOL     OW18193   6.704   3.788   6.965
 5765SOL    HW118194   6.701   3.824   0.036
 5765SOL    HW218195   6.756   3.851   6.907
 5766SOL     OW18196   2.429   2.335   0.220
 5766SOL    HW118197   2.351   2.293   0.267
 5766SOL    HW218198   2.509   2.334   0.281
 5767SOL     OW18199   1.984   0.126   0.439
 5767SOL    HW118200   1.890   0.138   0.407
 5767SOL    HW218201   2.043   0.103   0.361
 5768SOL     OW18202   0.005   6.793   2.942
 5768SOL    HW118203   0.077   6.841   2.891
 5768SOL    HW218204   0.000   6.830   3.035
 5769SOL     OW18205   2.629   6.119   4.429
 5769SOL    HW118206   2.618   6.022   4.409
 5769SOL    HW218207   2.549   6.152   4.479
 5770SOL     OW18208   5.617   0.178   0.237
 5770SOL    HW118209   5.540   0.125   0.272
 5770SOL    HW218210   5.686   0.115   0.200
 5771SOL     OW18211   1.638   6.316   3.159
 5771SOL    HW118212   1.571   6.369   3.211
 5771SOL    HW218213   1.617   6.218   3.166
 5772SOL     OW18214   6.356   2.679   0.807
 5772SOL    HW118215   6.320   2.586   0.802
 5772SOL    HW218216   6.374   2.703   0.902
 5773SOL     OW18217   4.930   0.989   4.032
 5773SOL    HW118218   4.930   1.072   4.088
 5773SOL    HW218219   4.892   1.011   3.942
 5774SOL     OW18220   3.102   5.759   3.787
 5774SOL    HW118221   3.112   5.736   3.884
 5774SOL    HW218222   3.080   5.856   3.777
 5775SOL     OW18223   1.634   0.692   2.236
 5775SOL    HW118224   1.615   0.597   2.210
 5775SOL    HW218225   1.713   0.725   2.185
 5776SOL     OW18226   6.324   0.900   5.740
 5776SOL    HW118227   6.304   0.995   5.717
 5776SOL    HW218228   6.385   0.861   5.671
 5777SOL     OW18229   6.655   0.498   5.218
 5777SOL    HW118230   6.702   0.582   5.191
 5777SOL    HW218231   6.597   0.467   5.142
 5778SOL     OW18232   1.770   0.255   1.589
 5778SOL    HW118233   1.789   0.324   1.519
 5778SOL    HW218234   1.854   0.235   1.640
 5779SOL     OW18235   3.919   1.578   0.575
 5779SOL    HW118236   3.867   1.593   0.659
 5779SOL    HW218237   3.883   1.500   0.526
 5780SOL     OW18238   6.231   5.358   3.172
 5780SOL    HW118239   6.261   5.267   3.142
 5780SOL    HW218240   6.141   5.352   3.214
 5781SOL     OW18241   0.780   4.043   4.663
 5781SOL    HW118242   0.853   3.992   4.707
 5781SOL    HW218243   0.700   3.984   4.650
 5782SOL     OW18244   1.655   0.722   0.960
 5782SOL    HW118245   1.569   0.696   0.916
 5782SOL    HW218246   1.692   0.645   1.011
 5783SOL     OW18247   1.742   0.767   1.439
 5783SOL    HW118248   1.682   0.727   1.370
 5783SOL    HW218249   1.836   0.736   1.423
 5784SOL     OW18250   6.881   6.218   0.063
 5784SOL    HW118251   6.784   6.238   0.080
 5784SOL    HW218252   6.916   6.282   7.017
 5785SOL     OW18253   1.626   1.603   1.387
 5785SOL    HW118254   1.542   1.556   1.415
 5785SOL    HW218255   1.693   1.600   1.462
 5786SOL     OW18256   1.010   4.288   0.275
 5786SOL    HW118257   1.048   4.285   0.368
 5786SOL    HW218258   0.954   4.207   0.259
 5787SOL     OW18259   4.595   2.622   4.989
 5787SOL    HW118260   4.583   2.669   5.076
 5787SOL    HW218261   4.551   2.532   4.993
 5788SOL     OW18262   3.188   1.001   1.294
 5788SOL    HW118263   3.238   1.007   1.381
 5788SOL    HW218264   3.203   1.084   1.241
 5789SOL     OW18265   3.399   3.340   6.097
 5789SOL    HW118266   3.441   3.251   6.080
 5789SOL    HW218267   3.302   3.337   6.073
 5790SOL     OW18268   0.388   4.814   4.871
 5790SOL    HW118269   0.380   4.715   4.880
 5790SOL    HW218270   0.437   4.851   4.950
 5791SOL     OW18271   2.707   2.202   2.627
 5791SOL    HW118272   2.646   2.273   2.662
 5791SOL    HW218273   2.658   2.147   2.560
 5792SOL     OW18274   5.557   3.374   2.122
 5792SOL    HW118275   5.546   3.434   2.201
 5792SOL    HW218276   5.564   3.429   2.039
 5793SOL     OW18277   5.940   0.706   4.255
 5793SOL    HW118278   6.019   0.709   4.317
 5793SOL    HW218279   5.866   0.762   4.292
 5794SOL     OW18280   2.995   0.273   6.446
 5794SOL    HW118281   3.029   0.285   6.539
 5794SOL    HW218282   2.927   0.343   6.426
 5795SOL     OW18283   6.873   0.033   1.199
 5795SOL    HW118284   6.900   0.127   1.221
 5795SOL    HW218285   6.788   0.010   1.246
 5796SOL     OW18286   4.297   0.849   6.359
 5796SOL    HW118287   4.305   0.898   6.445
 5796SOL    HW218288   4.226   0.778   6.367
 5797SOL     OW18289   5.124   1.514   0.401
 5797SOL    HW118290   5.068   1.528   0.483
 5797SOL    HW218291   5.103   1.587   0.335
 5798SOL     OW18292   0.157   4.849   4.458
 5798SOL    HW118293   0.113   4.908   4.526
 5798SOL    HW218294   0.257   4.856   4.468
 5799SOL     OW18295   0.072   0.398   4.258
 5799SOL    HW118296   0.097   0.338   4.182
 5799SOL    HW218297   0.010   0.469   4.225
 5800SOL     OW18298   0.852   6.595   1.833
 5800SOL    HW118299   0.869   6.508   1.787
 5800SOL    HW218300   0.852   6.581   1.932
 5801SOL     OW18301   2.124   2.511   3.623
 5801SOL    HW118302   2.109   2.584   3.690
 5801SOL    HW218303   2.214   2.470   3.637
 5802SOL     OW18304   6.370   3.023   2.729
 5802SOL    HW118305   6.294   3.010   2.665
 5802SOL    HW218306   6.337   3.009   2.822
 5803SOL     OW18307   1.962   5.679   3.343
 5803SOL    HW118308   1.868   5.694   3.375
 5803SOL    HW218309   2.017   5.760   3.364
 5804SOL     OW18310   6.996   5.713   3.109
 5804SOL    HW118311   6.943   5.759   3.180
 5804SOL    HW218312   6.951   5.726   3.020
 5805SOL     OW18313   1.814   2.901   0.621
 5805SOL    HW118314   1.767   2.937   0.702
 5805SOL    HW218315   1.806   2.802   0.619
 5806SOL     OW18316   7.012   4.623   4.520
 5806SOL    HW118317   6.939   4.662   4.575
 5806SOL    HW218318   0.012   4.684   4.444
 5807SOL     OW18319   1.096   5.493   0.681
 5807SOL    HW118320   1.147   5.456   0.760
 5807SOL    HW218321   1.053   5.417   0.632
 5808SOL     OW18322   7.015   6.606   4.353
 5808SOL    HW118323   0.012   6.513   4.323
 5808SOL    HW218324   0.064   6.667   4.320
 5809SOL     OW18325   6.696   1.952   5.276
 5809SOL    HW118326   6.665   1.932   5.369
 5809SOL    HW218327   6.779   2.008   5.279
 5810SOL     OW18328   4.807   0.956   5.381
 5810SOL    HW118329   4.736   0.895   5.415
 5810SOL    HW218330   4.810   0.951   5.281
 5811SOL     OW18331   3.485   1.383   5.222
 5811SOL    HW118332   3.402   1.364   5.273
 5811SOL    HW218333   3.549   1.435   5.279
 5812SOL     OW18334   4.879   3.217   5.734
 5812SOL    HW118335   4.865   3.247   5.829
 5812SOL    HW218336   4.801   3.161   5.706
 5813SOL     OW18337   2.450   0.113   0.784
 5813SOL    HW118338   2.428   0.206   0.753
 5813SOL    HW218339   2.535   0.115   0.837
 5814SOL     OW18340   0.237   3.397   2.239
 5814SOL    HW118341   0.213   3.418   2.145
 5814SOL    HW218342   0.290   3.313   2.243
 5815SOL     OW18343   4.618   1.720   4.205
 5815SOL    HW118344   4.622   1.814   4.240
 5815SOL    HW218345   4.707   1.676   4.219
 5816SOL     OW18346   5.255   5.083   0.222
 5816SOL    HW118347   5.189   5.103   0.150
 5816SOL    HW218348   5.219   5.110   0.310
 5817SOL     OW18349   6.069   4.742   5.231
 5817SOL    HW118350   6.088   4.839   5.213
 5817SOL    HW218351   6.045   4.731   5.328
 5818SOL     OW18352   6.982   5.568   5.227
 5818SOL    HW118353   7.020   5.568   5.134
 5818SOL    HW218354   0.017   5.622   5.287
 5819SOL     OW18355   3.335   6.191   6.950
 5819SOL    HW118356   3.256   6.130   6.943
 5819SOL    HW218357   3.418   6.136   6.961
 5820SOL     OW18358   4.520   4.734   2.730
 5820SOL    HW118359   4.497   4.685   2.813
 5820SOL    HW218360   4.518   4.833   2.748
 5821SOL     OW18361   6.593   0.886   1.631
 5821SOL    HW118362   6.563   0.923   1.544
 5821SOL    HW218363   6.669   0.823   1.616
 5822SOL     OW18364   2.001   2.893   1.762
 5822SOL    HW118365   2.066   2.818   1.771
 5822SOL    HW218366   1.947   2.880   1.678
 5823SOL     OW18367   2.721   6.935   4.687
 5823SOL    HW118368   2.803   6.922   4.633
 5823SOL    HW218369   2.743   6.983   4.772
 5824SOL     OW18370   0.462   6.500   3.594
 5824SOL    HW118371   0.370   6.461   3.593
 5824SOL    HW218372   0.513   6.463   3.672
 5825SOL     OW18373   0.344   6.181   4.573
 5825SOL    HW118374   0.336   6.084   4.593
 5825SOL    HW218375   0.252   6.222   4.566
 5826SOL     OW18376   0.386   6.285   5.903
 5826SOL    HW118377   0.357   6.216   5.970
 5826SOL    HW218378   0.453   6.346   5.946
 5827SOL     OW18379   1.698   3.175   4.497
 5827SOL    HW118380   1.686   3.116   4.576
 5827SOL    HW218381   1.613   3.222   4.476
 5828SOL     OW18382   5.061   1.551   2.499
 5828SOL    HW118383   5.159   1.573   2.503
 5828SOL    HW218384   5.021   1.563   2.590
 5829SOL     OW18385   1.572   0.272   4.462
 5829SOL    HW118386   1.568   0.325   4.546
 5829SOL    HW218387   1.484   0.277   4.414
 5830SOL     OW18388   5.087   0.168   5.915
 5830SOL    HW118389   5.059   0.088   5.969
 5830SOL    HW218390   5.023   0.179   5.838
 5831SOL     OW18391   1.216   1.041   5.852
 5831SOL    HW118392   1.185   0.955   5.893
 5831SOL    HW218393   1.168   1.055   5.765
 5832SOL     OW18394   3.589   4.662   0.242
 5832SOL    HW118395   3.611   4.570   0.211
 5832SOL    HW218396   3.653   4.689   0.314
 5833SOL     OW18397   3.966   3.422   5.111
 5833SOL    HW118398   3.973   3.497   5.177
 5833SOL    HW218399   3.958   3.335   5.160
 5834SOL     OW18400   6.516   4.160   6.665
 5834SOL    HW118401   6.461   4.122   6.591
 5834SOL    HW218402   6.457   4.179   6.744
 5835SOL     OW18403   5.478   1.847   2.809
 5835SOL    HW118404   5.534   1.823   2.729
 5835SOL    HW218405   5.536   1.852   2.890
 5836SOL     OW18406   3.119   0.184   1.733
 5836SOL    HW118407   3.209   0.182   1.690
 5836SOL    HW218408   3.126   0.229   1.822
 5837SOL     OW18409   3.640   2.960   0.333
 5837SOL    HW118410   3.698   3.037   0.363
 5837SOL    HW218411   3.569   2.994   0.271
 5838SOL     OW18412   2.907   1.781   1.286
 5838SOL    HW118413   2.920   1.806   1.190
 5838SOL    HW218414   2.923   1.683   1.296
 5839SOL     OW18415   0.622   2.249   0.602
 5839SOL    HW118416   0.643   2.161   0.560
 5839SOL    HW218417   0.573   2.235   0.688
 5840SOL     OW18418   0.892   4.139   6.872
 5840SOL    HW118419   0.956   4.181   6.936
 5840SOL    HW218420   0.875   4.201   6.796
 5841SOL     OW18421   5.393   0.948   1.798
 5841SOL    HW118422   5.320   0.947   1.866
 5841SOL    HW218423   5.471   0.998   1.835
 5842SOL     OW18424   4.869   2.711   1.652
 5842SOL    HW118425   4.864   2.722   1.553
 5842SOL    HW218426   4.785   2.746   1.694
 5843SOL     OW18427   1.181   4.350   2.028
 5843SOL    HW118428   1.113   4.287   1.991
 5843SOL    HW218429   1.166   4.360   2.127
 5844SOL     OW18430   1.479   5.718   6.073
 5844SOL    HW118431   1.382   5.743   6.061
 5844SOL    HW218432   1.515   5.683   5.987
 5845SOL     OW18433   0.860   0.166   1.928
 5845SOL    HW118434   0.830   0.110   1.851
 5845SOL    HW218435   0.794   0.240   1.944
 5846SOL     OW18436   5.862   3.608   5.598
 5846SOL    HW118437   5.872   3.679   5.669
 5846SOL    HW218438   5.836   3.522   5.642
 5847SOL     OW18439   2.695   2.405   1.772
 5847SOL    HW118440   2.789   2.432   1.793
 5847SOL    HW218441   2.668   2.329   1.832
 5848SOL     OW18442   1.645   5.843   3.292
 5848SOL    HW118443   1.637   5.759   3.238
 5848SOL    HW218444   1.633   5.821   3.389
 5849SOL     OW18445   1.860   7.011   5.595
 5849SOL    HW118446   1.843   0.084   5.619
 5849SOL    HW218447   1.925   7.006   5.519
 5850SOL     OW18448   0.385   3.606   2.372
 5850SOL    HW118449   0.338   3.622   2.458
 5850SOL    HW218450   0.335   3.538   2.319
 5851SOL     OW18451   5.296   3.850   3.963
 5851SOL    HW118452   5.286   3.758   4.002
 5851SOL    HW218453   5.387   3.859   3.922
 5852SOL     OW18454   5.153   6.416   2.614
 5852SOL    HW118455   5.186   6.322   2.602
 5852SOL    HW218456   5.090   6.439   2.539
 5853SOL     OW18457   4.042   5.157   5.361
 5853SOL    HW118458   4.089   5.123   5.442
 5853SOL    HW218459   4.027   5.255   5.369
 5854SOL     OW18460   4.128   3.926   5.391
 5854SOL    HW118461   4.029   3.910   5.386
 5854SOL    HW218462   4.172   3.892   5.309
 5855SOL     OW18463   1.425   1.039   4.360
 5855SOL    HW118464   1.427   1.107   4.434
 5855SOL    HW218465   1.338   1.045   4.311
 5856SOL     OW18466   1.288   6.360   3.895
 5856SOL    HW118467   1.333   6.376   3.808
 5856SOL    HW218468   1.289   6.445   3.949
 5857SOL     OW18469   6.413   3.259   4.836
 5857SOL    HW118470   6.373   3.245   4.745
 5857SOL    HW218471   6.420   3.172   4.883
 5858SOL     OW18472   1.975   2.075   2.921
 5858SOL    HW118473   1.975   2.162   2.971
 5858SOL    HW218474   1.926   2.086   2.835
 5859SOL     OW18475   6.507   5.996   1.050
 5859SOL    HW118476   6.484   6.035   0.961
 5859SOL    HW218477   6.600   5.958   1.047
 5860SOL     OW18478   6.776   5.285   3.157
 5860SOL    HW118479   6.781   5.218   3.231
 5860SOL    HW218480   6.868   5.313   3.131
 5861SOL     OW18481   5.534   1.130   4.202
 5861SOL    HW118482   5.590   1.131   4.119
 5861SOL    HW218483   5.438   1.145   4.179
 5862SOL     OW18484   6.150   5.393   0.950
 5862SOL    HW118485   6.238   5.351   0.929
 5862SOL    HW218486   6.129   5.463   0.881
 5863SOL     OW18487   2.722   2.180   4.938
 5863SOL    HW118488   2.781   2.179   5.019
 5863SOL    HW218489   2.778   2.197   4.857
 5864SOL     OW18490   3.041   3.972   2.512
 5864SOL    HW118491   2.981   4.052   2.522
 5864SOL    HW218492   3.029   3.933   2.421
 5865SOL     OW18493   5.570   0.559   4.976
 5865SOL    HW118494   5.564   0.515   5.065
 5865SOL    HW218495   5.483   0.602   4.954
 5866SOL     OW18496   3.395   3.105   1.150
 5866SOL    HW118497   3.433   3.106   1.242
 5866SOL    HW218498   3.374   3.199   1.122
 5867SOL     OW18499   2.108   3.394   1.404
 5867SOL    HW118500   2.150   3.369   1.491
 5867SOL    HW218501   2.043   3.469   1.420
 5868SOL     OW18502   1.870   1.636   5.876
 5868SOL    HW118503   1.805   1.565   5.905
 5868SOL    HW218504   1.950   1.593   5.834
 5869SOL     OW18505   2.233   5.747   2.985
 5869SOL    HW118506   2.277   5.657   2.978
 5869SOL    HW218507   2.135   5.735   3.003
 5870SOL     OW18508   5.392   6.195   4.999
 5870SOL    HW118509   5.325   6.123   4.981
 5870SOL    HW218510   5.465   6.159   5.057
 5871SOL     OW18511   3.600   3.647   1.811
 5871SOL    HW118512   3.575   3.744   1.810
 5871SOL    HW218513   3.530   3.594   1.762
 5872SOL     OW18514   4.156   0.002   1.533
 5872SOL    HW118515   4.113   0.031   1.618
 5872SOL    HW218516   4.189   6.930   1.543
 5873SOL     OW18517   3.460   6.825   2.267
 5873SOL    HW118518   3.555   6.857   2.273
 5873SOL    HW218519   3.412   6.877   2.196
 5874SOL     OW18520   2.228   4.515   5.216
 5874SOL    HW118521   2.242   4.416   5.218
 5874SOL    HW218522   2.138   4.537   5.254
 5875SOL     OW18523   4.242   1.368   0.355
 5875SOL    HW118524   4.279   1.444   0.302
 5875SOL    HW218525   4.149   1.391   0.385
 5876SOL     OW18526   3.975   3.419   1.616
 5876SOL    HW118527   3.938   3.474   1.691
 5876SOL    HW218528   3.907   3.409   1.544
 5877SOL     OW18529   6.533   6.384   1.053
 5877SOL    HW118530   6.509   6.480   1.039
 5877SOL    HW218531   6.511   6.332   0.970
 5878SOL     OW18532   0.136   5.339   4.366
 5878SOL    HW118533   0.129   5.262   4.302
 5878SOL    HW218534   0.082   5.318   4.448
 5879SOL     OW18535   2.005   4.275   0.101
 5879SOL    HW118536   1.994   4.261   0.002
 5879SOL    HW218537   1.934   4.224   0.149
 5880SOL     OW18538   4.456   4.039   6.986
 5880SOL    HW118539   4.545   4.047   0.010
 5880SOL    HW218540   4.433   3.942   6.975
 5881SOL     OW18541   0.454   6.172   2.761
 5881SOL    HW118542   0.551   6.170   2.785
 5881SOL    HW218543   0.437   6.107   2.687
 5882SOL     OW18544   0.364   6.213   1.438
 5882SOL    HW118545   0.273   6.191   1.402
 5882SOL    HW218546   0.378   6.312   1.434
 5883SOL     OW18547   1.287   0.771   6.294
 5883SOL    HW118548   1.341   0.784   6.378
 5883SOL    HW218549   1.335   0.707   6.234
 5884SOL     OW18550   3.206   1.675   4.661
 5884SOL    HW118551   3.239   1.767   4.681
 5884SOL    HW218552   3.124   1.656   4.714
 5885SOL     OW18553   0.481   0.387   3.511
 5885SOL    HW118554   0.577   0.365   3.523
 5885SOL    HW218555   0.458   0.470   3.562
 5886SOL     OW18556   0.812   1.526   4.977
 5886SOL    HW118557   0.771   1.437   4.995
 5886SOL    HW218558   0.906   1.526   5.012
 5887SOL     OW18559   2.704   1.577   3.538
 5887SOL    HW118560   2.648   1.654   3.569
 5887SOL    HW218561   2.780   1.563   3.602
 5888SOL     OW18562   3.095   0.925   1.728
 5888SOL    HW118563   3.006   0.968   1.742
 5888SOL    HW218564   3.082   0.830   1.701
 5889SOL     OW18565   1.280   6.708   0.896
 5889SOL    HW118566   1.282   6.766   0.977
 5889SOL    HW218567   1.374   6.693   0.863
 5890SOL     OW18568   2.134   1.405   3.915
 5890SOL    HW118569   2.075   1.410   3.996
 5890SOL    HW218570   2.186   1.320   3.918
 5891SOL     OW18571   3.773   3.300   6.138
 5891SOL    HW118572   3.833   3.270   6.064
 5891SOL    HW218573   3.688   3.247   6.136
 5892SOL     OW18574   0.543   5.062   1.660
 5892SOL    HW118575   0.452   5.030   1.685
 5892SOL    HW218576   0.603   4.984   1.644
 5893SOL     OW18577   1.827   3.858   4.365
 5893SOL    HW118578   1.843   3.793   4.439
 5893SOL    HW218579   1.732   3.891   4.370
 5894SOL     OW18580   6.657   4.694   4.391
 5894SOL    HW118581   6.588   4.762   4.415
 5894SOL    HW218582   6.674   4.635   4.470
 5895SOL     OW18583   5.260   3.795   4.466
 5895SOL    HW118584   5.291   3.852   4.542
 5895SOL    HW218585   5.331   3.792   4.396
 5896SOL     OW18586   4.751   0.575   0.118
 5896SOL    HW118587   4.737   0.579   0.019
 5896SOL    HW218588   4.831   0.519   0.138
 5897SOL     OW18589   4.300   0.650   1.672
 5897SOL    HW118590   4.379   0.678   1.618
 5897SOL    HW218591   4.225   0.626   1.610
 5898SOL     OW18592   1.980   6.833   3.308
 5898SOL    HW118593   1.933   6.859   3.223
 5898SOL    HW218594   1.999   6.915   3.362
 5899SOL     OW18595   5.088   5.811   5.835
 5899SOL    HW118596   5.156   5.860   5.781
 5899SOL    HW218597   5.131   5.769   5.915
 5900SOL     OW18598   5.365   4.887   3.161
 5900SOL    HW118599   5.332   4.929   3.076
 5900SOL    HW218600   5.465   4.896   3.165
 5901SOL     OW18601   2.592   0.404   0.613
 5901SOL    HW118602   2.585   0.443   0.522
 5901SOL    HW218603   2.501   0.380   0.647
 5902SOL     OW18604   6.606   2.687   6.161
 5902SOL    HW118605   6.528   2.626   6.176
 5902SOL    HW218606   6.598   2.730   6.072
 5903SOL     OW18607   4.004   4.461   0.015
 5903SOL    HW118608   4.030   4.526   6.965
 5903SOL    HW218609   3.937   4.397   7.000
 5904SOL     OW18610   0.899   3.950   1.786
 5904SOL    HW118611   0.976   3.939   1.723
 5904SOL    HW218612   0.897   3.873   1.850
 5905SOL     OW18613   6.418   5.834   2.815
 5905SOL    HW118614   6.472   5.760   2.773
 5905SOL    HW218615   6.333   5.796   2.851
 5906SOL     OW18616   4.221   2.245   3.684
 5906SOL    HW118617   4.191   2.283   3.771
 5906SOL    HW218618   4.312   2.204   3.694
 5907SOL     OW18619   0.645   4.889   1.265
 5907SOL    HW118620   0.610   4.931   1.349
 5907SOL    HW218621   0.694   4.957   1.212
 5908SOL     OW18622   0.304   2.566   6.170
 5908SOL    HW118623   0.232   2.625   6.207
 5908SOL    HW218624   0.390   2.586   6.216
 5909SOL     OW18625   6.871   5.530   0.474
 5909SOL    HW118626   6.958   5.580   0.474
 5909SOL    HW218627   6.828   5.539   0.384
 5910SOL     OW18628   0.226   3.659   3.550
 5910SOL    HW118629   0.302   3.709   3.508
 5910SOL    HW218630   0.152   3.650   3.483
 5911SOL     OW18631   6.484   6.532   6.248
 5911SOL    HW118632   6.513   6.626   6.268
 5911SOL    HW218633   6.498   6.513   6.151
 5912SOL     OW18634   6.936   0.650   5.596
 5912SOL    HW118635   6.952   0.555   5.572
 5912SOL    HW218636   6.838   0.668   5.597
 5913SOL     OW18637   4.662   3.064   6.236
 5913SOL    HW118638   4.584   3.032   6.290
 5913SOL    HW218639   4.746   3.047   6.287
 5914SOL     OW18640   1.825   4.986   6.655
 5914SOL    HW118641   1.746   5.041   6.627
 5914SOL    HW218642   1.794   4.909   6.710
 5915SOL     OW18643   4.681   5.698   1.299
 5915SOL    HW118644   4.764   5.645   1.313
 5915SOL    HW218645   4.687   5.785   1.348
 5916SOL     OW18646   5.730   6.129   3.850
 5916SOL    HW118647   5.803   6.107   3.914
 5916SOL    HW218648   5.769   6.157   3.762
 5917SOL     OW18649   3.318   3.762   4.048
 5917SOL    HW118650   3.411   3.779   4.081
 5917SOL    HW218651   3.320   3.691   3.978
 5918SOL     OW18652   2.260   4.242   5.215
 5918SOL    HW118653   2.169   4.233   5.254
 5918SOL    HW218654   2.276   4.168   5.149
 5919SOL     OW18655   3.676   3.031   3.020
 5919SOL    HW118656   3.613   2.973   2.968
 5919SOL    HW218657   3.688   2.994   3.112
 5920SOL     OW18658   4.587   0.948   6.673
 5920SOL    HW118659   4.614   0.991   6.760
 5920SOL    HW218660   4.639   0.989   6.599
 5921SOL     OW18661   3.631   5.185   6.317
 5921SOL    HW118662   3.684   5.261   6.279
 5921SOL    HW218663   3.631   5.109   6.252
 5922SOL     OW18664   5.433   3.838   3.201
 5922SOL    HW118665   5.510   3.810   3.258
 5922SOL    HW218666   5.381   3.757   3.173
 5923SOL     OW18667   0.142   1.676   1.763
 5923SOL    HW118668   0.173   1.620   1.840
 5923SOL    HW218669   0.064   1.632   1.719
 5924SOL     OW18670   6.766   6.936   2.956
 5924SOL    HW118671   6.865   6.918   2.949
 5924SOL    HW218672   6.734   6.981   2.873
 5925SOL     OW18673   4.049   6.747   2.050
 5925SOL    HW118674   4.038   6.831   1.996
 5925SOL    HW218675   3.999   6.756   2.136
 5926SOL     OW18676   3.788   5.632   2.318
 5926SOL    HW118677   3.832   5.545   2.341
 5926SOL    HW218678   3.779   5.639   2.219
 5927SOL     OW18679   1.535   4.761   2.511
 5927SOL    HW118680   1.574   4.706   2.585
 5927SOL    HW218681   1.447   4.722   2.483
 5928SOL     OW18682   3.401   6.608   1.067
 5928SOL    HW118683   3.335   6.671   1.106
 5928SOL    HW218684   3.494   6.637   1.090
 5929SOL     OW18685   6.613   0.189   5.943
 5929SOL    HW118686   6.625   0.157   6.037
 5929SOL    HW218687   6.654   0.280   5.933
 5930SOL     OW18688   6.628   3.996   3.127
 5930SOL    HW118689   6.710   3.957   3.167
 5930SOL    HW218690   6.550   3.936   3.145
 5931SOL     OW18691   6.697   6.104   2.492
 5931SOL    HW118692   6.771   6.093   2.558
 5931SOL    HW218693   6.621   6.154   2.534
 5932SOL     OW18694   3.067   0.063   1.045
 5932SOL    HW118695   3.103   0.143   0.997
 5932SOL    HW218696   3.088   0.069   1.142
 5933SOL     OW18697   6.478   4.886   3.714
 5933SOL    HW118698   6.510   4.799   3.752
 5933SOL    HW218699   6.388   4.872   3.672
 5934SOL     OW18700   3.455   2.903   4.773
 5934SOL    HW118701   3.472   2.874   4.868
 5934SOL    HW218702   3.485   2.998   4.762
 5935SOL     OW18703   6.620   4.916   6.364
 5935SOL    HW118704   6.605   4.818   6.357
 5935SOL    HW218705   6.687   4.935   6.436
 5936SOL     OW18706   3.262   2.313   1.515
 5936SOL    HW118707   3.181   2.271   1.554
 5936SOL    HW218708   3.321   2.348   1.588
 5937SOL     OW18709   6.378   3.223   2.161
 5937SOL    HW118710   6.301   3.188   2.215
 5937SOL    HW218711   6.351   3.231   2.065
 5938SOL     OW18712   6.445   5.563   3.032
 5938SOL    HW118713   6.395   5.478   3.049
 5938SOL    HW218714   6.388   5.625   2.977
 5939SOL     OW18715   2.224   6.519   3.172
 5939SOL    HW118716   2.235   6.469   3.258
 5939SOL    HW218717   2.308   6.569   3.151
 5940SOL     OW18718   4.567   5.414   2.579
 5940SOL    HW118719   4.566   5.318   2.553
 5940SOL    HW218720   4.475   5.452   2.570
 5941SOL     OW18721   5.582   3.585   2.318
 5941SOL    HW118722   5.673   3.610   2.351
 5941SOL    HW218723   5.540   3.664   2.273
 5942SOL     OW18724   5.526   4.009   0.342
 5942SOL    HW118725   5.477   4.083   0.389
 5942SOL    HW218726   5.485   3.994   0.252
 5943SOL     OW18727   3.450   4.207   5.921
 5943SOL    HW118728   3.548   4.208   5.938
 5943SOL    HW218729   3.427   4.279   5.855
 5944SOL     OW18730   0.009   2.302   0.441
 5944SOL    HW118731   0.084   2.255   0.489
 5944SOL    HW218732   6.997   2.376   0.500
 5945SOL     OW18733   6.538   4.645   5.351
 5945SOL    HW118734   6.510   4.681   5.262
 5945SOL    HW218735   6.579   4.718   5.405
 5946SOL     OW18736   3.786   3.581   6.096
 5946SOL    HW118737   3.777   3.485   6.123
 5946SOL    HW218738   3.876   3.616   6.124
 5947SOL     OW18739   3.449   3.145   2.342
 5947SOL    HW118740   3.476   3.137   2.246
 5947SOL    HW218741   3.362   3.099   2.357
 5948SOL     OW18742   4.267   4.954   2.515
 5948SOL    HW118743   4.198   4.887   2.540
 5948SOL    HW218744   4.225   5.028   2.462
 5949SOL     OW18745   5.220   3.994   1.624
 5949SOL    HW118746   5.305   4.039   1.598
 5949SOL    HW218747   5.150   4.012   1.555
 5950SOL     OW18748   5.383   1.428   5.394
 5950SOL    HW118749   5.301   1.472   5.432
 5950SOL    HW218750   5.360   1.383   5.308
 5951SOL     OW18751   1.311   5.421   3.948
 5951SOL    HW118752   1.350   5.330   3.958
 5951SOL    HW218753   1.250   5.440   4.026
 5952SOL     OW18754   5.228   5.108   2.900
 5952SOL    HW118755   5.168   5.183   2.928
 5952SOL    HW218756   5.266   5.129   2.810
 5953SOL     OW18757   6.746   3.542   5.397
 5953SOL    HW118758   6.695   3.623   5.369
 5953SOL    HW218759   6.759   3.544   5.497
 5954SOL     OW18760   6.407   5.303   5.602
 5954SOL    HW118761   6.461   5.385   5.587
 5954SOL    HW218762   6.326   5.304   5.543
 5955SOL     OW18763   4.801   5.567   2.467
 5955SOL    HW118764   4.716   5.545   2.515
 5955SOL    HW218765   4.852   5.484   2.448
 5956SOL     OW18766   4.572   2.042   4.305
 5956SOL    HW118767   4.513   2.115   4.339
 5956SOL    HW218768   4.668   2.066   4.321
 5957SOL     OW18769   3.026   1.035   4.684
 5957SOL    HW118770   3.032   1.130   4.716
 5957SOL    HW218771   3.112   0.989   4.702
 5958SOL     OW18772   4.722   6.385   3.050
 5958SOL    HW118773   4.795   6.317   3.047
 5958SOL    HW218774   4.702   6.416   2.956
 5959SOL     OW18775   4.349   2.954   5.653
 5959SOL    HW118776   4.249   2.944   5.654
 5959SOL    HW218777   4.377   2.996   5.567
 5960SOL     OW18778   4.113   5.644   5.069
 5960SOL    HW118779   4.145   5.563   5.021
 5960SOL    HW218780   4.042   5.618   5.135
 5961SOL     OW18781   4.648   2.169   2.593
 5961SOL    HW118782   4.613   2.263   2.598
 5961SOL    HW218783   4.629   2.131   2.502
 5962SOL     OW18784   5.820   6.471   6.921
 5962SOL    HW118785   5.739   6.473   6.862
 5962SOL    HW218786   5.889   6.412   6.881
 5963SOL     OW18787   3.608   3.539   6.456
 5963SOL    HW118788   3.586   3.448   6.492
 5963SOL    HW218789   3.527   3.578   6.414
 5964SOL     OW18790   1.298   6.193   5.394
 5964SOL    HW118791   1.286   6.146   5.481
 5964SOL    HW218792   1.215   6.186   5.339
 5965SOL     OW18793   2.007   1.773   0.263
 5965SOL    HW118794   1.923   1.804   0.309
 5965SOL    HW218795   2.012   1.815   0.173
 5966SOL     OW18796   2.196   5.911   5.641
 5966SOL    HW118797   2.199   5.829   5.698
 5966SOL    HW218798   2.107   5.954   5.648
 5967SOL     OW18799   3.020   0.391   6.034
 5967SOL    HW118800   2.936   0.359   5.990
 5967SOL    HW218801   3.096   0.332   6.009
 5968SOL     OW18802   5.436   2.066   0.240
 5968SOL    HW118803   5.435   2.133   0.314
 5968SOL    HW218804   5.461   1.976   0.277
 5969SOL     OW18805   5.961   0.362   6.479
 5969SOL    HW118806   5.950   0.264   6.494
 5969SOL    HW218807   6.051   0.391   6.512
 5970SOL     OW18808   0.202   4.340   3.025
 5970SOL    HW118809   0.175   4.431   3.056
 5970SOL    HW218810   0.143   4.311   2.949
 5971SOL     OW18811   0.406   1.368   2.443
 5971SOL    HW118812   0.348   1.448   2.428
 5971SOL    HW218813   0.458   1.348   2.360
 5972SOL     OW18814   5.602   6.007   5.969
 5972SOL    HW118815   5.675   6.014   5.901
 5972SOL    HW218816   5.562   5.915   5.964
 5973SOL     OW18817   1.547   3.386   1.695
 5973SOL    HW118818   1.524   3.456   1.763
 5973SOL    HW218819   1.607   3.317   1.738
 5974SOL     OW18820   5.771   5.625   6.571
 5974SOL    HW118821   5.735   5.618   6.478
 5974SOL    HW218822   5.731   5.705   6.616
 5975SOL     OW18823   4.435   0.299   1.059
 5975SOL    HW118824   4.518   0.259   1.099
 5975SOL    HW218825   4.442   0.296   0.959
 5976SOL     OW18826   4.024   2.688   6.266
 5976SOL    HW118827   4.044   2.645   6.178
 5976SOL    HW218828   4.092   2.759   6.284
 5977SOL     OW18829   1.317   6.011   0.268
 5977SOL    HW118830   1.386   6.053   0.209
 5977SOL    HW218831   1.359   5.941   0.324
 5978SOL     OW18832   4.303   5.278   1.925
 5978SOL    HW118833   4.307   5.377   1.919
 5978SOL    HW218834   4.388   5.243   1.966
 5979SOL     OW18835   6.064   0.586   2.680
 5979SOL    HW118836   6.060   0.565   2.582
 5979SOL    HW218837   6.139   0.649   2.698
 5980SOL     OW18838   3.563   4.224   1.129
 5980SOL    HW118839   3.622   4.304   1.133
 5980SOL    HW218840   3.590   4.167   1.051
 5981SOL     OW18841   5.952   1.835   1.494
 5981SOL    HW118842   5.962   1.777   1.414
 5981SOL    HW218843   5.856   1.838   1.523
 5982SOL     OW18844   6.253   2.160   1.857
 5982SOL    HW118845   6.326   2.093   1.867
 5982SOL    HW218846   6.206   2.146   1.770
 5983SOL     OW18847   1.224   1.219   3.659
 5983SOL    HW118848   1.320   1.239   3.638
 5983SOL    HW218849   1.213   1.208   3.757
 5984SOL     OW18850   5.867   5.680   3.289
 5984SOL    HW118851   5.879   5.768   3.335
 5984SOL    HW218852   5.845   5.610   3.356
 5985SOL     OW18853   6.900   3.621   3.789
 5985SOL    HW118854   6.898   3.699   3.852
 5985SOL    HW218855   6.928   3.539   3.840
 5986SOL     OW18856   3.291   4.026   4.287
 5986SOL    HW118857   3.246   4.075   4.212
 5986SOL    HW218858   3.344   3.950   4.250
 5987SOL     OW18859   5.621   0.071   3.872
 5987SOL    HW118860   5.618   0.166   3.840
 5987SOL    HW218861   5.716   0.047   3.893
 5988SOL     OW18862   4.150   0.561   5.695
 5988SOL    HW118863   4.125   0.548   5.790
 5988SOL    HW218864   4.182   0.655   5.680
 5989SOL     OW18865   2.507   5.799   6.462
 5989SOL    HW118866   2.588   5.857   6.471
 5989SOL    HW218867   2.447   5.836   6.391
 5990SOL     OW18868   3.062   3.547   0.857
 5990SOL    HW118869   2.965   3.525   0.847
 5990SOL    HW218870   3.086   3.622   0.795
 5991SOL     OW18871   3.784   5.236   6.791
 5991SOL    HW118872   3.824   5.327   6.789
 5991SOL    HW218873   3.744   5.215   6.702
 5992SOL     OW18874   3.604   0.229   2.063
 5992SOL    HW118875   3.600   0.316   2.112
 5992SOL    HW218876   3.563   0.240   1.973
 5993SOL     OW18877   3.266   4.484   5.952
 5993SOL    HW118878   3.236   4.577   5.926
 5993SOL    HW218879   3.289   4.482   6.049
 5994SOL     OW18880   6.832   2.373   1.143
 5994SOL    HW118881   6.930   2.386   1.156
 5994SOL    HW218882   6.805   2.283   1.177
 5995SOL     OW18883   5.060   3.696   2.295
 5995SOL    HW118884   5.031   3.600   2.295
 5995SOL    HW218885   5.044   3.735   2.204
 5996SOL     OW18886   0.797   6.143   0.847
 5996SOL    HW118887   0.805   6.057   0.795
 5996SOL    HW218888   0.881   6.157   0.900
 5997SOL     OW18889   7.020   5.585   2.506
 5997SOL    HW118890   0.004   5.642   2.587
 5997SOL    HW218891   0.089   5.575   2.465
 5998SOL     OW18892   6.456   1.521   3.142
 5998SOL    HW118893   6.379   1.468   3.178
 5998SOL    HW218894   6.491   1.476   3.059
 5999SOL     OW18895   2.694   2.809   1.457
 5999SOL    HW118896   2.705   2.710   1.462
 5999SOL    HW218897   2.760   2.847   1.392
 6000SOL     OW18898   2.456   6.725   0.394
 6000SOL    HW118899   2.421   6.652   0.453
 6000SOL    HW218900   2.552   6.744   0.418
 6001SOL     OW18901   0.340   4.579   6.784
 6001SOL    HW118902   0.385   4.661   6.747
 6001SOL    HW218903   0.263   4.554   6.724
 6002SOL     OW18904   5.733   0.496   0.747
 6002SOL    HW118905   5.652   0.550   0.768
 6002SOL    HW218906   5.809   0.556   0.723
 6003SOL     OW18907   5.733   2.061   4.566
 6003SOL    HW118908   5.766   2.138   4.620
 6003SOL    HW218909   5.636   2.074   4.545
 6004SOL     OW18910   6.840   3.879   3.262
 6004SOL    HW118911   6.839   3.932   3.347
 6004SOL    HW218912   6.887   3.792   3.278
 6005SOL     OW18913   4.955   5.261   4.519
 6005SOL    HW118914   4.934   5.315   4.437
 6005SOL    HW218915   4.932   5.315   4.600
 6006SOL     OW18916   2.616   1.046   5.457
 6006SOL    HW118917   2.647   0.972   5.517
 6006SOL    HW218918   2.683   1.062   5.385
 6007SOL     OW18919   5.295   3.740   6.019
 6007SOL    HW118920   5.390   3.723   6.044
 6007SOL    HW218921   5.235   3.699   6.088
 6008SOL     OW18922   2.487   4.557   5.276
 6008SOL    HW118923   2.513   4.473   5.323
 6008SOL    HW218924   2.412   4.538   5.212
 6009SOL     OW18925   2.225   0.817   3.367
 6009SOL    HW118926   2.214   0.778   3.276
 6009SOL    HW218927   2.297   0.886   3.365
 6010SOL     OW18928   1.145   5.220   4.190
 6010SOL    HW118929   1.160   5.231   4.289
 6010SOL    HW218930   1.053   5.185   4.175
 6011SOL     OW18931   5.343   2.904   2.884
 6011SOL    HW118932   5.352   2.826   2.946
 6011SOL    HW218933   5.384   2.880   2.795
 6012SOL     OW18934   5.834   1.069   0.767
 6012SOL    HW118935   5.934   1.078   0.763
 6012SOL    HW218936   5.808   1.038   0.859
 6013SOL     OW18937   5.316   1.619   2.678
 6013SOL    HW118938   5.362   1.558   2.614
 6013SOL    HW218939   5.324   1.713   2.646
 6014SOL     OW18940   4.065   3.686   2.910
 6014SOL    HW118941   4.070   3.739   2.826
 6014SOL    HW218942   4.122   3.604   2.901
 6015SOL     OW18943   6.431   3.837   4.309
 6015SOL    HW118944   6.405   3.847   4.213
 6015SOL    HW218945   6.364   3.885   4.366
 6016SOL     OW18946   6.210   1.793   5.595
 6016SOL    HW118947   6.243   1.722   5.658
 6016SOL    HW218948   6.110   1.796   5.598
 6017SOL     OW18949   6.206   4.890   3.665
 6017SOL    HW118950   6.146   4.825   3.712
 6017SOL    HW218951   6.217   4.972   3.722
 6018SOL     OW18952   3.962   0.484   6.139
 6018SOL    HW118953   3.863   0.487   6.122
 6018SOL    HW218954   3.992   0.389   6.140
 6019SOL     OW18955   0.706   2.723   4.281
 6019SOL    HW118956   0.700   2.804   4.222
 6019SOL    HW218957   0.772   2.659   4.243
 6020SOL     OW18958   1.034   4.884   1.244
 6020SOL    HW118959   1.063   4.968   1.290
 6020SOL    HW218960   1.078   4.805   1.288
 6021SOL     OW18961   4.289   0.294   2.778
 6021SOL    HW118962   4.246   0.368   2.726
 6021SOL    HW218963   4.280   0.208   2.728
 6022SOL     OW18964   5.370   1.940   3.688
 6022SOL    HW118965   5.468   1.933   3.670
 6022SOL    HW218966   5.348   1.887   3.771
 6023SOL     OW18967   5.830   1.122   1.311
 6023SOL    HW118968   5.736   1.140   1.341
 6023SOL    HW218969   5.874   1.059   1.374
 6024SOL     OW18970   2.322   4.855   2.847
 6024SOL    HW118971   2.274   4.795   2.782
 6024SOL    HW218972   2.292   4.950   2.833
 6025SOL     OW18973   4.010   1.611   3.253
 6025SOL    HW118974   4.089   1.606   3.193
 6025SOL    HW218975   3.955   1.691   3.230
 6026SOL     OW18976   6.897   4.404   5.771
 6026SOL    HW118977   6.900   4.392   5.871
 6026SOL    HW218978   6.984   4.444   5.740
 6027SOL     OW18979   1.000   3.138   5.418
 6027SOL    HW118980   0.913   3.095   5.444
 6027SOL    HW218981   1.019   3.214   5.480
 6028SOL     OW18982   6.667   4.629   0.321
 6028SOL    HW118983   6.634   4.668   0.235
 6028SOL    HW218984   6.590   4.619   0.385
 6029SOL     OW18985   2.528   0.097   4.618
 6029SOL    HW118986   2.523   0.188   4.659
 6029SOL    HW218987   2.584   0.038   4.676
 6030SOL     OW18988   3.854   5.161   2.897
 6030SOL    HW118989   3.805   5.227   2.954
 6030SOL    HW218990   3.826   5.069   2.921
 6031SOL     OW18991   3.069   5.755   4.690
 6031SOL    HW118992   3.104   5.713   4.607
 6031SOL    HW218993   2.997   5.820   4.667
 6032SOL     OW18994   2.459   4.440   2.808
 6032SOL    HW118995   2.531   4.500   2.774
 6032SOL    HW218996   2.435   4.465   2.902
 6033SOL     OW18997   2.427   2.117   2.893
 6033SOL    HW118998   2.367   2.084   2.966
 6033SOL    HW218999   2.444   2.043   2.828
 6034SOL     OW19000   1.118   0.114   5.389
 6034SOL    HW119001   1.090   0.178   5.460
 6034SOL    HW219002   1.210   0.079   5.410
 6035SOL     OW19003   0.762   1.697   2.192
 6035SOL    HW119004   0.780   1.599   2.202
 6035SOL    HW219005   0.691   1.725   2.256
 6036SOL     OW19006   5.070   4.949   3.231
 6036SOL    HW119007   5.167   4.949   3.254
 6036SOL    HW219008   5.035   4.855   3.233
 6037SOL     OW19009   4.170   6.346   0.527
 6037SOL    HW119010   4.266   6.360   0.501
 6037SOL    HW219011   4.147   6.249   0.519
 6038SOL     OW19012   1.751   2.567   5.996
 6038SOL    HW119013   1.767   2.594   6.091
 6038SOL    HW219014   1.653   2.552   5.981
 6039SOL     OW19015   3.074   3.078   2.812
 6039SOL    HW119016   2.997   3.142   2.807
 6039SOL    HW219017   3.096   3.059   2.907
 6040SOL     OW19018   1.458   1.476   0.526
 6040SOL    HW119019   1.505   1.389   0.540
 6040SOL    HW219020   1.523   1.551   0.538
 6041SOL     OW19021   3.132   0.657   5.343
 6041SOL    HW119022   3.131   0.753   5.317
 6041SOL    HW219023   3.226   0.622   5.338
 6042SOL     OW19024   4.520   0.039   2.241
 6042SOL    HW119025   4.420   0.033   2.248
 6042SOL    HW219026   4.557   6.969   2.229
 6043SOL     OW19027   1.250   5.333   5.573
 6043SOL    HW119028   1.213   5.405   5.515
 6043SOL    HW219029   1.205   5.336   5.662
 6044SOL     OW19030   1.394   2.808   1.607
 6044SOL    HW119031   1.448   2.854   1.537
 6044SOL    HW219032   1.303   2.850   1.611
 6045SOL     OW19033   6.372   4.164   2.421
 6045SOL    HW119034   6.298   4.100   2.441
 6045SOL    HW219035   6.460   4.121   2.441
 6046SOL     OW19036   3.445   2.534   0.587
 6046SOL    HW119037   3.529   2.501   0.630
 6046SOL    HW219038   3.466   2.572   0.497
 6047SOL     OW19039   5.149   1.764   1.948
 6047SOL    HW119040   5.141   1.804   2.039
 6047SOL    HW219041   5.167   1.666   1.955
 6048SOL     OW19042   4.272   5.104   5.192
 6048SOL    HW119043   4.338   5.126   5.263
 6048SOL    HW219044   4.182   5.091   5.233
 6049SOL     OW19045   5.013   3.470   0.194
 6049SOL    HW119046   4.986   3.410   0.118
 6049SOL    HW219047   4.930   3.509   0.236
 6050SOL     OW19048   3.466   5.625   6.159
 6050SOL    HW119049   3.526   5.692   6.204
 6050SOL    HW219050   3.503   5.533   6.173
 6051SOL     OW19051   1.860   0.017   4.225
 6051SOL    HW119052   1.919   0.010   4.145
 6051SOL    HW219053   1.789   0.086   4.209
 6052SOL     OW19054   5.793   1.368   0.399
 6052SOL    HW119055   5.727   1.418   0.455
 6052SOL    HW219056   5.823   1.286   0.449
 6053SOL     OW19057   4.634   1.370   6.535
 6053SOL    HW119058   4.718   1.316   6.548
 6053SOL    HW219059   4.590   1.385   6.623
 6054SOL     OW19060   2.536   2.921   0.266
 6054SOL    HW119061   2.624   2.968   0.253
 6054SOL    HW219062   2.528   2.846   0.201
 6055SOL     OW19063   4.885   6.603   5.512
 6055SOL    HW119064   4.866   6.508   5.489
 6055SOL    HW219065   4.979   6.612   5.544
 6056SOL     OW19066   5.151   3.256   4.729
 6056SOL    HW119067   5.084   3.182   4.736
 6056SOL    HW219068   5.221   3.244   4.800
 6057SOL     OW19069   6.263   1.968   3.009
 6057SOL    HW119070   6.312   1.916   3.079
 6057SOL    HW219071   6.169   1.935   3.002
 6058SOL     OW19072   4.605   3.663   1.619
 6058SOL    HW119073   4.620   3.687   1.523
 6058SOL    HW219074   4.513   3.692   1.647
 6059SOL     OW19075   5.163   5.071   5.910
 6059SOL    HW119076   5.176   5.170   5.909
 6059SOL    HW219077   5.122   5.043   5.997
 6060SOL     OW19078   2.780   3.334   6.604
 6060SOL    HW119079   2.804   3.320   6.508
 6060SOL    HW219080   2.831   3.412   6.640
 6061SOL     OW19081   3.986   2.560   0.939
 6061SOL    HW119082   3.890   2.577   0.960
 6061SOL    HW219083   4.029   2.512   1.015
 6062SOL     OW19084   2.828   1.440   5.269
 6062SOL    HW119085   2.749   1.388   5.301
 6062SOL    HW219086   2.881   1.472   5.348
 6063SOL     OW19087   4.372   2.671   6.348
 6063SOL    HW119088   4.468   2.670   6.373
 6063SOL    HW219089   4.347   2.763   6.317
 6064SOL     OW19090   1.017   6.347   1.356
 6064SOL    HW119091   1.115   6.330   1.371
 6064SOL    HW219092   0.973   6.261   1.329
 6065SOL     OW19093   0.748   6.791   2.377
 6065SOL    HW119094   0.765   6.720   2.446
 6065SOL    HW219095   0.652   6.787   2.350
 6066SOL     OW19096   4.553   1.364   5.888
 6066SOL    HW119097   4.555   1.382   5.986
 6066SOL    HW219098   4.646   1.351   5.855
 6067SOL     OW19099   5.728   0.889   5.451
 6067SOL    HW119100   5.778   0.804   5.432
 6067SOL    HW219101   5.700   0.889   5.547
 6068SOL     OW19102   5.113   2.968   4.926
 6068SOL    HW119103   5.122   3.052   4.981
 6068SOL    HW219104   5.024   2.926   4.945
 6069SOL     OW19105   5.916   2.964   4.712
 6069SOL    HW119106   5.847   2.929   4.776
 6069SOL    HW219107   5.904   2.922   4.622
 6070SOL     OW19108   2.827   2.079   0.866
 6070SOL    HW119109   2.898   2.026   0.819
 6070SOL    HW219110   2.844   2.177   0.852
 6071SOL     OW19111   5.689   5.801   4.706
 6071SOL    HW119112   5.754   5.814   4.781
 6071SOL    HW219113   5.732   5.832   4.620
 6072SOL     OW19114   6.533   6.708   1.277
 6072SOL    HW119115   6.621   6.732   1.236
 6072SOL    HW219116   6.548   6.666   1.366
 6073SOL     OW19117   5.718   3.279   0.791
 6073SOL    HW119118   5.685   3.187   0.772
 6073SOL    HW219119   5.640   3.340   0.804
 6074SOL     OW19120   1.068   6.438   2.538
 6074SOL    HW119121   1.062   6.517   2.477
 6074SOL    HW219122   1.132   6.457   2.612
 6075SOL     OW19123   5.290   0.683   5.744
 6075SOL    HW119124   5.293   0.753   5.673
 6075SOL    HW219125   5.304   0.725   5.833
 6076SOL     OW19126   3.553   5.759   4.135
 6076SOL    HW119127   3.545   5.758   4.235
 6076SOL    HW219128   3.509   5.842   4.099
 6077SOL     OW19129   6.278   5.470   0.638
 6077SOL    HW119130   6.229   5.409   0.576
 6077SOL    HW219131   6.224   5.553   0.652
 6078SOL     OW19132   4.858   5.274   0.336
 6078SOL    HW119133   4.803   5.195   0.361
 6078SOL    HW219134   4.841   5.298   0.240
 6079SOL     OW19135   4.536   3.979   5.979
 6079SOL    HW119136   4.615   3.993   5.919
 6079SOL    HW219137   4.452   4.005   5.931
 6080SOL     OW19138   0.146   6.601   1.210
 6080SOL    HW119139   0.087   6.654   1.149
 6080SOL    HW219140   0.210   6.662   1.256
 6081SOL     OW19141   6.687   2.614   5.326
 6081SOL    HW119142   6.612   2.561   5.286
 6081SOL    HW219143   6.746   2.648   5.252
 6082SOL     OW19144   1.811   1.435   3.499
 6082SOL    HW119145   1.817   1.350   3.446
 6082SOL    HW219146   1.898   1.453   3.544
 6083SOL     OW19147   6.402   5.794   0.056
 6083SOL    HW119148   6.436   5.772   0.147
 6083SOL    HW219149   6.353   5.716   0.018
 6084SOL     OW19150   0.588   0.004   3.253
 6084SOL    HW119151   0.513   6.961   3.256
 6084SOL    HW219152   0.660   6.998   3.317
 6085SOL     OW19153   0.187   6.268   0.450
 6085SOL    HW119154   0.142   6.239   0.366
 6085SOL    HW219155   0.228   6.358   0.436
 6086SOL     OW19156   3.364   0.988   5.940
 6086SOL    HW119157   3.292   0.936   5.987
 6086SOL    HW219158   3.399   1.060   6.000
 6087SOL     OW19159   3.673   5.796   1.449
 6087SOL    HW119160   3.681   5.710   1.499
 6087SOL    HW219161   3.624   5.780   1.363
 6088SOL     OW19162   5.612   6.171   4.491
 6088SOL    HW119163   5.560   6.137   4.569
 6088SOL    HW219164   5.554   6.171   4.410
 6089SOL     OW19165   5.225   3.097   2.143
 6089SOL    HW119166   5.229   2.999   2.124
 6089SOL    HW219167   5.283   3.146   2.078
 6090SOL     OW19168   2.269   6.007   5.015
 6090SOL    HW119169   2.286   6.093   4.968
 6090SOL    HW219170   2.304   6.012   5.109
 6091SOL     OW19171   1.937   1.236   0.141
 6091SOL    HW119172   1.915   1.229   0.044
 6091SOL    HW219173   1.910   1.327   0.175
 6092SOL     OW19174   4.238   6.991   2.245
 6092SOL    HW119175   4.179   0.011   2.176
 6092SOL    HW219176   4.193   6.909   2.281
 6093SOL     OW19177   1.997   3.424   1.909
 6093SOL    HW119178   2.010   3.332   1.870
 6093SOL    HW219179   2.087   3.467   1.921
 6094SOL     OW19180   1.989   6.527   1.914
 6094SOL    HW119181   1.985   6.454   1.846
 6094SOL    HW219182   2.033   6.492   1.997
 6095SOL     OW19183   5.312   4.200   1.173
 6095SOL    HW119184   5.330   4.295   1.198
 6095SOL    HW219185   5.391   4.143   1.198
 6096SOL     OW19186   5.672   6.716   4.053
 6096SOL    HW119187   5.711   6.808   4.049
 6096SOL    HW219188   5.703   6.670   4.137
 6097SOL     OW19189   2.190   5.909   2.130
 6097SOL    HW119190   2.154   6.001   2.112
 6097SOL    HW219191   2.132   5.863   2.197
 6098SOL     OW19192   0.977   1.048   4.946
 6098SOL    HW119193   0.977   1.112   4.869
 6098SOL    HW219194   1.011   0.959   4.915
 6099SOL     OW19195   5.497   6.192   0.413
 6099SOL    HW119196   5.445   6.120   0.459
 6099SOL    HW219197   5.448   6.221   0.331
 6100SOL     OW19198   5.586   6.171   0.773
 6100SOL    HW119199   5.498   6.128   0.790
 6100SOL    HW219200   5.594   6.254   0.829
 6101SOL     OW19201   6.613   3.646   3.865
 6101SOL    HW119202   6.533   3.594   3.894
 6101SOL    HW219203   6.694   3.613   3.914
 6102SOL     OW19204   3.287   6.292   3.254
 6102SOL    HW119205   3.323   6.216   3.307
 6102SOL    HW219206   3.237   6.257   3.175
 6103SOL     OW19207   6.477   2.059   0.951
 6103SOL    HW119208   6.427   2.035   1.034
 6103SOL    HW219209   6.522   2.148   0.963
 6104SOL     OW19210   5.663   0.890   5.735
 6104SOL    HW119211   5.614   0.975   5.759
 6104SOL    HW219212   5.720   0.862   5.812
 6105SOL     OW19213   3.280   6.454   0.014
 6105SOL    HW119214   3.183   6.478   0.014
 6105SOL    HW219215   3.291   6.358   7.013
 6106SOL     OW19216   1.357   3.778   6.541
 6106SOL    HW119217   1.350   3.774   6.641
 6106SOL    HW219218   1.450   3.753   6.514
 6107SOL     OW19219   4.191   5.617   4.657
 6107SOL    HW119220   4.227   5.684   4.592
 6107SOL    HW219221   4.162   5.535   4.608
 6108SOL     OW19222   2.003   3.190   1.759
 6108SOL    HW119223   2.004   3.091   1.772
 6108SOL    HW219224   2.085   3.217   1.708
 6109SOL     OW19225   5.939   1.885   4.897
 6109SOL    HW119226   5.949   1.849   4.990
 6109SOL    HW219227   5.889   1.819   4.841
 6110SOL     OW19228   3.811   4.018   0.764
 6110SOL    HW119229   3.758   3.935   0.744
 6110SOL    HW219230   3.905   3.994   0.784
 6111SOL     OW19231   1.843   4.041   2.684
 6111SOL    HW119232   1.757   4.004   2.647
 6111SOL    HW219233   1.898   3.966   2.721
 6112SOL     OW19234   3.541   0.048   2.478
 6112SOL    HW119235   3.629   0.090   2.497
 6112SOL    HW219236   3.474   0.079   2.545
 6113SOL     OW19237   3.036   1.613   6.641
 6113SOL    HW119238   3.124   1.613   6.592
 6113SOL    HW219239   3.000   1.706   6.642
 6114SOL     OW19240   5.218   4.915   1.587
 6114SOL    HW119241   5.168   4.980   1.644
 6114SOL    HW219242   5.281   4.965   1.527
 6115SOL     OW19243   5.529   7.022   4.130
 6115SOL    HW119244   5.606   0.009   4.193
 6115SOL    HW219245   5.560   0.014   4.036
 6116SOL     OW19246   4.167   1.319   6.012
 6116SOL    HW119247   4.203   1.237   5.968
 6116SOL    HW219248   4.160   1.393   5.945
 6117SOL     OW19249   1.378   1.206   3.358
 6117SOL    HW119250   1.457   1.214   3.297
 6117SOL    HW219251   1.410   1.204   3.453
 6118SOL     OW19252   0.127   0.978   1.848
 6118SOL    HW119253   0.077   1.052   1.892
 6118SOL    HW219254   0.074   0.894   1.852
 6119SOL     OW19255   0.498   4.203   6.625
 6119SOL    HW119256   0.519   4.233   6.532
 6119SOL    HW219257   0.554   4.255   6.690
 6120SOL     OW19258   3.871   6.458   5.327
 6120SOL    HW119259   3.895   6.366   5.295
 6120SOL    HW219260   3.823   6.451   5.414
 6121SOL     OW19261   0.671   3.329   5.437
 6121SOL    HW119262   0.684   3.421   5.477
 6121SOL    HW219263   0.577   3.319   5.406
 6122SOL     OW19264   4.459   5.450   0.374
 6122SOL    HW119265   4.444   5.376   0.309
 6122SOL    HW219266   4.512   5.417   0.452
 6123SOL     OW19267   5.308   6.646   6.544
 6123SOL    HW119268   5.232   6.611   6.600
 6123SOL    HW219269   5.320   6.587   6.464
 6124SOL     OW19270   1.515   6.818   5.759
 6124SOL    HW119271   1.542   6.863   5.674
 6124SOL    HW219272   1.499   6.887   5.830
 6125SOL     OW19273   2.174   4.435   0.957
 6125SOL    HW119274   2.147   4.455   0.863
 6125SOL    HW219275   2.225   4.349   0.959
 6126SOL     OW19276   0.927   6.702   4.411
 6126SOL    HW119277   0.944   6.680   4.507
 6126SOL    HW219278   0.942   6.800   4.397
 6127SOL     OW19279   3.293   0.572   1.007
 6127SOL    HW119280   3.392   0.567   1.016
 6127SOL    HW219281   3.267   0.666   0.985
 6128SOL     OW19282   5.811   4.079   0.349
 6128SOL    HW119283   5.728   4.027   0.366
 6128SOL    HW219284   5.883   4.017   0.317
 6129SOL     OW19285   6.772   3.158   3.144
 6129SOL    HW119286   6.846   3.108   3.100
 6129SOL    HW219287   6.786   3.257   3.133
 6130SOL     OW19288   5.910   2.421   2.624
 6130SOL    HW119289   5.958   2.335   2.643
 6130SOL    HW219290   5.900   2.432   2.525
 6131SOL     OW19291   0.225   1.569   5.038
 6131SOL    HW119292   0.221   1.511   5.119
 6131SOL    HW219293   0.259   1.516   4.961
 6132SOL     OW19294   5.067   2.141   0.256
 6132SOL    HW119295   4.993   2.189   0.208
 6132SOL    HW219296   5.146   2.202   0.264
 6133SOL     OW19297   1.855   3.351   2.333
 6133SOL    HW119298   1.769   3.301   2.326
 6133SOL    HW219299   1.921   3.313   2.269
 6134SOL     OW19300   3.825   4.794   6.719
 6134SOL    HW119301   3.761   4.848   6.774
 6134SOL    HW219302   3.798   4.799   6.622
 6135SOL     OW19303   0.370   0.759   0.707
 6135SOL    HW119304   0.348   0.692   0.778
 6135SOL    HW219305   0.351   0.851   0.741
 6136SOL     OW19306   1.268   3.053   1.984
 6136SOL    HW119307   1.333   3.068   1.909
 6136SOL    HW219308   1.312   3.000   2.057
 6137SOL     OW19309   6.674   3.479   2.875
 6137SOL    HW119310   6.699   3.440   2.786
 6137SOL    HW219311   6.658   3.577   2.865
 6138SOL     OW19312   3.709   6.470   2.599
 6138SOL    HW119313   3.738   6.375   2.586
 6138SOL    HW219314   3.751   6.506   2.683
 6139SOL     OW19315   1.814   6.594   6.093
 6139SOL    HW119316   1.912   6.610   6.082
 6139SOL    HW219317   1.799   6.539   6.176
 6140SOL     OW19318   0.983   6.365   1.629
 6140SOL    HW119319   0.959   6.285   1.683
 6140SOL    HW219320   0.956   6.350   1.533
 6141SOL     OW19321   0.043   6.797   6.995
 6141SOL    HW119322   0.040   6.702   0.004
 6141SOL    HW219323   7.006   6.852   0.032
 6142SOL     OW19324   0.927   6.940   0.211
 6142SOL    HW119325   0.925   6.905   0.117
 6142SOL    HW219326   1.007   6.901   0.259
 6143SOL     OW19327   0.030   3.598   1.404
 6143SOL    HW119328   7.001   3.555   1.479
 6143SOL    HW219329   6.990   3.619   1.329
 6144SOL     OW19330   5.208   4.696   3.358
 6144SOL    HW119331   5.254   4.750   3.287
 6144SOL    HW219332   5.263   4.696   3.441
 6145SOL     OW19333   5.010   5.231   3.220
 6145SOL    HW119334   5.017   5.135   3.193
 6145SOL    HW219335   5.093   5.258   3.268
 6146SOL     OW19336   3.269   5.852   4.058
 6146SOL    HW119337   3.328   5.838   3.978
 6146SOL    HW219338   3.193   5.788   4.056
 6147SOL     OW19339   2.170   1.726   4.242
 6147SOL    HW119340   2.191   1.705   4.337
 6147SOL    HW219341   2.242   1.689   4.183
 6148SOL     OW19342   5.189   6.717   5.173
 6148SOL    HW119343   5.248   6.726   5.253
 6148SOL    HW219344   5.093   6.721   5.202
 6149SOL     OW19345   2.502   6.022   1.030
 6149SOL    HW119346   2.416   6.072   1.029
 6149SOL    HW219347   2.484   5.924   1.037
 6150SOL     OW19348   4.917   5.225   6.661
 6150SOL    HW119349   4.882   5.170   6.736
 6150SOL    HW219350   4.997   5.180   6.621
 6151SOL     OW19351   6.091   4.749   6.581
 6151SOL    HW119352   6.117   4.845   6.587
 6151SOL    HW219353   6.165   4.696   6.540
 6152SOL     OW19354   6.267   5.068   4.453
 6152SOL    HW119355   6.168   5.068   4.462
 6152SOL    HW219356   6.295   5.145   4.396
 6153SOL     OW19357   5.173   4.318   1.410
 6153SOL    HW119358   5.159   4.402   1.357
 6153SOL    HW219359   5.178   4.240   1.348
 6154SOL     OW19360   5.671   2.188   2.866
 6154SOL    HW119361   5.581   2.198   2.908
 6154SOL    HW219362   5.733   2.145   2.932
 6155SOL     OW19363   1.637   1.595   3.595
 6155SOL    HW119364   1.643   1.683   3.548
 6155SOL    HW219365   1.711   1.535   3.564
 6156SOL     OW19366   4.304   4.253   1.473
 6156SOL    HW119367   4.268   4.296   1.389
 6156SOL    HW219368   4.312   4.323   1.545
 6157SOL     OW19369   0.016   1.369   4.508
 6157SOL    HW119370   0.103   1.366   4.557
 6157SOL    HW219371   6.966   1.331   4.566
 6158SOL     OW19372   3.887   2.243   6.131
 6158SOL    HW119373   3.939   2.247   6.046
 6158SOL    HW219374   3.789   2.236   6.110
 6159SOL     OW19375   5.170   2.472   2.209
 6159SOL    HW119376   5.252   2.471   2.266
 6159SOL    HW219377   5.096   2.424   2.256
 6160SOL     OW19378   5.394   1.301   6.500
 6160SOL    HW119379   5.381   1.205   6.525
 6160SOL    HW219380   5.473   1.308   6.438
 6161SOL     OW19381   4.703   1.898   5.380
 6161SOL    HW119382   4.660   1.941   5.301
 6161SOL    HW219383   4.742   1.969   5.439
 6162SOL     OW19384   0.910   5.995   3.201
 6162SOL    HW119385   0.943   6.045   3.282
 6162SOL    HW219386   0.873   6.060   3.135
 6163SOL     OW19387   6.456   6.639   1.012
 6163SOL    HW119388   6.498   6.697   1.081
 6163SOL    HW219389   6.371   6.681   0.981
 6164SOL     OW19390   3.881   3.914   2.863
 6164SOL    HW119391   3.840   3.968   2.790
 6164SOL    HW219392   3.935   3.840   2.823
 6165SOL     OW19393   5.054   1.987   6.894
 6165SOL    HW119394   5.106   1.975   6.978
 6165SOL    HW219395   5.096   1.935   6.820
 6166SOL     OW19396   5.818   1.401   6.553
 6166SOL    HW119397   5.730   1.442   6.579
 6166SOL    HW219398   5.812   1.302   6.562
 6167SOL     OW19399   0.984   5.552   3.096
 6167SOL    HW119400   1.034   5.514   3.173
 6167SOL    HW219401   1.013   5.508   3.012
 6168SOL     OW19402   1.884   3.785   2.131
 6168SOL    HW119403   1.919   3.873   2.163
 6168SOL    HW219404   1.857   3.793   2.035
 6169SOL     OW19405   0.928   2.080   0.312
 6169SOL    HW119406   0.970   2.140   0.381
 6169SOL    HW219407   0.984   1.998   0.300
 6170SOL     OW19408   1.326   4.162   5.336
 6170SOL    HW119409   1.415   4.120   5.353
 6170SOL    HW219410   1.271   4.158   5.420
 6171SOL     OW19411   0.926   3.463   1.274
 6171SOL    HW119412   0.952   3.366   1.279
 6171SOL    HW219413   1.007   3.518   1.255
 6172SOL     OW19414   1.200   2.839   2.611
 6172SOL    HW119415   1.166   2.851   2.517
 6172SOL    HW219416   1.273   2.905   2.629
 6173SOL     OW19417   6.425   5.617   1.795
 6173SOL    HW119418   6.473   5.607   1.707
 6173SOL    HW219419   6.412   5.526   1.836
 6174SOL     OW19420   5.712   4.804   3.584
 6174SOL    HW119421   5.659   4.728   3.545
 6174SOL    HW219422   5.784   4.831   3.520
 6175SOL     OW19423   4.764   0.489   3.494
 6175SOL    HW119424   4.696   0.559   3.519
 6175SOL    HW219425   4.732   0.439   3.414
 6176SOL     OW19426   4.897   3.731   6.178
 6176SOL    HW119427   4.885   3.790   6.258
 6176SOL    HW219428   4.818   3.740   6.118
 6177SOL     OW19429   5.647   0.836   1.267
 6177SOL    HW119430   5.625   0.841   1.365
 6177SOL    HW219431   5.609   0.752   1.229
 6178SOL     OW19432   4.767   5.314   2.776
 6178SOL    HW119433   4.689   5.340   2.719
 6178SOL    HW219434   4.823   5.246   2.728
 6179SOL     OW19435   6.997   4.397   3.552
 6179SOL    HW119436   6.917   4.457   3.558
 6179SOL    HW219437   0.047   4.442   3.500
 6180SOL     OW19438   3.613   4.401   0.132
 6180SOL    HW119439   3.676   4.391   0.054
 6180SOL    HW219440   3.657   4.367   0.215
 6181SOL     OW19441   3.962   6.986   0.865
 6181SOL    HW119442   4.055   7.020   0.859
 6181SOL    HW219443   3.959   6.889   0.840
 6182SOL     OW19444   5.453   3.040   5.053
 6182SOL    HW119445   5.413   3.010   5.140
 6182SOL    HW219446   5.544   3.001   5.043
 6183SOL     OW19447   1.389   2.308   2.822
 6183SOL    HW119448   1.341   2.391   2.794
 6183SOL    HW219449   1.465   2.290   2.760
 6184SOL     OW19450   1.974   7.009   6.461
 6184SOL    HW119451   2.052   6.959   6.499
 6184SOL    HW219452   1.914   6.946   6.412
 6185SOL     OW19453   0.604   3.697   6.028
 6185SOL    HW119454   0.633   3.772   6.087
 6185SOL    HW219455   0.571   3.733   5.941
 6186SOL     OW19456   6.944   0.173   0.140
 6186SOL    HW119457   7.020   0.134   0.193
 6186SOL    HW219458   6.857   0.144   0.181
 6187SOL     OW19459   4.834   5.002   3.406
 6187SOL    HW119460   4.878   5.006   3.316
 6187SOL    HW219461   4.825   4.907   3.434
 6188SOL     OW19462   2.277   0.763   0.796
 6188SOL    HW119463   2.344   0.737   0.726
 6188SOL    HW219464   2.268   0.689   0.862
 6189SOL     OW19465   4.576   4.387   3.305
 6189SOL    HW119466   4.601   4.350   3.215
 6189SOL    HW219467   4.499   4.449   3.294
 6190SOL     OW19468   0.769   4.020   5.638
 6190SOL    HW119469   0.839   4.088   5.655
 6190SOL    HW219470   0.812   3.934   5.608
 6191SOL     OW19471   3.094   2.201   0.116
 6191SOL    HW119472   3.033   2.279   0.103
 6191SOL    HW219473   3.091   2.142   0.036
 6192SOL     OW19474   3.331   2.345   6.016
 6192SOL    HW119475   3.319   2.370   6.112
 6192SOL    HW219476   3.258   2.282   5.989
 6193SOL     OW19477   5.127   0.650   2.150
 6193SOL    HW119478   5.129   0.568   2.093
 6193SOL    HW219479   5.189   0.638   2.227
 6194SOL     OW19480   1.348   6.948   1.780
 6194SOL    HW119481   1.433   7.001   1.773
 6194SOL    HW219482   1.360   6.877   1.849
 6195SOL     OW19483   3.872   6.347   6.252
 6195SOL    HW119484   3.831   6.390   6.172
 6195SOL    HW219485   3.845   6.397   6.334
 6196SOL     OW19486   5.380   2.993   1.411
 6196SOL    HW119487   5.374   2.990   1.510
 6196SOL    HW219488   5.302   2.946   1.370
 6197SOL     OW19489   4.198   4.640   0.266
 6197SOL    HW119490   4.243   4.565   0.217
 6197SOL    HW219491   4.099   4.628   0.261
 6198SOL     OW19492   4.307   6.196   2.538
 6198SOL    HW119493   4.377   6.223   2.471
 6198SOL    HW219494   4.295   6.269   2.605
 6199SOL     OW19495   1.188   1.203   0.594
 6199SOL    HW119496   1.096   1.236   0.571
 6199SOL    HW219497   1.234   1.269   0.653
 6200SOL     OW19498   1.401   1.557   5.898
 6200SOL    HW119499   1.471   1.508   5.950
 6200SOL    HW219500   1.418   1.655   5.903
 6201SOL     OW19501   0.549   3.440   5.090
 6201SOL    HW119502   0.630   3.433   5.148
 6201SOL    HW219503   0.576   3.433   4.994
 6202SOL     OW19504   3.627   1.626   2.341
 6202SOL    HW119505   3.586   1.681   2.414
 6202SOL    HW219506   3.569   1.547   2.322
 6203SOL     OW19507   6.860   6.418   2.534
 6203SOL    HW119508   6.880   6.327   2.571
 6203SOL    HW219509   6.891   6.488   2.598
 6204SOL     OW19510   0.600   5.129   4.573
 6204SOL    HW119511   0.634   5.140   4.667
 6204SOL    HW219512   0.515   5.181   4.562
 6205SOL     OW19513   6.520   5.701   0.285
 6205SOL    HW119514   6.616   5.675   0.273
 6205SOL    HW219515   6.480   5.649   0.359
 6206SOL     OW19516   6.452   1.689   3.659
 6206SOL    HW119517   6.365   1.639   3.656
 6206SOL    HW219518   6.463   1.740   3.573
 6207SOL     OW19519   0.952   5.069   4.826
 6207SOL    HW119520   0.875   5.094   4.767
 6207SOL    HW219521   1.033   5.122   4.801
 6208SOL     OW19522   5.316   2.302   5.889
 6208SOL    HW119523   5.304   2.217   5.939
 6208SOL    HW219524   5.334   2.283   5.792
 6209SOL     OW19525   4.069   5.708   6.693
 6209SOL    HW119526   4.164   5.714   6.725
 6209SOL    HW219527   4.056   5.770   6.615
 6210SOL     OW19528   5.204   3.042   3.474
 6210SOL    HW119529   5.243   3.049   3.382
 6210SOL    HW219530   5.255   3.101   3.537
 6211SOL     OW19531   2.730   6.559   5.475
 6211SOL    HW119532   2.720   6.614   5.393
 6211SOL    HW219533   2.764   6.616   5.550
 6212SOL     OW19534   2.123   5.369   4.473
 6212SOL    HW119535   2.076   5.454   4.497
 6212SOL    HW219536   2.099   5.297   4.538
 6213SOL     OW19537   6.250   0.416   0.468
 6213SOL    HW119538   6.160   0.397   0.507
 6213SOL    HW219539   6.311   0.451   0.539
 6214SOL     OW19540   4.905   5.011   4.374
 6214SOL    HW119541   4.935   4.931   4.426
 6214SOL    HW219542   4.917   5.093   4.430
 6215SOL     OW19543   4.084   1.683   0.402
 6215SOL    HW119544   4.176   1.686   0.440
 6215SOL    HW219545   4.026   1.627   0.461
 6216SOL     OW19546   6.449   1.683   2.228
 6216SOL    HW119547   6.498   1.669   2.314
 6216SOL    HW219548   6.368   1.624   2.225
 6217SOL     OW19549   0.293   3.722   3.093
 6217SOL    HW119550   0.284   3.649   3.160
 6217SOL    HW219551   0.208   3.730   3.040
 6218SOL     OW19552   3.750   6.108   0.031
 6218SOL    HW119553   3.771   6.203   0.006
 6218SOL    HW219554   3.829   6.068   0.078
 6219SOL     OW19555   1.705   2.212   4.562
 6219SOL    HW119556   1.692   2.116   4.585
 6219SOL    HW219557   1.635   2.240   4.496
 6220SOL     OW19558   1.841   1.536   4.694
 6220SOL    HW119559   1.922   1.542   4.751
 6220SOL    HW219560   1.779   1.611   4.715
 6221SOL     OW19561   5.627   5.827   6.697
 6221SOL    HW119562   5.589   5.760   6.760
 6221SOL    HW219563   5.562   5.902   6.685
 6222SOL     OW19564   1.228   6.107   1.428
 6222SOL    HW119565   1.325   6.129   1.445
 6222SOL    HW219566   1.222   6.028   1.367
 6223SOL     OW19567   1.358   5.171   4.011
 6223SOL    HW119568   1.304   5.154   4.094
 6223SOL    HW219569   1.443   5.119   4.015
 6224SOL     OW19570   3.012   1.711   6.057
 6224SOL    HW119571   3.008   1.614   6.034
 6224SOL    HW219572   3.095   1.729   6.111
 6225SOL     OW19573   3.965   3.722   6.917
 6225SOL    HW119574   3.992   3.725   6.821
 6225SOL    HW219575   3.873   3.758   6.928
 6226SOL     OW19576   0.102   1.680   5.421
 6226SOL    HW119577   0.113   1.771   5.460
 6226SOL    HW219578   0.067   1.687   5.328
 6227SOL     OW19579   3.189   6.087   5.235
 6227SOL    HW119580   3.090   6.099   5.236
 6227SOL    HW219581   3.213   6.023   5.162
 6228SOL     OW19582   1.247   3.080   2.270
 6228SOL    HW119583   1.220   3.169   2.307
 6228SOL    HW219584   1.166   3.026   2.252
 6229SOL     OW19585   0.663   2.196   3.678
 6229SOL    HW119586   0.656   2.102   3.711
 6229SOL    HW219587   0.574   2.241   3.686
 6230SOL     OW19588   0.646   1.538   3.505
 6230SOL    HW119589   0.594   1.620   3.531
 6230SOL    HW219590   0.584   1.469   3.468
 6231SOL     OW19591   6.185   6.081   0.301
 6231SOL    HW119592   6.134   6.088   0.387
 6231SOL    HW219593   6.138   6.018   0.239
 6232SOL     OW19594   6.836   0.917   0.549
 6232SOL    HW119595   6.897   0.842   0.572
 6232SOL    HW219596   6.887   1.003   0.547
 6233SOL     OW19597   0.040   1.625   1.066
 6233SOL    HW119598   6.979   1.674   1.041
 6233SOL    HW219599   0.019   1.528   1.079
 6234SOL     OW19600   6.750   1.058   5.690
 6234SOL    HW119601   6.697   1.126   5.640
 6234SOL    HW219602   6.847   1.084   5.691
 6235SOL     OW19603   0.418   6.714   1.048
 6235SOL    HW119604   0.502   6.767   1.034
 6235SOL    HW219605   0.342   6.759   1.002
 6236SOL     OW19606   0.958   3.938   0.861
 6236SOL    HW119607   0.869   3.976   0.886
 6236SOL    HW219608   1.023   3.951   0.936
 6237SOL     OW19609   3.607   0.425   6.477
 6237SOL    HW119610   3.623   0.413   6.575
 6237SOL    HW219611   3.665   0.499   6.442
 6238SOL     OW19612   3.732   4.883   2.887
 6238SOL    HW119613   3.668   4.917   2.818
 6238SOL    HW219614   3.701   4.909   2.978
 6239SOL     OW19615   3.011   0.666   1.673
 6239SOL    HW119616   3.083   0.630   1.614
 6239SOL    HW219617   2.924   0.662   1.624
 6240SOL     OW19618   1.993   3.203   5.265
 6240SOL    HW119619   1.956   3.190   5.173
 6240SOL    HW219620   2.035   3.293   5.272
 6241SOL     OW19621   3.152   0.119   1.295
 6241SOL    HW119622   3.154   0.024   1.326
 6241SOL    HW219623   3.238   0.164   1.322
 6242SOL     OW19624   4.537   0.444   3.942
 6242SOL    HW119625   4.513   0.541   3.938
 6242SOL    HW219626   4.453   0.389   3.938
 6243SOL     OW19627   6.116   6.700   4.539
 6243SOL    HW119628   6.107   6.731   4.444
 6243SOL    HW219629   6.177   6.621   4.542
 6244SOL     OW19630   6.457   2.632   2.256
 6244SOL    HW119631   6.434   2.540   2.225
 6244SOL    HW219632   6.516   2.627   2.336
 6245SOL     OW19633   1.812   4.083   0.241
 6245SOL    HW119634   1.715   4.075   0.216
 6245SOL    HW219635   1.850   3.992   0.258
 6246SOL     OW19636   1.437   2.145   5.709
 6246SOL    HW119637   1.535   2.124   5.702
 6246SOL    HW219638   1.417   2.228   5.657
 6247SOL     OW19639   0.063   5.117   4.217
 6247SOL    HW119640   7.005   5.177   4.216
 6247SOL    HW219641   0.035   5.023   4.198
 6248SOL     OW19642   3.221   3.385   0.432
 6248SOL    HW119643   3.129   3.345   0.436
 6248SOL    HW219644   3.265   3.378   0.521
 6249SOL     OW19645   6.969   3.890   0.464
 6249SOL    HW119646   0.010   3.947   0.516
 6249SOL    HW219647   7.004   3.877   0.371
 6250SOL     OW19648   6.756   0.457   0.150
 6250SOL    HW119649   6.837   0.490   0.199
 6250SOL    HW219650   6.736   0.363   0.179
 6251SOL     OW19651   3.926   6.010   6.584
 6251SOL    HW119652   3.856   6.074   6.552
 6251SOL    HW219653   3.883   5.936   6.636
 6252SOL     OW19654   2.327   6.032   5.438
 6252SOL    HW119655   2.287   5.983   5.515
 6252SOL    HW219656   2.401   5.978   5.398
 6253SOL     OW19657   2.270   4.692   4.018
 6253SOL    HW119658   2.363   4.723   4.040
 6253SOL    HW219659   2.248   4.716   3.923
 6254SOL     OW19660   5.948   1.312   1.103
 6254SOL    HW119661   5.939   1.213   1.112
 6254SOL    HW219662   5.953   1.354   1.193
 6255SOL     OW19663   3.271   0.603   0.610
 6255SOL    HW119664   3.198   0.560   0.664
 6255SOL    HW219665   3.303   0.685   0.657
 6256SOL     OW19666   3.837   5.470   1.801
 6256SOL    HW119667   3.868   5.554   1.756
 6256SOL    HW219668   3.909   5.400   1.795
 6257SOL     OW19669   5.204   2.103   0.657
 6257SOL    HW119670   5.186   2.202   0.654
 6257SOL    HW219671   5.130   2.055   0.610
 6258SOL     OW19672   3.598   0.840   3.409
 6258SOL    HW119673   3.511   0.865   3.451
 6258SOL    HW219674   3.593   0.747   3.374
 6259SOL     OW19675   1.778   2.633   6.833
 6259SOL    HW119676   1.721   2.609   6.754
 6259SOL    HW219677   1.874   2.628   6.808
 6260SOL     OW19678   3.420   5.771   0.126
 6260SOL    HW119679   3.420   5.682   0.081
 6260SOL    HW219680   3.363   5.767   0.208
 6261SOL     OW19681   3.994   1.403   0.006
 6261SOL    HW119682   4.089   1.372   0.006
 6261SOL    HW219683   3.963   1.418   6.935
 6262SOL     OW19684   2.513   6.535   1.668
 6262SOL    HW119685   2.460   6.575   1.742
 6262SOL    HW219686   2.487   6.577   1.581
 6263SOL     OW19687   0.196   0.742   5.288
 6263SOL    HW119688   0.141   0.659   5.288
 6263SOL    HW219689   0.142   0.818   5.324
 6264SOL     OW19690   1.579   0.074   1.815
 6264SOL    HW119691   1.573   0.136   1.737
 6264SOL    HW219692   1.621   0.122   1.892
 6265SOL     OW19693   4.167   3.294   0.329
 6265SOL    HW119694   4.140   3.237   0.406
 6265SOL    HW219695   4.095   3.294   0.260
 6266SOL     OW19696   4.064   1.058   3.969
 6266SOL    HW119697   4.032   1.018   4.056
 6266SOL    HW219698   4.035   1.153   3.964
 6267SOL     OW19699   2.656   6.986   5.786
 6267SOL    HW119700   2.649   7.016   5.691
 6267SOL    HW219701   2.566   6.989   5.829
 6268SOL     OW19702   2.697   0.251   3.207
 6268SOL    HW119703   2.730   0.334   3.162
 6268SOL    HW219704   2.764   0.223   3.276
 6269SOL     OW19705   0.461   6.780   1.666
 6269SOL    HW119706   0.424   6.723   1.593
 6269SOL    HW219707   0.427   6.747   1.754
 6270SOL     OW19708   1.578   0.436   6.165
 6270SOL    HW119709   1.575   0.460   6.262
 6270SOL    HW219710   1.488   0.449   6.125
 6271SOL     OW19711   6.103   2.120   6.465
 6271SOL    HW119712   6.103   2.100   6.366
 6271SOL    HW219713   6.029   2.182   6.487
 6272SOL     OW19714   0.632   2.679   0.060
 6272SOL    HW119715   0.546   2.641   0.093
 6272SOL    HW219716   0.633   2.778   0.076
 6273SOL     OW19717   0.839   6.258   2.552
 6273SOL    HW119718   0.844   6.186   2.482
 6273SOL    HW219719   0.927   6.306   2.557
 6274SOL     OW19720   3.354   5.977   5.954
 6274SOL    HW119721   3.350   6.010   6.048
 6274SOL    HW219722   3.324   5.882   5.950
 6275SOL     OW19723   2.457   6.510   6.466
 6275SOL    HW119724   2.374   6.543   6.421
 6275SOL    HW219725   2.438   6.423   6.511
 6276SOL     OW19726   1.848   4.087   3.893
 6276SOL    HW119727   1.790   4.117   3.969
 6276SOL    HW219728   1.855   4.162   3.826
 6277SOL     OW19729   4.825   3.507   1.231
 6277SOL    HW119730   4.919   3.540   1.242
 6277SOL    HW219731   4.824   3.408   1.225
 6278SOL     OW19732   5.500   6.718   5.026
 6278SOL    HW119733   5.487   6.619   5.035
 6278SOL    HW219734   5.469   6.764   5.110
 6279SOL     OW19735   3.782   6.368   6.943
 6279SOL    HW119736   3.691   6.373   6.903
 6279SOL    HW219737   3.848   6.339   6.874
 6280SOL     OW19738   0.991   1.809   4.646
 6280SOL    HW119739   0.936   1.886   4.614
 6280SOL    HW219740   1.079   1.842   4.680
 6281SOL     OW19741   0.503   4.912   3.888
 6281SOL    HW119742   0.433   4.841   3.897
 6281SOL    HW219743   0.583   4.888   3.944
 6282SOL     OW19744   0.306   5.762   5.811
 6282SOL    HW119745   0.329   5.851   5.771
 6282SOL    HW219746   0.220   5.729   5.772
 6283SOL     OW19747   0.015   3.279   5.226
 6283SOL    HW119748   0.105   3.236   5.218
 6283SOL    HW219749   0.025   3.378   5.214
 6284SOL     OW19750   0.639   5.537   4.615
 6284SOL    HW119751   0.729   5.492   4.620
 6284SOL    HW219752   0.641   5.621   4.668
 6285SOL     OW19753   6.998   3.811   4.632
 6285SOL    HW119754   0.024   3.852   4.709
 6285SOL    HW219755   6.948   3.882   4.583
 6286SOL     OW19756   6.072   1.803   4.179
 6286SOL    HW119757   6.100   1.718   4.224
 6286SOL    HW219758   6.023   1.860   4.245
 6287SOL     OW19759   3.434   5.258   4.548
 6287SOL    HW119760   3.346   5.300   4.569
 6287SOL    HW219761   3.479   5.309   4.475
 6288SOL     OW19762   4.974   4.571   2.454
 6288SOL    HW119763   4.901   4.579   2.522
 6288SOL    HW219764   5.062   4.561   2.501
 6289SOL     OW19765   1.908   5.067   0.974
 6289SOL    HW119766   1.929   5.099   1.067
 6289SOL    HW219767   1.978   5.003   0.944
 6290SOL     OW19768   6.370   4.906   5.412
 6290SOL    HW119769   6.470   4.912   5.414
 6290SOL    HW219770   6.342   4.811   5.415
 6291SOL     OW19771   3.972   3.178   4.343
 6291SOL    HW119772   4.000   3.125   4.424
 6291SOL    HW219773   3.932   3.116   4.275
 6292SOL     OW19774   1.238   1.898   4.777
 6292SOL    HW119775   1.243   1.910   4.876
 6292SOL    HW219776   1.271   1.981   4.732
 6293SOL     OW19777   4.142   1.093   0.815
 6293SOL    HW119778   4.143   1.177   0.868
 6293SOL    HW219779   4.064   1.037   0.842
 6294SOL     OW19780   3.484   6.873   3.950
 6294SOL    HW119781   3.583   6.854   3.946
 6294SOL    HW219782   3.466   6.941   4.022
 6295SOL     OW19783   5.647   4.727   5.935
 6295SOL    HW119784   5.593   4.741   5.852
 6295SOL    HW219785   5.657   4.629   5.951
 6296SOL     OW19786   0.585   6.459   5.973
 6296SOL    HW119787   0.596   6.500   5.883
 6296SOL    HW219788   0.534   6.521   6.032
 6297SOL     OW19789   5.391   0.874   4.391
 6297SOL    HW119790   5.461   0.937   4.359
 6297SOL    HW219791   5.402   0.860   4.490
 6298SOL     OW19792   1.543   3.247   6.828
 6298SOL    HW119793   1.534   3.183   6.904
 6298SOL    HW219794   1.452   3.268   6.792
 6299SOL     OW19795   6.204   2.222   0.963
 6299SOL    HW119796   6.111   2.199   0.932
 6299SOL    HW219797   6.215   2.193   1.058
 6300SOL     OW19798   6.501   1.056   6.999
 6300SOL    HW119799   6.594   1.076   6.968
 6300SOL    HW219800   6.468   1.131   0.034
 6301SOL     OW19801   3.956   6.776   0.419
 6301SOL    HW119802   3.968   6.869   0.453
 6301SOL    HW219803   4.018   6.714   0.466
 6302SOL     OW19804   1.625   0.495   3.525
 6302SOL    HW119805   1.549   0.430   3.527
 6302SOL    HW219806   1.675   0.490   3.612
 6303SOL     OW19807   1.871   1.081   3.635
 6303SOL    HW119808   1.967   1.092   3.609
 6303SOL    HW219809   1.855   0.987   3.665
 6304SOL     OW19810   2.401   1.107   1.346
 6304SOL    HW119811   2.317   1.068   1.308
 6304SOL    HW219812   2.409   1.203   1.320
 6305SOL     OW19813   6.477   6.934   0.699
 6305SOL    HW119814   6.447   0.003   0.729
 6305SOL    HW219815   6.563   6.911   0.744
 6306SOL     OW19816   0.483   4.246   3.743
 6306SOL    HW119817   0.499   4.168   3.683
 6306SOL    HW219818   0.444   4.322   3.691
 6307SOL     OW19819   3.188   4.112   4.953
 6307SOL    HW119820   3.157   4.167   4.875
 6307SOL    HW219821   3.110   4.093   5.013
 6308SOL     OW19822   2.328   1.993   4.651
 6308SOL    HW119823   2.392   1.988   4.727
 6308SOL    HW219824   2.236   2.010   4.686
 6309SOL     OW19825   5.749   4.753   5.178
 6309SOL    HW119826   5.796   4.748   5.266
 6309SOL    HW219827   5.692   4.672   5.165
 6310SOL     OW19828   2.428   5.932   2.986
 6310SOL    HW119829   2.370   5.852   3.001
 6310SOL    HW219830   2.464   5.930   2.893
 6311SOL     OW19831   4.997   1.479   6.048
 6311SOL    HW119832   4.993   1.443   6.141
 6311SOL    HW219833   4.997   1.579   6.051
 6312SOL     OW19834   6.734   6.238   5.308
 6312SOL    HW119835   6.732   6.338   5.300
 6312SOL    HW219836   6.829   6.207   5.311
 6313SOL     OW19837   6.786   5.814   4.431
 6313SOL    HW119838   6.783   5.799   4.332
 6313SOL    HW219839   6.881   5.827   4.460
 6314SOL     OW19840   3.816   6.761   1.283
 6314SOL    HW119841   3.736   6.716   1.242
 6314SOL    HW219842   3.830   6.725   1.375
 6315SOL     OW19843   2.057   2.452   5.378
 6315SOL    HW119844   2.148   2.410   5.373
 6315SOL    HW219845   2.066   2.549   5.398
 6316SOL     OW19846   5.271   2.151   6.712
 6316SOL    HW119847   5.351   2.175   6.767
 6316SOL    HW219848   5.243   2.058   6.734
 6317SOL     OW19849   4.592   5.071   1.376
 6317SOL    HW119850   4.509   5.026   1.341
 6317SOL    HW219851   4.633   5.125   1.302
 6318SOL     OW19852   3.505   0.341   5.578
 6318SOL    HW119853   3.500   0.262   5.639
 6318SOL    HW219854   3.590   0.391   5.596
 6319SOL     OW19855   6.570   2.103   4.786
 6319SOL    HW119856   6.557   2.028   4.721
 6319SOL    HW219857   6.571   2.066   4.879
 6320SOL     OW19858   6.236   6.531   5.390
 6320SOL    HW119859   6.218   6.579   5.476
 6320SOL    HW219860   6.174   6.453   5.382
 6321SOL     OW19861   4.082   3.888   0.772
 6321SOL    HW119862   4.130   3.974   0.786
 6321SOL    HW219863   4.093   3.858   0.677
 6322SOL     OW19864   2.256   2.374   0.795
 6322SOL    HW119865   2.344   2.417   0.775
 6322SOL    HW219866   2.258   2.335   0.887
 6323SOL     OW19867   2.761   2.534   1.448
 6323SOL    HW119868   2.829   2.530   1.521
 6323SOL    HW219869   2.807   2.530   1.359
 6324SOL     OW19870   5.298   0.494   0.392
 6324SOL    HW119871   5.393   0.466   0.407
 6324SOL    HW219872   5.241   0.462   0.468
 6325SOL     OW19873   1.785   3.098   2.813
 6325SOL    HW119874   1.806   3.001   2.826
 6325SOL    HW219875   1.823   3.129   2.727
 6326SOL     OW19876   4.785   4.923   1.662
 6326SOL    HW119877   4.854   4.902   1.731
 6326SOL    HW219878   4.756   4.839   1.617
 6327SOL     OW19879   0.170   0.745   4.965
 6327SOL    HW119880   0.263   0.726   4.994
 6327SOL    HW219881   0.135   0.826   5.011
 6328SOL     OW19882   3.057   3.782   0.666
 6328SOL    HW119883   3.056   3.828   0.755
 6328SOL    HW219884   2.977   3.811   0.614
 6329SOL     OW19885   1.730   2.621   3.088
 6329SOL    HW119886   1.717   2.565   3.169
 6329SOL    HW219887   1.822   2.660   3.087
 6330SOL     OW19888   5.315   0.497   1.577
 6330SOL    HW119889   5.341   0.414   1.624
 6330SOL    HW219890   5.311   0.573   1.642
 6331SOL     OW19891   6.206   2.465   5.593
 6331SOL    HW119892   6.295   2.500   5.623
 6331SOL    HW219893   6.149   2.540   5.560
 6332SOL     OW19894   0.414   3.381   0.509
 6332SOL    HW119895   0.368   3.301   0.545
 6332SOL    HW219896   0.391   3.461   0.565
 6333SOL     OW19897   4.683   6.018   5.032
 6333SOL    HW119898   4.670   5.975   4.943
 6333SOL    HW219899   4.774   5.997   5.067
 6334SOL     OW19900   2.855   1.037   2.358
 6334SOL    HW119901   2.855   1.018   2.260
 6334SOL    HW219902   2.864   0.951   2.408
 6335SOL     OW19903   4.077   0.317   0.381
 6335SOL    HW119904   4.087   0.286   0.286
 6335SOL    HW219905   3.984   0.353   0.394
 6336SOL     OW19906   0.993   2.700   6.315
 6336SOL    HW119907   1.061   2.720   6.386
 6336SOL    HW219908   0.919   2.647   6.354
 6337SOL     OW19909   5.122   4.929   5.477
 6337SOL    HW119910   5.166   4.988   5.410
 6337SOL    HW219911   5.189   4.902   5.546
 6338SOL     OW19912   3.547   2.076   4.077
 6338SOL    HW119913   3.518   2.096   3.984
 6338SOL    HW219914   3.470   2.038   4.129
 6339SOL     OW19915   0.835   3.655   3.604
 6339SOL    HW119916   0.852   3.754   3.601
 6339SOL    HW219917   0.922   3.607   3.594
 6340SOL     OW19918   2.119   5.057   2.022
 6340SOL    HW119919   2.057   5.131   2.047
 6340SOL    HW219920   2.101   4.977   2.081
 6341SOL     OW19921   0.183   4.035   4.190
 6341SOL    HW119922   0.264   3.989   4.229
 6341SOL    HW219923   0.118   3.966   4.159
 6342SOL     OW19924   1.787   0.780   2.489
 6342SOL    HW119925   1.745   0.753   2.575
 6342SOL    HW219926   1.754   0.870   2.462
 6343SOL     OW19927   5.062   1.696   6.567
 6343SOL    HW119928   4.987   1.659   6.621
 6343SOL    HW219929   5.089   1.629   6.497
 6344SOL     OW19930   5.438   2.128   4.523
 6344SOL    HW119931   5.394   2.218   4.524
 6344SOL    HW219932   5.378   2.062   4.479
 6345SOL     OW19933   6.001   3.040   2.720
 6345SOL    HW119934   6.086   3.027   2.669
 6345SOL    HW219935   5.925   3.052   2.656
 6346SOL     OW19936   6.900   5.300   4.136
 6346SOL    HW119937   6.825   5.267   4.078
 6346SOL    HW219938   6.982   5.312   4.080
 6347SOL     OW19939   1.771   0.511   1.072
 6347SOL    HW119940   1.829   0.457   1.011
 6347SOL    HW219941   1.722   0.450   1.134
 6348SOL     OW19942   1.689   3.184   5.853
 6348SOL    HW119943   1.717   3.089   5.867
 6348SOL    HW219944   1.736   3.243   5.919
 6349SOL     OW19945   2.378   0.630   1.323
 6349SOL    HW119946   2.334   0.544   1.297
 6349SOL    HW219947   2.362   0.648   1.420
 6350SOL     OW19948   0.337   5.126   4.272
 6350SOL    HW119949   0.243   5.117   4.241
 6350SOL    HW219950   0.395   5.155   4.195
 6351SOL     OW19951   6.320   3.579   3.949
 6351SOL    HW119952   6.385   3.517   3.992
 6351SOL    HW219953   6.341   3.674   3.975
 6352SOL     OW19954   3.774   6.326   4.938
 6352SOL    HW119955   3.717   6.385   4.996
 6352SOL    HW219956   3.762   6.353   4.843
 6353SOL     OW19957   1.202   6.816   5.989
 6353SOL    HW119958   1.130   6.767   5.941
 6353SOL    HW219959   1.256   6.752   6.044
 6354SOL     OW19960   2.782   5.378   3.177
 6354SOL    HW119961   2.766   5.442   3.252
 6354SOL    HW219962   2.769   5.284   3.210
 6355SOL     OW19963   1.040   5.271   0.112
 6355SOL    HW119964   1.131   5.289   0.074
 6355SOL    HW219965   1.014   5.345   0.173
 6356SOL     OW19966   5.249   5.805   1.612
 6356SOL    HW119967   5.236   5.731   1.678
 6356SOL    HW219968   5.228   5.893   1.655
 6357SOL     OW19969   6.151   3.412   2.592
 6357SOL    HW119970   6.129   3.498   2.639
 6357SOL    HW219971   6.174   3.343   2.660
 6358SOL     OW19972   0.526   2.184   6.305
 6358SOL    HW119973   0.488   2.242   6.378
 6358SOL    HW219974   0.507   2.088   6.325
 6359SOL     OW19975   6.155   0.752   0.027
 6359SOL    HW119976   6.255   0.748   0.026
 6359SOL    HW219977   6.120   0.708   0.109
 6360SOL     OW19978   1.307   4.749   4.219
 6360SOL    HW119979   1.286   4.652   4.207
 6360SOL    HW219980   1.388   4.759   4.278
 6361SOL     OW19981   1.148   6.555   1.114
 6361SOL    HW119982   1.195   6.593   1.035
 6361SOL    HW219983   1.179   6.462   1.131
 6362SOL     OW19984   6.962   6.000   6.954
 6362SOL    HW119985   6.913   6.077   6.993
 6362SOL    HW219986   6.901   5.921   6.945
 6363SOL     OW19987   1.663   5.247   4.031
 6363SOL    HW119988   1.603   5.321   4.000
 6363SOL    HW219989   1.735   5.285   4.091
 6364SOL     OW19990   2.291   1.546   5.745
 6364SOL    HW119991   2.266   1.540   5.648
 6364SOL    HW219992   2.307   1.642   5.769
 6365SOL     OW19993   5.781   0.286   3.734
 6365SOL    HW119994   5.772   0.367   3.792
 6365SOL    HW219995   5.877   0.259   3.728
 6366SOL     OW19996   1.207   5.817   5.694
 6366SOL    HW119997   1.279   5.750   5.680
 6366SOL    HW219998   1.118   5.772   5.683
 6367SOL     OW19999   3.748   1.469   4.618
 6367SOL    HW120000   3.693   1.549   4.641
 6367SOL    HW220001   3.743   1.452   4.519
 6368SOL     OW20002   3.674   5.227   3.328
 6368SOL    HW120003   3.705   5.157   3.393
 6368SOL    HW220004   3.581   5.255   3.350
 6369SOL     OW20005   2.254   5.889   4.316
 6369SOL    HW120006   2.155   5.875   4.317
 6369SOL    HW220007   2.293   5.860   4.404
 6370SOL     OW20008   0.075   3.435   3.637
 6370SOL    HW120009   0.129   3.519   3.638
 6370SOL    HW220010   7.021   3.443   3.701
 6371SOL     OW20011   4.648   4.808   3.120
 6371SOL    HW120012   4.574   4.749   3.152
 6371SOL    HW220013   4.624   4.904   3.134
 6372SOL     OW20014   2.032   0.873   1.855
 6372SOL    HW120015   2.099   0.932   1.808
 6372SOL    HW220016   1.968   0.930   1.906
 6373SOL     OW20017   4.776   4.218   2.406
 6373SOL    HW120018   4.860   4.236   2.458
 6373SOL    HW220019   4.789   4.137   2.350
 6374SOL     OW20020   4.089   3.795   3.172
 6374SOL    HW120021   4.077   3.754   3.082
 6374SOL    HW220022   4.185   3.819   3.185
 6375SOL     OW20023   0.029   1.733   3.299
 6375SOL    HW120024   0.015   1.831   3.311
 6375SOL    HW220025   0.126   1.711   3.307
 6376SOL     OW20026   5.363   2.441   4.776
 6376SOL    HW120027   5.270   2.416   4.749
 6376SOL    HW220028   5.365   2.537   4.805
 6377SOL     OW20029   6.941   2.059   5.432
 6377SOL    HW120030   6.924   1.976   5.486
 6377SOL    HW220031   7.000   2.037   5.355
 6378SOL     OW20032   4.704   4.752   4.157
 6378SOL    HW120033   4.801   4.754   4.179
 6378SOL    HW220034   4.679   4.659   4.128
 6379SOL     OW20035   1.317   4.191   4.892
 6379SOL    HW120036   1.258   4.121   4.931
 6379SOL    HW220037   1.391   4.212   4.956
 6380SOL     OW20038   0.378   1.562   5.428
 6380SOL    HW120039   0.431   1.641   5.396
 6380SOL    HW220040   0.283   1.589   5.443
 6381SOL     OW20041   3.991   3.030   1.712
 6381SOL    HW120042   4.082   2.997   1.688
 6381SOL    HW220043   3.927   3.008   1.637
 6382SOL     OW20044   2.540   2.029   0.540
 6382SOL    HW120045   2.444   2.011   0.518
 6382SOL    HW220046   2.596   1.953   0.508
 6383SOL     OW20047   1.580   2.671   2.837
 6383SOL    HW120048   1.617   2.629   2.920
 6383SOL    HW220049   1.633   2.641   2.758
 6384SOL     OW20050   6.466   4.027   2.862
 6384SOL    HW120051   6.497   4.038   2.956
 6384SOL    HW220052   6.521   3.957   2.816
 6385SOL     OW20053   0.432   3.844   3.499
 6385SOL    HW120054   0.481   3.914   3.550
 6385SOL    HW220055   0.486   3.760   3.496
 6386SOL     OW20056   2.572   4.597   5.752
 6386SOL    HW120057   2.644   4.528   5.761
 6386SOL    HW220058   2.603   4.669   5.690
 6387SOL     OW20059   6.772   1.479   6.107
 6387SOL    HW120060   6.727   1.398   6.143
 6387SOL    HW220061   6.798   1.539   6.183
 6388SOL     OW20062   4.102   6.213   1.895
 6388SOL    HW120063   4.008   6.245   1.904
 6388SOL    HW220064   4.102   6.115   1.880
 6389SOL     OW20065   0.041   5.685   1.937
 6389SOL    HW120066   0.060   5.602   1.990
 6389SOL    HW220067   7.014   5.750   1.995
 6390SOL     OW20068   0.390   0.763   6.057
 6390SOL    HW120069   0.470   0.809   6.098
 6390SOL    HW220070   0.370   0.806   5.969
 6391SOL     OW20071   2.707   0.019   6.151
 6391SOL    HW120072   2.620   0.043   6.109
 6391SOL    HW220073   2.779   0.015   6.081
 6392SOL     OW20074   2.572   5.545   2.807
 6392SOL    HW120075   2.662   5.533   2.847
 6392SOL    HW220076   2.505   5.487   2.854
 6393SOL     OW20077   0.157   6.468   2.204
 6393SOL    HW120078   0.058   6.469   2.187
 6393SOL    HW220079   0.198   6.549   2.161
 6394SOL     OW20080   2.217   5.368   0.744
 6394SOL    HW120081   2.139   5.328   0.696
 6394SOL    HW220082   2.259   5.438   0.687
 6395SOL     OW20083   0.467   2.668   1.859
 6395SOL    HW120084   0.493   2.589   1.803
 6395SOL    HW220085   0.368   2.678   1.858
 6396SOL     OW20086   4.905   3.761   6.622
 6396SOL    HW120087   4.982   3.715   6.578
 6396SOL    HW220088   4.865   3.699   6.690
 6397SOL     OW20089   6.104   1.831   0.895
 6397SOL    HW120090   6.022   1.879   0.927
 6397SOL    HW220091   6.126   1.862   0.802
 6398SOL     OW20092   3.091   6.939   1.674
 6398SOL    HW120093   3.123   6.927   1.580
 6398SOL    HW220094   3.076   0.014   1.693
 6399SOL     OW20095   1.540   6.339   6.461
 6399SOL    HW120096   1.537   6.436   6.484
 6399SOL    HW220097   1.486   6.287   6.527
 6400SOL     OW20098   2.437   5.954   2.254
 6400SOL    HW120099   2.374   5.891   2.299
 6400SOL    HW220100   2.392   5.995   2.174
 6401SOL     OW20101   5.552   5.498   3.329
 6401SOL    HW120102   5.546   5.421   3.265
 6401SOL    HW220103   5.527   5.582   3.282
 6402SOL     OW20104   3.330   2.108   3.522
 6402SOL    HW120105   3.308   2.147   3.432
 6402SOL    HW220106   3.246   2.084   3.570
 6403SOL     OW20107   0.020   5.985   6.442
 6403SOL    HW120108   0.022   6.084   6.452
 6403SOL    HW220109   0.050   5.943   6.528
 6404SOL     OW20110   4.409   0.786   2.667
 6404SOL    HW120111   4.460   0.872   2.655
 6404SOL    HW220112   4.432   0.746   2.755
 6405SOL     OW20113   2.856   0.396   3.792
 6405SOL    HW120114   2.808   0.452   3.723
 6405SOL    HW220115   2.953   0.417   3.789
 6406SOL     OW20116   0.725   2.897   2.378
 6406SOL    HW120117   0.763   2.950   2.455
 6406SOL    HW220118   0.687   2.812   2.412
 6407SOL     OW20119   2.520   6.808   3.806
 6407SOL    HW120120   2.458   6.766   3.872
 6407SOL    HW220121   2.607   6.759   3.807
 6408SOL     OW20122   5.784   1.156   0.146
 6408SOL    HW120123   5.808   1.072   0.196
 6408SOL    HW220124   5.815   1.236   0.197
 6409SOL     OW20125   6.868   4.167   3.405
 6409SOL    HW120126   6.921   4.232   3.460
 6409SOL    HW220127   6.883   4.185   3.308
 6410SOL     OW20128   2.215   1.636   6.662
 6410SOL    HW120129   2.176   1.548   6.688
 6410SOL    HW220130   2.291   1.621   6.599
 6411SOL     OW20131   0.799   3.320   2.962
 6411SOL    HW120132   0.877   3.379   2.944
 6411SOL    HW220133   0.829   3.238   3.010
 6412SOL     OW20134   0.810   2.015   4.588
 6412SOL    HW120135   0.762   1.955   4.524
 6412SOL    HW220136   0.770   2.006   4.679
 6413SOL     OW20137   3.795   4.871   3.710
 6413SOL    HW120138   3.842   4.783   3.705
 6413SOL    HW220139   3.791   4.900   3.806
 6414SOL     OW20140   5.610   0.920   0.588
 6414SOL    HW120141   5.651   0.844   0.538
 6414SOL    HW220142   5.681   0.971   0.637
 6415SOL     OW20143   1.766   3.614   2.937
 6415SOL    HW120144   1.740   3.517   2.941
 6415SOL    HW220145   1.780   3.648   3.030
 6416SOL     OW20146   0.873   1.160   6.840
 6416SOL    HW120147   0.958   1.112   6.820
 6416SOL    HW220148   0.869   1.245   6.787
 6417SOL     OW20149   5.979   5.198   0.692
 6417SOL    HW120150   5.998   5.254   0.611
 6417SOL    HW220151   5.942   5.110   0.664
 6418SOL     OW20152   4.916   3.804   2.058
 6418SOL    HW120153   4.863   3.872   2.107
 6418SOL    HW220154   4.900   3.813   1.960
 6419SOL     OW20155   2.193   4.607   3.257
 6419SOL    HW120156   2.183   4.581   3.353
 6419SOL    HW220157   2.192   4.707   3.249
 6420SOL     OW20158   2.858   5.931   4.582
 6420SOL    HW120159   2.763   5.900   4.577
 6420SOL    HW220160   2.894   5.942   4.489
 6421SOL     OW20161   5.204   0.143   3.190
 6421SOL    HW120162   5.156   0.092   3.261
 6421SOL    HW220163   5.180   0.240   3.197
 6422SOL     OW20164   6.899   1.028   3.977
 6422SOL    HW120165   6.829   1.016   4.049
 6422SOL    HW220166   6.986   0.992   4.010
 6423SOL     OW20167   4.909   5.444   3.364
 6423SOL    HW120168   4.811   5.456   3.347
 6423SOL    HW220169   4.945   5.376   3.301
 6424SOL     OW20170   0.197   5.329   5.919
 6424SOL    HW120171   0.099   5.314   5.936
 6424SOL    HW220172   0.249   5.256   5.964
 6425SOL     OW20173   6.271   6.066   3.144
 6425SOL    HW120174   6.321   6.146   3.111
 6425SOL    HW220175   6.326   5.984   3.129
 6426SOL     OW20176   1.614   5.282   2.865
 6426SOL    HW120177   1.542   5.351   2.855
 6426SOL    HW220178   1.572   5.191   2.871
 6427SOL     OW20179   3.587   3.819   4.679
 6427SOL    HW120180   3.594   3.912   4.643
 6427SOL    HW220181   3.546   3.760   4.611
 6428SOL     OW20182   5.838   3.377   5.786
 6428SOL    HW120183   5.807   3.340   5.873
 6428SOL    HW220184   5.837   3.305   5.717
 6429SOL     OW20185   1.477   1.768   5.607
 6429SOL    HW120186   1.549   1.702   5.586
 6429SOL    HW220187   1.518   1.857   5.629
 6430SOL     OW20188   6.298   1.220   2.803
 6430SOL    HW120189   6.241   1.287   2.754
 6430SOL    HW220190   6.388   1.259   2.819
 6431SOL     OW20191   5.076   6.484   3.940
 6431SOL    HW120192   5.091   6.571   3.893
 6431SOL    HW220193   5.059   6.500   4.037
 6432SOL     OW20194   4.334   4.511   5.976
 6432SOL    HW120195   4.340   4.455   5.894
 6432SOL    HW220196   4.314   4.606   5.950
 6433SOL     OW20197   1.821   5.147   6.361
 6433SOL    HW120198   1.747   5.133   6.427
 6433SOL    HW220199   1.844   5.244   6.356
 6434SOL     OW20200   2.531   4.363   6.537
 6434SOL    HW120201   2.617   4.343   6.584
 6434SOL    HW220202   2.455   4.320   6.587
 6435SOL     OW20203   4.777   6.933   1.015
 6435SOL    HW120204   4.863   6.921   0.965
 6435SOL    HW220205   4.777   6.874   1.095
 6436SOL     OW20206   1.232   3.201   2.874
 6436SOL    HW120207   1.328   3.183   2.854
 6436SOL    HW220208   1.176   3.174   2.796
 6437SOL     OW20209   2.510   1.350   0.334
 6437SOL    HW120210   2.526   1.425   0.270
 6437SOL    HW220211   2.585   1.347   0.401
 6438SOL     OW20212   6.112   4.288   5.880
 6438SOL    HW120213   6.066   4.368   5.920
 6438SOL    HW220214   6.203   4.279   5.919
 6439SOL     OW20215   5.738   1.162   1.608
 6439SOL    HW120216   5.717   1.119   1.697
 6439SOL    HW220217   5.811   1.229   1.620
 6440SOL     OW20218   2.287   1.816   5.800
 6440SOL    HW120219   2.277   1.872   5.718
 6440SOL    HW220220   2.378   1.831   5.840
 6441SOL     OW20221   6.608   6.641   1.753
 6441SOL    HW120222   6.563   6.570   1.699
 6441SOL    HW220223   6.548   6.669   1.828
 6442SOL     OW20224   2.568   1.538   4.633
 6442SOL    HW120225   2.542   1.441   4.633
 6442SOL    HW220226   2.593   1.565   4.540
 6443SOL     OW20227   4.039   2.213   5.882
 6443SOL    HW120228   4.041   2.118   5.851
 6443SOL    HW220229   4.133   2.245   5.896
 6444SOL     OW20230   5.483   2.567   4.313
 6444SOL    HW120231   5.487   2.667   4.323
 6444SOL    HW220232   5.563   2.535   4.264
 6445SOL     OW20233   4.010   3.322   4.865
 6445SOL    HW120234   3.976   3.368   4.947
 6445SOL    HW220235   4.017   3.224   4.882
 6446SOL     OW20236   1.063   1.231   6.431
 6446SOL    HW120237   1.112   1.231   6.518
 6446SOL    HW220238   1.069   1.140   6.389
 6447SOL     OW20239   5.281   5.026   3.620
 6447SOL    HW120240   5.189   5.047   3.588
 6447SOL    HW220241   5.276   4.978   3.708
 6448SOL     OW20242   3.976   5.779   2.463
 6448SOL    HW120243   3.917   5.723   2.406
 6448SOL    HW220244   3.953   5.876   2.451
 6449SOL     OW20245   3.485   6.074   1.361
 6449SOL    HW120246   3.455   5.979   1.355
 6449SOL    HW220247   3.546   6.085   1.440
 6450SOL     OW20248   0.494   4.039   0.764
 6450SOL    HW120249   0.504   4.068   0.859
 6450SOL    HW220250   0.447   4.110   0.712
 6451SOL     OW20251   2.080   0.691   4.487
 6451SOL    HW120252   2.164   0.743   4.502
 6451SOL    HW220253   2.061   0.684   4.389
 6452SOL     OW20254   4.441   5.729   4.166
 6452SOL    HW120255   4.534   5.764   4.161
 6452SOL    HW220256   4.428   5.681   4.253
 6453SOL     OW20257   2.034   6.348   1.572
 6453SOL    HW120258   2.116   6.296   1.548
 6453SOL    HW220259   2.051   6.446   1.556
 6454SOL     OW20260   1.033   2.648   2.840
 6454SOL    HW120261   1.005   2.596   2.921
 6454SOL    HW220262   1.125   2.620   2.813
 6455SOL     OW20263   6.871   3.104   3.581
 6455SOL    HW120264   6.789   3.046   3.588
 6455SOL    HW220265   6.930   3.088   3.661
 6456SOL     OW20266   0.741   0.501   3.752
 6456SOL    HW120267   0.737   0.484   3.850
 6456SOL    HW220268   0.661   0.554   3.724
 6457SOL     OW20269   4.704   1.815   1.266
 6457SOL    HW120270   4.734   1.909   1.252
 6457SOL    HW220271   4.613   1.802   1.226
 6458SOL     OW20272   1.192   6.380   4.476
 6458SOL    HW120273   1.224   6.287   4.492
 6458SOL    HW220274   1.127   6.380   4.399
 6459SOL     OW20275   6.136   3.221   1.410
 6459SOL    HW120276   6.124   3.148   1.342
 6459SOL    HW220277   6.233   3.243   1.417
 6460SOL     OW20278   6.044   6.165   5.943
 6460SOL    HW120279   5.969   6.231   5.945
 6460SOL    HW220280   6.082   6.155   6.035
 6461SOL     OW20281   2.308   4.733   5.779
 6461SOL    HW120282   2.398   4.698   5.755
 6461SOL    HW220283   2.316   4.804   5.849
 6462SOL     OW20284   1.971   2.459   4.272
 6462SOL    HW120285   2.062   2.420   4.258
 6462SOL    HW220286   1.938   2.499   4.187
 6463SOL     OW20287   6.031   2.955   6.834
 6463SOL    HW120288   6.003   2.903   6.915
 6463SOL    HW220289   6.128   2.980   6.843
 6464SOL     OW20290   0.848   5.551   4.910
 6464SOL    HW120291   0.888   5.642   4.916
 6464SOL    HW220292   0.826   5.518   5.002
 6465SOL     OW20293   0.298   3.218   2.981
 6465SOL    HW120294   0.242   3.282   2.931
 6465SOL    HW220295   0.243   3.171   3.050
 6466SOL     OW20296   1.126   1.010   6.279
 6466SOL    HW120297   1.102   1.031   6.184
 6466SOL    HW220298   1.147   0.912   6.287
 6467SOL     OW20299   3.216   1.496   0.294
 6467SOL    HW120300   3.279   1.564   0.333
 6467SOL    HW220301   3.122   1.522   0.314
 6468SOL     OW20302   3.069   6.410   0.527
 6468SOL    HW120303   3.139   6.341   0.545
 6468SOL    HW220304   3.084   6.449   0.436
 6469SOL     OW20305   4.746   1.219   4.574
 6469SOL    HW120306   4.657   1.192   4.538
 6469SOL    HW220307   4.742   1.314   4.606
 6470SOL     OW20308   6.014   3.101   0.279
 6470SOL    HW120309   6.065   3.104   0.193
 6470SOL    HW220310   5.961   3.185   0.290
 6471SOL     OW20311   6.690   6.680   5.577
 6471SOL    HW120312   6.689   6.615   5.501
 6471SOL    HW220313   6.602   6.678   5.624
 6472SOL     OW20314   0.543   5.634   1.588
 6472SOL    HW120315   0.462   5.629   1.530
 6472SOL    HW220316   0.529   5.576   1.669
 6473SOL     OW20317   3.239   1.346   4.257
 6473SOL    HW120318   3.317   1.392   4.298
 6473SOL    HW220319   3.262   1.249   4.242
 6474SOL     OW20320   2.767   4.290   6.059
 6474SOL    HW120321   2.865   4.304   6.043
 6474SOL    HW220322   2.749   4.292   6.158
 6475SOL     OW20323   5.888   5.193   3.739
 6475SOL    HW120324   5.858   5.218   3.831
 6475SOL    HW220325   5.830   5.119   3.705
 6476SOL     OW20326   3.839   3.372   1.378
 6476SOL    HW120327   3.825   3.301   1.309
 6476SOL    HW220328   3.914   3.432   1.349
 6477SOL     OW20329   6.073   5.089   1.156
 6477SOL    HW120330   6.015   5.082   1.074
 6477SOL    HW220331   6.130   5.008   1.164
 6478SOL     OW20332   3.662   0.655   1.719
 6478SOL    HW120333   3.685   0.652   1.816
 6478SOL    HW220334   3.698   0.740   1.679
 6479SOL     OW20335   4.314   5.281   3.914
 6479SOL    HW120336   4.339   5.368   3.956
 6479SOL    HW220337   4.225   5.290   3.869
 6480SOL     OW20338   2.877   1.617   6.373
 6480SOL    HW120339   2.950   1.632   6.306
 6480SOL    HW220340   2.871   1.520   6.395
 6481SOL     OW20341   3.651   2.074   2.268
 6481SOL    HW120342   3.615   2.126   2.346
 6481SOL    HW220343   3.642   2.129   2.184
 6482SOL     OW20344   6.651   0.568   6.574
 6482SOL    HW120345   6.722   0.609   6.518
 6482SOL    HW220346   6.681   0.478   6.607
 6483SOL     OW20347   1.102   6.662   2.090
 6483SOL    HW120348   1.126   6.638   2.184
 6483SOL    HW220349   1.003   6.677   2.083
 6484SOL     OW20350   3.238   6.840   1.084
 6484SOL    HW120351   3.175   6.899   1.033
 6484SOL    HW220352   3.283   6.893   1.155
 6485SOL     OW20353   1.949   5.045   3.744
 6485SOL    HW120354   1.979   5.000   3.659
 6485SOL    HW220355   1.954   5.144   3.733
 6486SOL     OW20356   2.615   4.615   3.776
 6486SOL    HW120357   2.706   4.644   3.747
 6486SOL    HW220358   2.585   4.670   3.854
 6487SOL     OW20359   0.359   6.507   5.068
 6487SOL    HW120360   0.455   6.485   5.049
 6487SOL    HW220361   0.334   6.592   5.021
 6488SOL     OW20362   3.658   6.338   4.681
 6488SOL    HW120363   3.615   6.258   4.724
 6488SOL    HW220364   3.588   6.401   4.650
 6489SOL     OW20365   3.245   2.633   6.527
 6489SOL    HW120366   3.151   2.624   6.495
 6489SOL    HW220367   3.307   2.584   6.465
 6490SOL     OW20368   4.365   0.500   6.871
 6490SOL    HW120369   4.385   0.593   6.840
 6490SOL    HW220370   4.427   0.436   6.827
 6491SOL     OW20371   4.092   1.026   0.536
 6491SOL    HW120372   4.119   0.931   0.545
 6491SOL    HW220373   4.099   1.072   0.625
 6492SOL     OW20374   4.036   5.088   6.897
 6492SOL    HW120375   4.022   5.091   6.996
 6492SOL    HW220376   3.961   5.136   6.851
 6493SOL     OW20377   1.035   4.780   5.248
 6493SOL    HW120378   1.113   4.834   5.217
 6493SOL    HW220379   1.038   4.771   5.347
 6494SOL     OW20380   6.837   0.624   3.777
 6494SOL    HW120381   6.889   0.620   3.692
 6494SOL    HW220382   6.896   0.658   3.850
 6495SOL     OW20383   5.502   0.224   4.480
 6495SOL    HW120384   5.499   0.314   4.436
 6495SOL    HW220385   5.515   0.236   4.578
 6496SOL     OW20386   6.604   0.591   2.918
 6496SOL    HW120387   6.652   0.516   2.964
 6496SOL    HW220388   6.579   0.660   2.985
 6497SOL     OW20389   1.431   1.602   0.826
 6497SOL    HW120390   1.467   1.509   0.827
 6497SOL    HW220391   1.401   1.627   0.918
 6498SOL     OW20392   1.882   3.396   3.771
 6498SOL    HW120393   1.924   3.344   3.845
 6498SOL    HW220394   1.952   3.423   3.705
 6499SOL     OW20395   5.374   2.843   5.302
 6499SOL    HW120396   5.474   2.852   5.301
 6499SOL    HW220397   5.346   2.783   5.227
 6500SOL     OW20398   6.808   4.142   4.240
 6500SOL    HW120399   6.806   4.110   4.334
 6500SOL    HW220400   6.858   4.229   4.235
 6501SOL     OW20401   6.500   1.669   6.864
 6501SOL    HW120402   6.505   1.606   6.787
 6501SOL    HW220403   6.571   1.647   6.931
 6502SOL     OW20404   6.910   1.868   1.448
 6502SOL    HW120405   6.897   1.919   1.363
 6502SOL    HW220406   6.965   1.923   1.512
 6503SOL     OW20407   5.113   1.117   3.271
 6503SOL    HW120408   5.036   1.054   3.254
 6503SOL    HW220409   5.198   1.074   3.241
 6504SOL     OW20410   3.933   6.163   5.310
 6504SOL    HW120411   3.881   6.078   5.308
 6504SOL    HW220412   4.031   6.143   5.298
 6505SOL     OW20413   5.320   5.949   0.516
 6505SOL    HW120414   5.304   5.966   0.613
 6505SOL    HW220415   5.384   5.873   0.505
 6506SOL     OW20416   6.411   2.368   2.682
 6506SOL    HW120417   6.458   2.288   2.720
 6506SOL    HW220418   6.477   2.443   2.674
 6507SOL     OW20419   1.769   5.257   5.457
 6507SOL    HW120420   1.723   5.226   5.374
 6507SOL    HW220421   1.730   5.210   5.536
 6508SOL     OW20422   1.470   0.692   2.852
 6508SOL    HW120423   1.428   0.691   2.761
 6508SOL    HW220424   1.447   0.607   2.900
 6509SOL     OW20425   3.666   1.958   4.446
 6509SOL    HW120426   3.566   1.970   4.449
 6509SOL    HW220427   3.710   2.035   4.494
 6510SOL     OW20428   6.646   5.457   6.877
 6510SOL    HW120429   6.562   5.506   6.854
 6510SOL    HW220430   6.623   5.374   6.928
 6511SOL     OW20431   4.386   1.548   4.233
 6511SOL    HW120432   4.333   1.599   4.301
 6511SOL    HW220433   4.481   1.580   4.234
 6512SOL     OW20434   4.594   6.389   1.795
 6512SOL    HW120435   4.567   6.468   1.741
 6512SOL    HW220436   4.668   6.415   1.858
 6513SOL     OW20437   2.815   5.459   2.906
 6513SOL    HW120438   2.857   5.391   2.847
 6513SOL    HW220439   2.810   5.423   3.000
 6514SOL     OW20440   6.470   1.286   3.719
 6514SOL    HW120441   6.401   1.357   3.713
 6514SOL    HW220442   6.490   1.267   3.815
 6515SOL     OW20443   0.187   4.387   4.203
 6515SOL    HW120444   0.201   4.293   4.234
 6515SOL    HW220445   0.261   4.444   4.239
 6516SOL     OW20446   0.289   3.325   1.705
 6516SOL    HW120447   0.373   3.362   1.664
 6516SOL    HW220448   0.216   3.393   1.698
 6517SOL     OW20449   6.366   0.837   1.063
 6517SOL    HW120450   6.394   0.862   0.970
 6517SOL    HW220451   6.276   0.794   1.060
 6518SOL     OW20452   0.040   0.707   6.986
 6518SOL    HW120453   0.090   0.768   0.025
 6518SOL    HW220454   0.059   0.612   7.011
 6519SOL     OW20455   1.311   2.132   3.032
 6519SOL    HW120456   1.344   2.046   2.994
 6519SOL    HW220457   1.325   2.206   2.966
 6520SOL     OW20458   5.452   5.610   2.277
 6520SOL    HW120459   5.435   5.613   2.376
 6520SOL    HW220460   5.551   5.605   2.260
 6521SOL     OW20461   1.913   2.547   4.019
 6521SOL    HW120462   1.853   2.500   3.954
 6521SOL    HW220463   1.979   2.603   3.969
 6522SOL     OW20464   3.396   5.299   6.413
 6522SOL    HW120465   3.388   5.278   6.510
 6522SOL    HW220466   3.485   5.267   6.379
 6523SOL     OW20467   4.119   1.124   6.420
 6523SOL    HW120468   4.198   1.123   6.360
 6523SOL    HW220469   4.123   1.204   6.480
 6524SOL     OW20470   3.124   4.010   1.465
 6524SOL    HW120471   3.222   3.994   1.466
 6524SOL    HW220472   3.096   4.051   1.553
 6525SOL     OW20473   2.795   5.056   2.869
 6525SOL    HW120474   2.886   5.097   2.855
 6525SOL    HW220475   2.805   4.959   2.886
 6526SOL     OW20476   1.888   0.090   6.708
 6526SOL    HW120477   1.856   0.184   6.696
 6526SOL    HW220478   1.916   0.053   6.620
 6527SOL     OW20479   0.970   2.172   4.456
 6527SOL    HW120480   0.917   2.125   4.527
 6527SOL    HW220481   1.060   2.130   4.448
 6528SOL     OW20482   6.977   0.858   5.445
 6528SOL    HW120483   6.979   0.778   5.506
 6528SOL    HW220484   0.030   0.920   5.470
 6529SOL     OW20485   1.299   1.038   2.891
 6529SOL    HW120486   1.326   0.942   2.892
 6529SOL    HW220487   1.203   1.045   2.866
 6530SOL     OW20488   6.613   3.853   0.231
 6530SOL    HW120489   6.600   3.797   0.313
 6530SOL    HW220490   6.524   3.876   0.192
 6531SOL     OW20491   5.650   2.901   5.281
 6531SOL    HW120492   5.640   2.811   5.324
 6531SOL    HW220493   5.720   2.896   5.209
 6532SOL     OW20494   6.990   1.151   0.512
 6532SOL    HW120495   6.987   1.251   0.519
 6532SOL    HW220496   0.035   1.116   0.577
 6533SOL     OW20497   4.535   6.983   1.342
 6533SOL    HW120498   4.578   0.031   1.285
 6533SOL    HW220499   4.569   6.990   1.435
 6534SOL     OW20500   3.532   4.588   1.322
 6534SOL    HW120501   3.596   4.633   1.384
 6534SOL    HW220502   3.527   4.491   1.345
 6535SOL     OW20503   5.933   4.188   4.016
 6535SOL    HW120504   5.890   4.273   3.983
 6535SOL    HW220505   5.930   4.186   4.116
 6536SOL     OW20506   1.435   1.281   5.544
 6536SOL    HW120507   1.354   1.333   5.571
 6536SOL    HW220508   1.497   1.341   5.492
 6537SOL     OW20509   6.771   5.590   0.223
 6537SOL    HW120510   6.843   5.649   0.187
 6537SOL    HW220511   6.781   5.498   0.185
 6538SOL     OW20512   2.700   4.026   6.686
 6538SOL    HW120513   2.674   3.954   6.750
 6538SOL    HW220514   2.795   4.012   6.658
 6539SOL     OW20515   3.859   0.617   5.677
 6539SOL    HW120516   3.955   0.639   5.694
 6539SOL    HW220517   3.852   0.524   5.642
 6540SOL     OW20518   4.252   1.750   5.886
 6540SOL    HW120519   4.236   1.704   5.974
 6540SOL    HW220520   4.168   1.795   5.857
 6541SOL     OW20521   4.914   2.222   5.127
 6541SOL    HW120522   4.996   2.248   5.077
 6541SOL    HW220523   4.934   2.222   5.225
 6542SOL     OW20524   5.761   4.007   3.930
 6542SOL    HW120525   5.824   3.939   3.891
 6542SOL    HW220526   5.813   4.077   3.979
 6543SOL     OW20527   5.704   3.058   5.945
 6543SOL    HW120528   5.606   3.048   5.925
 6543SOL    HW220529   5.755   2.987   5.896
 6544SOL     OW20530   0.741   6.115   2.776
 6544SOL    HW120531   0.711   6.021   2.790
 6544SOL    HW220532   0.802   6.118   2.697
 6545SOL     OW20533   4.033   2.449   0.715
 6545SOL    HW120534   4.038   2.508   0.796
 6545SOL    HW220535   4.075   2.495   0.637
 6546SOL     OW20536   2.885   4.581   0.070
 6546SOL    HW120537   2.892   4.526   0.153
 6546SOL    HW220538   2.902   4.677   0.093
 6547SOL     OW20539   4.868   1.167   5.585
 6547SOL    HW120540   4.805   1.106   5.537
 6547SOL    HW220541   4.826   1.197   5.670
 6548SOL     OW20542   1.320   3.767   0.263
 6548SOL    HW120543   1.239   3.713   0.243
 6548SOL    HW220544   1.398   3.731   0.211
 6549SOL     OW20545   4.689   0.834   1.785
 6549SOL    HW120546   4.698   0.782   1.700
 6549SOL    HW220547   4.774   0.883   1.804
 6550SOL     OW20548   0.188   6.765   4.227
 6550SOL    HW120549   0.242   6.695   4.274
 6550SOL    HW220550   0.160   6.731   4.138
 6551SOL     OW20551   2.104   4.908   2.560
 6551SOL    HW120552   2.151   4.995   2.544
 6551SOL    HW220553   2.161   4.832   2.528
 6552SOL     OW20554   1.813   6.858   6.278
 6552SOL    HW120555   1.745   6.903   6.336
 6552SOL    HW220556   1.772   6.778   6.234
 6553SOL     OW20557   0.263   2.367   3.716
 6553SOL    HW120558   0.190   2.320   3.766
 6553SOL    HW220559   0.230   2.393   3.625
 6554SOL     OW20560   0.039   1.277   4.890
 6554SOL    HW120561   0.009   1.254   4.982
 6554SOL    HW220562   0.133   1.310   4.893
 6555SOL     OW20563   6.126   2.233   2.719
 6555SOL    HW120564   6.217   2.275   2.723
 6555SOL    HW220565   6.122   2.172   2.640
 6556SOL     OW20566   5.478   4.730   4.899
 6556SOL    HW120567   5.447   4.741   4.804
 6556SOL    HW220568   5.521   4.815   4.930
 6557SOL     OW20569   3.428   6.604   2.112
 6557SOL    HW120570   3.341   6.591   2.063
 6557SOL    HW220571   3.416   6.673   2.183
 6558SOL     OW20572   6.896   4.750   6.489
 6558SOL    HW120573   6.891   4.845   6.521
 6558SOL    HW220574   6.911   4.749   6.390
 6559SOL     OW20575   0.970   3.827   6.137
 6559SOL    HW120576   1.046   3.859   6.195
 6559SOL    HW220577   0.926   3.749   6.181
 6560SOL     OW20578   4.432   5.232   1.067
 6560SOL    HW120579   4.418   5.244   1.165
 6560SOL    HW220580   4.529   5.238   1.046
 6561SOL     OW20581   3.722   3.863   1.375
 6561SOL    HW120582   3.761   3.821   1.457
 6561SOL    HW220583   3.645   3.808   1.343
 6562SOL     OW20584   5.841   3.902   1.004
 6562SOL    HW120585   5.816   3.995   1.034
 6562SOL    HW220586   5.903   3.908   0.926
 6563SOL     OW20587   5.652   6.470   0.514
 6563SOL    HW120588   5.637   6.558   0.470
 6563SOL    HW220589   5.596   6.401   0.469
 6564SOL     OW20590   6.896   4.587   3.256
 6564SOL    HW120591   6.931   4.569   3.348
 6564SOL    HW220592   6.857   4.679   3.252
 6565SOL     OW20593   6.468   2.400   3.601
 6565SOL    HW120594   6.449   2.363   3.510
 6565SOL    HW220595   6.478   2.325   3.666
 6566SOL     OW20596   3.479   6.250   2.537
 6566SOL    HW120597   3.442   6.319   2.474
 6566SOL    HW220598   3.579   6.248   2.529
 6567SOL     OW20599   4.182   1.225   1.989
 6567SOL    HW120600   4.118   1.154   1.961
 6567SOL    HW220601   4.172   1.241   2.088
 6568SOL     OW20602   3.884   1.143   3.307
 6568SOL    HW120603   3.967   1.086   3.304
 6568SOL    HW220604   3.895   1.220   3.244
 6569SOL     OW20605   2.849   3.631   6.421
 6569SOL    HW120606   2.945   3.645   6.398
 6569SOL    HW220607   2.815   3.548   6.376
 6570SOL     OW20608   3.634   0.459   2.230
 6570SOL    HW120609   3.601   0.467   2.324
 6570SOL    HW220610   3.734   0.459   2.230
 6571SOL     OW20611   2.505   6.045   1.604
 6571SOL    HW120612   2.488   5.948   1.587
 6571SOL    HW220613   2.602   6.065   1.590
 6572SOL     OW20614   6.566   4.787   5.814
 6572SOL    HW120615   6.499   4.736   5.759
 6572SOL    HW220616   6.528   4.877   5.836
 6573SOL     OW20617   2.262   1.304   2.228
 6573SOL    HW120618   2.356   1.333   2.246
 6573SOL    HW220619   2.227   1.352   2.148
 6574SOL     OW20620   3.098   5.907   2.952
 6574SOL    HW120621   3.019   5.859   2.915
 6574SOL    HW220622   3.174   5.903   2.887
 6575SOL     OW20623   1.225   0.296   2.822
 6575SOL    HW120624   1.291   0.350   2.875
 6575SOL    HW220625   1.143   0.282   2.877
 6576SOL     OW20626   2.719   5.602   6.135
 6576SOL    HW120627   2.810   5.584   6.172
 6576SOL    HW220628   2.710   5.558   6.046
 6577SOL     OW20629   0.471   1.253   4.450
 6577SOL    HW120630   0.406   1.177   4.446
 6577SOL    HW220631   0.526   1.245   4.533
 6578SOL     OW20632   1.473   4.984   3.349
 6578SOL    HW120633   1.398   5.051   3.353
 6578SOL    HW220634   1.482   4.938   3.437
 6579SOL     OW20635   6.617   3.781   5.309
 6579SOL    HW120636   6.669   3.823   5.235
 6579SOL    HW220637   6.601   3.848   5.382
 6580SOL     OW20638   0.371   2.272   0.451
 6580SOL    HW120639   0.311   2.213   0.505
 6580SOL    HW220640   0.459   2.282   0.498
 6581SOL     OW20641   2.586   0.725   6.783
 6581SOL    HW120642   2.560   0.786   6.708
 6581SOL    HW220643   2.514   0.724   6.852
 6582SOL     OW20644   1.115   1.487   1.920
 6582SOL    HW120645   1.211   1.463   1.912
 6582SOL    HW220646   1.084   1.470   2.014
 6583SOL     OW20647   4.209   0.742   5.007
 6583SOL    HW120648   4.153   0.690   5.073
 6583SOL    HW220649   4.186   0.839   5.014
 6584SOL     OW20650   4.782   2.054   0.880
 6584SOL    HW120651   4.694   2.007   0.888
 6584SOL    HW220652   4.808   2.093   0.968
 6585SOL     OW20653   6.112   6.884   0.469
 6585SOL    HW120654   6.167   6.853   0.546
 6585SOL    HW220655   6.076   6.976   0.489
 6586SOL     OW20656   0.574   1.651   5.716
 6586SOL    HW120657   0.542   1.587   5.647
 6586SOL    HW220658   0.564   1.611   5.807
 6587SOL     OW20659   2.012   6.664   4.905
 6587SOL    HW120660   2.048   6.617   4.985
 6587SOL    HW220661   2.083   6.671   4.835
 6588SOL     OW20662   0.734   4.008   1.543
 6588SOL    HW120663   0.727   3.921   1.493
 6588SOL    HW220664   0.796   3.996   1.621
 6589SOL     OW20665   5.151   0.890   0.602
 6589SOL    HW120666   5.132   0.947   0.522
 6589SOL    HW220667   5.230   0.927   0.651
 6590SOL     OW20668   1.046   0.634   5.554
 6590SOL    HW120669   1.030   0.538   5.580
 6590SOL    HW220670   0.959   0.680   5.540
 6591SOL     OW20671   5.362   5.459   2.028
 6591SOL    HW120672   5.390   5.532   2.090
 6591SOL    HW220673   5.337   5.378   2.081
 6592SOL     OW20674   6.063   0.209   3.762
 6592SOL    HW120675   6.056   0.175   3.856
 6592SOL    HW220676   6.134   0.158   3.714
 6593SOL     OW20677   2.444   2.287   2.280
 6593SOL    HW120678   2.401   2.217   2.222
 6593SOL    HW220679   2.430   2.263   2.376
 6594SOL     OW20680   3.368   2.311   6.984
 6594SOL    HW120681   3.454   2.347   7.019
 6594SOL    HW220682   3.292   2.351   0.013
 6595SOL     OW20683   0.432   3.918   6.626
 6595SOL    HW120684   0.457   4.014   6.612
 6595SOL    HW220685   0.440   3.896   6.724
 6596SOL     OW20686   3.101   6.275   4.332
 6596SOL    HW120687   3.006   6.295   4.358
 6596SOL    HW220688   3.161   6.345   4.371
 6597SOL     OW20689   1.849   5.429   1.408
 6597SOL    HW120690   1.851   5.509   1.469
 6597SOL    HW220691   1.903   5.355   1.448
 6598SOL     OW20692   1.489   6.004   4.715
 6598SOL    HW120693   1.513   6.074   4.783
 6598SOL    HW220694   1.410   6.035   4.662
 6599SOL     OW20695   4.622   6.278   5.918
 6599SOL    HW120696   4.536   6.230   5.901
 6599SOL    HW220697   4.682   6.220   5.974
 6600SOL     OW20698   5.409   5.098   5.495
 6600SOL    HW120699   5.355   5.042   5.557
 6600SOL    HW220700   5.499   5.056   5.481
 6601SOL     OW20701   1.063   1.494   5.104
 6601SOL    HW120702   1.126   1.550   5.049
 6601SOL    HW220703   1.081   1.398   5.086
 6602SOL     OW20704   0.450   0.804   2.333
 6602SOL    HW120705   0.516   0.815   2.259
 6602SOL    HW220706   0.370   0.755   2.299
 6603SOL     OW20707   6.754   2.779   4.115
 6603SOL    HW120708   6.689   2.703   4.122
 6603SOL    HW220709   6.748   2.835   4.197
 6604SOL     OW20710   2.275   6.948   1.783
 6604SOL    HW120711   2.258   6.925   1.878
 6604SOL    HW220712   2.326   0.012   1.779
 6605SOL     OW20713   5.747   3.880   1.416
 6605SOL    HW120714   5.747   3.786   1.383
 6605SOL    HW220715   5.709   3.940   1.346
 6606SOL     OW20716   0.113   5.989   1.466
 6606SOL    HW120717   0.106   5.952   1.559
 6606SOL    HW220718   0.032   6.043   1.446
 6607SOL     OW20719   1.641   3.149   2.322
 6607SOL    HW120720   1.669   3.068   2.374
 6607SOL    HW220721   1.553   3.182   2.356
 6608SOL     OW20722   6.200   6.062   0.754
 6608SOL    HW120723   6.165   6.082   0.846
 6608SOL    HW220724   6.269   5.990   0.760
 6609SOL     OW20725   4.464   1.020   5.648
 6609SOL    HW120726   4.449   1.003   5.550
 6609SOL    HW220727   4.471   0.933   5.696
 6610SOL     OW20728   2.939   0.463   6.850
 6610SOL    HW120729   2.887   0.378   6.838
 6610SOL    HW220730   3.025   0.456   6.800
 6611SOL     OW20731   5.900   3.049   3.614
 6611SOL    HW120732   5.968   3.013   3.678
 6611SOL    HW220733   5.812   3.059   3.660
 6612SOL     OW20734   6.100   2.318   6.216
 6612SOL    HW120735   6.195   2.348   6.226
 6612SOL    HW220736   6.098   2.224   6.183
 6613SOL     OW20737   6.557   6.041   4.819
 6613SOL    HW120738   6.513   6.092   4.893
 6613SOL    HW220739   6.614   5.969   4.858
 6614SOL     OW20740   5.215   6.654   0.929
 6614SOL    HW120741   5.182   6.560   0.942
 6614SOL    HW220742   5.304   6.651   0.884
 6615SOL     OW20743   1.382   5.040   2.604
 6615SOL    HW120744   1.338   4.981   2.536
 6615SOL    HW220745   1.367   5.001   2.695
 6616SOL     OW20746   4.091   1.320   5.432
 6616SOL    HW120747   4.050   1.393   5.485
 6616SOL    HW220748   4.039   1.235   5.445
 6617SOL     OW20749   4.367   5.030   3.409
 6617SOL    HW120750   4.323   5.108   3.366
 6617SOL    HW220751   4.368   5.042   3.508
 6618SOL     OW20752   1.521   2.793   2.408
 6618SOL    HW120753   1.599   2.762   2.354
 6618SOL    HW220754   1.540   2.883   2.447
 6619SOL     OW20755   6.375   6.966   3.743
 6619SOL    HW120756   6.312   7.016   3.683
 6619SOL    HW220757   6.462   6.951   3.697
 6620SOL     OW20758   1.789   2.947   5.136
 6620SOL    HW120759   1.726   2.870   5.126
 6620SOL    HW220760   1.738   3.028   5.164
 6621SOL     OW20761   2.584   2.726   5.847
 6621SOL    HW120762   2.647   2.718   5.923
 6621SOL    HW220763   2.624   2.684   5.765
 6622SOL     OW20764   5.941   6.617   1.349
 6622SOL    HW120765   5.855   6.622   1.299
 6622SOL    HW220766   6.017   6.639   1.288
 6623SOL     OW20767   3.048   2.858   5.798
 6623SOL    HW120768   2.965   2.846   5.745
 6623SOL    HW220769   3.089   2.946   5.776
 6624SOL     OW20770   1.150   5.232   5.813
 6624SOL    HW120771   1.119   5.160   5.751
 6624SOL    HW220772   1.146   5.199   5.907
 6625SOL     OW20773   4.760   2.088   5.758
 6625SOL    HW120774   4.790   2.117   5.850
 6625SOL    HW220775   4.836   2.099   5.694
 6626SOL     OW20776   4.999   5.185   5.629
 6626SOL    HW120777   5.021   5.231   5.715
 6626SOL    HW220778   5.061   5.107   5.616
 6627SOL     OW20779   2.208   6.676   4.694
 6627SOL    HW120780   2.171   6.750   4.639
 6627SOL    HW220781   2.281   6.630   4.643
 6628SOL     OW20782   4.614   4.444   4.953
 6628SOL    HW120783   4.603   4.345   4.965
 6628SOL    HW220784   4.528   4.490   4.973
 6629SOL     OW20785   4.428   5.788   0.226
 6629SOL    HW120786   4.514   5.810   0.273
 6629SOL    HW220787   4.375   5.725   0.282
 6630SOL     OW20788   3.972   1.030   1.908
 6630SOL    HW120789   4.044   1.023   1.839
 6630SOL    HW220790   3.998   0.978   1.989
 6631SOL     OW20791   2.747   5.778   3.554
 6631SOL    HW120792   2.777   5.858   3.605
 6631SOL    HW220793   2.663   5.800   3.503
 6632SOL     OW20794   0.115   6.438   1.437
 6632SOL    HW120795   0.102   6.511   1.369
 6632SOL    HW220796   0.030   6.424   1.487
 6633SOL     OW20797   0.530   4.338   6.371
 6633SOL    HW120798   0.629   4.347   6.377
 6633SOL    HW220799   0.487   4.428   6.382
 6634SOL     OW20800   5.460   2.283   3.912
 6634SOL    HW120801   5.428   2.249   4.001
 6634SOL    HW220802   5.482   2.380   3.920
 6635SOL     OW20803   4.538   5.045   3.180
 6635SOL    HW120804   4.490   5.073   3.263
 6635SOL    HW220805   4.551   5.124   3.120
 6636SOL     OW20806   4.753   2.650   5.778
 6636SOL    HW120807   4.825   2.703   5.824
 6636SOL    HW220808   4.677   2.636   5.841
 6637SOL     OW20809   1.497   0.166   6.517
 6637SOL    HW120810   1.411   0.128   6.482
 6637SOL    HW220811   1.525   0.243   6.460
 6638SOL     OW20812   3.367   3.588   3.850
 6638SOL    HW120813   3.306   3.510   3.868
 6638SOL    HW220814   3.458   3.567   3.887
 6639SOL     OW20815   5.354   4.699   6.504
 6639SOL    HW120816   5.377   4.788   6.544
 6639SOL    HW220817   5.271   4.707   6.449
 6640SOL     OW20818   1.431   1.354   4.944
 6640SOL    HW120819   1.413   1.377   5.040
 6640SOL    HW220820   1.529   1.343   4.931
 6641SOL     OW20821   2.041   1.807   6.806
 6641SOL    HW120822   1.954   1.772   6.840
 6641SOL    HW220823   2.096   1.731   6.771
 6642SOL     OW20824   2.836   5.546   6.512
 6642SOL    HW120825   2.751   5.532   6.563
 6642SOL    HW220826   2.887   5.621   6.553
 6643SOL     OW20827   6.023   5.131   0.093
 6643SOL    HW120828   5.995   5.226   0.080
 6643SOL    HW220829   5.996   5.100   0.185
 6644SOL     OW20830   2.079   5.512   2.198
 6644SOL    HW120831   2.037   5.424   2.177
 6644SOL    HW220832   2.172   5.516   2.160
 6645SOL     OW20833   6.522   5.277   0.487
 6645SOL    HW120834   6.589   5.323   0.545
 6645SOL    HW220835   6.529   5.178   0.501
 6646SOL     OW20836   4.439   0.043   4.993
 6646SOL    HW120837   4.457   0.061   5.090
 6646SOL    HW220838   4.349   0.001   4.983
 6647SOL     OW20839   4.675   0.926   2.142
 6647SOL    HW120840   4.670   0.853   2.075
 6647SOL    HW220841   4.683   1.014   2.095
 6648SOL     OW20842   4.305   6.482   3.063
 6648SOL    HW120843   4.349   6.420   2.998
 6648SOL    HW220844   4.336   6.461   3.156
 6649SOL     OW20845   5.013   0.975   6.758
 6649SOL    HW120846   5.060   0.908   6.701
 6649SOL    HW220847   4.995   0.937   6.849
 6650SOL     OW20848   3.337   1.564   5.542
 6650SOL    HW120849   3.264   1.599   5.602
 6650SOL    HW220850   3.297   1.505   5.472
 6651SOL     OW20851   1.959   1.946   5.489
 6651SOL    HW120852   1.879   1.966   5.432
 6651SOL    HW220853   1.929   1.911   5.577
 6652SOL     OW20854   0.830   4.580   0.782
 6652SOL    HW120855   0.826   4.482   0.800
 6652SOL    HW220856   0.839   4.629   0.869
 6653SOL     OW20857   3.074   3.261   2.491
 6653SOL    HW120858   3.108   3.167   2.482
 6653SOL    HW220859   3.037   3.292   2.404
 6654SOL     OW20860   1.375   4.028   1.450
 6654SOL    HW120861   1.406   4.088   1.523
 6654SOL    HW220862   1.394   4.071   1.361
 6655SOL     OW20863   0.895   0.156   3.364
 6655SOL    HW120864   0.853   0.078   3.411
 6655SOL    HW220865   0.883   0.146   3.265
 6656SOL     OW20866   5.668   1.785   3.591
 6656SOL    HW120867   5.630   1.693   3.600
 6656SOL    HW220868   5.754   1.790   3.643
 6657SOL     OW20869   5.808   5.794   6.182
 6657SOL    HW120870   5.773   5.869   6.238
 6657SOL    HW220871   5.756   5.711   6.201
 6658SOL     OW20872   6.837   0.877   4.316
 6658SOL    HW120873   6.779   0.908   4.240
 6658SOL    HW220874   6.830   0.778   4.325
 6659SOL     OW20875   2.040   2.321   0.356
 6659SOL    HW120876   2.095   2.239   0.342
 6659SOL    HW220877   2.100   2.396   0.385
 6660SOL     OW20878   1.259   5.131   1.270
 6660SOL    HW120879   1.292   5.143   1.364
 6660SOL    HW220880   1.179   5.188   1.256
 6661SOL     OW20881   1.111   6.601   5.120
 6661SOL    HW120882   1.156   6.688   5.101
 6661SOL    HW220883   1.068   6.605   5.211
 6662SOL     OW20884   1.213   0.822   0.078
 6662SOL    HW120885   1.262   0.900   0.115
 6662SOL    HW220886   1.260   0.737   0.104
 6663SOL     OW20887   6.930   4.570   3.916
 6663SOL    HW120888   7.005   4.573   3.850
 6663SOL    HW220889   6.846   4.604   3.873
 6664SOL     OW20890   2.064   6.226   0.553
 6664SOL    HW120891   2.053   6.237   0.455
 6664SOL    HW220892   2.025   6.138   0.581
 6665SOL     OW20893   1.956   6.562   4.212
 6665SOL    HW120894   2.053   6.552   4.189
 6665SOL    HW220895   1.919   6.641   4.163
 6666SOL     OW20896   6.334   6.866   5.091
 6666SOL    HW120897   6.253   6.898   5.042
 6666SOL    HW220898   6.320   6.880   5.189
 6667SOL     OW20899   6.505   6.080   6.861
 6667SOL    HW120900   6.581   6.063   6.799
 6667SOL    HW220901   6.420   6.045   6.821
 6668SOL     OW20902   0.100   5.458   1.381
 6668SOL    HW120903   0.130   5.549   1.408
 6668SOL    HW220904   0.118   5.444   1.283
 6669SOL     OW20905   1.648   3.332   3.575
 6669SOL    HW120906   1.676   3.428   3.567
 6669SOL    HW220907   1.691   3.291   3.656
 6670SOL     OW20908   3.513   2.082   5.534
 6670SOL    HW120909   3.461   2.153   5.487
 6670SOL    HW220910   3.498   2.091   5.633
 6671SOL     OW20911   6.225   5.804   0.470
 6671SOL    HW120912   6.320   5.833   0.482
 6671SOL    HW220913   6.174   5.877   0.424
 6672SOL     OW20914   6.361   1.761   6.385
 6672SOL    HW120915   6.341   1.684   6.445
 6672SOL    HW220916   6.339   1.847   6.432
 6673SOL     OW20917   5.791   5.544   4.347
 6673SOL    HW120918   5.698   5.581   4.344
 6673SOL    HW220919   5.857   5.614   4.321
 6674SOL     OW20920   0.780   4.984   5.947
 6674SOL    HW120921   0.791   5.045   6.026
 6674SOL    HW220922   0.848   4.911   5.952
 6675SOL     OW20923   4.803   3.781   1.802
 6675SOL    HW120924   4.813   3.684   1.820
 6675SOL    HW220925   4.708   3.801   1.779
 6676SOL     OW20926   0.039   3.124   5.466
 6676SOL    HW120927   7.021   3.145   5.376
 6676SOL    HW220928   0.073   3.209   5.507
 6677SOL     OW20929   1.172   1.399   6.686
 6677SOL    HW120930   1.112   1.478   6.701
 6677SOL    HW220931   1.181   1.347   6.771
 6678SOL     OW20932   3.076   3.175   6.699
 6678SOL    HW120933   3.116   3.266   6.706
 6678SOL    HW220934   3.105   3.132   6.614
 6679SOL     OW20935   2.701   1.248   3.820
 6679SOL    HW120936   2.766   1.183   3.861
 6679SOL    HW220937   2.674   1.316   3.889
 6680SOL     OW20938   4.633   6.891   6.836
 6680SOL    HW120939   4.617   6.795   6.810
 6680SOL    HW220940   4.554   6.925   6.886
 6681SOL     OW20941   4.410   5.776   1.645
 6681SOL    HW120942   4.402   5.861   1.593
 6681SOL    HW220943   4.357   5.783   1.730
 6682SOL     OW20944   0.107   4.556   2.633
 6682SOL    HW120945   0.033   4.514   2.580
 6682SOL    HW220946   0.186   4.495   2.633
 6683SOL     OW20947   5.824   2.775   5.526
 6683SOL    HW120948   5.910   2.726   5.511
 6683SOL    HW220949   5.749   2.724   5.484
 6684SOL     OW20950   2.835   0.157   1.734
 6684SOL    HW120951   2.933   0.160   1.714
 6684SOL    HW220952   2.815   0.217   1.811
 6685SOL     OW20953   6.386   3.574   5.572
 6685SOL    HW120954   6.377   3.625   5.486
 6685SOL    HW220955   6.436   3.489   5.555
 6686SOL     OW20956   5.391   5.822   4.244
 6686SOL    HW120957   5.439   5.902   4.280
 6686SOL    HW220958   5.388   5.827   4.144
 6687SOL     OW20959   1.082   3.288   0.286
 6687SOL    HW120960   1.067   3.348   0.364
 6687SOL    HW220961   1.139   3.335   0.218
 6688SOL     OW20962   0.270   3.988   2.694
 6688SOL    HW120963   0.363   3.969   2.723
 6688SOL    HW220964   0.270   4.013   2.597
 6689SOL     OW20965   4.649   3.032   0.455
 6689SOL    HW120966   4.667   2.968   0.380
 6689SOL    HW220967   4.689   2.996   0.539
 6690SOL     OW20968   2.039   0.699   1.089
 6690SOL    HW120969   2.123   0.645   1.086
 6690SOL    HW220970   1.960   0.638   1.087
 6691SOL     OW20971   2.589   6.557   0.990
 6691SOL    HW120972   2.662   6.527   1.052
 6691SOL    HW220973   2.580   6.656   0.994
 6692SOL     OW20974   3.893   4.099   4.847
 6692SOL    HW120975   3.923   4.058   4.761
 6692SOL    HW220976   3.797   4.126   4.838
 6693SOL     OW20977   4.158   3.841   5.143
 6693SOL    HW120978   4.192   3.780   5.072
 6693SOL    HW220979   4.089   3.903   5.104
 6694SOL     OW20980   4.168   6.062   1.074
 6694SOL    HW120981   4.247   6.056   1.136
 6694SOL    HW220982   4.168   6.152   1.031
 6695SOL     OW20983   3.282   1.466   0.041
 6695SOL    HW120984   3.377   1.496   0.051
 6695SOL    HW220985   3.238   1.464   0.131
 6696SOL     OW20986   2.089   3.005   5.420
 6696SOL    HW120987   2.082   3.025   5.518
 6696SOL    HW220988   2.045   3.079   5.368
 6697SOL     OW20989   4.345   2.352   2.303
 6697SOL    HW120990   4.364   2.279   2.368
 6697SOL    HW220991   4.252   2.340   2.266
 6698SOL     OW20992   2.950   2.518   1.246
 6698SOL    HW120993   3.040   2.477   1.258
 6698SOL    HW220994   2.953   2.588   1.175
 6699SOL     OW20995   2.602   5.009   6.526
 6699SOL    HW120996   2.634   4.917   6.503
 6699SOL    HW220997   2.606   5.022   6.625
 6700SOL     OW20998   0.018   6.783   1.079
 6700SOL    HW120999   6.981   6.753   1.004
 6700SOL    HW221000   0.085   6.848   1.045
 6701SOL     OW21001   5.676   3.037   1.340
 6701SOL    HW121002   5.730   3.044   1.423
 6701SOL    HW221003   5.581   3.064   1.360
 6702SOL     OW21004   3.005   1.702   1.864
 6702SOL    HW121005   2.966   1.630   1.806
 6702SOL    HW221006   3.044   1.774   1.806
 6703SOL     OW21007   6.419   2.374   6.794
 6703SOL    HW121008   6.377   2.433   6.725
 6703SOL    HW221009   6.438   2.428   6.876
 6704SOL     OW21010   3.514   2.110   3.094
 6704SOL    HW121011   3.592   2.116   3.032
 6704SOL    HW221012   3.545   2.123   3.188
 6705SOL     OW21013   6.591   2.732   1.267
 6705SOL    HW121014   6.577   2.633   1.265
 6705SOL    HW221015   6.688   2.753   1.259
 6706SOL     OW21016   1.295   4.023   1.959
 6706SOL    HW121017   1.309   3.953   2.029
 6706SOL    HW221018   1.364   4.095   1.970
 6707SOL     OW21019   6.568   6.032   3.749
 6707SOL    HW121020   6.565   6.132   3.741
 6707SOL    HW221021   6.524   5.992   3.668
 6708SOL     OW21022   6.920   4.959   1.564
 6708SOL    HW121023   6.961   4.892   1.625
 6708SOL    HW221024   6.824   4.935   1.548
 6709SOL     OW21025   2.792   6.795   2.951
 6709SOL    HW121026   2.875   6.740   2.939
 6709SOL    HW221027   2.807   6.863   3.023
 6710SOL     OW21028   3.764   1.053   6.217
 6710SOL    HW121029   3.846   0.998   6.207
 6710SOL    HW221030   3.753   1.080   6.313
 6711SOL     OW21031   4.836   5.476   6.309
 6711SOL    HW121032   4.888   5.556   6.279
 6711SOL    HW221033   4.791   5.496   6.396
 6712SOL     OW21034   4.858   4.639   0.043
 6712SOL    HW121035   4.761   4.665   0.051
 6712SOL    HW221036   4.914   4.721   0.047
 6713SOL     OW21037   2.237   0.591   2.491
 6713SOL    HW121038   2.308   0.589   2.420
 6713SOL    HW221039   2.207   0.685   2.505
 6714SOL     OW21040   6.091   1.544   6.127
 6714SOL    HW121041   6.143   1.479   6.072
 6714SOL    HW221042   6.063   1.500   6.212
 6715SOL     OW21043   0.017   6.760   6.725
 6715SOL    HW121044   6.953   6.808   6.709
 6715SOL    HW221045   0.036   6.759   6.823
 6716SOL     OW21046   0.511   5.955   1.463
 6716SOL    HW121047   0.477   6.041   1.424
 6716SOL    HW221048   0.573   5.911   1.399
 6717SOL     OW21049   4.443   2.903   6.764
 6717SOL    HW121050   4.375   2.935   6.699
 6717SOL    HW221051   4.499   2.832   6.721
 6718SOL     OW21052   5.423   6.893   0.082
 6718SOL    HW121053   5.375   6.818   0.038
 6718SOL    HW221054   5.414   6.976   0.026
 6719SOL     OW21055   2.078   6.920   6.843
 6719SOL    HW121056   2.013   6.994   6.824
 6719SOL    HW221057   2.145   6.951   6.910
 6720SOL     OW21058   0.690   6.689   3.816
 6720SOL    HW121059   0.650   6.724   3.731
 6720SOL    HW221060   0.755   6.616   3.795
 6721SOL     OW21061   6.230   0.428   6.213
 6721SOL    HW121062   6.295   0.498   6.244
 6721SOL    HW221063   6.265   0.385   6.130
 6722SOL     OW21064   0.153   3.235   1.336
 6722SOL    HW121065   0.137   3.195   1.245
 6722SOL    HW221066   0.182   3.330   1.326
 6723SOL     OW21067   2.385   6.793   3.114
 6723SOL    HW121068   2.410   6.889   3.116
 6723SOL    HW221069   2.329   6.771   3.194
 6724SOL     OW21070   1.511   3.786   5.790
 6724SOL    HW121071   1.582   3.797   5.859
 6724SOL    HW221072   1.503   3.689   5.766
 6725SOL     OW21073   0.461   3.612   1.423
 6725SOL    HW121074   0.377   3.633   1.473
 6725SOL    HW221075   0.439   3.553   1.345
 6726SOL     OW21076   0.854   1.957   5.222
 6726SOL    HW121077   0.899   1.940   5.135
 6726SOL    HW221078   0.884   2.045   5.258
 6727SOL     OW21079   5.956   3.673   5.348
 6727SOL    HW121080   5.941   3.659   5.446
 6727SOL    HW221081   5.929   3.766   5.323
 6728SOL     OW21082   4.327   1.173   3.124
 6728SOL    HW121083   4.400   1.107   3.105
 6728SOL    HW221084   4.256   1.128   3.179
 6729SOL     OW21085   0.043   1.457   2.554
 6729SOL    HW121086   0.048   1.377   2.495
 6729SOL    HW221087   0.121   1.458   2.616
 6730SOL     OW21088   2.521   6.424   7.006
 6730SOL    HW121089   2.599   6.430   6.944
 6730SOL    HW221090   2.523   6.336   0.031
 6731SOL     OW21091   0.884   6.099   1.766
 6731SOL    HW121092   0.805   6.044   1.742
 6731SOL    HW221093   0.968   6.049   1.744
 6732SOL     OW21094   5.554   4.706   5.687
 6732SOL    HW121095   5.650   4.732   5.671
 6732SOL    HW221096   5.544   4.607   5.673
 6733SOL     OW21097   3.822   4.814   0.037
 6733SOL    HW121098   3.757   4.848   6.990
 6733SOL    HW221099   3.905   4.783   7.013
 6734SOL     OW21100   6.580   2.070   5.053
 6734SOL    HW121101   6.483   2.071   5.074
 6734SOL    HW221102   6.631   2.039   5.134
 6735SOL     OW21103   0.070   4.182   4.400
 6735SOL    HW121104   0.079   4.135   4.487
 6735SOL    HW221105   0.096   4.120   4.326
 6736SOL     OW21106   3.263   3.788   6.972
 6736SOL    HW121107   3.194   3.860   6.966
 6736SOL    HW221108   3.230   3.717   0.012
 6737SOL     OW21109   2.026   2.543   0.738
 6737SOL    HW121110   1.975   2.582   0.815
 6737SOL    HW221111   2.088   2.472   0.771
 6738SOL     OW21112   1.857   4.987   2.650
 6738SOL    HW121113   1.784   5.008   2.586
 6738SOL    HW221114   1.943   4.976   2.600
 6739SOL     OW21115   3.961   5.707   5.638
 6739SOL    HW121116   3.913   5.696   5.725
 6739SOL    HW221117   4.059   5.708   5.655
 6740SOL     OW21118   1.781   1.034   4.195
 6740SOL    HW121119   1.707   0.993   4.249
 6740SOL    HW221120   1.742   1.076   4.113
 6741SOL     OW21121   3.997   1.015   5.361
 6741SOL    HW121122   4.034   1.090   5.306
 6741SOL    HW221123   4.030   1.024   5.455
 6742SOL     OW21124   6.381   6.110   2.811
 6742SOL    HW121125   6.415   6.163   2.888
 6742SOL    HW221126   6.410   6.015   2.821
 6743SOL     OW21127   4.036   5.085   0.156
 6743SOL    HW121128   4.043   5.179   0.187
 6743SOL    HW221129   3.998   5.028   0.229
 6744SOL     OW21130   5.644   5.199   6.038
 6744SOL    HW121131   5.672   5.158   6.124
 6744SOL    HW221132   5.566   5.148   6.000
 6745SOL     OW21133   0.315   0.490   2.807
 6745SOL    HW121134   0.273   0.492   2.898
 6745SOL    HW221135   0.399   0.436   2.811
 6746SOL     OW21136   1.102   1.199   3.136
 6746SOL    HW121137   1.155   1.273   3.178
 6746SOL    HW221138   1.094   1.124   3.201
 6747SOL     OW21139   5.391   0.724   5.387
 6747SOL    HW121140   5.344   0.660   5.326
 6747SOL    HW221141   5.467   0.678   5.432
 6748SOL     OW21142   1.308   0.625   3.696
 6748SOL    HW121143   1.276   0.632   3.602
 6748SOL    HW221144   1.259   0.551   3.742
 6749SOL     OW21145   2.698   6.144   0.063
 6749SOL    HW121146   2.711   6.205   0.141
 6749SOL    HW221147   2.658   6.058   0.094
 6750SOL     OW21148   4.249   2.192   5.494
 6750SOL    HW121149   4.265   2.093   5.491
 6750SOL    HW221150   4.253   2.224   5.588
 6751SOL     OW21151   4.516   0.601   3.596
 6751SOL    HW121152   4.477   0.534   3.533
 6751SOL    HW221153   4.444   0.637   3.655
 6752SOL     OW21154   0.394   2.622   3.038
 6752SOL    HW121155   0.388   2.687   3.114
 6752SOL    HW221156   0.356   2.534   3.067
 6753SOL     OW21157   4.371   0.585   6.128
 6753SOL    HW121158   4.349   0.681   6.147
 6753SOL    HW221159   4.406   0.542   6.211
 6754SOL     OW21160   0.044   1.634   6.805
 6754SOL    HW121161   0.004   1.549   6.839
 6754SOL    HW221162   0.087   1.683   6.881
 6755SOL     OW21163   4.258   0.589   3.415
 6755SOL    HW121164   4.177   0.550   3.460
 6755SOL    HW221165   4.258   0.688   3.428
 6756SOL     OW21166   3.898   5.311   5.161
 6756SOL    HW121167   3.925   5.320   5.065
 6756SOL    HW221168   3.958   5.246   5.206
 6757SOL     OW21169   4.379   0.556   1.128
 6757SOL    HW121170   4.298   0.564   1.186
 6757SOL    HW221171   4.391   0.460   1.101
 6758SOL     OW21172   6.917   2.775   1.107
 6758SOL    HW121173   7.012   2.753   1.130
 6758SOL    HW221174   6.876   2.698   1.058
 6759SOL     OW21175   0.890   5.117   4.136
 6759SOL    HW121176   0.825   5.043   4.115
 6759SOL    HW221177   0.886   5.186   4.063
 6760SOL     OW21178   6.533   5.028   3.382
 6760SOL    HW121179   6.625   5.026   3.423
 6760SOL    HW221180   6.515   5.119   3.346
 6761SOL     OW21181   6.332   1.973   6.090
 6761SOL    HW121182   6.333   1.880   6.054
 6761SOL    HW221183   6.414   1.989   6.145
 6762SOL     OW21184   0.003   5.421   3.146
 6762SOL    HW121185   0.085   5.419   3.205
 6762SOL    HW221186   6.998   5.516   3.130
 6763SOL     OW21187   0.366   5.307   3.675
 6763SOL    HW121188   0.272   5.327   3.648
 6763SOL    HW221189   0.367   5.256   3.761
 6764SOL     OW21190   2.931   5.068   6.713
 6764SOL    HW121191   2.925   5.098   6.617
 6764SOL    HW221192   2.843   5.030   6.741
 6765SOL     OW21193   4.978   4.680   4.214
 6765SOL    HW121194   4.981   4.581   4.211
 6765SOL    HW221195   4.990   4.711   4.308
 6766SOL     OW21196   4.856   6.194   6.395
 6766SOL    HW121197   4.943   6.231   6.362
 6766SOL    HW221198   4.803   6.160   6.317
 6767SOL     OW21199   0.837   2.541   0.199
 6767SOL    HW121200   0.774   2.475   0.239
 6767SOL    HW221201   0.787   2.604   0.139
 6768SOL     OW21202   0.553   6.454   3.335
 6768SOL    HW121203   0.533   6.483   3.429
 6768SOL    HW221204   0.588   6.532   3.283
 6769SOL     OW21205   2.904   7.001   5.558
 6769SOL    HW121206   2.810   0.009   5.567
 6769SOL    HW221207   2.961   0.054   5.525
 6770SOL     OW21208   5.984   1.854   2.995
 6770SOL    HW121209   5.995   1.791   3.072
 6770SOL    HW221210   5.917   1.924   3.019
 6771SOL     OW21211   3.420   1.415   2.026
 6771SOL    HW121212   3.362   1.338   2.001
 6771SOL    HW221213   3.456   1.401   2.119
 6772SOL     OW21214   4.568   2.044   2.339
 6772SOL    HW121215   4.575   2.060   2.240
 6772SOL    HW221216   4.536   1.951   2.356
 6773SOL     OW21217   0.260   6.417   1.722
 6773SOL    HW121218   0.248   6.515   1.706
 6773SOL    HW221219   0.171   6.372   1.723
 6774SOL     OW21220   1.571   2.861   4.315
 6774SOL    HW121221   1.596   2.793   4.384
 6774SOL    HW221222   1.651   2.917   4.293
 6775SOL     OW21223   0.713   2.097   3.407
 6775SOL    HW121224   0.710   2.141   3.497
 6775SOL    HW221225   0.796   2.126   3.359
 6776SOL     OW21226   4.267   3.628   1.531
 6776SOL    HW121227   4.180   3.605   1.487
 6776SOL    HW221228   4.258   3.620   1.630
 6777SOL     OW21229   4.781   5.577   0.657
 6777SOL    HW121230   4.862   5.552   0.604
 6777SOL    HW221231   4.751   5.669   0.632
 6778SOL     OW21232   6.051   4.096   2.251
 6778SOL    HW121233   6.043   4.079   2.350
 6778SOL    HW221234   5.970   4.060   2.205
 6779SOL     OW21235   5.315   4.476   5.942
 6779SOL    HW121236   5.272   4.459   5.853
 6779SOL    HW221237   5.329   4.389   5.990
 6780SOL     OW21238   1.098   3.762   2.780
 6780SOL    HW121239   1.130   3.674   2.746
 6780SOL    HW221240   0.999   3.759   2.792
 6781SOL     OW21241   6.749   1.858   3.778
 6781SOL    HW121242   6.783   1.890   3.689
 6781SOL    HW221243   6.802   1.900   3.851
 6782SOL     OW21244   0.831   1.490   2.857
 6782SOL    HW121245   0.826   1.392   2.835
 6782SOL    HW221246   0.883   1.502   2.941
 6783SOL     OW21247   0.988   3.343   5.644
 6783SOL    HW121248   1.064   3.363   5.705
 6783SOL    HW221249   0.982   3.413   5.573
 6784SOL     OW21250   2.269   4.286   1.208
 6784SOL    HW121251   2.248   4.380   1.233
 6784SOL    HW221252   2.198   4.226   1.244
 6785SOL     OW21253   5.825   4.774   5.629
 6785SOL    HW121254   5.833   4.693   5.572
 6785SOL    HW221255   5.901   4.778   5.693
 6786SOL     OW21256   0.430   3.116   6.321
 6786SOL    HW121257   0.467   3.064   6.245
 6786SOL    HW221258   0.393   3.203   6.287
 6787SOL     OW21259   3.425   1.850   1.328
 6787SOL    HW121260   3.448   1.946   1.346
 6787SOL    HW221261   3.508   1.801   1.299
 6788SOL     OW21262   0.273   4.315   2.673
 6788SOL    HW121263   0.360   4.318   2.722
 6788SOL    HW221264   0.247   4.219   2.657
 6789SOL     OW21265   6.988   4.258   3.779
 6789SOL    HW121266   6.929   4.274   3.858
 6789SOL    HW221267   6.955   4.314   3.702
 6790SOL     OW21268   0.386   4.522   0.021
 6790SOL    HW121269   0.479   4.488   0.028
 6790SOL    HW221270   0.356   4.517   6.948
 6791SOL     OW21271   4.311   2.051   2.521
 6791SOL    HW121272   4.333   1.982   2.452
 6791SOL    HW221273   4.239   2.016   2.581
 6792SOL     OW21274   4.944   7.015   5.342
 6792SOL    HW121275   4.846   7.010   5.363
 6792SOL    HW221276   4.995   0.015   5.424
 6793SOL     OW21277   3.355   0.595   6.909
 6793SOL    HW121278   3.443   0.561   6.943
 6793SOL    HW221279   3.295   0.615   6.987
 6794SOL     OW21280   5.069   1.110   5.173
 6794SOL    HW121281   5.027   1.157   5.251
 6794SOL    HW221282   5.001   1.099   5.101
 6795SOL     OW21283   0.737   6.530   0.392
 6795SOL    HW121284   0.752   6.564   0.485
 6795SOL    HW221285   0.668   6.457   0.394
 6796SOL     OW21286   5.723   0.230   2.385
 6796SOL    HW121287   5.674   0.316   2.395
 6796SOL    HW221288   5.822   0.247   2.388
 6797SOL     OW21289   6.345   1.684   0.332
 6797SOL    HW121290   6.266   1.649   0.283
 6797SOL    HW221291   6.403   1.736   0.270
 6798SOL     OW21292   6.519   0.292   1.473
 6798SOL    HW121293   6.496   0.314   1.568
 6798SOL    HW221294   6.435   0.291   1.419
 6799SOL     OW21295   5.502   0.050   2.511
 6799SOL    HW121296   5.594   0.085   2.530
 6799SOL    HW221297   5.472   0.084   2.422
 6800SOL     OW21298   2.454   2.535   1.801
 6800SOL    HW121299   2.545   2.500   1.778
 6800SOL    HW221300   2.405   2.467   1.856
 6801SOL     OW21301   0.866   6.491   3.745
 6801SOL    HW121302   0.866   6.439   3.660
 6801SOL    HW221303   0.956   6.532   3.758
 6802SOL     OW21304   3.721   6.067   1.526
 6802SOL    HW121305   3.719   5.968   1.514
 6802SOL    HW221306   3.705   6.089   1.622
 6803SOL     OW21307   4.165   4.501   6.686
 6803SOL    HW121308   4.091   4.541   6.631
 6803SOL    HW221309   4.236   4.465   6.626
 6804SOL     OW21310   3.677   5.006   3.156
 6804SOL    HW121311   3.689   5.103   3.178
 6804SOL    HW221312   3.760   4.956   3.179
 6805SOL     OW21313   0.451   5.060   6.761
 6805SOL    HW121314   0.440   5.025   6.668
 6805SOL    HW221315   0.506   4.996   6.815
 6806SOL     OW21316   6.770   0.559   4.099
 6806SOL    HW121317   6.706   0.617   4.048
 6806SOL    HW221318   6.802   0.484   4.040
 6807SOL     OW21319   3.804   3.981   3.120
 6807SOL    HW121320   3.800   4.004   3.023
 6807SOL    HW221321   3.897   3.957   3.145
 6808SOL     OW21322   6.402   1.372   4.990
 6808SOL    HW121323   6.435   1.340   4.901
 6808SOL    HW221324   6.443   1.461   5.011
 6809SOL     OW21325   6.581   3.446   0.491
 6809SOL    HW121326   6.639   3.372   0.460
 6809SOL    HW221327   6.500   3.408   0.536
 6810SOL     OW21328   3.099   0.877   2.228
 6810SOL    HW121329   3.118   0.857   2.324
 6810SOL    HW221330   3.116   0.795   2.173
 6811SOL     OW21331   6.174   2.944   2.527
 6811SOL    HW121332   6.178   2.845   2.543
 6811SOL    HW221333   6.223   2.966   2.442
 6812SOL     OW21334   3.411   4.066   5.103
 6812SOL    HW121335   3.334   4.100   5.049
 6812SOL    HW221336   3.379   4.034   5.191
 6813SOL     OW21337   5.746   3.318   2.596
 6813SOL    HW121338   5.659   3.366   2.585
 6813SOL    HW221339   5.729   3.219   2.598
 6814SOL     OW21340   4.821   1.611   6.728
 6814SOL    HW121341   4.763   1.542   6.771
 6814SOL    HW221342   4.780   1.702   6.738
 6815SOL     OW21343   2.387   6.292   6.590
 6815SOL    HW121344   2.463   6.284   6.655
 6815SOL    HW221345   2.301   6.272   6.636
 6816SOL     OW21346   6.788   1.527   5.306
 6816SOL    HW121347   6.780   1.467   5.226
 6816SOL    HW221348   6.867   1.500   5.361
 6817SOL     OW21349   2.457   2.653   3.946
 6817SOL    HW121350   2.368   2.640   3.901
 6817SOL    HW221351   2.530   2.627   3.883
 6818SOL     OW21352   1.811   6.927   0.019
 6818SOL    HW121353   1.866   6.916   0.102
 6818SOL    HW221354   1.797   6.838   6.998
 6819SOL     OW21355   4.898   1.206   2.912
 6819SOL    HW121356   4.807   1.243   2.930
 6819SOL    HW221357   4.916   1.207   2.813
 6820SOL     OW21358   1.094   5.752   1.508
 6820SOL    HW121359   1.077   5.809   1.589
 6820SOL    HW221360   1.013   5.753   1.449
 6821SOL     OW21361   4.625   3.016   5.765
 6821SOL    HW121362   4.542   2.965   5.742
 6821SOL    HW221363   4.599   3.105   5.802
 6822SOL     OW21364   6.293   2.831   6.021
 6822SOL    HW121365   6.382   2.873   6.001
 6822SOL    HW221366   6.231   2.900   6.059
 6823SOL     OW21367   5.667   4.139   6.503
 6823SOL    HW121368   5.572   4.166   6.485
 6823SOL    HW221369   5.725   4.220   6.505
 6824SOL     OW21370   1.824   1.494   0.484
 6824SOL    HW121371   1.809   1.592   0.477
 6824SOL    HW221372   1.861   1.472   0.574
 6825SOL     OW21373   6.359   6.924   0.329
 6825SOL    HW121374   6.418   6.846   0.346
 6825SOL    HW221375   6.264   6.900   0.349
 6826SOL     OW21376   1.164   3.762   3.685
 6826SOL    HW121377   1.110   3.839   3.720
 6826SOL    HW221378   1.259   3.791   3.674
 6827SOL     OW21379   4.999   5.566   5.765
 6827SOL    HW121380   5.012   5.660   5.799
 6827SOL    HW221381   4.910   5.559   5.721
 6828SOL     OW21382   3.814   1.397   2.605
 6828SOL    HW121383   3.743   1.453   2.648
 6828SOL    HW221384   3.902   1.442   2.616
 6829SOL     OW21385   5.328   6.785   5.406
 6829SOL    HW121386   5.424   6.759   5.415
 6829SOL    HW221387   5.321   6.885   5.411
 6830SOL     OW21388   5.755   0.689   3.313
 6830SOL    HW121389   5.741   0.599   3.272
 6830SOL    HW221390   5.833   0.686   3.376
 6831SOL     OW21391   1.706   1.160   5.702
 6831SOL    HW121392   1.730   1.064   5.685
 6831SOL    HW221393   1.615   1.165   5.741
 6832SOL     OW21394   2.520   3.975   0.469
 6832SOL    HW121395   2.474   3.999   0.384
 6832SOL    HW221396   2.571   4.053   0.502
 6833SOL     OW21397   2.454   4.590   6.352
 6833SOL    HW121398   2.485   4.682   6.328
 6833SOL    HW221399   2.534   4.533   6.374
 6834SOL     OW21400   6.001   0.124   1.288
 6834SOL    HW121401   5.936   0.108   1.363
 6834SOL    HW221402   5.952   0.119   1.201
 6835SOL     OW21403   3.708   1.486   4.340
 6835SOL    HW121404   3.679   1.490   4.244
 6835SOL    HW221405   3.786   1.547   4.353
 6836SOL     OW21406   2.492   3.969   6.111
 6836SOL    HW121407   2.454   4.033   6.178
 6836SOL    HW221408   2.589   3.990   6.095
 6837SOL     OW21409   0.531   2.087   2.570
 6837SOL    HW121410   0.616   2.034   2.576
 6837SOL    HW221411   0.550   2.183   2.593
 6838SOL     OW21412   2.776   3.919   6.198
 6838SOL    HW121413   2.715   3.907   6.276
 6838SOL    HW221414   2.870   3.931   6.230
 6839SOL     OW21415   5.194   1.278   4.587
 6839SOL    HW121416   5.263   1.212   4.618
 6839SOL    HW221417   5.137   1.304   4.665
 6840SOL     OW21418   3.062   6.643   5.479
 6840SOL    HW121419   3.011   6.726   5.459
 6840SOL    HW221420   3.031   6.569   5.420
 6841SOL     OW21421   4.167   5.155   0.753
 6841SOL    HW121422   4.131   5.089   0.687
 6841SOL    HW221423   4.115   5.149   0.838
 6842SOL     OW21424   2.305   2.553   6.991
 6842SOL    HW121425   2.296   2.454   7.002
 6842SOL    HW221426   2.294   2.597   0.058
 6843SOL     OW21427   5.327   0.392   2.466
 6843SOL    HW121428   5.320   0.369   2.563
 6843SOL    HW221429   5.332   0.308   2.412
 6844SOL     OW21430   6.186   6.140   4.227
 6844SOL    HW121431   6.174   6.187   4.315
 6844SOL    HW221432   6.182   6.207   4.153
 6845SOL     OW21433   5.309   4.402   2.531
 6845SOL    HW121434   5.407   4.387   2.526
 6845SOL    HW221435   5.284   4.432   2.623
 6846SOL     OW21436   4.124   3.168   1.438
 6846SOL    HW121437   4.184   3.221   1.378
 6846SOL    HW221438   4.102   3.081   1.396
 6847SOL     OW21439   6.913   3.902   2.083
 6847SOL    HW121440   6.918   3.853   2.170
 6847SOL    HW221441   6.969   3.855   2.015
 6848SOL     OW21442   2.822   6.441   3.437
 6848SOL    HW121443   2.820   6.415   3.340
 6848SOL    HW221444   2.859   6.366   3.491
 6849SOL     OW21445   2.750   5.530   4.683
 6849SOL    HW121446   2.714   5.621   4.661
 6849SOL    HW221447   2.764   5.522   4.782
 6850SOL     OW21448   5.321   3.404   2.580
 6850SOL    HW121449   5.405   3.456   2.592
 6850SOL    HW221450   5.314   3.374   2.485
 6851SOL     OW21451   1.429   2.851   4.082
 6851SOL    HW121452   1.494   2.846   4.158
 6851SOL    HW221453   1.434   2.767   4.028
 6852SOL     OW21454   1.121   4.553   1.011
 6852SOL    HW121455   1.027   4.578   1.034
 6852SOL    HW221456   1.167   4.632   0.970
 6853SOL     OW21457   6.744   3.306   6.433
 6853SOL    HW121458   6.701   3.220   6.406
 6853SOL    HW221459   6.679   3.381   6.421
 6854SOL     OW21460   6.096   1.955   5.825
 6854SOL    HW121461   6.144   1.899   5.893
 6854SOL    HW221462   6.065   1.896   5.750
 6855SOL     OW21463   3.305   6.006   2.491
 6855SOL    HW121464   3.373   6.078   2.500
 6855SOL    HW221465   3.343   5.931   2.436
 6856SOL     OW21466   5.448   4.651   5.384
 6856SOL    HW121467   5.496   4.716   5.443
 6856SOL    HW221468   5.368   4.615   5.431
 6857SOL     OW21469   3.678   1.885   6.802
 6857SOL    HW121470   3.624   1.963   6.834
 6857SOL    HW221471   3.765   1.881   6.850
 6858SOL     OW21472   3.966   3.335   4.085
 6858SOL    HW121473   3.980   3.263   4.153
 6858SOL    HW221474   3.868   3.343   4.065
 6859SOL     OW21475   1.404   6.503   1.417
 6859SOL    HW121476   1.326   6.495   1.479
 6859SOL    HW221477   1.462   6.578   1.446
 6860SOL     OW21478   5.719   5.212   1.452
 6860SOL    HW121479   5.818   5.202   1.443
 6860SOL    HW221480   5.685   5.147   1.520
 6861SOL     OW21481   5.861   4.300   0.885
 6861SOL    HW121482   5.765   4.298   0.859
 6861SOL    HW221483   5.918   4.300   0.803
 6862SOL     OW21484   2.115   4.421   4.666
 6862SOL    HW121485   2.128   4.436   4.764
 6862SOL    HW221486   2.201   4.389   4.626
 6863SOL     OW21487   5.676   1.405   4.744
 6863SOL    HW121488   5.668   1.384   4.841
 6863SOL    HW221489   5.588   1.385   4.699
 6864SOL     OW21490   3.612   6.057   3.784
 6864SOL    HW121491   3.646   6.150   3.776
 6864SOL    HW221492   3.609   6.015   3.693
 6865SOL     OW21493   6.421   5.374   2.635
 6865SOL    HW121494   6.449   5.440   2.704
 6865SOL    HW221495   6.432   5.414   2.544
 6866SOL     OW21496   6.323   4.363   2.239
 6866SOL    HW121497   6.322   4.303   2.319
 6866SOL    HW221498   6.388   4.437   2.253
 6867SOL     OW21499   1.475   4.474   1.288
 6867SOL    HW121500   1.381   4.456   1.317
 6867SOL    HW221501   1.475   4.505   1.193
 6868SOL     OW21502   1.417   5.229   5.858
 6868SOL    HW121503   1.425   5.188   5.949
 6868SOL    HW221504   1.321   5.237   5.834
 6869SOL     OW21505   5.889   1.560   5.582
 6869SOL    HW121506   5.948   1.479   5.583
 6869SOL    HW221507   5.802   1.537   5.538
 6870SOL     OW21508   0.147   4.751   2.241
 6870SOL    HW121509   0.080   4.752   2.167
 6870SOL    HW221510   0.195   4.664   2.241
 6871SOL     OW21511   5.765   5.106   2.323
 6871SOL    HW121512   5.839   5.077   2.262
 6871SOL    HW221513   5.708   5.027   2.346
 6872SOL     OW21514   1.139   3.615   0.715
 6872SOL    HW121515   1.107   3.530   0.758
 6872SOL    HW221516   1.060   3.668   0.684
 6873SOL     OW21517   6.233   3.812   5.246
 6873SOL    HW121518   6.155   3.781   5.300
 6873SOL    HW221519   6.231   3.912   5.240
 6874SOL     OW21520   0.779   5.229   2.911
 6874SOL    HW121521   0.739   5.195   2.995
 6874SOL    HW221522   0.877   5.209   2.910
 6875SOL     OW21523   1.117   2.703   3.669
 6875SOL    HW121524   1.070   2.755   3.598
 6875SOL    HW221525   1.052   2.644   3.716
 6876SOL     OW21526   4.363   6.107   5.106
 6876SOL    HW121527   4.346   6.011   5.130
 6876SOL    HW221528   4.461   6.124   5.106
 6877SOL     OW21529   2.753   4.304   6.701
 6877SOL    HW121530   2.825   4.324   6.767
 6877SOL    HW221531   2.719   4.211   6.715
 6878SOL     OW21532   2.852   2.574   5.342
 6878SOL    HW121533   2.866   2.672   5.361
 6878SOL    HW221534   2.767   2.562   5.292
 6879SOL     OW21535   0.724   2.114   0.119
 6879SOL    HW121536   0.682   2.032   0.080
 6879SOL    HW221537   0.805   2.088   0.171
 6880SOL     OW21538   2.056   3.705   5.151
 6880SOL    HW121539   2.096   3.695   5.060
 6880SOL    HW221540   2.127   3.698   5.220
 6881SOL     OW21541   0.294   4.047   2.431
 6881SOL    HW121542   0.220   4.030   2.367
 6881SOL    HW221543   0.381   4.053   2.381
 6882SOL     OW21544   3.268   0.312   5.924
 6882SOL    HW121545   3.361   0.289   5.950
 6882SOL    HW221546   3.266   0.403   5.882
 6883SOL     OW21547   4.182   1.750   0.807
 6883SOL    HW121548   4.206   1.674   0.867
 6883SOL    HW221549   4.212   1.731   0.714
 6884SOL     OW21550   1.532   3.903   4.420
 6884SOL    HW121551   1.516   3.836   4.493
 6884SOL    HW221552   1.445   3.930   4.380
 6885SOL     OW21553   4.353   5.808   4.869
 6885SOL    HW121554   4.336   5.736   4.802
 6885SOL    HW221555   4.265   5.839   4.907
 6886SOL     OW21556   0.019   0.966   3.545
 6886SOL    HW121557   0.010   1.048   3.601
 6886SOL    HW221558   0.051   0.991   3.454
 6887SOL     OW21559   4.990   6.496   6.091
 6887SOL    HW121560   4.904   6.535   6.060
 6887SOL    HW221561   5.062   6.515   6.023
 6888SOL     OW21562   5.325   6.636   0.038
 6888SOL    HW121563   5.278   6.601   0.119
 6888SOL    HW221564   5.324   6.566   6.989
 6889SOL     OW21565   1.775   2.340   5.048
 6889SOL    HW121566   1.739   2.381   5.132
 6889SOL    HW221567   1.851   2.395   5.014
 6890SOL     OW21568   3.414   6.444   1.332
 6890SOL    HW121569   3.335   6.390   1.302
 6890SOL    HW221570   3.488   6.433   1.266
 6891SOL     OW21571   2.264   4.110   4.328
 6891SOL    HW121572   2.295   4.015   4.324
 6891SOL    HW221573   2.174   4.114   4.370
 6892SOL     OW21574   3.607   1.115   3.268
 6892SOL    HW121575   3.576   1.027   3.231
 6892SOL    HW221576   3.705   1.125   3.251
 6893SOL     OW21577   5.310   5.526   0.247
 6893SOL    HW121578   5.228   5.485   0.207
 6893SOL    HW221579   5.352   5.461   0.310
 6894SOL     OW21580   6.273   5.125   7.018
 6894SOL    HW121581   6.185   5.109   0.040
 6894SOL    HW221582   6.317   5.038   6.997
 6895SOL     OW21583   2.616   5.311   6.215
 6895SOL    HW121584   2.698   5.367   6.203
 6895SOL    HW221585   2.551   5.332   6.141
 6896SOL     OW21586   2.138   0.065   3.868
 6896SOL    HW121587   2.138   0.086   3.966
 6896SOL    HW221588   2.232   0.073   3.833
 6897SOL     OW21589   2.873   3.389   0.204
 6897SOL    HW121590   2.873   3.391   0.104
 6897SOL    HW221591   2.851   3.481   0.239
 6898SOL     OW21592   3.884   1.567   2.170
 6898SOL    HW121593   3.957   1.604   2.227
 6898SOL    HW221594   3.795   1.592   2.208
 6899SOL     OW21595   4.999   6.855   0.865
 6899SOL    HW121596   5.069   6.786   0.883
 6899SOL    HW221597   4.968   6.848   0.770
 6900SOL     OW21598   6.363   0.523   5.901
 6900SOL    HW121599   6.311   0.439   5.916
 6900SOL    HW221600   6.319   0.576   5.828
 6901SOL     OW21601   0.493   6.836   6.401
 6901SOL    HW121602   0.450   6.921   6.371
 6901SOL    HW221603   0.495   6.833   6.501
 6902SOL     OW21604   6.239   6.769   0.778
 6902SOL    HW121605   6.255   6.670   0.780
 6902SOL    HW221606   6.325   6.816   0.759
 6903SOL     OW21607   4.137   5.347   4.576
 6903SOL    HW121608   4.039   5.361   4.592
 6903SOL    HW221609   4.155   5.345   4.477
 6904SOL     OW21610   5.759   2.010   4.047
 6904SOL    HW121611   5.712   1.922   4.037
 6904SOL    HW221612   5.716   2.062   4.121
 6905SOL     OW21613   5.629   6.743   0.164
 6905SOL    HW121614   5.553   6.807   0.169
 6905SOL    HW221615   5.662   6.722   0.256
 6906SOL     OW21616   4.238   0.673   4.249
 6906SOL    HW121617   4.263   0.635   4.338
 6906SOL    HW221618   4.177   0.751   4.262
 6907SOL     OW21619   5.096   1.915   1.308
 6907SOL    HW121620   5.108   1.818   1.288
 6907SOL    HW221621   5.124   1.969   1.229
 6908SOL     OW21622   1.038   6.289   5.770
 6908SOL    HW121623   1.100   6.366   5.756
 6908SOL    HW221624   1.026   6.273   5.868
 6909SOL     OW21625   5.605   4.372   1.601
 6909SOL    HW121626   5.652   4.460   1.608
 6909SOL    HW221627   5.650   4.306   1.661
 6910SOL     OW21628   6.889   2.294   3.734
 6910SOL    HW121629   6.979   2.284   3.777
 6910SOL    HW221630   6.899   2.296   3.635
 6911SOL     OW21631   4.617   6.387   3.527
 6911SOL    HW121632   4.669   6.417   3.447
 6911SOL    HW221633   4.522   6.418   3.518
 6912SOL     OW21634   4.407   5.240   0.187
 6912SOL    HW121635   4.363   5.211   0.102
 6912SOL    HW221636   4.365   5.193   0.264
 6913SOL     OW21637   5.297   4.778   5.936
 6913SOL    HW121638   5.369   4.839   5.968
 6913SOL    HW221639   5.329   4.683   5.942
 6914SOL     OW21640   5.630   4.895   7.010
 6914SOL    HW121641   5.726   4.907   6.986
 6914SOL    HW221642   5.621   4.821   0.054
 6915SOL     OW21643   6.013   4.445   1.627
 6915SOL    HW121644   6.075   4.423   1.702
 6915SOL    HW221645   6.021   4.375   1.555
 6916SOL     OW21646   5.948   3.770   0.172
 6916SOL    HW121647   5.997   3.829   0.235
 6916SOL    HW221648   5.878   3.718   0.222
 6917SOL     OW21649   3.346   5.828   0.898
 6917SOL    HW121650   3.304   5.782   0.977
 6917SOL    HW221651   3.348   5.926   0.913
 6918SOL     OW21652   1.135   3.112   4.293
 6918SOL    HW121653   1.038   3.093   4.304
 6918SOL    HW221654   1.161   3.103   4.197
 6919SOL     OW21655   0.605   6.486   2.939
 6919SOL    HW121656   0.591   6.573   2.986
 6919SOL    HW221657   0.575   6.411   2.998
 6920SOL     OW21658   4.251   5.609   5.427
 6920SOL    HW121659   4.178   5.542   5.410
 6920SOL    HW221660   4.213   5.702   5.419
 6921SOL     OW21661   5.140   6.124   3.000
 6921SOL    HW121662   5.233   6.148   3.026
 6921SOL    HW221663   5.075   6.182   3.050
 6922SOL     OW21664   2.479   5.551   6.562
 6922SOL    HW121665   2.500   5.632   6.507
 6922SOL    HW221666   2.389   5.515   6.535
 6923SOL     OW21667   4.762   5.457   3.878
 6923SOL    HW121668   4.711   5.390   3.931
 6923SOL    HW221669   4.855   5.423   3.861
 6924SOL     OW21670   1.130   4.217   0.008
 6924SOL    HW121671   1.126   4.245   0.104
 6924SOL    HW221672   1.220   4.241   6.992
 6925SOL     OW21673   4.270   5.826   4.484
 6925SOL    HW121674   4.187   5.860   4.439
 6925SOL    HW221675   4.350   5.871   4.444
 6926SOL     OW21676   3.130   3.047   2.140
 6926SOL    HW121677   3.070   2.968   2.134
 6926SOL    HW221678   3.191   3.049   2.061
 6927SOL     OW21679   5.191   3.378   5.754
 6927SOL    HW121680   5.101   3.408   5.785
 6927SOL    HW221681   5.183   3.288   5.710
 6928SOL     OW21682   6.941   6.298   1.089
 6928SOL    HW121683   6.916   6.201   1.087
 6928SOL    HW221684   6.981   6.324   1.001
 6929SOL     OW21685   4.727   5.248   1.175
 6929SOL    HW121686   4.742   5.288   1.266
 6929SOL    HW221687   4.723   5.321   1.107
 6930SOL     OW21688   0.004   0.092   2.291
 6930SOL    HW121689   6.950   0.152   2.315
 6930SOL    HW221690   0.036   0.114   2.198
 6931SOL     OW21691   1.369   0.686   2.340
 6931SOL    HW121692   1.339   0.603   2.293
 6931SOL    HW221693   1.464   0.705   2.314
 6932SOL     OW21694   4.084   0.400   0.914
 6932SOL    HW121695   4.117   0.494   0.920
 6932SOL    HW221696   4.116   0.359   0.829
 6933SOL     OW21697   3.241   6.068   5.509
 6933SOL    HW121698   3.227   6.165   5.527
 6933SOL    HW221699   3.237   6.052   5.410
 6934SOL     OW21700   5.111   4.269   6.069
 6934SOL    HW121701   5.025   4.319   6.080
 6934SOL    HW221702   5.143   4.237   6.158
 6935SOL     OW21703   4.678   5.693   3.762
 6935SOL    HW121704   4.703   5.604   3.801
 6935SOL    HW221705   4.715   5.700   3.669
 6936SOL     OW21706   6.466   2.884   3.061
 6936SOL    HW121707   6.514   2.825   2.997
 6936SOL    HW221708   6.461   2.839   3.150
 6937SOL     OW21709   6.424   6.232   0.524
 6937SOL    HW121710   6.409   6.139   0.491
 6937SOL    HW221711   6.364   6.295   0.475
 6938SOL     OW21712   4.801   3.487   5.608
 6938SOL    HW121713   4.759   3.399   5.632
 6938SOL    HW221714   4.805   3.496   5.509
 6939SOL     OW21715   0.005   4.238   1.219
 6939SOL    HW121716   7.004   4.234   1.122
 6939SOL    HW221717   0.093   4.286   1.231
 6940SOL     OW21718   4.956   1.103   0.525
 6940SOL    HW121719   5.018   1.134   0.597
 6940SOL    HW221720   4.919   1.013   0.550
 6941SOL     OW21721   3.445   2.915   3.149
 6941SOL    HW121722   3.374   2.932   3.218
 6941SOL    HW221723   3.407   2.859   3.076
 6942SOL     OW21724   6.408   2.791   1.049
 6942SOL    HW121725   6.463   2.731   1.107
 6942SOL    HW221726   6.445   2.884   1.053
 6943SOL     OW21727   5.045   6.454   0.091
 6943SOL    HW121728   4.993   6.373   0.118
 6943SOL    HW221729   5.001   6.497   0.011
 6944SOL     OW21730   1.652   4.410   6.110
 6944SOL    HW121731   1.749   4.403   6.089
 6944SOL    HW221732   1.639   4.435   6.205
 6945SOL     OW21733   5.824   3.278   6.057
 6945SOL    HW121734   5.749   3.326   6.101
 6945SOL    HW221735   5.788   3.209   5.994
 6946SOL     OW21736   6.437   6.487   1.576
 6946SOL    HW121737   6.494   6.436   1.512
 6946SOL    HW221738   6.340   6.472   1.554
 6947SOL     OW21739   3.270   6.645   5.672
 6947SOL    HW121740   3.192   6.656   5.610
 6947SOL    HW221741   3.288   6.732   5.718
 6948SOL     OW21742   5.446   0.766   6.338
 6948SOL    HW121743   5.505   0.794   6.263
 6948SOL    HW221744   5.446   0.666   6.344
 6949SOL     OW21745   5.167   6.757   3.848
 6949SOL    HW121746   5.132   6.843   3.811
 6949SOL    HW221747   5.207   6.772   3.938
 6950SOL     OW21748   2.006   0.479   3.966
 6950SOL    HW121749   2.063   0.561   3.958
 6950SOL    HW221750   2.020   0.421   3.885
 6951SOL     OW21751   6.635   6.103   6.213
 6951SOL    HW121752   6.539   6.116   6.189
 6951SOL    HW221753   6.682   6.192   6.210
 6952SOL     OW21754   6.770   5.554   4.142
 6952SOL    HW121755   6.830   5.474   4.142
 6952SOL    HW221756   6.823   5.636   4.165
 6953SOL     OW21757   4.978   0.063   6.566
 6953SOL    HW121758   4.999   6.992   6.596
 6953SOL    HW221759   5.036   0.127   6.617
 6954SOL     OW21760   0.251   4.046   3.897
 6954SOL    HW121761   0.351   4.044   3.889
 6954SOL    HW221762   0.225   4.120   3.960
 6955SOL     OW21763   6.537   0.690   2.668
 6955SOL    HW121764   6.588   0.631   2.604
 6955SOL    HW221765   6.561   0.666   2.762
 6956SOL     OW21766   4.836   6.139   2.986
 6956SOL    HW121767   4.812   6.135   3.083
 6956SOL    HW221768   4.888   6.057   2.961
 6957SOL     OW21769   6.026   4.767   0.793
 6957SOL    HW121770   5.954   4.718   0.744
 6957SOL    HW221771   6.009   4.865   0.788
 6958SOL     OW21772   2.989   3.812   5.151
 6958SOL    HW121773   3.063   3.759   5.194
 6958SOL    HW221774   2.908   3.754   5.140
 6959SOL     OW21775   2.771   1.443   4.775
 6959SOL    HW121776   2.719   1.485   4.700
 6959SOL    HW221777   2.709   1.390   4.832
 6960SOL     OW21778   1.404   5.486   1.494
 6960SOL    HW121779   1.339   5.444   1.557
 6960SOL    HW221780   1.356   5.547   1.432
 6961SOL     OW21781   6.607   2.697   4.384
 6961SOL    HW121782   6.683   2.663   4.440
 6961SOL    HW221783   6.536   2.628   4.378
 6962SOL     OW21784   5.575   6.237   2.143
 6962SOL    HW121785   5.528   6.160   2.186
 6962SOL    HW221786   5.527   6.262   2.059
 6963SOL     OW21787   6.693   5.201   0.832
 6963SOL    HW121788   6.684   5.114   0.881
 6963SOL    HW221789   6.705   5.275   0.898
 6964SOL     OW21790   3.748   5.902   4.930
 6964SOL    HW121791   3.769   5.836   4.858
 6964SOL    HW221792   3.811   5.979   4.923
 6965SOL     OW21793   0.411   3.573   6.810
 6965SOL    HW121794   0.380   3.483   6.840
 6965SOL    HW221795   0.408   3.578   6.710
 6966SOL     OW21796   6.945   2.269   3.466
 6966SOL    HW121797   0.022   2.274   3.473
 6966SOL    HW221798   6.908   2.356   3.434
 6967SOL     OW21799   1.844   0.450   5.570
 6967SOL    HW121800   1.776   0.494   5.628
 6967SOL    HW221801   1.893   0.520   5.517
 6968SOL     OW21802   4.001   6.456   2.802
 6968SOL    HW121803   4.006   6.359   2.778
 6968SOL    HW221804   3.907   6.480   2.827
 6969SOL     OW21805   2.642   2.492   0.950
 6969SOL    HW121806   2.737   2.461   0.943
 6969SOL    HW221807   2.581   2.413   0.942
 6970SOL     OW21808   3.924   4.063   6.934
 6970SOL    HW121809   4.010   4.048   6.982
 6970SOL    HW221810   3.942   4.091   6.840
 6971SOL     OW21811   6.832   4.414   1.314
 6971SOL    HW121812   6.889   4.331   1.311
 6971SOL    HW221813   6.840   4.463   1.228
 6972SOL     OW21814   5.558   4.534   3.540
 6972SOL    HW121815   5.525   4.444   3.509
 6972SOL    HW221816   5.479   4.591   3.565
 6973SOL     OW21817   1.245   3.602   5.346
 6973SOL    HW121818   1.289   3.669   5.405
 6973SOL    HW221819   1.313   3.562   5.284
 6974SOL     OW21820   3.429   2.861   2.871
 6974SOL    HW121821   3.513   2.818   2.838
 6974SOL    HW221822   3.373   2.889   2.793
 6975SOL     OW21823   1.964   6.150   6.152
 6975SOL    HW121824   1.889   6.183   6.209
 6975SOL    HW221825   1.956   6.188   6.060
 6976SOL     OW21826   4.237   5.368   5.088
 6976SOL    HW121827   4.303   5.430   5.129
 6976SOL    HW221828   4.249   5.276   5.126
 6977SOL     OW21829   4.450   2.477   1.792
 6977SOL    HW121830   4.523   2.419   1.756
 6977SOL    HW221831   4.443   2.466   1.891
 6978SOL     OW21832   4.805   1.682   1.960
 6978SOL    HW121833   4.716   1.653   1.924
 6978SOL    HW221834   4.873   1.610   1.944
 6979SOL     OW21835   1.328   4.358   0.854
 6979SOL    HW121836   1.332   4.439   0.795
 6979SOL    HW221837   1.386   4.286   0.815
 6980SOL     OW21838   0.996   1.315   3.502
 6980SOL    HW121839   1.092   1.310   3.529
 6980SOL    HW221840   0.987   1.380   3.426
 6981SOL     OW21841   3.281   3.090   6.249
 6981SOL    HW121842   3.282   3.008   6.191
 6981SOL    HW221843   3.254   3.169   6.194
 6982SOL     OW21844   1.506   0.804   4.451
 6982SOL    HW121845   1.564   0.748   4.393
 6982SOL    HW221846   1.476   0.885   4.399
 6983SOL     OW21847   4.699   2.103   4.002
 6983SOL    HW121848   4.610   2.119   4.044
 6983SOL    HW221849   4.688   2.051   3.917
 6984SOL     OW21850   2.127   1.875   4.040
 6984SOL    HW121851   2.129   1.818   4.122
 6984SOL    HW221852   2.068   1.955   4.058
 6985SOL     OW21853   4.173   5.597   1.364
 6985SOL    HW121854   4.075   5.584   1.346
 6985SOL    HW221855   4.187   5.610   1.462
 6986SOL     OW21856   2.259   6.604   6.315
 6986SOL    HW121857   2.206   6.674   6.270
 6986SOL    HW221858   2.221   6.514   6.294
 6987SOL     OW21859   0.529   2.093   5.933
 6987SOL    HW121860   0.453   2.134   5.983
 6987SOL    HW221861   0.593   2.052   5.998
 6988SOL     OW21862   6.819   1.099   5.376
 6988SOL    HW121863   6.806   1.006   5.411
 6988SOL    HW221864   6.731   1.145   5.371
 6989SOL     OW21865   0.613   3.623   4.298
 6989SOL    HW121866   0.623   3.525   4.281
 6989SOL    HW221867   0.558   3.636   4.381
 6990SOL     OW21868   4.962   2.467   1.539
 6990SOL    HW121869   5.015   2.394   1.582
 6990SOL    HW221870   4.947   2.541   1.604
 6991SOL     OW21871   3.147   4.877   4.294
 6991SOL    HW121872   3.065   4.853   4.345
 6991SOL    HW221873   3.224   4.822   4.326
 6992SOL     OW21874   5.144   6.661   5.566
 6992SOL    HW121875   5.206   6.691   5.494
 6992SOL    HW221876   5.166   6.709   5.651
 6993SOL     OW21877   0.082   0.973   3.289
 6993SOL    HW121878   0.130   1.056   3.260
 6993SOL    HW221879   7.015   0.969   3.244
 6994SOL     OW21880   0.560   2.966   4.504
 6994SOL    HW121881   0.573   2.920   4.416
 6994SOL    HW221882   0.489   3.036   4.495
 6995SOL     OW21883   6.558   4.537   5.964
 6995SOL    HW121884   6.516   4.627   5.980
 6995SOL    HW221885   6.495   4.480   5.912
 6996SOL     OW21886   2.135   0.258   6.821
 6996SOL    HW121887   2.042   0.290   6.804
 6996SOL    HW221888   2.148   0.244   6.920
 6997SOL     OW21889   5.895   6.460   5.542
 6997SOL    HW121890   5.972   6.400   5.520
 6997SOL    HW221891   5.840   6.475   5.460
 6998SOL     OW21892   1.819   2.152   0.915
 6998SOL    HW121893   1.844   2.152   0.818
 6998SOL    HW221894   1.895   2.113   0.968
 6999SOL     OW21895   2.725   2.619   5.647
 6999SOL    HW121896   2.754   2.556   5.719
 6999SOL    HW221897   2.714   2.570   5.561
 7000SOL     OW21898   6.503   5.900   1.320
 7000SOL    HW121899   6.583   5.840   1.318
 7000SOL    HW221900   6.485   5.934   1.228
 7001SOL     OW21901   2.298   3.156   5.317
 7001SOL    HW121902   2.359   3.097   5.264
 7001SOL    HW221903   2.236   3.099   5.371
 7002SOL     OW21904   2.616   4.958   3.780
 7002SOL    HW121905   2.531   5.003   3.808
 7002SOL    HW221906   2.646   4.995   3.692
 7003SOL     OW21907   4.012   5.460   6.803
 7003SOL    HW121908   4.031   5.552   6.771
 7003SOL    HW221909   4.047   5.449   6.896
 7004SOL     OW21910   1.879   4.878   1.844
 7004SOL    HW121911   1.965   4.873   1.793
 7004SOL    HW221912   1.866   4.794   1.896
 7005SOL     OW21913   1.639   6.753   0.228
 7005SOL    HW121914   1.569   6.778   0.161
 7005SOL    HW221915   1.669   6.834   0.277
 7006SOL     OW21916   4.751   4.738   4.656
 7006SOL    HW121917   4.713   4.785   4.577
 7006SOL    HW221918   4.776   4.804   4.727
 7007SOL     OW21919   4.449   6.763   4.081
 7007SOL    HW121920   4.472   6.843   4.026
 7007SOL    HW221921   4.530   6.706   4.092
 7008SOL     OW21922   1.199   4.579   4.927
 7008SOL    HW121923   1.170   4.562   5.021
 7008SOL    HW221924   1.127   4.551   4.864
 7009SOL     OW21925   6.429   5.499   2.318
 7009SOL    HW121926   6.416   5.598   2.316
 7009SOL    HW221927   6.483   5.471   2.239
 7010SOL     OW21928   5.284   4.912   5.678
 7010SOL    HW121929   5.250   4.934   5.769
 7010SOL    HW221930   5.353   4.839   5.684
 7011SOL     OW21931   3.761   6.631   5.812
 7011SOL    HW121932   3.759   6.609   5.714
 7011SOL    HW221933   3.681   6.686   5.835
 7012SOL     OW21934   1.863   1.455   2.254
 7012SOL    HW121935   1.822   1.462   2.345
 7012SOL    HW221936   1.924   1.375   2.252
 7013SOL     OW21937   0.732   0.868   0.793
 7013SOL    HW121938   0.709   0.844   0.887
 7013SOL    HW221939   0.713   0.789   0.734
 7014SOL     OW21940   4.327   3.377   1.379
 7014SOL    HW121941   4.326   3.477   1.375
 7014SOL    HW221942   4.421   3.344   1.368
 7015SOL     OW21943   5.882   4.842   2.026
 7015SOL    HW121944   5.963   4.798   1.987
 7015SOL    HW221945   5.830   4.774   2.078
 7016SOL     OW21946   3.585   4.882   1.699
 7016SOL    HW121947   3.590   4.798   1.754
 7016SOL    HW221948   3.494   4.924   1.710
 7017SOL     OW21949   2.358   6.461   2.550
 7017SOL    HW121950   2.415   6.427   2.475
 7017SOL    HW221951   2.399   6.437   2.638
 7018SOL     OW21952   6.158   4.451   3.951
 7018SOL    HW121953   6.188   4.497   4.035
 7018SOL    HW221954   6.062   4.424   3.960
 7019SOL     OW21955   2.547   3.576   6.654
 7019SOL    HW121956   2.646   3.568   6.658
 7019SOL    HW221957   2.521   3.634   6.576
 7020SOL     OW21958   5.801   0.078   0.069
 7020SOL    HW121959   5.778   0.176   0.070
 7020SOL    HW221960   5.900   0.067   0.065
 7021SOL     OW21961   1.624   1.472   6.035
 7021SOL    HW121962   1.610   1.428   6.124
 7021SOL    HW221963   1.685   1.416   5.979
 7022SOL     OW21964   4.675   5.890   0.598
 7022SOL    HW121965   4.743   5.881   0.670
 7022SOL    HW221966   4.584   5.876   0.636
 7023SOL     OW21967   0.739   1.855   3.250
 7023SOL    HW121968   0.723   1.933   3.311
 7023SOL    HW221969   0.838   1.841   3.240
 7024SOL     OW21970   1.586   4.245   5.600
 7024SOL    HW121971   1.495   4.284   5.613
 7024SOL    HW221972   1.655   4.317   5.606
 7025SOL     OW21973   2.393   0.646   6.979
 7025SOL    HW121974   2.407   0.564   0.013
 7025SOL    HW221975   2.373   0.723   0.017
 7026SOL     OW21976   3.185   2.031   2.120
 7026SOL    HW121977   3.126   1.950   2.115
 7026SOL    HW221978   3.246   2.022   2.199
 7027SOL     OW21979   2.493   4.986   4.282
 7027SOL    HW121980   2.437   5.068   4.297
 7027SOL    HW221981   2.587   5.013   4.263
 7028SOL     OW21982   5.013   0.051   4.136
 7028SOL    HW121983   4.969   6.983   4.137
 7028SOL    HW221984   4.943   0.122   4.138
 7029SOL     OW21985   5.278   5.510   5.862
 7029SOL    HW121986   5.259   5.459   5.946
 7029SOL    HW221987   5.208   5.490   5.794
 7030SOL     OW21988   0.391   1.780   5.075
 7030SOL    HW121989   0.329   1.703   5.062
 7030SOL    HW221990   0.483   1.755   5.043
 7031SOL     OW21991   1.849   6.243   5.024
 7031SOL    HW121992   1.800   6.325   4.993
 7031SOL    HW221993   1.795   6.197   5.095
 7032SOL     OW21994   3.555   0.315   3.590
 7032SOL    HW121995   3.583   0.225   3.623
 7032SOL    HW221996   3.458   0.328   3.609
 7033SOL     OW21997   1.484   2.428   3.344
 7033SOL    HW121998   1.393   2.466   3.358
 7033SOL    HW221999   1.491   2.391   3.251
 7034SOL     OW22000   6.410   0.203   2.968
 7034SOL    HW122001   6.450   0.287   3.006
 7034SOL    HW222002   6.459   0.124   3.004
 7035SOL     OW22003   1.712   6.233   1.491
 7035SOL    HW122004   1.674   6.204   1.579
 7035SOL    HW222005   1.642   6.280   1.438
 7036SOL     OW22006   0.379   0.764   2.812
 7036SOL    HW122007   0.296   0.710   2.799
 7036SOL    HW222008   0.375   0.813   2.899
 7037SOL     OW22009   1.796   0.603   6.385
 7037SOL    HW122010   1.778   0.667   6.310
 7037SOL    HW222011   1.858   0.646   6.450
 7038SOL     OW22012   1.435   3.274   4.489
 7038SOL    HW122013   1.411   3.177   4.487
 7038SOL    HW222014   1.378   3.321   4.557
 7039SOL     OW22015   2.780   4.869   1.373
 7039SOL    HW122016   2.810   4.792   1.316
 7039SOL    HW222017   2.734   4.835   1.454
 7040SOL     OW22018   6.455   2.397   4.907
 7040SOL    HW122019   6.415   2.426   4.994
 7040SOL    HW222020   6.554   2.404   4.912
 7041SOL     OW22021   0.909   2.301   1.657
 7041SOL    HW122022   0.875   2.389   1.627
 7041SOL    HW222023   0.834   2.248   1.697
 7042SOL     OW22024   5.513   5.718   5.941
 7042SOL    HW122025   5.435   5.711   6.003
 7042SOL    HW222026   5.572   5.638   5.952
 7043SOL     OW22027   2.056   3.509   2.575
 7043SOL    HW122028   2.020   3.514   2.668
 7043SOL    HW222029   1.981   3.519   2.510
 7044SOL     OW22030   4.595   5.373   3.408
 7044SOL    HW122031   4.574   5.339   3.500
 7044SOL    HW222032   4.620   5.297   3.349
 7045SOL     OW22033   5.210   5.849   3.035
 7045SOL    HW122034   5.281   5.823   2.968
 7045SOL    HW222035   5.159   5.927   3.000
 7046SOL     OW22036   3.511   1.597   3.198
 7046SOL    HW122037   3.470   1.594   3.107
 7046SOL    HW222038   3.530   1.692   3.222
 7047SOL     OW22039   0.749   2.560   1.935
 7047SOL    HW122040   0.773   2.545   2.031
 7047SOL    HW222041   0.661   2.517   1.916
 7048SOL     OW22042   6.449   6.267   3.059
 7048SOL    HW122043   6.416   6.357   3.031
 7048SOL    HW222044   6.541   6.276   3.098
 7049SOL     OW22045   3.367   1.416   0.693
 7049SOL    HW122046   3.341   1.421   0.597
 7049SOL    HW222047   3.325   1.335   0.735
 7050SOL     OW22048   3.853   3.946   2.336
 7050SOL    HW122049   3.778   3.880   2.333
 7050SOL    HW222050   3.873   3.978   2.244
 7051SOL     OW22051   6.898   0.599   1.121
 7051SOL    HW122052   6.819   0.660   1.133
 7051SOL    HW222053   6.918   0.590   1.023
 7052SOL     OW22054   5.584   2.956   3.726
 7052SOL    HW122055   5.611   2.904   3.806
 7052SOL    HW222056   5.544   2.895   3.658
 7053SOL     OW22057   0.839   3.613   5.031
 7053SOL    HW122058   0.851   3.549   5.107
 7053SOL    HW222059   0.820   3.704   5.067
 7054SOL     OW22060   0.548   6.226   0.778
 7054SOL    HW122061   0.636   6.184   0.801
 7054SOL    HW222062   0.563   6.320   0.748
 7055SOL     OW22063   3.548   6.025   5.430
 7055SOL    HW122064   3.483   5.971   5.376
 7055SOL    HW222065   3.519   6.025   5.526
 7056SOL     OW22066   6.117   5.905   2.193
 7056SOL    HW122067   6.159   5.983   2.238
 7056SOL    HW222068   6.188   5.843   2.160
 7057SOL     OW22069   1.004   6.081   3.452
 7057SOL    HW122070   0.995   6.181   3.448
 7057SOL    HW222071   0.986   6.051   3.546
 7058SOL     OW22072   6.980   5.608   6.131
 7058SOL    HW122073   6.962   5.645   6.222
 7058SOL    HW222074   6.901   5.624   6.072
 7059SOL     OW22075   6.288   1.067   4.060
 7059SOL    HW122076   6.261   1.160   4.038
 7059SOL    HW222077   6.288   1.056   4.160
 7060SOL     OW22078   4.214   0.306   1.743
 7060SOL    HW122079   4.155   0.298   1.662
 7060SOL    HW222080   4.218   0.402   1.771
 7061SOL     OW22081   1.344   3.297   3.834
 7061SOL    HW122082   1.403   3.219   3.810
 7061SOL    HW222083   1.340   3.360   3.756
 7062SOL     OW22084   4.995   1.301   5.366
 7062SOL    HW122085   4.939   1.268   5.443
 7062SOL    HW222086   5.075   1.349   5.401
 7063SOL     OW22087   0.643   0.579   1.821
 7063SOL    HW122088   0.590   0.662   1.802
 7063SOL    HW222089   0.720   0.574   1.758
 7064SOL     OW22090   3.976   2.193   1.495
 7064SOL    HW122091   4.056   2.204   1.436
 7064SOL    HW222092   3.907   2.140   1.447
 7065SOL     OW22093   3.947   3.946   6.153
 7065SOL    HW122094   4.022   3.991   6.105
 7065SOL    HW222095   3.864   3.953   6.098
 7066SOL     OW22096   4.341   0.048   0.616
 7066SOL    HW122097   4.268   7.004   0.633
 7066SOL    HW222098   4.427   0.014   0.652
 7067SOL     OW22099   1.791   1.848   5.154
 7067SOL    HW122100   1.743   1.909   5.092
 7067SOL    HW222101   1.889   1.845   5.130
 7068SOL     OW22102   0.175   4.400   3.923
 7068SOL    HW122103   0.091   4.361   3.883
 7068SOL    HW222104   0.170   4.393   4.022
 7069SOL     OW22105   5.411   1.701   4.481
 7069SOL    HW122106   5.460   1.771   4.429
 7069SOL    HW222107   5.450   1.611   4.461
 7070SOL     OW22108   6.441   6.470   4.785
 7070SOL    HW122109   6.473   6.558   4.747
 7070SOL    HW222110   6.433   6.478   4.884
 7071SOL     OW22111   1.781   6.163   6.593
 7071SOL    HW122112   1.778   6.147   6.494
 7071SOL    HW222113   1.821   6.254   6.610
 7072SOL     OW22114   1.072   6.573   6.805
 7072SOL    HW122115   0.978   6.577   6.837
 7072SOL    HW222116   1.097   6.478   6.787
 7073SOL     OW22117   4.875   6.921   4.457
 7073SOL    HW122118   4.843   7.012   4.483
 7073SOL    HW222119   4.972   6.925   4.435
 7074SOL     OW22120   4.608   2.184   2.066
 7074SOL    HW122121   4.671   2.242   2.117
 7074SOL    HW222122   4.655   2.100   2.038
 7075SOL     OW22123   1.839   5.201   5.070
 7075SOL    HW122124   1.899   5.260   5.124
 7075SOL    HW222125   1.893   5.129   5.027
 7076SOL     OW22126   5.587   2.451   6.866
 7076SOL    HW122127   5.631   2.541   6.869
 7076SOL    HW222128   5.566   2.420   6.958
 7077SOL     OW22129   2.248   4.351   4.231
 7077SOL    HW122130   2.280   4.266   4.272
 7077SOL    HW222131   2.192   4.330   4.150
 7078SOL     OW22132   0.248   0.071   1.429
 7078SOL    HW122133   0.334   0.024   1.447
 7078SOL    HW222134   0.180   0.006   1.397
 7079SOL     OW22135   6.657   6.281   4.746
 7079SOL    HW122136   6.626   6.188   4.764
 7079SOL    HW222137   6.581   6.345   4.759
 7080SOL     OW22138   2.882   2.294   4.152
 7080SOL    HW122139   2.932   2.247   4.079
 7080SOL    HW222140   2.818   2.359   4.112
 7081SOL     OW22141   3.070   0.891   6.993
 7081SOL    HW122142   3.156   0.891   6.941
 7081SOL    HW222143   3.000   0.841   6.942
 7082SOL     OW22144   6.062   4.466   6.613
 7082SOL    HW122145   6.090   4.560   6.632
 7082SOL    HW222146   6.142   4.414   6.582
 7083SOL     OW22147   2.828   0.444   0.716
 7083SOL    HW122148   2.738   0.417   0.681
 7083SOL    HW222149   2.866   0.371   0.772
 7084SOL     OW22150   0.365   6.616   5.707
 7084SOL    HW122151   0.337   6.520   5.712
 7084SOL    HW222152   0.458   6.622   5.670
 7085SOL     OW22153   1.076   2.283   1.957
 7085SOL    HW122154   0.999   2.321   1.905
 7085SOL    HW222155   1.161   2.326   1.925
 7086SOL     OW22156   5.246   0.890   5.121
 7086SOL    HW122157   5.195   0.975   5.135
 7086SOL    HW222158   5.232   0.828   5.198
 7087SOL     OW22159   6.242   3.215   3.846
 7087SOL    HW122160   6.164   3.266   3.884
 7087SOL    HW222161   6.210   3.127   3.810
 7088SOL     OW22162   5.349   2.657   3.019
 7088SOL    HW122163   5.371   2.640   3.115
 7088SOL    HW222164   5.295   2.581   2.983
 7089SOL     OW22165   3.061   2.087   4.855
 7089SOL    HW122166   3.110   2.166   4.890
 7089SOL    HW222167   2.999   2.116   4.782
 7090SOL     OW22168   2.624   0.427   6.779
 7090SOL    HW122169   2.603   0.516   6.819
 7090SOL    HW222170   2.610   0.432   6.680
 7091SOL     OW22171   0.788   1.421   6.747
 7091SOL    HW122172   0.706   1.401   6.693
 7091SOL    HW222173   0.762   1.467   6.832
 7092SOL     OW22174   4.597   2.897   6.006
 7092SOL    HW122175   4.575   2.953   6.086
 7092SOL    HW222176   4.630   2.956   5.932
 7093SOL     OW22177   3.046   3.736   3.252
 7093SOL    HW122178   3.021   3.657   3.309
 7093SOL    HW222179   3.122   3.784   3.294
 7094SOL     OW22180   0.580   5.668   6.083
 7094SOL    HW122181   0.625   5.680   6.171
 7094SOL    HW222182   0.575   5.756   6.036
 7095SOL     OW22183   3.127   3.599   6.266
 7095SOL    HW122184   3.201   3.547   6.309
 7095SOL    HW222185   3.164   3.652   6.189
 7096SOL     OW22186   6.272   0.693   3.704
 7096SOL    HW122187   6.352   0.644   3.671
 7096SOL    HW222188   6.242   0.654   3.791
 7097SOL     OW22189   6.180   1.338   0.514
 7097SOL    HW122190   6.277   1.360   0.513
 7097SOL    HW222191   6.126   1.422   0.519
 7098SOL     OW22192   1.503   0.153   5.071
 7098SOL    HW122193   1.486   0.153   5.170
 7098SOL    HW222194   1.425   0.194   5.024
 7099SOL     OW22195   2.862   0.995   5.264
 7099SOL    HW122196   2.925   0.962   5.334
 7099SOL    HW222197   2.894   1.083   5.228
 7100SOL     OW22198   5.531   2.256   1.029
 7100SOL    HW122199   5.456   2.211   0.980
 7100SOL    HW222200   5.519   2.355   1.025
 7101SOL     OW22201   2.069   1.079   4.769
 7101SOL    HW122202   2.099   1.113   4.679
 7101SOL    HW222203   2.133   1.112   4.839
 7102SOL     OW22204   4.736   0.254   0.728
 7102SOL    HW122205   4.760   0.236   0.632
 7102SOL    HW222206   4.637   0.256   0.738
 7103SOL     OW22207   4.508   4.776   1.788
 7103SOL    HW122208   4.600   4.786   1.825
 7103SOL    HW222209   4.450   4.729   1.855
 7104SOL     OW22210   0.406   2.769   4.318
 7104SOL    HW122211   0.353   2.759   4.401
 7104SOL    HW222212   0.499   2.734   4.333
 7105SOL     OW22213   3.003   2.942   5.265
 7105SOL    HW122214   3.031   3.008   5.196
 7105SOL    HW222215   3.080   2.880   5.286
 7106SOL     OW22216   3.235   4.035   2.671
 7106SOL    HW122217   3.154   4.004   2.621
 7106SOL    HW222218   3.209   4.062   2.763
 7107SOL     OW22219   3.510   1.408   0.413
 7107SOL    HW122220   3.525   1.418   0.315
 7107SOL    HW222221   3.475   1.494   0.451
 7108SOL     OW22222   5.112   5.967   2.778
 7108SOL    HW122223   5.138   6.014   2.862
 7108SOL    HW222224   5.013   5.952   2.778
 7109SOL     OW22225   2.545   0.530   5.911
 7109SOL    HW122226   2.571   0.475   5.990
 7109SOL    HW222227   2.483   0.478   5.853
 7110SOL     OW22228   3.332   5.800   4.718
 7110SOL    HW122229   3.234   5.781   4.718
 7110SOL    HW222230   3.354   5.866   4.790
 7111SOL     OW22231   1.016   2.048   4.096
 7111SOL    HW122232   0.975   2.014   4.181
 7111SOL    HW222233   1.095   2.105   4.118
 7112SOL     OW22234   0.853   5.765   4.398
 7112SOL    HW122235   0.870   5.755   4.496
 7112SOL    HW222236   0.760   5.736   4.377
 7113SOL     OW22237   3.639   4.187   4.915
 7113SOL    HW122238   3.550   4.148   4.937
 7113SOL    HW222239   3.674   4.236   4.994
 7114SOL     OW22240   3.864   0.014   1.631
 7114SOL    HW122241   3.869   0.071   1.550
 7114SOL    HW222242   3.777   6.988   1.634
 7115SOL     OW22243   5.353   3.276   1.430
 7115SOL    HW122244   5.264   3.304   1.467
 7115SOL    HW222245   5.359   3.177   1.430
 7116SOL     OW22246   6.295   4.267   2.977
 7116SOL    HW122247   6.295   4.272   2.877
 7116SOL    HW222248   6.281   4.172   3.005
 7117SOL     OW22249   6.989   6.225   4.935
 7117SOL    HW122250   0.066   6.230   4.938
 7117SOL    HW222251   6.957   6.157   5.002
 7118SOL     OW22252   2.980   3.730   1.188
 7118SOL    HW122253   3.018   3.820   1.210
 7118SOL    HW222254   3.000   3.667   1.263
 7119SOL     OW22255   5.393   2.107   2.802
 7119SOL    HW122256   5.413   2.011   2.821
 7119SOL    HW222257   5.316   2.113   2.738
 7120SOL     OW22258   3.529   1.761   2.561
 7120SOL    HW122259   3.432   1.782   2.566
 7120SOL    HW222260   3.554   1.701   2.638
 7121SOL     OW22261   1.552   6.732   2.909
 7121SOL    HW122262   1.559   6.823   2.869
 7121SOL    HW222263   1.637   6.681   2.892
 7122SOL     OW22264   0.898   0.229   5.813
 7122SOL    HW122265   0.909   0.131   5.827
 7122SOL    HW222266   0.805   0.257   5.837
 7123SOL     OW22267   2.280   4.640   3.000
 7123SOL    HW122268   2.234   4.659   3.087
 7123SOL    HW222269   2.296   4.726   2.952
 7124SOL     OW22270   0.077   2.277   0.871
 7124SOL    HW122271   0.112   2.238   0.957
 7124SOL    HW222272   0.074   2.377   0.879
 7125SOL     OW22273   0.206   6.983   0.999
 7125SOL    HW122274   0.288   7.011   1.049
 7125SOL    HW222275   0.174   0.037   0.943
 7126SOL     OW22276   3.301   5.442   0.304
 7126SOL    HW122277   3.374   5.413   0.241
 7126SOL    HW222278   3.215   5.449   0.254
 7127SOL     OW22279   1.230   5.388   5.260
 7127SOL    HW122280   1.232   5.303   5.207
 7127SOL    HW222281   1.322   5.427   5.264
 7128SOL     OW22282   2.924   4.734   0.807
 7128SOL    HW122283   2.912   4.822   0.762
 7128SOL    HW222284   2.910   4.744   0.905
 7129SOL     OW22285   2.164   1.389   0.005
 7129SOL    HW122286   2.085   1.397   0.066
 7129SOL    HW222287   2.231   1.460   0.028
 7130SOL     OW22288   3.790   5.920   5.352
 7130SOL    HW122289   3.701   5.949   5.388
 7130SOL    HW222290   3.779   5.889   5.258
 7131SOL     OW22291   2.560   0.691   1.161
 7131SOL    HW122292   2.486   0.669   1.225
 7131SOL    HW222293   2.565   0.619   1.091
 7132SOL     OW22294   3.790   4.310   6.956
 7132SOL    HW122295   3.817   4.214   6.966
 7132SOL    HW222296   3.703   4.316   6.907
 7133SOL     OW22297   5.550   5.818   5.684
 7133SOL    HW122298   5.609   5.896   5.705
 7133SOL    HW222299   5.539   5.761   5.765
 7134SOL     OW22300   5.754   6.580   1.689
 7134SOL    HW122301   5.729   6.595   1.784
 7134SOL    HW222302   5.824   6.647   1.663
 7135SOL     OW22303   1.426   3.401   3.230
 7135SOL    HW122304   1.342   3.390   3.177
 7135SOL    HW222305   1.421   3.344   3.312
 7136SOL     OW22306   2.328   2.905   0.944
 7136SOL    HW122307   2.277   2.879   0.863
 7136SOL    HW222308   2.370   2.823   0.984
 7137SOL     OW22309   3.675   6.850   0.012
 7137SOL    HW122310   3.716   6.767   0.048
 7137SOL    HW222311   3.605   6.826   6.966
 7138SOL     OW22312   1.470   2.730   6.976
 7138SOL    HW122313   1.437   2.657   0.013
 7138SOL    HW222314   1.467   2.701   6.881
 7139SOL     OW22315   5.585   3.790   1.686
 7139SOL    HW122316   5.627   3.825   1.602
 7139SOL    HW222317   5.656   3.773   1.754
 7140SOL     OW22318   5.586   4.319   3.821
 7140SOL    HW122319   5.652   4.394   3.822
 7140SOL    HW222320   5.512   4.339   3.886
 7141SOL     OW22321   3.675   6.237   1.786
 7141SOL    HW122322   3.577   6.257   1.784
 7141SOL    HW222323   3.725   6.311   1.741
 7142SOL     OW22324   4.365   0.266   3.553
 7142SOL    HW122325   4.322   0.316   3.627
 7142SOL    HW222326   4.394   0.176   3.585
 7143SOL     OW22327   1.367   2.245   5.953
 7143SOL    HW122328   1.355   2.187   6.034
 7143SOL    HW222329   1.374   2.188   5.871
 7144SOL     OW22330   1.994   2.447   2.258
 7144SOL    HW122331   1.974   2.354   2.227
 7144SOL    HW222332   2.093   2.461   2.259
 7145SOL     OW22333   4.420   6.871   0.214
 7145SOL    HW122334   4.514   6.902   0.225
 7145SOL    HW222335   4.394   6.813   0.291
 7146SOL     OW22336   2.182   0.260   1.521
 7146SOL    HW122337   2.275   0.224   1.513
 7146SOL    HW222338   2.116   0.186   1.509
 7147SOL     OW22339   6.974   0.480   3.445
 7147SOL    HW122340   7.019   0.525   3.522
 7147SOL    HW222341   6.964   0.383   3.465
 7148SOL     OW22342   1.160   5.812   0.730
 7148SOL    HW122343   1.178   5.788   0.634
 7148SOL    HW222344   1.202   5.744   0.790
 7149SOL     OW22345   6.340   6.791   2.913
 7149SOL    HW122346   6.397   6.722   2.869
 7149SOL    HW222347   6.304   6.853   2.843
 7150SOL     OW22348   3.061   2.121   2.468
 7150SOL    HW122349   3.019   2.031   2.484
 7150SOL    HW222350   3.013   2.167   2.394
 7151SOL     OW22351   2.121   6.291   0.812
 7151SOL    HW122352   2.126   6.284   0.712
 7151SOL    HW222353   2.097   6.203   0.851
 7152SOL     OW22354   0.728   0.760   4.926
 7152SOL    HW122355   0.759   0.825   4.856
 7152SOL    HW222356   0.799   0.750   4.995
 7153SOL     OW22357   3.410   5.275   1.896
 7153SOL    HW122358   3.492   5.288   1.951
 7153SOL    HW222359   3.436   5.261   1.801
 7154SOL     OW22360   3.626   0.501   3.801
 7154SOL    HW122361   3.645   0.598   3.786
 7154SOL    HW222362   3.634   0.452   3.714
 7155SOL     OW22363   1.698   3.833   1.267
 7155SOL    HW122364   1.705   3.849   1.169
 7155SOL    HW222365   1.756   3.897   1.316
 7156SOL     OW22366   0.533   3.342   3.830
 7156SOL    HW122367   0.451   3.387   3.793
 7156SOL    HW222368   0.528   3.344   3.930
 7157SOL     OW22369   6.830   4.023   1.608
 7157SOL    HW122370   6.782   4.110   1.616
 7157SOL    HW222371   6.767   3.953   1.574
 7158SOL     OW22372   1.022   6.911   3.418
 7158SOL    HW122373   1.017   6.949   3.511
 7158SOL    HW222374   1.093   6.840   3.415
 7159SOL     OW22375   0.604   5.013   2.685
 7159SOL    HW122376   0.617   5.108   2.714
 7159SOL    HW222377   0.507   4.995   2.673
 7160SOL     OW22378   5.769   6.835   2.796
 7160SOL    HW122379   5.712   6.764   2.755
 7160SOL    HW222380   5.726   6.867   2.881
 7161SOL     OW22381   3.050   3.795   4.127
 7161SOL    HW122382   3.023   3.829   4.217
 7161SOL    HW222383   3.150   3.802   4.117
 7162SOL     OW22384   1.436   5.347   6.494
 7162SOL    HW122385   1.360   5.282   6.496
 7162SOL    HW222386   1.468   5.359   6.400
 7163SOL     OW22387   2.711   6.206   3.261
 7163SOL    HW122388   2.652   6.192   3.340
 7163SOL    HW222389   2.657   6.199   3.177
 7164SOL     OW22390   1.797   0.823   3.689
 7164SOL    HW122391   1.852   0.755   3.641
 7164SOL    HW222392   1.700   0.801   3.679
 7165SOL     OW22393   0.018   1.179   2.048
 7165SOL    HW122394   7.017   1.109   2.115
 7165SOL    HW222395   6.962   1.195   1.988
 7166SOL     OW22396   6.333   2.920   0.261
 7166SOL    HW122397   6.317   2.912   0.359
 7166SOL    HW222398   6.430   2.942   0.244
 7167SOL     OW22399   5.295   3.569   3.746
 7167SOL    HW122400   5.282   3.565   3.845
 7167SOL    HW222401   5.315   3.663   3.719
 7168SOL     OW22402   1.701   2.564   3.412
 7168SOL    HW122403   1.626   2.503   3.386
 7168SOL    HW222404   1.779   2.510   3.441
 7169SOL     OW22405   0.080   2.527   4.812
 7169SOL    HW122406   0.093   2.454   4.744
 7169SOL    HW222407   0.124   2.610   4.779
 7170SOL     OW22408   4.946   6.241   3.885
 7170SOL    HW122409   4.956   6.195   3.973
 7170SOL    HW222410   4.987   6.332   3.890
 7171SOL     OW22411   5.226   3.537   6.937
 7171SOL    HW122412   5.235   3.551   6.838
 7171SOL    HW222413   5.164   3.461   6.954
 7172SOL     OW22414   1.373   0.557   5.039
 7172SOL    HW122415   1.466   0.530   5.013
 7172SOL    HW222416   1.375   0.646   5.085
 7173SOL     OW22417   6.940   4.270   6.042
 7173SOL    HW122418   6.988   4.182   6.046
 7173SOL    HW222419   6.854   4.262   6.092
 7174SOL     OW22420   0.760   4.481   0.300
 7174SOL    HW122421   0.853   4.443   0.308
 7174SOL    HW222422   0.765   4.572   0.259
 7175SOL     OW22423   5.315   2.559   6.828
 7175SOL    HW122424   5.258   2.500   6.771
 7175SOL    HW222425   5.405   2.517   6.839
 7176SOL     OW22426   0.400   0.104   2.948
 7176SOL    HW122427   0.442   0.190   2.918
 7176SOL    HW222428   0.471   0.038   2.971
 7177SOL     OW22429   1.457   5.598   4.735
 7177SOL    HW122430   1.544   5.577   4.779
 7177SOL    HW222431   1.467   5.680   4.678
 7178SOL     OW22432   2.252   2.277   5.617
 7178SOL    HW122433   2.166   2.296   5.664
 7178SOL    HW222434   2.328   2.311   5.673
 7179SOL     OW22435   1.909   3.838   4.689
 7179SOL    HW122436   1.931   3.752   4.643
 7179SOL    HW222437   1.815   3.835   4.721
 7180SOL     OW22438   2.835   5.345   0.415
 7180SOL    HW122439   2.930   5.361   0.389
 7180SOL    HW222440   2.819   5.246   0.422
 7181SOL     OW22441   2.016   6.314   0.283
 7181SOL    HW122442   1.953   6.377   0.328
 7181SOL    HW222443   1.969   6.268   0.207
 7182SOL     OW22444   1.142   2.593   4.863
 7182SOL    HW122445   1.154   2.668   4.798
 7182SOL    HW222446   1.082   2.524   4.825
 7183SOL     OW22447   2.284   6.320   0.304
 7183SOL    HW122448   2.321   6.273   0.225
 7183SOL    HW222449   2.184   6.313   0.304
 7184SOL     OW22450   6.494   1.123   3.272
 7184SOL    HW122451   6.430   1.154   3.343
 7184SOL    HW222452   6.556   1.055   3.312
 7185SOL     OW22453   5.491   0.457   5.218
 7185SOL    HW122454   5.405   0.508   5.216
 7185SOL    HW222455   5.472   0.359   5.211
 7186SOL     OW22456   6.749   1.156   6.891
 7186SOL    HW122457   6.822   1.126   6.953
 7186SOL    HW222458   6.729   1.083   6.826
 7187SOL     OW22459   3.567   4.896   6.214
 7187SOL    HW122460   3.486   4.928   6.263
 7187SOL    HW222461   3.616   4.829   6.270
 7188SOL     OW22462   6.367   0.493   0.702
 7188SOL    HW122463   6.335   0.463   0.791
 7188SOL    HW222464   6.463   0.465   0.690
 7189SOL     OW22465   0.300   1.398   5.849
 7189SOL    HW122466   0.396   1.421   5.863
 7189SOL    HW222467   0.279   1.311   5.893
 7190SOL     OW22468   0.069   3.716   2.942
 7190SOL    HW122469   0.084   3.617   2.942
 7190SOL    HW222470   0.074   3.751   2.848
 7191SOL     OW22471   0.623   4.257   3.004
 7191SOL    HW122472   0.587   4.168   2.975
 7191SOL    HW222473   0.588   4.280   3.095
 7192SOL     OW22474   3.351   4.366   5.705
 7192SOL    HW122475   3.285   4.344   5.633
 7192SOL    HW222476   3.311   4.432   5.769
 7193SOL     OW22477   1.571   2.820   2.022
 7193SOL    HW122478   1.485   2.817   2.073
 7193SOL    HW222479   1.566   2.758   1.943
 7194SOL     OW22480   2.709   2.077   0.220
 7194SOL    HW122481   2.668   2.090   0.129
 7194SOL    HW222482   2.670   2.143   0.284
 7195SOL     OW22483   0.071   4.239   7.012
 7195SOL    HW122484   0.140   4.269   6.946
 7195SOL    HW222485   0.086   4.144   0.014
 7196SOL     OW22486   3.716   4.509   1.055
 7196SOL    HW122487   3.760   4.459   0.981
 7196SOL    HW222488   3.617   4.494   1.052
 7197SOL     OW22489   0.664   2.734   5.617
 7197SOL    HW122490   0.591   2.798   5.638
 7197SOL    HW222491   0.737   2.782   5.567
 7198SOL     OW22492   0.290   0.504   0.157
 7198SOL    HW122493   0.335   0.570   0.096
 7198SOL    HW222494   0.290   0.540   0.251
 7199SOL     OW22495   2.223   0.834   2.773
 7199SOL    HW122496   2.222   0.735   2.786
 7199SOL    HW222497   2.313   0.870   2.799
 7200SOL     OW22498   2.572   2.131   6.984
 7200SOL    HW122499   2.572   2.069   6.906
 7200SOL    HW222500   2.512   2.095   0.034
 7201SOL     OW22501   0.903   5.844   4.140
 7201SOL    HW122502   0.908   5.825   4.238
 7201SOL    HW222503   0.926   5.761   4.089
 7202SOL     OW22504   4.509   0.451   5.941
 7202SOL    HW122505   4.467   0.505   6.014
 7202SOL    HW222506   4.608   0.445   5.957
 7203SOL     OW22507   0.482   1.875   1.184
 7203SOL    HW122508   0.508   1.820   1.105
 7203SOL    HW222509   0.389   1.851   1.213
 7204SOL     OW22510   0.630   0.019   5.327
 7204SOL    HW122511   0.652   6.946   5.306
 7204SOL    HW222512   0.642   0.075   5.245
 7205SOL     OW22513   1.135   5.655   3.871
 7205SOL    HW122514   1.163   5.568   3.910
 7205SOL    HW222515   1.201   5.684   3.802
 7206SOL     OW22516   1.538   0.157   1.484
 7206SOL    HW122517   1.634   0.174   1.504
 7206SOL    HW222518   1.480   0.209   1.546
 7207SOL     OW22519   3.480   0.254   2.683
 7207SOL    HW122520   3.466   0.244   2.781
 7207SOL    HW222521   3.553   0.319   2.665
 7208SOL     OW22522   3.941   6.882   3.116
 7208SOL    HW122523   4.003   6.913   3.188
 7208SOL    HW222524   3.993   6.832   3.047
 7209SOL     OW22525   3.018   3.718   2.005
 7209SOL    HW122526   3.100   3.669   2.036
 7209SOL    HW222527   2.947   3.651   1.983
 7210SOL     OW22528   4.597   0.829   3.839
 7210SOL    HW122529   4.683   0.805   3.794
 7210SOL    HW222530   4.540   0.747   3.848
 7211SOL     OW22531   3.047   6.043   4.002
 7211SOL    HW122532   3.076   6.031   3.908
 7211SOL    HW222533   3.124   6.076   4.057
 7212SOL     OW22534   0.298   6.294   4.923
 7212SOL    HW122535   0.307   6.364   4.994
 7212SOL    HW222536   0.274   6.338   4.836
 7213SOL     OW22537   5.374   6.531   0.706
 7213SOL    HW122538   5.400   6.626   0.722
 7213SOL    HW222539   5.445   6.486   0.652
 7214SOL     OW22540   6.839   5.136   5.378
 7214SOL    HW122541   6.863   5.172   5.288
 7214SOL    HW222542   6.922   5.124   5.433
 7215SOL     OW22543   6.986   3.569   5.245
 7215SOL    HW122544   6.914   3.567   5.314
 7215SOL    HW222545   6.945   3.582   5.155
 7216SOL     OW22546   3.471   6.623   6.950
 7216SOL    HW122547   3.408   6.573   7.010
 7216SOL    HW222548   3.509   6.560   6.882
 7217SOL     OW22549   2.948   4.885   3.184
 7217SOL    HW122550   2.864   4.843   3.217
 7217SOL    HW222551   3.023   4.866   3.248
 7218SOL     OW22552   4.967   2.332   5.417
 7218SOL    HW122553   5.056   2.306   5.379
 7218SOL    HW222554   4.957   2.432   5.413
 7219SOL     OW22555   4.686   0.350   4.412
 7219SOL    HW122556   4.694   0.424   4.345
 7219SOL    HW222557   4.594   0.311   4.408
 7220SOL     OW22558   0.453   5.247   4.991
 7220SOL    HW122559   0.368   5.225   5.039
 7220SOL    HW222560   0.529   5.249   5.056
 7221SOL     OW22561   4.036   5.920   4.650
 7221SOL    HW122562   4.090   5.836   4.643
 7221SOL    HW222563   4.094   5.995   4.682
 7222SOL     OW22564   6.042   0.368   2.837
 7222SOL    HW122565   6.057   0.438   2.768
 7222SOL    HW222566   5.944   0.355   2.851
 7223SOL     OW22567   2.818   1.910   1.707
 7223SOL    HW122568   2.819   1.906   1.807
 7223SOL    HW222569   2.911   1.930   1.674
 7224SOL     OW22570   5.254   2.189   3.737
 7224SOL    HW122571   5.284   2.094   3.727
 7224SOL    HW222572   5.330   2.245   3.770
 7225SOL     OW22573   0.883   5.702   0.567
 7225SOL    HW122574   0.946   5.717   0.491
 7225SOL    HW222575   0.931   5.657   0.642
 7226SOL     OW22576   6.810   1.007   1.012
 7226SOL    HW122577   6.763   0.951   0.943
 7226SOL    HW222578   6.909   0.999   1.000
 7227SOL     OW22579   1.306   1.664   1.058
 7227SOL    HW122580   1.338   1.753   1.092
 7227SOL    HW222581   1.276   1.608   1.135
 7228SOL     OW22582   0.617   1.612   2.512
 7228SOL    HW122583   0.654   1.695   2.552
 7228SOL    HW222584   0.525   1.595   2.547
 7229SOL     OW22585   1.564   5.859   5.588
 7229SOL    HW122586   1.499   5.798   5.541
 7229SOL    HW222587   1.630   5.804   5.639
 7230SOL     OW22588   4.731   5.140   4.240
 7230SOL    HW122589   4.653   5.089   4.276
 7230SOL    HW222590   4.816   5.098   4.272
 7231SOL     OW22591   4.988   0.390   0.202
 7231SOL    HW122592   4.958   0.444   0.281
 7231SOL    HW222593   5.049   0.317   0.232
 7232SOL     OW22594   5.288   5.474   3.188
 7232SOL    HW122595   5.364   5.491   3.125
 7232SOL    HW222596   5.205   5.518   3.154
 7233SOL     OW22597   0.530   2.372   4.259
 7233SOL    HW122598   0.609   2.311   4.251
 7233SOL    HW222599   0.546   2.438   4.333
 7234SOL     OW22600   5.365   2.950   3.228
 7234SOL    HW122601   5.381   2.854   3.252
 7234SOL    HW222602   5.274   2.959   3.188
 7235SOL     OW22603   6.493   3.921   2.168
 7235SOL    HW122604   6.501   4.005   2.114
 7235SOL    HW222605   6.478   3.945   2.264
 7236SOL     OW22606   2.287   2.077   2.120
 7236SOL    HW122607   2.190   2.057   2.111
 7236SOL    HW222608   2.338   1.991   2.128
 7237SOL     OW22609   4.989   1.141   4.438
 7237SOL    HW122610   4.898   1.147   4.479
 7237SOL    HW222611   5.053   1.195   4.493
 7238SOL     OW22612   3.132   1.539   0.775
 7238SOL    HW122613   3.093   1.520   0.865
 7238SOL    HW222614   3.224   1.498   0.770
 7239SOL     OW22615   1.970   2.639   2.446
 7239SOL    HW122616   1.979   2.566   2.379
 7239SOL    HW222617   2.013   2.722   2.410
 7240SOL     OW22618   2.721   4.723   6.175
 7240SOL    HW122619   2.699   4.762   6.086
 7240SOL    HW222620   2.807   4.673   6.168
 7241SOL     OW22621   2.260   0.754   0.313
 7241SOL    HW122622   2.194   0.803   0.369
 7241SOL    HW222623   2.348   0.802   0.314
 7242SOL     OW22624   6.693   6.113   0.426
 7242SOL    HW122625   6.626   6.170   0.378
 7242SOL    HW222626   6.746   6.061   0.360
 7243SOL     OW22627   6.224   4.644   5.959
 7243SOL    HW122628   6.286   4.692   6.021
 7243SOL    HW222629   6.273   4.615   5.878
 7244SOL     OW22630   5.926   0.731   1.323
 7244SOL    HW122631   5.929   0.773   1.413
 7244SOL    HW222632   5.857   0.777   1.266
 7245SOL     OW22633   0.959   1.958   4.973
 7245SOL    HW122634   0.868   1.947   4.932
 7245SOL    HW222635   1.000   2.044   4.942
 7246SOL     OW22636   6.238   0.591   3.968
 7246SOL    HW122637   6.146   0.590   4.006
 7246SOL    HW222638   6.302   0.550   4.032
 7247SOL     OW22639   2.995   7.013   4.291
 7247SOL    HW122640   3.064   6.964   4.239
 7247SOL    HW222641   2.985   0.084   4.256
 7248SOL     OW22642   3.375   1.602   3.802
 7248SOL    HW122643   3.371   1.510   3.842
 7248SOL    HW222644   3.375   1.595   3.702
 7249SOL     OW22645   6.211   4.193   2.064
 7249SOL    HW122646   6.126   4.151   2.095
 7249SOL    HW222647   6.244   4.258   2.133
 7250SOL     OW22648   3.923   6.608   6.741
 7250SOL    HW122649   3.968   6.545   6.804
 7250SOL    HW222650   3.875   6.679   6.793
 7251SOL     OW22651   0.415   0.004   5.525
 7251SOL    HW122652   0.363   0.089   5.514
 7251SOL    HW222653   0.491   0.002   5.461
 7252SOL     OW22654   2.923   3.310   2.726
 7252SOL    HW122655   2.856   3.379   2.698
 7252SOL    HW222656   2.983   3.289   2.649
 7253SOL     OW22657   2.878   6.236   6.087
 7253SOL    HW122658   2.781   6.260   6.089
 7253SOL    HW222659   2.900   6.191   6.000
 7254SOL     OW22660   4.111   5.259   4.294
 7254SOL    HW122661   4.177   5.195   4.256
 7254SOL    HW222662   4.100   5.336   4.231
 7255SOL     OW22663   3.808   3.896   1.120
 7255SOL    HW122664   3.772   3.875   1.211
 7255SOL    HW222665   3.735   3.934   1.064
 7256SOL     OW22666   4.062   4.997   4.408
 7256SOL    HW122667   4.041   5.093   4.392
 7256SOL    HW222668   3.997   4.959   4.474
 7257SOL     OW22669   4.884   3.433   4.015
 7257SOL    HW122670   4.914   3.338   4.008
 7257SOL    HW222671   4.882   3.461   4.111
 7258SOL     OW22672   4.127   0.794   2.576
 7258SOL    HW122673   4.224   0.816   2.583
 7258SOL    HW222674   4.073   0.877   2.591
 7259SOL     OW22675   3.104   3.351   1.043
 7259SOL    HW122676   3.100   3.419   0.970
 7259SOL    HW222677   3.194   3.355   1.088
 7260SOL     OW22678   2.841   2.008   2.714
 7260SOL    HW122679   2.932   2.042   2.733
 7260SOL    HW222680   2.783   2.083   2.680
 7261SOL     OW22681   1.464   3.380   1.422
 7261SOL    HW122682   1.462   3.414   1.516
 7261SOL    HW222683   1.543   3.417   1.373
 7262SOL     OW22684   5.285   1.661   5.105
 7262SOL    HW122685   5.384   1.658   5.089
 7262SOL    HW222686   5.267   1.675   5.202
 7263SOL     OW22687   0.713   6.871   1.925
 7263SOL    HW122688   0.707   6.943   1.856
 7263SOL    HW222689   0.776   6.800   1.894
 7264SOL     OW22690   6.003   1.313   6.721
 7264SOL    HW122691   5.930   1.354   6.665
 7264SOL    HW222692   6.024   1.222   6.687
 7265SOL     OW22693   5.272   5.730   6.095
 7265SOL    HW122694   5.306   5.649   6.144
 7265SOL    HW222695   5.225   5.791   6.158
 7266SOL     OW22696   4.993   0.542   1.244
 7266SOL    HW122697   4.933   0.579   1.173
 7266SOL    HW222698   4.946   0.542   1.332
 7267SOL     OW22699   7.019   6.170   5.329
 7267SOL    HW122700   7.006   6.095   5.264
 7267SOL    HW222701   0.066   6.145   5.396
 7268SOL     OW22702   4.257   4.977   2.840
 7268SOL    HW122703   4.212   4.926   2.766
 7268SOL    HW222704   4.187   5.018   2.899
 7269SOL     OW22705   0.146   6.225   1.234
 7269SOL    HW122706   0.139   6.300   1.300
 7269SOL    HW222707   0.071   6.231   1.169
 7270SOL     OW22708   0.875   3.224   4.983
 7270SOL    HW122709   0.789   3.185   5.016
 7270SOL    HW222710   0.917   3.162   4.917
 7271SOL     OW22711   0.317   5.533   4.308
 7271SOL    HW122712   0.280   5.624   4.323
 7271SOL    HW222713   0.252   5.465   4.340
 7272SOL     OW22714   5.419   4.822   2.201
 7272SOL    HW122715   5.323   4.800   2.217
 7272SOL    HW222716   5.427   4.883   2.122
 7273SOL     OW22717   5.015   4.639   2.036
 7273SOL    HW122718   4.918   4.629   2.055
 7273SOL    HW222719   5.040   4.580   1.959
 7274SOL     OW22720   0.741   6.268   0.159
 7274SOL    HW122721   0.771   6.320   0.079
 7274SOL    HW222722   0.819   6.251   0.219
 7275SOL     OW22723   6.829   1.115   2.600
 7275SOL    HW122724   6.914   1.094   2.648
 7275SOL    HW222725   6.844   1.109   2.501
 7276SOL     OW22726   3.913   1.228   2.913
 7276SOL    HW122727   3.972   1.147   2.913
 7276SOL    HW222728   3.918   1.272   3.002
 7277SOL     OW22729   4.886   1.215   4.183
 7277SOL    HW122730   4.860   1.310   4.205
 7277SOL    HW222731   4.925   1.171   4.264
 7278SOL     OW22732   3.301   2.186   1.822
 7278SOL    HW122733   3.354   2.119   1.874
 7278SOL    HW222734   3.204   2.180   1.847
 7279SOL     OW22735   4.167   2.920   6.281
 7279SOL    HW122736   4.117   3.005   6.266
 7279SOL    HW222737   4.240   2.912   6.213
 7280SOL     OW22738   6.864   2.012   4.000
 7280SOL    HW122739   6.962   2.020   4.019
 7280SOL    HW222740   6.825   2.102   3.983
 7281SOL     OW22741   1.694   0.622   0.376
 7281SOL    HW122742   1.596   0.622   0.398
 7281SOL    HW222743   1.747   0.627   0.460
 7282SOL     OW22744   6.370   6.483   0.713
 7282SOL    HW122745   6.467   6.508   0.704
 7282SOL    HW222746   6.362   6.386   0.732
 7283SOL     OW22747   3.367   7.017   1.858
 7283SOL    HW122748   3.338   7.010   1.762
 7283SOL    HW222749   3.408   0.084   1.874
 7284SOL     OW22750   6.910   2.805   4.719
 7284SOL    HW122751   6.853   2.739   4.671
 7284SOL    HW222752   6.960   2.862   4.653
 7285SOL     OW22753   6.132   3.791   1.767
 7285SOL    HW122754   6.172   3.851   1.836
 7285SOL    HW222755   6.114   3.701   1.806
 7286SOL     OW22756   0.634   0.393   1.451
 7286SOL    HW122757   0.622   0.492   1.444
 7286SOL    HW222758   0.723   0.373   1.492
 7287SOL     OW22759   6.700   2.985   4.698
 7287SOL    HW122760   6.631   2.943   4.639
 7287SOL    HW222761   6.771   2.917   4.719
 7288SOL     OW22762   0.767   1.853   1.962
 7288SOL    HW122763   0.796   1.810   1.877
 7288SOL    HW222764   0.775   1.788   2.037
 7289SOL     OW22765   6.420   1.807   3.175
 7289SOL    HW122766   6.402   1.713   3.145
 7289SOL    HW222767   6.518   1.825   3.167
 7290SOL     OW22768   3.023   1.002   5.736
 7290SOL    HW122769   3.011   1.099   5.758
 7290SOL    HW222770   3.020   0.949   5.821
 7291SOL     OW22771   2.396   0.067   1.476
 7291SOL    HW122772   2.402   0.070   1.376
 7291SOL    HW222773   2.328   7.021   1.503
 7292SOL     OW22774   2.952   6.961   2.540
 7292SOL    HW122775   2.922   6.885   2.597
 7292SOL    HW222776   2.968   6.928   2.446
 7293SOL     OW22777   1.779   1.128   6.074
 7293SOL    HW122778   1.814   1.173   5.991
 7293SOL    HW222779   1.832   1.045   6.091
 7294SOL     OW22780   3.145   4.091   0.636
 7294SOL    HW122781   3.111   4.079   0.729
 7294SOL    HW222782   3.201   4.012   0.611
 7295SOL     OW22783   6.968   4.725   1.278
 7295SOL    HW122784   6.940   4.809   1.232
 7295SOL    HW222785   6.910   4.710   1.358
 7296SOL     OW22786   4.750   5.451   3.033
 7296SOL    HW122787   4.827   5.512   3.047
 7296SOL    HW222788   4.770   5.389   2.957
 7297SOL     OW22789   2.774   6.927   1.935
 7297SOL    HW122790   2.787   6.864   1.859
 7297SOL    HW222791   2.743   7.016   1.901
 7298SOL     OW22792   5.154   5.629   6.803
 7298SOL    HW122793   5.088   5.597   6.735
 7298SOL    HW222794   5.212   5.553   6.832
 7299SOL     OW22795   0.448   1.895   0.589
 7299SOL    HW122796   0.493   1.946   0.516
 7299SOL    HW222797   0.350   1.914   0.587
 7300SOL     OW22798   0.407   5.989   2.523
 7300SOL    HW122799   0.472   6.063   2.506
 7300SOL    HW222800   0.451   5.902   2.505
 7301SOL     OW22801   6.283   2.392   5.909
 7301SOL    HW122802   6.377   2.358   5.899
 7301SOL    HW222803   6.220   2.315   5.921
 7302SOL     OW22804   0.393   2.307   5.803
 7302SOL    HW122805   0.296   2.283   5.815
 7302SOL    HW222806   0.407   2.345   5.712
 7303SOL     OW22807   3.589   0.454   6.939
 7303SOL    HW122808   3.687   0.447   6.959
 7303SOL    HW222809   3.563   0.387   6.870
 7304SOL     OW22810   2.595   5.559   1.699
 7304SOL    HW122811   2.636   5.592   1.784
 7304SOL    HW222812   2.528   5.488   1.719
 7305SOL     OW22813   5.724   1.554   1.246
 7305SOL    HW122814   5.710   1.646   1.283
 7305SOL    HW222815   5.748   1.560   1.149
 7306SOL     OW22816   3.384   1.498   1.697
 7306SOL    HW122817   3.362   1.580   1.749
 7306SOL    HW222818   3.483   1.489   1.690
 7307SOL     OW22819   4.091   0.136   2.475
 7307SOL    HW122820   4.139   0.124   2.562
 7307SOL    HW222821   4.142   0.090   2.402
 7308SOL     OW22822   6.249   1.468   3.695
 7308SOL    HW122823   6.225   1.521   3.777
 7308SOL    HW222824   6.217   1.517   3.614
 7309SOL     OW22825   3.116   6.891   1.378
 7309SOL    HW122826   3.174   6.810   1.370
 7309SOL    HW222827   3.022   6.864   1.400
 7310SOL     OW22828   2.016   3.357   6.763
 7310SOL    HW122829   2.006   3.437   6.704
 7310SOL    HW222830   2.111   3.327   6.763
 7311SOL     OW22831   1.417   0.565   0.428
 7311SOL    HW122832   1.341   0.625   0.454
 7311SOL    HW222833   1.423   0.489   0.493
 7312SOL     OW22834   0.814   1.592   4.700
 7312SOL    HW122835   0.830   1.576   4.797
 7312SOL    HW222836   0.861   1.676   4.672
 7313SOL     OW22837   2.325   1.334   0.862
 7313SOL    HW122838   2.344   1.415   0.916
 7313SOL    HW222839   2.362   1.345   0.770
 7314SOL     OW22840   0.006   3.997   6.068
 7314SOL    HW122841   0.021   3.983   5.970
 7314SOL    HW222842   6.977   3.919   6.105
 7315SOL     OW22843   5.335   5.864   2.126
 7315SOL    HW122844   5.264   5.830   2.064
 7315SOL    HW222845   5.354   5.794   2.195
 7316SOL     OW22846   3.305   2.881   6.618
 7316SOL    HW122847   3.400   2.905   6.601
 7316SOL    HW222848   3.289   2.787   6.587
 7317SOL     OW22849   3.494   1.762   2.139
 7317SOL    HW122850   3.537   1.742   2.227
 7317SOL    HW222851   3.400   1.793   2.155
 7318SOL     OW22852   3.199   6.517   3.435
 7318SOL    HW122853   3.226   6.432   3.390
 7318SOL    HW222854   3.124   6.560   3.384
 7319SOL     OW22855   5.728   3.127   6.533
 7319SOL    HW122856   5.666   3.053   6.559
 7319SOL    HW222857   5.680   3.192   6.473
 7320SOL     OW22858   0.403   3.487   0.074
 7320SOL    HW122859   0.472   3.427   0.115
 7320SOL    HW222860   0.318   3.436   0.061
 7321SOL     OW22861   2.422   0.040   6.039
 7321SOL    HW122862   2.379   0.016   6.127
 7321SOL    HW222863   2.388   7.001   5.968
 7322SOL     OW22864   0.155   2.824   2.987
 7322SOL    HW122865   0.117   2.812   2.895
 7322SOL    HW222866   0.095   2.781   3.054
 7323SOL     OW22867   2.591   3.002   1.631
 7323SOL    HW122868   2.494   3.016   1.609
 7323SOL    HW222869   2.634   2.946   1.561
 7324SOL     OW22870   6.025   4.946   2.522
 7324SOL    HW122871   5.958   4.876   2.498
 7324SOL    HW222872   6.009   4.977   2.615
 7325SOL     OW22873   3.181   6.836   5.136
 7325SOL    HW122874   3.261   6.785   5.170
 7325SOL    HW222875   3.209   6.895   5.061
 7326SOL     OW22876   3.460   0.055   6.197
 7326SOL    HW122877   3.378   0.084   6.245
 7326SOL    HW222878   3.531   0.029   6.263
 7327SOL     OW22879   5.850   2.781   3.925
 7327SOL    HW122880   5.792   2.767   3.844
 7327SOL    HW222881   5.794   2.771   4.008
 7328SOL     OW22882   4.331   6.353   5.495
 7328SOL    HW122883   4.314   6.356   5.594
 7328SOL    HW222884   4.392   6.429   5.469
 7329SOL     OW22885   1.196   2.940   0.511
 7329SOL    HW122886   1.207   3.035   0.541
 7329SOL    HW222887   1.285   2.894   0.514
 7330SOL     OW22888   2.231   3.145   1.038
 7330SOL    HW122889   2.220   3.196   0.952
 7330SOL    HW222890   2.263   3.052   1.017
 7331SOL     OW22891   5.499   6.261   1.869
 7331SOL    HW122892   5.443   6.250   1.787
 7331SOL    HW222893   5.509   6.359   1.889
 7332SOL     OW22894   3.539   4.295   6.861
 7332SOL    HW122895   3.533   4.394   6.847
 7332SOL    HW222896   3.484   4.269   6.940
 7333SOL     OW22897   5.933   3.329   2.376
 7333SOL    HW122898   5.894   3.297   2.463
 7333SOL    HW222899   5.999   3.402   2.395
 7334SOL     OW22900   2.642   5.541   5.869
 7334SOL    HW122901   2.591   5.557   5.784
 7334SOL    HW222902   2.688   5.453   5.864
 7335SOL     OW22903   0.319   2.663   3.484
 7335SOL    HW122904   0.333   2.697   3.391
 7335SOL    HW222905   0.259   2.725   3.533
 7336SOL     OW22906   2.239   6.715   1.358
 7336SOL    HW122907   2.149   6.756   1.346
 7336SOL    HW222908   2.254   6.645   1.287
 7337SOL     OW22909   2.038   3.195   1.225
 7337SOL    HW122910   2.079   3.242   1.304
 7337SOL    HW222911   2.110   3.167   1.162
 7338SOL     OW22912   5.264   1.656   1.668
 7338SOL    HW122913   5.193   1.726   1.665
 7338SOL    HW222914   5.353   1.698   1.648
 7339SOL     OW22915   6.765   0.733   5.068
 7339SOL    HW122916   6.756   0.831   5.055
 7339SOL    HW222917   6.853   0.712   5.112
 7340SOL     OW22918   3.559   2.136   6.872
 7340SOL    HW122919   3.630   2.154   6.940
 7340SOL    HW222920   3.471   2.168   6.908
 7341SOL     OW22921   1.049   5.135   5.321
 7341SOL    HW122922   1.124   5.135   5.255
 7341SOL    HW222923   1.078   5.090   5.405
 7342SOL     OW22924   6.189   6.459   6.834
 7342SOL    HW122925   6.203   6.483   6.738
 7342SOL    HW222926   6.141   6.371   6.840
 7343SOL     OW22927   5.557   3.454   1.869
 7343SOL    HW122928   5.508   3.392   1.807
 7343SOL    HW222929   5.642   3.483   1.826
 7344SOL     OW22930   2.258   0.015   6.272
 7344SOL    HW122931   2.225   0.109   6.272
 7344SOL    HW222932   2.338   0.007   6.332
 7345SOL     OW22933   5.583   5.951   5.424
 7345SOL    HW122934   5.681   5.953   5.403
 7345SOL    HW222935   5.570   5.930   5.521
 7346SOL     OW22936   3.438   4.494   1.080
 7346SOL    HW122937   3.454   4.549   1.162
 7346SOL    HW222938   3.396   4.407   1.106
 7347SOL     OW22939   6.408   2.919   1.363
 7347SOL    HW122940   6.330   2.863   1.392
 7347SOL    HW222941   6.474   2.861   1.314
 7348SOL     OW22942   1.473   3.650   3.859
 7348SOL    HW122943   1.492   3.674   3.955
 7348SOL    HW222944   1.470   3.733   3.804
 7349SOL     OW22945   4.163   1.603   1.080
 7349SOL    HW122946   4.163   1.604   1.180
 7349SOL    HW222947   4.232   1.539   1.047
 7350SOL     OW22948   1.653   3.525   4.364
 7350SOL    HW122949   1.723   3.511   4.294
 7350SOL    HW222950   1.576   3.464   4.346
 7351SOL     OW22951   4.469   5.523   5.613
 7351SOL    HW122952   4.437   5.428   5.609
 7351SOL    HW222953   4.403   5.582   5.567
 7352SOL     OW22954   1.504   3.421   2.865
 7352SOL    HW122955   1.532   3.470   2.948
 7352SOL    HW222956   1.509   3.323   2.881
 7353SOL     OW22957   0.319   0.299   5.729
 7353SOL    HW122958   0.341   0.228   5.796
 7353SOL    HW222959   0.400   0.354   5.712
 7354SOL     OW22960   0.964   1.480   6.374
 7354SOL    HW122961   0.997   1.529   6.293
 7354SOL    HW222962   1.004   1.388   6.375
 7355SOL     OW22963   1.829   1.087   0.346
 7355SOL    HW122964   1.807   1.168   0.291
 7355SOL    HW222965   1.927   1.069   0.342
 7356SOL     OW22966   4.969   2.845   6.574
 7356SOL    HW122967   5.041   2.881   6.634
 7356SOL    HW222968   4.918   2.774   6.622
 7357SOL     OW22969   4.196   0.945   1.754
 7357SOL    HW122970   4.213   0.846   1.756
 7357SOL    HW222971   4.284   0.993   1.754
 7358SOL     OW22972   1.690   2.652   2.241
 7358SOL    HW122973   1.776   2.606   2.259
 7358SOL    HW222974   1.702   2.718   2.166
 7359SOL     OW22975   3.061   2.673   0.743
 7359SOL    HW122976   3.107   2.745   0.690
 7359SOL    HW222977   3.124   2.634   0.809
 7360SOL     OW22978   3.355   2.766   5.707
 7360SOL    HW122979   3.322   2.847   5.658
 7360SOL    HW222980   3.434   2.728   5.658
 7361SOL     OW22981   4.375   0.290   1.513
 7361SOL    HW122982   4.331   0.292   1.603
 7361SOL    HW222983   4.306   0.274   1.442
 7362SOL     OW22984   0.710   6.602   4.591
 7362SOL    HW122985   0.676   6.510   4.571
 7362SOL    HW222986   0.787   6.596   4.655
 7363SOL     OW22987   3.903   1.628   0.914
 7363SOL    HW122988   3.887   1.722   0.887
 7363SOL    HW222989   3.962   1.626   0.995
 7364SOL     OW22990   4.223   0.339   1.279
 7364SOL    HW122991   4.307   0.325   1.226
 7364SOL    HW222992   4.144   0.315   1.223
 7365SOL     OW22993   1.418   5.949   2.114
 7365SOL    HW122994   1.393   5.930   2.209
 7365SOL    HW222995   1.340   5.933   2.055
 7366SOL     OW22996   2.006   5.255   0.645
 7366SOL    HW122997   1.951   5.177   0.676
 7366SOL    HW222998   1.983   5.276   0.550
 7367SOL     OW22999   4.944   4.178   1.173
 7367SOL    HW123000   4.982   4.226   1.094
 7367SOL    HW223001   4.844   4.178   1.168
 7368SOL     OW23002   3.819   2.990   3.537
 7368SOL    HW123003   3.764   2.981   3.620
 7368SOL    HW223004   3.913   3.012   3.562
 7369SOL     OW23005   4.377   3.273   0.801
 7369SOL    HW123006   4.300   3.320   0.756
 7369SOL    HW223007   4.349   3.181   0.826
 7370SOL     OW23008   2.165   0.659   5.085
 7370SOL    HW123009   2.166   0.670   4.986
 7370SOL    HW223010   2.093   0.594   5.110
 7371SOL     OW23011   2.152   6.413   3.940
 7371SOL    HW123012   2.234   6.466   3.961
 7371SOL    HW223013   2.081   6.474   3.905
 7372SOL     OW23014   2.760   1.410   5.664
 7372SOL    HW123015   2.737   1.507   5.663
 7372SOL    HW223016   2.696   1.360   5.606
 7373SOL     OW23017   5.502   1.433   4.425
 7373SOL    HW123018   5.547   1.348   4.453
 7373SOL    HW223019   5.550   1.472   4.347
 7374SOL     OW23020   2.995   2.344   5.318
 7374SOL    HW123021   3.085   2.355   5.275
 7374SOL    HW223022   2.948   2.432   5.321
 7375SOL     OW23023   1.591   2.804   3.290
 7375SOL    HW123024   1.641   2.724   3.325
 7375SOL    HW223025   1.654   2.880   3.278
 7376SOL     OW23026   4.067   1.685   0.134
 7376SOL    HW123027   4.068   1.682   0.233
 7376SOL    HW223028   4.014   1.608   0.098
 7377SOL     OW23029   5.603   5.454   1.840
 7377SOL    HW123030   5.690   5.409   1.859
 7377SOL    HW223031   5.527   5.395   1.870
 7378SOL     OW23032   0.013   1.726   5.144
 7378SOL    HW123033   0.096   1.681   5.112
 7378SOL    HW223034   6.955   1.677   5.110
 7379SOL     OW23035   4.025   2.085   3.112
 7379SOL    HW123036   4.084   2.048   3.184
 7379SOL    HW223037   4.082   2.114   3.034
 7380SOL     OW23038   6.533   3.024   4.914
 7380SOL    HW123039   6.594   3.016   4.836
 7380SOL    HW223040   6.493   2.935   4.937
 7381SOL     OW23041   5.123   4.087   2.179
 7381SOL    HW123042   5.138   4.181   2.209
 7381SOL    HW223043   5.142   4.079   2.081
 7382SOL     OW23044   0.233   5.507   6.129
 7382SOL    HW123045   0.219   5.442   6.054
 7382SOL    HW223046   0.159   5.573   6.130
 7383SOL     OW23047   0.853   6.581   1.454
 7383SOL    HW123048   0.794   6.514   1.408
 7383SOL    HW223049   0.934   6.535   1.489
 7384SOL     OW23050   5.952   0.837   2.127
 7384SOL    HW123051   5.899   0.889   2.060
 7384SOL    HW223052   6.048   0.833   2.098
 7385SOL     OW23053   3.997   5.799   2.096
 7385SOL    HW123054   4.091   5.792   2.063
 7385SOL    HW223055   3.976   5.894   2.118
 7386SOL     OW23056   0.120   2.258   5.515
 7386SOL    HW123057   0.176   2.232   5.436
 7386SOL    HW223058   0.028   2.222   5.504
 7387SOL     OW23059   4.275   6.787   4.272
 7387SOL    HW123060   4.336   6.774   4.194
 7387SOL    HW223061   4.250   6.697   4.309
 7388SOL     OW23062   0.588   4.965   3.119
 7388SOL    HW123063   0.655   4.895   3.144
 7388SOL    HW223064   0.623   5.056   3.142
 7389SOL     OW23065   0.863   4.331   6.667
 7389SOL    HW123066   0.914   4.388   6.732
 7389SOL    HW223067   0.767   4.356   6.668
 7390SOL     OW23068   2.134   1.393   6.761
 7390SOL    HW123069   2.133   1.375   6.859
 7390SOL    HW223070   2.177   1.316   6.713
 7391SOL     OW23071   5.341   4.387   4.726
 7391SOL    HW123072   5.253   4.345   4.749
 7391SOL    HW223073   5.387   4.416   4.809
 7392SOL     OW23074   3.000   6.199   0.038
 7392SOL    HW123075   3.004   6.298   0.027
 7392SOL    HW223076   2.905   6.169   0.039
 7393SOL     OW23077   5.397   4.726   1.544
 7393SOL    HW123078   5.338   4.651   1.574
 7393SOL    HW223079   5.352   4.814   1.562
 7394SOL     OW23080   3.028   2.393   6.117
 7394SOL    HW123081   2.929   2.404   6.117
 7394SOL    HW223082   3.062   2.401   6.023
 7395SOL     OW23083   2.293   1.607   0.080
 7395SOL    HW123084   2.390   1.626   0.066
 7395SOL    HW223085   2.274   1.605   0.178
 7396SOL     OW23086   0.934   6.948   0.629
 7396SOL    HW123087   0.855   6.962   0.570
 7396SOL    HW223088   0.955   6.850   0.634
 7397SOL     OW23089   5.271   5.301   5.400
 7397SOL    HW123090   5.315   5.217   5.433
 7397SOL    HW223091   5.268   5.368   5.474
 7398SOL     OW23092   3.131   5.410   4.333
 7398SOL    HW123093   3.204   5.473   4.361
 7398SOL    HW223094   3.057   5.414   4.400
 7399SOL     OW23095   1.186   3.008   5.634
 7399SOL    HW123096   1.136   3.064   5.568
 7399SOL    HW223097   1.188   3.057   5.722
 7400SOL     OW23098   3.145   3.233   6.046
 7400SOL    HW123099   3.077   3.300   6.074
 7400SOL    HW223100   3.099   3.151   6.010
 7401SOL     OW23101   0.544   1.008   3.812
 7401SOL    HW123102   0.595   0.963   3.738
 7401SOL    HW223103   0.603   1.017   3.892
 7402SOL     OW23104   2.747   5.292   5.815
 7402SOL    HW123105   2.846   5.296   5.826
 7402SOL    HW223106   2.710   5.221   5.876
 7403SOL     OW23107   1.792   4.263   2.921
 7403SOL    HW123108   1.866   4.283   2.857
 7403SOL    HW223109   1.818   4.185   2.978
 7404SOL     OW23110   3.123   5.441   1.257
 7404SOL    HW123111   3.145   5.500   1.180
 7404SOL    HW223112   3.121   5.496   1.341
 7405SOL     OW23113   2.919   4.804   4.412
 7405SOL    HW123114   2.891   4.876   4.476
 7405SOL    HW223115   2.897   4.715   4.451
 7406SOL     OW23116   1.204   3.066   3.564
 7406SOL    HW123117   1.144   3.133   3.607
 7406SOL    HW223118   1.200   2.980   3.615
 7407SOL     OW23119   0.171   5.973   4.956
 7407SOL    HW123120   0.208   5.880   4.961
 7407SOL    HW223121   0.246   6.038   4.961
 7408SOL     OW23122   1.211   3.378   5.817
 7408SOL    HW123123   1.306   3.355   5.797
 7408SOL    HW223124   1.162   3.296   5.846
 7409SOL     OW23125   0.727   1.286   5.085
 7409SOL    HW123126   0.796   1.267   5.154
 7409SOL    HW223127   0.651   1.337   5.126
 7410SOL     OW23128   0.476   4.815   1.540
 7410SOL    HW123129   0.396   4.789   1.594
 7410SOL    HW223130   0.559   4.802   1.595
 7411SOL     OW23131   2.811   6.832   4.177
 7411SOL    HW123132   2.831   6.854   4.081
 7411SOL    HW223133   2.860   6.896   4.237
 7412SOL     OW23134   3.878   0.027   2.749
 7412SOL    HW123135   3.966   0.001   2.710
 7412SOL    HW223136   3.872   0.127   2.752
 7413SOL     OW23137   4.828   5.136   4.946
 7413SOL    HW123138   4.822   5.059   5.008
 7413SOL    HW223139   4.767   5.209   4.977
 7414SOL     OW23140   0.083   6.690   3.977
 7414SOL    HW123141   0.064   6.718   3.883
 7414SOL    HW223142   0.088   6.591   3.981
 7415SOL     OW23143   1.270   3.980   2.724
 7415SOL    HW123144   1.350   3.958   2.780
 7415SOL    HW223145   1.192   3.925   2.755
 7416SOL     OW23146   3.226   0.879   3.745
 7416SOL    HW123147   3.265   0.896   3.835
 7416SOL    HW223148   3.170   0.958   3.717
 7417SOL     OW23149   2.150   0.467   5.800
 7417SOL    HW123150   2.140   0.416   5.886
 7417SOL    HW223151   2.096   0.423   5.729
 7418SOL     OW23152   3.421   5.450   0.541
 7418SOL    HW123153   3.380   5.439   0.451
 7418SOL    HW223154   3.408   5.544   0.573
 7419SOL     OW23155   6.189   2.305   5.379
 7419SOL    HW123156   6.198   2.206   5.379
 7419SOL    HW223157   6.179   2.338   5.473
 7420SOL     OW23158   6.993   6.562   1.855
 7420SOL    HW123159   6.922   6.538   1.921
 7420SOL    HW223160   0.004   6.654   1.873
 7421SOL     OW23161   3.359   3.369   1.124
 7421SOL    HW123162   3.453   3.378   1.092
 7421SOL    HW223163   3.341   3.437   1.195
 7422SOL     OW23164   0.062   3.125   2.295
 7422SOL    HW123165   0.156   3.099   2.276
 7422SOL    HW223166   0.051   3.141   2.393
 7423SOL     OW23167   6.894   4.771   5.544
 7423SOL    HW123168   6.991   4.790   5.555
 7423SOL    HW223169   6.854   4.748   5.633
 7424SOL     OW23170   0.159   0.251   5.002
 7424SOL    HW123171   0.150   0.270   5.100
 7424SOL    HW223172   0.161   0.337   4.952
 7425SOL     OW23173   4.684   5.826   6.590
 7425SOL    HW123174   4.599   5.880   6.599
 7425SOL    HW223175   4.717   5.800   6.680
 7426SOL     OW23176   1.673   1.262   6.779
 7426SOL    HW123177   1.607   1.327   6.742
 7426SOL    HW223178   1.747   1.312   6.823
 7427SOL     OW23179   3.348   6.547   4.008
 7427SOL    HW123180   3.386   6.553   3.916
 7427SOL    HW223181   3.377   6.626   4.062
 7428SOL     OW23182   3.944   1.419   6.150
 7428SOL    HW123183   3.993   1.377   6.073
 7428SOL    HW223184   3.865   1.363   6.174
 7429SOL     OW23185   5.919   6.974   3.667
 7429SOL    HW123186   5.895   6.878   3.683
 7429SOL    HW223187   5.886   7.002   3.577
 7430SOL     OW23188   0.246   3.908   6.170
 7430SOL    HW123189   0.158   3.956   6.166
 7430SOL    HW223190   0.320   3.975   6.167
 7431SOL     OW23191   0.371   2.952   2.849
 7431SOL    HW123192   0.308   2.887   2.892
 7431SOL    HW223193   0.359   3.042   2.891
 7432SOL     OW23194   6.939   0.221   3.485
 7432SOL    HW123195   6.989   0.139   3.511
 7432SOL    HW223196   6.891   0.205   3.399
 7433SOL     OW23197   5.846   5.315   0.232
 7433SOL    HW123198   5.821   5.224   0.199
 7433SOL    HW223199   5.779   5.346   0.299
 7434SOL     OW23200   4.776   0.436   6.011
 7434SOL    HW123201   4.820   0.523   5.991
 7434SOL    HW223202   4.755   0.431   6.108
 7435SOL     OW23203   3.949   5.806   0.720
 7435SOL    HW123204   4.020   5.821   0.788
 7435SOL    HW223205   3.914   5.894   0.687
 7436SOL     OW23206   5.620   3.409   6.188
 7436SOL    HW123207   5.636   3.501   6.224
 7436SOL    HW223208   5.525   3.381   6.207
 7437SOL     OW23209   0.404   6.097   0.542
 7437SOL    HW123210   0.357   6.161   0.481
 7437SOL    HW223211   0.472   6.147   0.596
 7438SOL     OW23212   0.801   5.382   0.830
 7438SOL    HW123213   0.744   5.450   0.875
 7438SOL    HW223214   0.896   5.391   0.863
 7439SOL     OW23215   1.523   6.344   4.981
 7439SOL    HW123216   1.611   6.392   4.982
 7439SOL    HW223217   1.486   6.340   5.073
 7440SOL     OW23218   0.847   3.372   4.504
 7440SOL    HW123219   0.811   3.379   4.597
 7440SOL    HW223220   0.943   3.345   4.507
 7441SOL     OW23221   4.624   5.891   4.794
 7441SOL    HW123222   4.666   5.830   4.727
 7441SOL    HW223223   4.525   5.876   4.795
 7442SOL     OW23224   0.666   0.789   6.401
 7442SOL    HW123225   0.582   0.783   6.456
 7442SOL    HW223226   0.739   0.736   6.445
 7443SOL     OW23227   0.402   0.725   1.957
 7443SOL    HW123228   0.325   0.777   1.993
 7443SOL    HW223229   0.424   0.650   2.019
 7444SOL     OW23230   6.627   3.253   4.631
 7444SOL    HW123231   6.648   3.166   4.675
 7444SOL    HW223232   6.618   3.325   4.700
 7445SOL     OW23233   3.138   1.225   1.136
 7445SOL    HW123234   3.050   1.266   1.115
 7445SOL    HW223235   3.211   1.291   1.117
 7446SOL     OW23236   5.421   3.956   0.978
 7446SOL    HW123237   5.359   3.901   0.924
 7446SOL    HW223238   5.381   3.975   1.067
 7447SOL     OW23239   1.227   3.319   5.348
 7447SOL    HW123240   1.311   3.302   5.399
 7447SOL    HW223241   1.197   3.413   5.363
 7448SOL     OW23242   6.063   6.537   5.138
 7448SOL    HW123243   6.124   6.586   5.200
 7448SOL    HW223244   6.112   6.461   5.095
 7449SOL     OW23245   6.759   2.564   1.825
 7449SOL    HW123246   6.692   2.539   1.755
 7449SOL    HW223247   6.727   2.645   1.874
 7450SOL     OW23248   5.228   2.022   4.400
 7450SOL    HW123249   5.177   1.955   4.454
 7450SOL    HW223250   5.180   2.038   4.314
 7451SOL     OW23251   0.985   6.633   2.821
 7451SOL    HW123252   0.956   6.548   2.778
 7451SOL    HW223253   1.076   6.621   2.861
 7452SOL     OW23254   0.322   6.365   5.313
 7452SOL    HW123255   0.330   6.416   5.227
 7452SOL    HW223256   0.411   6.358   5.356
 7453SOL     OW23257   4.534   6.073   5.559
 7453SOL    HW123258   4.499   6.165   5.544
 7453SOL    HW223259   4.585   6.043   5.479
 7454SOL     OW23260   1.070   2.127   1.527
 7454SOL    HW123261   1.117   2.170   1.450
 7454SOL    HW223262   1.013   2.194   1.574
 7455SOL     OW23263   0.214   1.921   1.685
 7455SOL    HW123264   0.218   1.826   1.717
 7455SOL    HW223265   0.140   1.969   1.732
 7456SOL     OW23266   0.778   2.231   4.273
 7456SOL    HW123267   0.848   2.206   4.340
 7456SOL    HW223268   0.822   2.264   4.189
 7457SOL     OW23269   3.664   0.787   5.229
 7457SOL    HW123270   3.677   0.872   5.280
 7457SOL    HW223271   3.702   0.710   5.281
 7458SOL     OW23272   2.314   0.103   6.668
 7458SOL    HW123273   2.398   0.086   6.719
 7458SOL    HW223274   2.251   0.157   6.724
 7459SOL     OW23275   4.652   0.922   1.274
 7459SOL    HW123276   4.680   0.971   1.192
 7459SOL    HW223277   4.652   0.824   1.255
 7460SOL     OW23278   1.703   4.250   1.210
 7460SOL    HW123279   1.665   4.343   1.210
 7460SOL    HW223280   1.701   4.213   1.302
 7461SOL     OW23281   6.228   1.747   5.961
 7461SOL    HW123282   6.149   1.719   6.014
 7461SOL    HW223283   6.297   1.675   5.963
 7462SOL     OW23284   1.199   4.179   2.910
 7462SOL    HW123285   1.102   4.171   2.930
 7462SOL    HW223286   1.219   4.133   2.824
 7463SOL     OW23287   2.866   4.882   1.093
 7463SOL    HW123288   2.768   4.867   1.103
 7463SOL    HW223289   2.888   4.976   1.119
 7464SOL     OW23290   4.159   0.540   6.565
 7464SOL    HW123291   4.138   0.476   6.639
 7464SOL    HW223292   4.175   0.631   6.603
 7465SOL     OW23293   1.430   6.746   0.021
 7465SOL    HW123294   1.388   6.744   6.953
 7465SOL    HW223295   1.387   6.677   0.079
 7466SOL     OW23296   0.207   0.273   6.103
 7466SOL    HW123297   0.140   0.205   6.074
 7466SOL    HW223298   0.204   0.352   6.042
 7467SOL     OW23299   6.635   1.891   0.398
 7467SOL    HW123300   6.571   1.921   0.327
 7467SOL    HW223301   6.654   1.968   0.459
 7468SOL     OW23302   6.516   2.840   2.598
 7468SOL    HW123303   6.481   2.927   2.633
 7468SOL    HW223304   6.531   2.777   2.674
 7469SOL     OW23305   6.995   0.557   0.273
 7469SOL    HW123306   7.020   0.483   0.336
 7469SOL    HW223307   0.019   0.641   0.301
 7470SOL     OW23308   0.023   3.067   3.807
 7470SOL    HW123309   6.948   3.046   3.823
 7470SOL    HW223310   0.074   3.056   3.892
 7471SOL     OW23311   6.565   6.305   5.537
 7471SOL    HW123312   6.537   6.399   5.520
 7471SOL    HW223313   6.636   6.278   5.471
 7472SOL     OW23314   5.851   6.908   4.162
 7472SOL    HW123315   5.918   6.835   4.175
 7472SOL    HW223316   5.834   6.954   4.249
 7473SOL     OW23317   6.653   4.867   2.707
 7473SOL    HW123318   6.587   4.890   2.778
 7473SOL    HW223319   6.711   4.792   2.738
 7474SOL     OW23320   2.392   1.553   5.319
 7474SOL    HW123321   2.318   1.531   5.383
 7474SOL    HW223322   2.373   1.642   5.277
 7475SOL     OW23323   3.786   0.829   2.520
 7475SOL    HW123324   3.847   0.769   2.467
 7475SOL    HW223325   3.726   0.879   2.457
 7476SOL     OW23326   3.679   5.142   3.899
 7476SOL    HW123327   3.616   5.177   3.830
 7476SOL    HW223328   3.661   5.188   3.986
 7477SOL     OW23329   6.620   1.595   4.640
 7477SOL    HW123330   6.718   1.587   4.623
 7477SOL    HW223331   6.583   1.506   4.664
 7478SOL     OW23332   4.420   5.061   6.646
 7478SOL    HW123333   4.448   4.981   6.700
 7478SOL    HW223334   4.321   5.059   6.633
 7479SOL     OW23335   3.903   2.695   1.435
 7479SOL    HW123336   3.840   2.662   1.365
 7479SOL    HW223337   3.976   2.628   1.450
 7480SOL     OW23338   6.965   3.765   1.800
 7480SOL    HW123339   6.898   3.736   1.731
 7480SOL    HW223340   6.974   3.865   1.797
 7481SOL     OW23341   6.059   5.863   1.757
 7481SOL    HW123342   6.152   5.896   1.748
 7481SOL    HW223343   6.057   5.764   1.744
 7482SOL     OW23344   4.750   2.183   3.357
 7482SOL    HW123345   4.830   2.241   3.374
 7482SOL    HW223346   4.667   2.232   3.384
 7483SOL     OW23347   4.643   2.382   5.140
 7483SOL    HW123348   4.722   2.320   5.136
 7483SOL    HW223349   4.613   2.392   5.235
 7484SOL     OW23350   0.559   1.269   3.737
 7484SOL    HW123351   0.549   1.178   3.776
 7484SOL    HW223352   0.538   1.338   3.806
 7485SOL     OW23353   3.190   0.232   4.236
 7485SOL    HW123354   3.220   0.323   4.206
 7485SOL    HW223355   3.170   0.175   4.156
 7486SOL     OW23356   2.863   0.469   5.679
 7486SOL    HW123357   2.913   0.485   5.594
 7486SOL    HW223358   2.868   0.550   5.737
 7487SOL     OW23359   2.534   5.949   2.736
 7487SOL    HW123360   2.505   6.018   2.670
 7487SOL    HW223361   2.630   5.966   2.762
 7488SOL     OW23362   2.155   6.761   4.396
 7488SOL    HW123363   2.148   6.861   4.403
 7488SOL    HW223364   2.070   6.719   4.428
 7489SOL     OW23365   5.556   2.028   4.871
 7489SOL    HW123366   5.573   2.065   4.962
 7489SOL    HW223367   5.632   2.054   4.810
 7490SOL     OW23368   0.607   1.137   1.155
 7490SOL    HW123369   0.509   1.137   1.177
 7490SOL    HW223370   0.648   1.223   1.187
 7491SOL     OW23371   6.106   3.354   6.005
 7491SOL    HW123372   6.013   3.324   6.027
 7491SOL    HW223373   6.112   3.375   5.908
 7492SOL     OW23374   2.184   0.668   3.954
 7492SOL    HW123375   2.243   0.721   3.893
 7492SOL    HW223376   2.234   0.648   4.038
 7493SOL     OW23377   6.441   3.866   6.928
 7493SOL    HW123378   6.413   3.841   6.836
 7493SOL    HW223379   6.524   3.816   6.952
 7494SOL     OW23380   5.572   0.597   2.716
 7494SOL    HW123381   5.665   0.611   2.749
 7494SOL    HW223382   5.525   0.532   2.777
 7495SOL     OW23383   1.931   0.621   0.550
 7495SOL    HW123384   1.983   0.706   0.539
 7495SOL    HW223385   1.902   0.612   0.645
 7496SOL     OW23386   0.409   3.247   5.888
 7496SOL    HW123387   0.417   3.347   5.883
 7496SOL    HW223388   0.316   3.219   5.864
 7497SOL     OW23389   2.373   4.914   0.874
 7497SOL    HW123390   2.460   4.873   0.846
 7497SOL    HW223391   2.364   5.005   0.834
 7498SOL     OW23392   2.113   1.240   5.540
 7498SOL    HW123393   2.048   1.165   5.533
 7498SOL    HW223394   2.205   1.207   5.522
 7499SOL     OW23395   4.244   2.172   2.883
 7499SOL    HW123396   4.253   2.210   2.791
 7499SOL    HW223397   4.257   2.245   2.950
 7500SOL     OW23398   3.774   5.599   4.459
 7500SOL    HW123399   3.688   5.565   4.420
 7500SOL    HW223400   3.821   5.655   4.392
 7501SOL     OW23401   6.012   4.018   3.680
 7501SOL    HW123402   5.960   4.100   3.656
 7501SOL    HW223403   6.105   4.026   3.643
 7502SOL     OW23404   1.379   6.990   4.528
 7502SOL    HW123405   1.467   0.014   4.531
 7502SOL    HW223406   1.391   6.892   4.547
 7503SOL     OW23407   2.903   1.695   0.755
 7503SOL    HW123408   2.826   1.676   0.694
 7503SOL    HW223409   2.982   1.642   0.724
 7504SOL     OW23410   2.059   6.918   2.879
 7504SOL    HW123411   2.063   6.824   2.847
 7504SOL    HW223412   2.105   6.978   2.814
 7505SOL     OW23413   2.240   2.005   5.560
 7505SOL    HW123414   2.239   2.104   5.573
 7505SOL    HW223415   2.162   1.978   5.503
 7506SOL     OW23416   4.626   7.013   3.280
 7506SOL    HW123417   4.535   6.971   3.281
 7506SOL    HW223418   4.695   6.944   3.259
 7507SOL     OW23419   0.618   0.613   2.584
 7507SOL    HW123420   0.654   0.520   2.579
 7507SOL    HW223421   0.596   0.635   2.679
 7508SOL     OW23422   0.268   6.673   2.010
 7508SOL    HW123423   0.348   6.613   2.010
 7508SOL    HW223424   0.298   6.768   2.009
 7509SOL     OW23425   5.712   4.406   0.496
 7509SOL    HW123426   5.747   4.342   0.428
 7509SOL    HW223427   5.633   4.455   0.458
 7510SOL     OW23428   3.639   4.721   5.484
 7510SOL    HW123429   3.659   4.746   5.389
 7510SOL    HW223430   3.720   4.681   5.526
 7511SOL     OW23431   1.878   6.741   3.675
 7511SOL    HW123432   1.956   6.802   3.662
 7511SOL    HW223433   1.830   6.766   3.759
 7512SOL     OW23434   2.638   5.262   6.969
 7512SOL    HW123435   2.618   5.280   6.873
 7512SOL    HW223436   2.592   5.331   0.003
 7513SOL     OW23437   2.207   1.260   1.824
 7513SOL    HW123438   2.275   1.228   1.891
 7513SOL    HW223439   2.179   1.184   1.766
 7514SOL     OW23440   2.218   5.546   1.686
 7514SOL    HW123441   2.305   5.510   1.720
 7514SOL    HW223442   2.164   5.580   1.763
 7515SOL     OW23443   0.274   4.992   1.744
 7515SOL    HW123444   0.275   4.892   1.736
 7515SOL    HW223445   0.234   5.017   1.831
 7516SOL     OW23446   6.528   5.755   5.125
 7516SOL    HW123447   6.615   5.740   5.078
 7516SOL    HW223448   6.539   5.732   5.222
 7517SOL     OW23449   0.232   3.173   0.576
 7517SOL    HW123450   0.192   3.108   0.511
 7517SOL    HW223451   0.167   3.248   0.591
 7518SOL     OW23452   4.283   5.271   3.291
 7518SOL    HW123453   4.183   5.278   3.286
 7518SOL    HW223454   4.323   5.362   3.300
 7519SOL     OW23455   6.326   6.901   4.171
 7519SOL    HW123456   6.313   6.950   4.257
 7519SOL    HW223457   6.422   6.876   4.162
 7520SOL     OW23458   3.390   0.096   2.249
 7520SOL    HW123459   3.431   0.165   2.190
 7520SOL    HW223460   3.460   0.054   2.306
 7521SOL     OW23461   4.693   4.443   5.940
 7521SOL    HW123462   4.737   4.475   5.856
 7521SOL    HW223463   4.605   4.400   5.917
 7522SOL     OW23464   2.453   0.055   6.434
 7522SOL    HW123465   2.412   0.088   6.519
 7522SOL    HW223466   2.485   6.983   6.447
 7523SOL     OW23467   5.586   0.218   5.748
 7523SOL    HW123468   5.516   0.228   5.677
 7523SOL    HW223469   5.584   0.298   5.807
 7524SOL     OW23470   1.702   1.863   5.998
 7524SOL    HW123471   1.755   1.779   5.986
 7524SOL    HW223472   1.749   1.922   6.064
 7525SOL     OW23473   3.163   0.840   6.090
 7525SOL    HW123474   3.081   0.827   6.145
 7525SOL    HW223475   3.206   0.752   6.072
 7526SOL     OW23476   3.053   3.353   1.609
 7526SOL    HW123477   2.956   3.340   1.588
 7526SOL    HW223478   3.108   3.334   1.528
 7527SOL     OW23479   4.449   5.962   3.089
 7527SOL    HW123480   4.463   6.024   3.167
 7527SOL    HW223481   4.368   5.991   3.038
 7528SOL     OW23482   5.377   1.711   6.946
 7528SOL    HW123483   5.457   1.662   6.980
 7528SOL    HW223484   5.304   1.645   6.926
 7529SOL     OW23485   5.850   0.308   4.093
 7529SOL    HW123486   5.854   0.218   4.049
 7529SOL    HW223487   5.760   0.349   4.076
 7530SOL     OW23488   0.195   3.838   2.077
 7530SOL    HW123489   0.204   3.758   2.018
 7530SOL    HW223490   0.229   3.919   2.029
 7531SOL     OW23491   4.451   2.536   4.293
 7531SOL    HW123492   4.547   2.552   4.272
 7531SOL    HW223493   4.402   2.512   4.209
 7532SOL     OW23494   5.342   4.463   1.593
 7532SOL    HW123495   5.290   4.397   1.539
 7532SOL    HW223496   5.436   4.431   1.605
 7533SOL     OW23497   2.197   2.023   2.545
 7533SOL    HW123498   2.210   1.953   2.475
 7533SOL    HW223499   2.196   1.980   2.635
 7534SOL     OW23500   4.537   5.994   5.282
 7534SOL    HW123501   4.598   5.950   5.216
 7534SOL    HW223502   4.449   5.945   5.284
 7535SOL     OW23503   2.800   0.262   5.886
 7535SOL    HW123504   2.746   0.189   5.845
 7535SOL    HW223505   2.828   0.327   5.815
 7536SOL     OW23506   4.771   4.490   4.700
 7536SOL    HW123507   4.736   4.478   4.793
 7536SOL    HW223508   4.779   4.587   4.680
 7537SOL     OW23509   3.093   5.357   3.140
 7537SOL    HW123510   2.998   5.354   3.168
 7537SOL    HW223511   3.151   5.378   3.219
 7538SOL     OW23512   2.962   3.111   1.915
 7538SOL    HW123513   2.988   3.017   1.897
 7538SOL    HW223514   2.893   3.140   1.848
 7539SOL     OW23515   1.044   2.883   4.115
 7539SOL    HW123516   0.978   2.901   4.042
 7539SOL    HW223517   1.136   2.874   4.076
 7540SOL     OW23518   4.059   6.904   5.304
 7540SOL    HW123519   4.134   6.959   5.267
 7540SOL    HW223520   4.027   6.944   5.390
 7541SOL     OW23521   6.772   4.466   4.259
 7541SOL    HW123522   6.718   4.541   4.296
 7541SOL    HW223523   6.833   4.500   4.188
 7542SOL     OW23524   0.869   5.921   7.007
 7542SOL    HW123525   0.932   5.951   0.057
 7542SOL    HW223526   0.870   5.821   7.001
 7543SOL     OW23527   3.323   2.115   0.593
 7543SOL    HW123528   3.309   2.203   0.639
 7543SOL    HW223529   3.286   2.119   0.500
 7544SOL     OW23530   0.285   2.412   3.157
 7544SOL    HW123531   0.341   2.361   3.223
 7544SOL    HW223532   0.197   2.367   3.147
 7545SOL     OW23533   6.296   5.838   1.486
 7545SOL    HW123534   6.324   5.750   1.524
 7545SOL    HW223535   6.356   5.862   1.410
 7546SOL     OW23536   3.102   1.345   2.177
 7546SOL    HW123537   3.123   1.391   2.091
 7546SOL    HW223538   3.144   1.255   2.178
 7547SOL     OW23539   4.692   1.103   0.265
 7547SOL    HW123540   4.782   1.060   0.258
 7547SOL    HW223541   4.674   1.127   0.361
 7548SOL     OW23542   3.896   2.374   0.422
 7548SOL    HW123543   3.839   2.449   0.390
 7548SOL    HW223544   3.838   2.297   0.448
 7549SOL     OW23545   6.241   2.100   1.210
 7549SOL    HW123546   6.306   2.036   1.250
 7549SOL    HW223547   6.148   2.063   1.219
 7550SOL     OW23548   2.636   4.638   2.722
 7550SOL    HW123549   2.699   4.633   2.645
 7550SOL    HW223550   2.683   4.676   2.802
 7551SOL     OW23551   4.904   4.019   6.757
 7551SOL    HW123552   4.988   4.075   6.761
 7551SOL    HW223553   4.929   3.924   6.741
 7552SOL     OW23554   1.340   5.247   3.345
 7552SOL    HW123555   1.376   5.267   3.437
 7552SOL    HW223556   1.414   5.257   3.278
 7553SOL     OW23557   4.405   5.527   5.216
 7553SOL    HW123558   4.361   5.565   5.297
 7553SOL    HW223559   4.503   5.514   5.234
 7554SOL     OW23560   4.455   1.662   1.548
 7554SOL    HW123561   4.383   1.729   1.532
 7554SOL    HW223562   4.426   1.573   1.512
 7555SOL     OW23563   1.536   4.887   5.467
 7555SOL    HW123564   1.631   4.903   5.440
 7555SOL    HW223565   1.492   4.827   5.400
 7556SOL     OW23566   0.951   3.107   6.287
 7556SOL    HW123567   1.015   3.170   6.330
 7556SOL    HW223568   0.895   3.063   6.358
 7557SOL     OW23569   5.190   2.168   6.418
 7557SOL    HW123570   5.178   2.250   6.362
 7557SOL    HW223571   5.267   2.115   6.383
 7558SOL     OW23572   1.613   2.473   4.659
 7558SOL    HW123573   1.596   2.466   4.758
 7558SOL    HW223574   1.668   2.395   4.629
 7559SOL     OW23575   5.860   4.678   6.932
 7559SOL    HW123576   5.776   4.632   6.903
 7559SOL    HW223577   5.937   4.614   6.929
 7560SOL     OW23578   4.901   6.728   1.188
 7560SOL    HW123579   4.876   6.755   1.281
 7560SOL    HW223580   5.000   6.735   1.177
 7561SOL     OW23581   1.122   3.159   6.966
 7561SOL    HW123582   1.158   3.246   6.999
 7561SOL    HW223583   1.172   3.132   6.884
 7562SOL     OW23584   6.294   5.971   4.587
 7562SOL    HW123585   6.386   5.939   4.565
 7562SOL    HW223586   6.236   5.893   4.609
 7563SOL     OW23587   2.189   6.547   0.843
 7563SOL    HW123588   2.109   6.595   0.881
 7563SOL    HW223589   2.170   6.449   0.839
 7564SOL     OW23590   4.888   1.489   3.159
 7564SOL    HW123591   4.842   1.516   3.075
 7564SOL    HW223592   4.987   1.496   3.146
 7565SOL     OW23593   6.060   3.157   0.669
 7565SOL    HW123594   6.048   3.200   0.580
 7565SOL    HW223595   5.990   3.086   0.681
 7566SOL     OW23596   6.848   4.831   2.978
 7566SOL    HW123597   6.932   4.883   2.960
 7566SOL    HW223598   6.843   4.753   2.915
 7567SOL     OW23599   1.526   2.217   5.153
 7567SOL    HW123600   1.554   2.271   5.233
 7567SOL    HW223601   1.439   2.250   5.119
 7568SOL     OW23602   5.526   6.695   2.957
 7568SOL    HW123603   5.558   6.617   3.012
 7568SOL    HW223604   5.465   6.663   2.885
 7569SOL     OW23605   3.730   6.211   6.484
 7569SOL    HW123606   3.650   6.270   6.494
 7569SOL    HW223607   3.760   6.212   6.389
 7570SOL     OW23608   5.552   4.451   4.925
 7570SOL    HW123609   5.520   4.545   4.911
 7570SOL    HW223610   5.546   4.428   5.022
 7571SOL     OW23611   5.083   5.382   3.564
 7571SOL    HW123612   5.029   5.411   3.485
 7571SOL    HW223613   5.169   5.434   3.567
 7572SOL     OW23614   4.126   0.763   2.161
 7572SOL    HW123615   4.221   0.767   2.191
 7572SOL    HW223616   4.120   0.715   2.074
 7573SOL     OW23617   0.269   6.458   4.686
 7573SOL    HW123618   0.326   6.541   4.689
 7573SOL    HW223619   0.173   6.484   4.699
 7574SOL     OW23620   6.248   0.936   4.721
 7574SOL    HW123621   6.231   0.937   4.623
 7574SOL    HW223622   6.221   1.023   4.761
 7575SOL     OW23623   3.917   0.295   5.838
 7575SOL    HW123624   3.980   0.226   5.874
 7575SOL    HW223625   3.928   0.380   5.889
 7576SOL     OW23626   5.138   4.594   6.803
 7576SOL    HW123627   5.081   4.593   6.721
 7576SOL    HW223628   5.228   4.557   6.782
 7577SOL     OW23629   0.018   7.020   6.326
 7577SOL    HW123630   0.019   0.085   6.374
 7577SOL    HW223631   0.048   6.947   6.387
 7578SOL     OW23632   2.332   6.195   2.137
 7578SOL    HW123633   2.241   6.193   2.180
 7578SOL    HW223634   2.325   6.166   2.042
 7579SOL     OW23635   6.624   1.633   2.028
 7579SOL    HW123636   6.618   1.535   2.008
 7579SOL    HW223637   6.566   1.655   2.107
 7580SOL     OW23638   1.189   4.290   4.089
 7580SOL    HW123639   1.099   4.327   4.113
 7580SOL    HW223640   1.246   4.363   4.052
 7581SOL     OW23641   6.750   0.770   1.356
 7581SOL    HW123642   6.731   0.867   1.365
 7581SOL    HW223643   6.683   0.728   1.295
 7582SOL     OW23644   3.008   0.935   0.750
 7582SOL    HW123645   2.944   0.859   0.740
 7582SOL    HW223646   3.069   0.937   0.670
 7583SOL     OW23647   6.488   3.070   1.062
 7583SOL    HW123648   6.587   3.084   1.052
 7583SOL    HW223649   6.444   3.159   1.076
 7584SOL     OW23650   2.500   0.216   1.685
 7584SOL    HW123651   2.488   0.171   1.597
 7584SOL    HW223652   2.589   0.191   1.723
 7585SOL     OW23653   1.801   2.279   6.233
 7585SOL    HW123654   1.746   2.341   6.289
 7585SOL    HW223655   1.795   2.186   6.270
 7586SOL     OW23656   3.594   1.358   3.671
 7586SOL    HW123657   3.566   1.431   3.608
 7586SOL    HW223658   3.687   1.329   3.648
 7587SOL     OW23659   2.586   1.917   6.818
 7587SOL    HW123660   2.634   1.881   6.738
 7587SOL    HW223661   2.501   1.866   6.833
 7588SOL     OW23662   1.428   3.253   2.472
 7588SOL    HW123663   1.340   3.247   2.425
 7588SOL    HW223664   1.431   3.336   2.527
 7589SOL     OW23665   0.712   0.090   2.161
 7589SOL    HW123666   0.740   0.046   2.076
 7589SOL    HW223667   0.776   0.066   2.234
 7590SOL     OW23668   4.649   1.802   6.804
 7590SOL    HW123669   4.680   1.894   6.831
 7590SOL    HW223670   4.551   1.793   6.825
 7591SOL     OW23671   0.042   3.870   0.228
 7591SOL    HW123672   0.121   3.911   0.183
 7591SOL    HW223673   0.013   3.789   0.177
 7592SOL     OW23674   6.690   3.741   5.916
 7592SOL    HW123675   6.622   3.784   5.857
 7592SOL    HW223676   6.758   3.694   5.861
 7593SOL     OW23677   5.869   2.753   1.546
 7593SOL    HW123678   5.855   2.655   1.566
 7593SOL    HW223679   5.850   2.770   1.449
 7594SOL     OW23680   0.888   5.095   2.563
 7594SOL    HW123681   0.986   5.110   2.560
 7594SOL    HW223682   0.869   4.999   2.587
 7595SOL     OW23683   0.060   2.555   5.543
 7595SOL    HW123684   0.108   2.468   5.538
 7595SOL    HW223685   0.104   2.614   5.611
 7596SOL     OW23686   4.693   5.616   4.140
 7596SOL    HW123687   4.653   5.543   4.196
 7596SOL    HW223688   4.699   5.586   4.045
 7597SOL     OW23689   3.717   6.164   2.828
 7597SOL    HW123690   3.770   6.205   2.902
 7597SOL    HW223691   3.777   6.139   2.753
 7598SOL     OW23692   6.685   1.806   3.141
 7598SOL    HW123693   6.736   1.870   3.085
 7598SOL    HW223694   6.674   1.719   3.092
 7599SOL     OW23695   5.703   1.567   2.500
 7599SOL    HW123696   5.657   1.500   2.559
 7599SOL    HW223697   5.802   1.549   2.501
 7600SOL     OW23698   2.228   1.475   2.448
 7600SOL    HW123699   2.223   1.394   2.390
 7600SOL    HW223700   2.147   1.532   2.432
 7601SOL     OW23701   2.308   5.122   3.340
 7601SOL    HW123702   2.283   5.166   3.427
 7601SOL    HW223703   2.325   5.193   3.271
 7602SOL     OW23704   0.405   4.607   6.453
 7602SOL    HW123705   0.324   4.597   6.395
 7602SOL    HW223706   0.383   4.667   6.530
 7603SOL     OW23707   2.028   5.131   6.125
 7603SOL    HW123708   1.967   5.111   6.203
 7603SOL    HW223709   2.122   5.107   6.149
 7604SOL     OW23710   1.584   4.749   4.322
 7604SOL    HW123711   1.630   4.660   4.320
 7604SOL    HW223712   1.639   4.816   4.272
 7605SOL     OW23713   0.644   6.845   1.349
 7605SOL    HW123714   0.729   6.861   1.401
 7605SOL    HW223715   0.573   6.906   1.382
 7606SOL     OW23716   6.206   3.460   4.386
 7606SOL    HW123717   6.273   3.532   4.406
 7606SOL    HW223718   6.188   3.457   4.288
 7607SOL     OW23719   3.738   4.979   0.277
 7607SOL    HW123720   3.751   4.912   0.203
 7607SOL    HW223721   3.699   4.933   0.356
 7608SOL     OW23722   4.032   3.775   2.655
 7608SOL    HW123723   4.071   3.699   2.603
 7608SOL    HW223724   4.060   3.862   2.614
 7609SOL     OW23725   0.962   3.386   3.984
 7609SOL    HW123726   0.954   3.486   3.983
 7609SOL    HW223727   1.014   3.358   4.064
 7610SOL     OW23728   5.552   6.123   6.903
 7610SOL    HW123729   5.533   6.219   6.885
 7610SOL    HW223730   5.601   6.114   6.989
 7611SOL     OW23731   0.167   2.175   0.629
 7611SOL    HW123732   0.184   2.079   0.652
 7611SOL    HW223733   0.162   2.229   0.712
 7612SOL     OW23734   5.273   3.269   4.389
 7612SOL    HW123735   5.328   3.352   4.384
 7612SOL    HW223736   5.181   3.290   4.420
 7613SOL     OW23737   6.728   3.522   1.391
 7613SOL    HW123738   6.764   3.491   1.303
 7613SOL    HW223739   6.629   3.534   1.384
 7614SOL     OW23740   4.857   3.580   0.814
 7614SOL    HW123741   4.843   3.495   0.865
 7614SOL    HW223742   4.887   3.559   0.721
 7615SOL     OW23743   3.203   4.519   6.780
 7615SOL    HW123744   3.242   4.572   6.856
 7615SOL    HW223745   3.110   4.492   6.804
 7616SOL     OW23746   6.195   5.137   5.468
 7616SOL    HW123747   6.149   5.204   5.410
 7616SOL    HW223748   6.224   5.059   5.413
 7617SOL     OW23749   3.543   5.200   2.925
 7617SOL    HW123750   3.527   5.289   2.968
 7617SOL    HW223751   3.544   5.210   2.826
 7618SOL     OW23752   0.457   1.405   5.623
 7618SOL    HW123753   0.420   1.457   5.545
 7618SOL    HW223754   0.392   1.409   5.699
 7619SOL     OW23755   5.510   2.564   5.054
 7619SOL    HW123756   5.453   2.640   5.086
 7619SOL    HW223757   5.560   2.592   4.972
 7620SOL     OW23758   4.398   5.658   0.603
 7620SOL    HW123759   4.303   5.625   0.602
 7620SOL    HW223760   4.440   5.639   0.514
 7621SOL     OW23761   0.147   1.701   0.840
 7621SOL    HW123762   0.128   1.688   0.938
 7621SOL    HW223763   0.234   1.657   0.817
 7622SOL     OW23764   4.901   5.562   1.362
 7622SOL    HW123765   4.993   5.600   1.363
 7622SOL    HW223766   4.907   5.462   1.374
 7623SOL     OW23767   4.582   4.478   6.741
 7623SOL    HW123768   4.682   4.480   6.736
 7623SOL    HW223769   4.553   4.406   6.804
 7624SOL     OW23770   0.484   3.152   5.115
 7624SOL    HW123771   0.482   3.251   5.103
 7624SOL    HW223772   0.538   3.129   5.196
 7625SOL     OW23773   4.453   0.916   1.870
 7625SOL    HW123774   4.542   0.889   1.833
 7625SOL    HW223775   4.455   1.012   1.896
 7626SOL     OW23776   5.888   0.062   3.972
 7626SOL    HW123777   5.881   7.014   4.043
 7626SOL    HW223778   5.947   0.028   3.898
 7627SOL     OW23779   5.187   2.547   0.264
 7627SOL    HW123780   5.152   2.508   0.349
 7627SOL    HW223781   5.280   2.581   0.279
 7628SOL     OW23782   3.439   1.389   2.328
 7628SOL    HW123783   3.381   1.312   2.300
 7628SOL    HW223784   3.406   1.426   2.415
 7629SOL     OW23785   6.567   6.431   3.278
 7629SOL    HW123786   6.633   6.479   3.220
 7629SOL    HW223787   6.484   6.486   3.285
 7630SOL     OW23788   6.801   6.486   1.227
 7630SOL    HW123789   6.760   6.543   1.156
 7630SOL    HW223790   6.862   6.419   1.184
 7631SOL     OW23791   1.083   1.230   6.047
 7631SOL    HW123792   1.109   1.327   6.041
 7631SOL    HW223793   1.128   1.179   5.974
 7632SOL     OW23794   3.122   2.807   1.855
 7632SOL    HW123795   3.186   2.744   1.810
 7632SOL    HW223796   3.038   2.759   1.878
 7633SOL     OW23797   5.138   1.307   1.438
 7633SOL    HW123798   5.165   1.267   1.526
 7633SOL    HW223799   5.202   1.379   1.413
 7634SOL     OW23800   1.113   1.838   2.759
 7634SOL    HW123801   1.137   1.767   2.693
 7634SOL    HW223802   1.090   1.923   2.711
 7635SOL     OW23803   3.920   5.027   4.947
 7635SOL    HW123804   3.913   5.120   4.911
 7635SOL    HW223805   3.947   4.965   4.873
 7636SOL     OW23806   1.200   2.287   3.987
 7636SOL    HW123807   1.138   2.224   3.939
 7636SOL    HW223808   1.293   2.270   3.956
 7637SOL     OW23809   2.595   5.267   2.541
 7637SOL    HW123810   2.655   5.187   2.543
 7637SOL    HW223811   2.578   5.297   2.635
 7638SOL     OW23812   2.958   6.095   0.757
 7638SOL    HW123813   3.007   6.015   0.721
 7638SOL    HW223814   2.864   6.070   0.778
 7639SOL     OW23815   1.473   1.918   0.746
 7639SOL    HW123816   1.425   1.986   0.691
 7639SOL    HW223817   1.419   1.834   0.748
 7640SOL     OW23818   3.152   1.990   6.421
 7640SOL    HW123819   3.251   1.989   6.407
 7640SOL    HW223820   3.112   2.068   6.373
 7641SOL     OW23821   1.360   4.734   2.164
 7641SOL    HW123822   1.296   4.711   2.237
 7641SOL    HW223823   1.339   4.824   2.128
 7642SOL     OW23824   3.695   0.437   2.725
 7642SOL    HW123825   3.729   0.354   2.769
 7642SOL    HW223826   3.766   0.478   2.668
 7643SOL     OW23827   4.912   3.523   4.284
 7643SOL    HW123828   4.946   3.610   4.319
 7643SOL    HW223829   4.902   3.458   4.359
 7644SOL     OW23830   5.890   2.549   2.124
 7644SOL    HW123831   5.821   2.608   2.081
 7644SOL    HW223832   5.896   2.463   2.072
 7645SOL     OW23833   4.170   4.176   5.514
 7645SOL    HW123834   4.156   4.079   5.498
 7645SOL    HW223835   4.133   4.228   5.437
 7646SOL     OW23836   1.411   4.090   3.082
 7646SOL    HW123837   1.393   4.023   3.154
 7646SOL    HW223838   1.325   4.127   3.048
 7647SOL     OW23839   6.571   3.716   3.124
 7647SOL    HW123840   6.498   3.746   3.185
 7647SOL    HW223841   6.653   3.696   3.178
 7648SOL     OW23842   2.260   1.519   3.137
 7648SOL    HW123843   2.215   1.562   3.215
 7648SOL    HW223844   2.342   1.470   3.169
 7649SOL     OW23845   0.870   0.585   3.128
 7649SOL    HW123846   0.873   0.542   3.218
 7649SOL    HW223847   0.937   0.542   3.068
 7650SOL     OW23848   5.142   1.953   0.978
 7650SOL    HW123849   5.083   1.995   1.047
 7650SOL    HW223850   5.086   1.918   0.903
 7651SOL     OW23851   2.444   1.101   4.169
 7651SOL    HW123852   2.370   1.069   4.227
 7651SOL    HW223853   2.509   1.153   4.225
 7652SOL     OW23854   5.870   3.622   4.506
 7652SOL    HW123855   5.848   3.585   4.416
 7652SOL    HW223856   5.849   3.720   4.508
 7653SOL     OW23857   1.561   2.267   6.915
 7653SOL    HW123858   1.486   2.202   6.925
 7653SOL    HW223859   1.566   2.325   6.995
 7654SOL     OW23860   4.875   3.026   3.445
 7654SOL    HW123861   4.967   2.987   3.435
 7654SOL    HW223862   4.881   3.116   3.488
 7655SOL     OW23863   4.688   0.212   3.106
 7655SOL    HW123864   4.683   0.160   3.191
 7655SOL    HW223865   4.637   0.164   3.034
 7656SOL     OW23866   2.229   4.540   6.004
 7656SOL    HW123867   2.305   4.475   6.009
 7656SOL    HW223868   2.251   4.611   5.936
 7657SOL     OW23869   1.818   2.947   4.373
 7657SOL    HW123870   1.850   2.928   4.466
 7657SOL    HW223871   1.838   3.041   4.349
 7658SOL     OW23872   3.543   6.754   5.906
 7658SOL    HW123873   3.502   6.805   5.830
 7658SOL    HW223874   3.470   6.718   5.964
 7659SOL     OW23875   5.644   5.612   6.323
 7659SOL    HW123876   5.556   5.648   6.357
 7659SOL    HW223877   5.634   5.515   6.301
 7660SOL     OW23878   0.407   5.878   3.690
 7660SOL    HW123879   0.457   5.931   3.759
 7660SOL    HW223880   0.347   5.813   3.736
 7661SOL     OW23881   6.243   2.654   4.515
 7661SOL    HW123882   6.229   2.729   4.451
 7661SOL    HW223883   6.250   2.568   4.464
 7662SOL     OW23884   1.149   3.260   2.438
 7662SOL    HW123885   1.114   3.353   2.444
 7662SOL    HW223886   1.122   3.209   2.520
 7663SOL     OW23887   1.282   5.597   6.344
 7663SOL    HW123888   1.190   5.586   6.383
 7663SOL    HW223889   1.283   5.561   6.251
 7664SOL     OW23890   3.567   0.136   1.291
 7664SOL    HW123891   3.541   0.064   1.227
 7664SOL    HW223892   3.538   0.225   1.256
 7665SOL     OW23893   5.269   0.026   5.352
 7665SOL    HW123894   5.213   0.045   5.271
 7665SOL    HW223895   5.229   0.073   5.431
 7666SOL     OW23896   0.308   5.857   1.625
 7666SOL    HW123897   0.314   5.907   1.711
 7666SOL    HW223898   0.370   5.897   1.559
 7667SOL     OW23899   5.210   6.149   2.623
 7667SOL    HW123900   5.178   6.072   2.678
 7667SOL    HW223901   5.299   6.126   2.583
 7668SOL     OW23902   3.239   4.686   0.452
 7668SOL    HW123903   3.295   4.608   0.427
 7668SOL    HW223904   3.143   4.658   0.461
 7669SOL     OW23905   4.926   1.828   5.717
 7669SOL    HW123906   4.865   1.754   5.688
 7669SOL    HW223907   4.903   1.912   5.666
 7670SOL     OW23908   0.851   5.326   6.713
 7670SOL    HW123909   0.780   5.363   6.773
 7670SOL    HW223910   0.888   5.241   6.752
 7671SOL     OW23911   4.466   0.954   2.999
 7671SOL    HW123912   4.481   1.024   2.929
 7671SOL    HW223913   4.499   0.866   2.966
 7672SOL     OW23914   0.499   6.847   2.828
 7672SOL    HW123915   0.490   6.820   2.924
 7672SOL    HW223916   0.432   6.798   2.772
 7673SOL     OW23917   1.668   5.809   6.996
 7673SOL    HW123918   1.656   5.805   6.897
 7673SOL    HW223919   1.730   5.884   7.019
 7674SOL     OW23920   5.427   1.516   3.274
 7674SOL    HW123921   5.516   1.528   3.318
 7674SOL    HW223922   5.440   1.496   3.177
 7675SOL     OW23923   6.123   6.911   2.161
 7675SOL    HW123924   6.116   6.931   2.063
 7675SOL    HW223925   6.160   6.819   2.174
 7676SOL     OW23926   1.970   1.701   0.872
 7676SOL    HW123927   2.035   1.700   0.948
 7676SOL    HW223928   1.884   1.743   0.901
 7677SOL     OW23929   0.422   5.123   2.014
 7677SOL    HW123930   0.344   5.144   1.956
 7677SOL    HW223931   0.452   5.029   1.996
 7678SOL     OW23932   1.762   1.988   4.728
 7678SOL    HW123933   1.826   1.920   4.694
 7678SOL    HW223934   1.811   2.071   4.754
 7679SOL     OW23935   2.615   5.629   6.788
 7679SOL    HW123936   2.565   5.623   6.702
 7679SOL    HW223937   2.552   5.651   6.862
 7680SOL     OW23938   1.967   1.452   0.716
 7680SOL    HW123939   1.918   1.385   0.772
 7680SOL    HW223940   2.000   1.527   0.773
 7681SOL     OW23941   2.000   0.063   1.531
 7681SOL    HW123942   2.011   6.986   1.517
 7681SOL    HW223943   1.933   0.098   1.465
 7682SOL     OW23944   3.293   6.833   2.494
 7682SOL    HW123945   3.370   6.872   2.443
 7682SOL    HW223946   3.286   6.735   2.475
 7683SOL     OW23947   5.540   1.552   3.599
 7683SOL    HW123948   5.443   1.527   3.605
 7683SOL    HW223949   5.592   1.472   3.568
 7684SOL     OW23950   3.599   2.134   1.673
 7684SOL    HW123951   3.613   2.229   1.699
 7684SOL    HW223952   3.567   2.082   1.752
 7685SOL     OW23953   3.387   2.372   6.699
 7685SOL    HW123954   3.359   2.353   6.793
 7685SOL    HW223955   3.443   2.456   6.697
 7686SOL     OW23956   6.746   6.584   3.122
 7686SOL    HW123957   6.697   6.662   3.160
 7686SOL    HW223958   6.835   6.614   3.087
 7687SOL     OW23959   5.801   4.979   4.037
 7687SOL    HW123960   5.872   4.955   4.103
 7687SOL    HW223961   5.742   5.049   4.076
 7688SOL     OW23962   1.653   5.927   6.130
 7688SOL    HW123963   1.610   5.978   6.055
 7688SOL    HW223964   1.626   5.831   6.125
 7689SOL     OW23965   6.127   6.477   3.123
 7689SOL    HW123966   6.038   6.465   3.078
 7689SOL    HW223967   6.197   6.498   3.055
 7690SOL     OW23968   5.528   4.802   0.656
 7690SOL    HW123969   5.514   4.868   0.582
 7690SOL    HW223970   5.460   4.729   0.649
 7691SOL     OW23971   5.163   2.315   5.030
 7691SOL    HW123972   5.151   2.411   5.004
 7691SOL    HW223973   5.256   2.286   5.005
 7692SOL     OW23974   0.487   6.504   2.030
 7692SOL    HW123975   0.535   6.459   1.955
 7692SOL    HW223976   0.542   6.580   2.064
 7693SOL     OW23977   3.976   0.243   1.117
 7693SOL    HW123978   4.002   0.147   1.125
 7693SOL    HW223979   4.014   0.281   1.032
 7694SOL     OW23980   0.121   4.611   5.107
 7694SOL    HW123981   0.098   4.648   5.017
 7694SOL    HW223982   0.044   4.559   5.142
 7695SOL     OW23983   4.493   0.597   0.656
 7695SOL    HW123984   4.426   0.574   0.585
 7695SOL    HW223985   4.481   0.692   0.684
 7696SOL     OW23986   6.760   0.976   4.814
 7696SOL    HW123987   6.750   0.983   4.715
 7696SOL    HW223988   6.817   0.897   4.837
 7697SOL     OW23989   3.317   6.550   2.447
 7697SOL    HW123990   3.256   6.506   2.381
 7697SOL    HW223991   3.411   6.522   2.429
 7698SOL     OW23992   6.478   1.849   3.885
 7698SOL    HW123993   6.438   1.815   3.800
 7698SOL    HW223994   6.577   1.851   3.877
 7699SOL     OW23995   3.518   5.990   0.000
 7699SOL    HW123996   3.607   6.028   0.027
 7699SOL    HW223997   3.498   5.911   0.058
 7700SOL     OW23998   5.215   6.209   4.264
 7700SOL    HW123999   5.278   6.196   4.188
 7700SOL    HW224000   5.257   6.175   4.348
 7701SOL     OW24001   6.600   1.297   6.710
 7701SOL    HW124002   6.645   1.358   6.644
 7701SOL    HW224003   6.668   1.262   6.775
 7702SOL     OW24004   3.691   6.724   5.362
 7702SOL    HW124005   3.642   6.679   5.436
 7702SOL    HW224006   3.639   6.804   5.331
 7703SOL     OW24007   6.160   0.167   6.274
 7703SOL    HW124008   6.089   0.165   6.344
 7703SOL    HW224009   6.170   0.260   6.238
 7704SOL     OW24010   5.662   5.292   5.105
 7704SOL    HW124011   5.606   5.211   5.089
 7704SOL    HW224012   5.610   5.359   5.157
 7705SOL     OW24013   3.501   5.543   6.661
 7705SOL    HW124014   3.493   5.642   6.655
 7705SOL    HW224015   3.411   5.504   6.682
 7706SOL     OW24016   4.227   3.249   5.406
 7706SOL    HW124017   4.284   3.166   5.409
 7706SOL    HW224018   4.230   3.294   5.495
 7707SOL     OW24019   0.247   5.722   6.464
 7707SOL    HW124020   0.202   5.758   6.382
 7707SOL    HW224021   0.334   5.682   6.438
 7708SOL     OW24022   0.360   0.212   5.233
 7708SOL    HW124023   0.317   0.220   5.323
 7708SOL    HW224024   0.456   0.236   5.239
 7709SOL     OW24025   6.365   4.416   1.733
 7709SOL    HW124026   6.395   4.483   1.801
 7709SOL    HW224027   6.387   4.450   1.642
 7710SOL     OW24028   2.730   0.794   0.252
 7710SOL    HW124029   2.812   0.810   0.308
 7710SOL    HW224030   2.738   0.845   0.166
 7711SOL     OW24031   6.559   6.515   5.931
 7711SOL    HW124032   6.622   6.584   5.966
 7711SOL    HW224033   6.538   6.534   5.835
 7712SOL     OW24034   5.864   5.798   2.151
 7712SOL    HW124035   5.956   5.832   2.169
 7712SOL    HW224036   5.835   5.828   2.060
 7713SOL     OW24037   1.365   4.269   0.404
 7713SOL    HW124038   1.435   4.291   0.472
 7713SOL    HW224039   1.345   4.171   0.407
 7714SOL     OW24040   6.051   4.013   5.918
 7714SOL    HW124041   6.033   4.088   5.854
 7714SOL    HW224042   6.086   3.934   5.867
 7715SOL     OW24043   4.253   1.969   0.399
 7715SOL    HW124044   4.264   2.065   0.427
 7715SOL    HW224045   4.163   1.958   0.356
 7716SOL     OW24046   6.091   4.442   2.792
 7716SOL    HW124047   6.142   4.371   2.742
 7716SOL    HW224048   6.052   4.507   2.726
 7717SOL     OW24049   1.896   0.926   4.624
 7717SOL    HW124050   1.949   0.983   4.687
 7717SOL    HW224051   1.799   0.933   4.646
 7718SOL     OW24052   1.352   2.797   3.405
 7718SOL    HW124053   1.442   2.789   3.362
 7718SOL    HW224054   1.296   2.864   3.356
 7719SOL     OW24055   6.497   4.406   5.070
 7719SOL    HW124056   6.529   4.431   4.979
 7719SOL    HW224057   6.420   4.464   5.095
 7720SOL     OW24058   0.364   1.260   0.015
 7720SOL    HW124059   0.342   1.261   6.940
 7720SOL    HW224060   0.338   1.347   0.057
 7721SOL     OW24061   0.401   5.428   2.736
 7721SOL    HW124062   0.357   5.463   2.818
 7721SOL    HW224063   0.471   5.362   2.762
 7722SOL     OW24064   1.161   5.108   3.821
 7722SOL    HW124065   1.195   5.143   3.908
 7722SOL    HW224066   1.114   5.021   3.836
 7723SOL     OW24067   4.801   3.283   0.104
 7723SOL    HW124068   4.798   3.238   0.193
 7723SOL    HW224069   4.708   3.288   0.066
 7724SOL     OW24070   2.999   4.215   0.878
 7724SOL    HW124071   2.923   4.239   0.939
 7724SOL    HW224072   3.085   4.222   0.927
 7725SOL     OW24073   6.600   2.043   3.512
 7725SOL    HW124074   6.585   2.077   3.605
 7725SOL    HW224075   6.526   1.980   3.488
 7726SOL     OW24076   1.872   5.644   5.450
 7726SOL    HW124077   1.900   5.551   5.428
 7726SOL    HW224078   1.821   5.682   5.372
 7727SOL     OW24079   0.016   0.978   2.720
 7727SOL    HW124080   0.067   0.920   2.656
 7727SOL    HW224081   6.969   0.924   2.767
 7728SOL     OW24082   1.293   4.739   3.498
 7728SOL    HW124083   1.287   4.745   3.597
 7728SOL    HW224084   1.203   4.760   3.458
 7729SOL     OW24085   5.730   2.782   1.296
 7729SOL    HW124086   5.779   2.771   1.210
 7729SOL    HW224087   5.703   2.878   1.306
 7730SOL     OW24088   5.933   5.816   0.941
 7730SOL    HW124089   5.946   5.912   0.966
 7730SOL    HW224090   5.877   5.771   1.011
 7731SOL     OW24091   6.437   0.782   0.033
 7731SOL    HW124092   6.503   0.716   7.019
 7731SOL    HW224093   6.456   0.873   7.018
 7732SOL     OW24094   4.512   6.581   0.660
 7732SOL    HW124095   4.591   6.522   0.678
 7732SOL    HW224096   4.471   6.608   0.746
 7733SOL     OW24097   4.733   6.150   2.192
 7733SOL    HW124098   4.780   6.172   2.106
 7733SOL    HW224099   4.790   6.088   2.246
 7734SOL     OW24100   2.656   4.997   3.494
 7734SOL    HW124101   2.647   5.001   3.395
 7734SOL    HW224102   2.745   4.957   3.518
 7735SOL     OW24103   4.557   6.635   6.773
 7735SOL    HW124104   4.588   6.550   6.816
 7735SOL    HW224105   4.475   6.618   6.720
 7736SOL     OW24106   3.311   3.374   0.140
 7736SOL    HW124107   3.324   3.411   0.232
 7736SOL    HW224108   3.312   3.274   0.144
 7737SOL     OW24109   3.123   0.189   2.330
 7737SOL    HW124110   3.215   0.161   2.300
 7737SOL    HW224111   3.055   0.129   2.288
 7738SOL     OW24112   2.589   6.128   6.813
 7738SOL    HW124113   2.661   6.097   6.750
 7738SOL    HW224114   2.625   6.129   6.906
 7739SOL     OW24115   0.571   2.606   1.216
 7739SOL    HW124116   0.485   2.580   1.259
 7739SOL    HW224117   0.647   2.564   1.265
 7740SOL     OW24118   2.458   1.328   2.471
 7740SOL    HW124119   2.418   1.402   2.416
 7740SOL    HW224120   2.384   1.273   2.510
 7741SOL     OW24121   1.156   4.871   6.178
 7741SOL    HW124122   1.219   4.794   6.187
 7741SOL    HW224123   1.096   4.856   6.099
 7742SOL     OW24124   4.539   2.182   3.666
 7742SOL    HW124125   4.546   2.214   3.572
 7742SOL    HW224126   4.603   2.232   3.724
 7743SOL     OW24127   6.210   1.284   0.075
 7743SOL    HW124128   6.248   1.316   7.011
 7743SOL    HW224129   6.194   1.186   0.071
 7744SOL     OW24130   1.143   6.477   3.579
 7744SOL    HW124131   1.140   6.524   3.667
 7744SOL    HW224132   1.169   6.542   3.508
 7745SOL     OW24133   3.704   1.295   6.748
 7745SOL    HW124134   3.651   1.378   6.764
 7745SOL    HW224135   3.799   1.319   6.730
 7746SOL     OW24136   1.997   6.924   0.242
 7746SOL    HW124137   1.964   6.893   0.331
 7746SOL    HW224138   2.086   6.882   0.223
 7747SOL     OW24139   5.418   5.477   1.422
 7747SOL    HW124140   5.480   5.535   1.474
 7747SOL    HW224141   5.390   5.399   1.478
 7748SOL     OW24142   3.026   3.920   4.661
 7748SOL    HW124143   3.078   3.862   4.724
 7748SOL    HW224144   2.973   3.986   4.713
 7749SOL     OW24145   2.513   2.389   5.733
 7749SOL    HW124146   2.479   2.460   5.795
 7749SOL    HW224147   2.588   2.340   5.777
 7750SOL     OW24148   0.208   6.135   1.826
 7750SOL    HW124149   0.275   6.174   1.763
 7750SOL    HW224150   0.251   6.116   1.914
 7751SOL     OW24151   1.057   2.593   1.895
 7751SOL    HW124152   1.100   2.591   1.805
 7751SOL    HW224153   0.961   2.567   1.887
 7752SOL     OW24154   5.502   6.915   5.745
 7752SOL    HW124155   5.556   6.846   5.793
 7752SOL    HW224156   5.523   7.005   5.783
 7753SOL     OW24157   2.708   1.533   3.924
 7753SOL    HW124158   2.622   1.569   3.887
 7753SOL    HW224159   2.782   1.597   3.904
 7754SOL     OW24160   3.256   6.222   1.306
 7754SOL    HW124161   3.340   6.175   1.333
 7754SOL    HW224162   3.181   6.157   1.303
 7755SOL     OW24163   2.320   2.397   5.377
 7755SOL    HW124164   2.318   2.328   5.449
 7755SOL    HW224165   2.411   2.437   5.372
 7756SOL     OW24166   2.783   6.011   2.804
 7756SOL    HW124167   2.815   6.030   2.711
 7756SOL    HW224168   2.851   6.043   2.869
 7757SOL     OW24169   5.416   4.920   0.395
 7757SOL    HW124170   5.391   4.824   0.405
 7757SOL    HW224171   5.367   4.959   0.317
 7758SOL     OW24172   2.388   0.367   5.718
 7758SOL    HW124173   2.365   0.282   5.670
 7758SOL    HW224174   2.303   0.413   5.747
 7759SOL     OW24175   1.760   2.274   5.542
 7759SOL    HW124176   1.740   2.192   5.596
 7759SOL    HW224177   1.801   2.247   5.455
 7760SOL     OW24178   5.989   3.682   2.580
 7760SOL    HW124179   6.083   3.717   2.584
 7760SOL    HW224180   5.957   3.664   2.673
 7761SOL     OW24181   6.549   0.147   4.868
 7761SOL    HW124182   6.495   0.191   4.940
 7761SOL    HW224183   6.589   0.063   4.903
 7762SOL     OW24184   2.286   0.336   4.068
 7762SOL    HW124185   2.280   0.323   3.969
 7762SOL    HW224186   2.332   0.423   4.087
 7763SOL     OW24187   2.212   0.024   0.053
 7763SOL    HW124188   2.231   6.968   0.113
 7763SOL    HW224189   2.182   0.102   0.108
 7764SOL     OW24190   3.615   3.434   5.026
 7764SOL    HW124191   3.663   3.398   5.107
 7764SOL    HW224192   3.667   3.511   4.988
 7765SOL     OW24193   5.817   3.948   4.721
 7765SOL    HW124194   5.890   3.880   4.730
 7765SOL    HW224195   5.854   4.039   4.738
 7766SOL     OW24196   6.736   4.062   6.796
 7766SOL    HW124197   6.659   4.115   6.762
 7766SOL    HW224198   6.788   4.116   6.862
 7767SOL     OW24199   5.108   5.683   2.304
 7767SOL    HW124200   5.102   5.703   2.207
 7767SOL    HW224201   5.084   5.587   2.320
 7768SOL     OW24202   4.392   4.572   3.286
 7768SOL    HW124203   4.293   4.560   3.286
 7768SOL    HW224204   4.416   4.652   3.341
 7769SOL     OW24205   4.483   1.542   3.572
 7769SOL    HW124206   4.410   1.489   3.615
 7769SOL    HW224207   4.445   1.600   3.500
 7770SOL     OW24208   1.634   3.943   4.742
 7770SOL    HW124209   1.566   4.017   4.742
 7770SOL    HW224210   1.618   3.883   4.664
 7771SOL     OW24211   3.500   1.810   5.388
 7771SOL    HW124212   3.546   1.721   5.396
 7771SOL    HW224213   3.471   1.841   5.479
 7772SOL     OW24214   4.785   0.064   1.694
 7772SOL    HW124215   4.687   0.069   1.675
 7772SOL    HW224216   4.801   0.010   1.776
 7773SOL     OW24217   2.109   4.824   5.205
 7773SOL    HW124218   2.162   4.824   5.291
 7773SOL    HW224219   2.165   4.785   5.132
 7774SOL     OW24220   5.065   2.130   4.707
 7774SOL    HW124221   5.136   2.105   4.772
 7774SOL    HW224222   5.084   2.087   4.619
 7775SOL     OW24223   4.443   6.391   0.462
 7775SOL    HW124224   4.453   6.312   0.523
 7775SOL    HW224225   4.445   6.475   0.516
 7776SOL     OW24226   0.491   6.034   6.839
 7776SOL    HW124227   0.445   6.024   6.751
 7776SOL    HW224228   0.423   6.048   6.911
 7777SOL     OW24229   6.073   5.630   3.908
 7777SOL    HW124230   6.067   5.559   3.837
 7777SOL    HW224231   5.982   5.647   3.945
 7778SOL     OW24232   5.641   3.651   0.808
 7778SOL    HW124233   5.696   3.660   0.891
 7778SOL    HW224234   5.687   3.698   0.733
 7779SOL     OW24235   2.478   1.857   1.353
 7779SOL    HW124236   2.500   1.764   1.384
 7779SOL    HW224237   2.478   1.919   1.431
 7780SOL     OW24238   0.516   4.951   5.851
 7780SOL    HW124239   0.614   4.954   5.831
 7780SOL    HW224240   0.501   4.896   5.933
 7781SOL     OW24241   2.184   4.554   1.557
 7781SOL    HW124242   2.206   4.484   1.626
 7781SOL    HW224243   2.085   4.568   1.554
 7782SOL     OW24244   5.379   4.985   4.558
 7782SOL    HW124245   5.323   5.063   4.587
 7782SOL    HW224246   5.331   4.900   4.580
 7783SOL     OW24247   0.666   6.864   5.659
 7783SOL    HW124248   0.590   6.874   5.595
 7783SOL    HW224249   0.666   6.940   5.724
 7784SOL     OW24250   3.555   2.728   1.825
 7784SOL    HW124251   3.627   2.676   1.780
 7784SOL    HW224252   3.593   2.774   1.905
 7785SOL     OW24253   1.929   6.012   4.876
 7785SOL    HW124254   2.008   6.042   4.822
 7785SOL    HW224255   1.889   6.090   4.923
 7786SOL     OW24256   3.433   0.170   0.596
 7786SOL    HW124257   3.355   0.115   0.624
 7786SOL    HW224258   3.404   0.241   0.532
 7787SOL     OW24259   2.375   3.110   0.083
 7787SOL    HW124260   2.298   3.101   0.146
 7787SOL    HW224261   2.379   3.205   0.049
 7788SOL     OW24262   1.986   5.136   1.238
 7788SOL    HW124263   1.971   5.105   1.332
 7788SOL    HW224264   2.052   5.211   1.238
 7789SOL     OW24265   2.806   0.209   6.768
 7789SOL    HW124266   2.727   0.269   6.754
 7789SOL    HW224267   2.776   0.113   6.761
 7790SOL     OW24268   5.398   5.649   2.553
 7790SOL    HW124269   5.479   5.708   2.556
 7790SOL    HW224270   5.424   5.554   2.572
 7791SOL     OW24271   2.182   5.113   2.901
 7791SOL    HW124272   2.107   5.178   2.907
 7791SOL    HW224273   2.150   5.023   2.931
 7792SOL     OW24274   1.952   5.564   4.586
 7792SOL    HW124275   1.907   5.616   4.658
 7792SOL    HW224276   1.888   5.549   4.510
 7793SOL     OW24277   3.981   0.813   0.291
 7793SOL    HW124278   4.027   0.778   0.209
 7793SOL    HW224279   3.923   0.890   0.265
 7794SOL     OW24280   6.896   3.747   2.373
 7794SOL    HW124281   6.882   3.648   2.383
 7794SOL    HW224282   6.835   3.796   2.435
 7795SOL     OW24283   1.982   4.547   5.348
 7795SOL    HW124284   1.920   4.474   5.378
 7795SOL    HW224285   2.024   4.590   5.428
 7796SOL     OW24286   3.761   3.012   4.874
 7796SOL    HW124287   3.772   2.968   4.784
 7796SOL    HW224288   3.709   3.096   4.863
 7797SOL     OW24289   1.120   6.016   1.654
 7797SOL    HW124290   1.144   6.079   1.580
 7797SOL    HW224291   1.199   6.004   1.714
 7798SOL     OW24292   1.107   3.074   3.309
 7798SOL    HW124293   1.095   2.988   3.258
 7798SOL    HW224294   1.138   3.054   3.402
 7799SOL     OW24295   1.866   5.321   2.457
 7799SOL    HW124296   1.864   5.309   2.557
 7799SOL    HW224297   1.774   5.337   2.423
 7800SOL     OW24298   1.041   5.494   2.823
 7800SOL    HW124299   0.978   5.441   2.766
 7800SOL    HW224300   1.042   5.589   2.792
 7801SOL     OW24301   2.016   2.043   2.066
 7801SOL    HW124302   1.972   2.093   1.992
 7801SOL    HW224303   1.946   1.995   2.120
 7802SOL     OW24304   6.626   2.613   0.719
 7802SOL    HW124305   6.533   2.630   0.753
 7802SOL    HW224306   6.642   2.667   0.637
 7803SOL     OW24307   4.274   2.233   6.992
 7803SOL    HW124308   4.352   2.277   6.949
 7803SOL    HW224309   4.267   2.265   0.065
 7804SOL     OW24310   4.549   1.978   5.156
 7804SOL    HW124311   4.517   2.058   5.206
 7804SOL    HW224312   4.525   1.988   5.059
 7805SOL     OW24313   5.128   3.268   1.827
 7805SOL    HW124314   5.031   3.250   1.840
 7805SOL    HW224315   5.171   3.285   1.915
 7806SOL     OW24316   5.903   1.510   5.882
 7806SOL    HW124317   5.870   1.597   5.917
 7806SOL    HW224318   5.919   1.517   5.783
 7807SOL     OW24319   1.051   4.556   6.201
 7807SOL    HW124320   1.039   4.605   6.287
 7807SOL    HW224321   1.074   4.460   6.221
 7808SOL     OW24322   5.814   3.330   3.858
 7808SOL    HW124323   5.715   3.317   3.862
 7808SOL    HW224324   5.835   3.399   3.788
 7809SOL     OW24325   5.206   5.012   5.236
 7809SOL    HW124326   5.254   4.925   5.236
 7809SOL    HW224327   5.162   5.027   5.148
 7810SOL     OW24328   3.583   6.690   5.032
 7810SOL    HW124329   3.572   6.591   5.037
 7810SOL    HW224330   3.658   6.712   4.969
 7811SOL     OW24331   1.193   5.142   1.825
 7811SOL    HW124332   1.143   5.168   1.908
 7811SOL    HW224333   1.150   5.062   1.784
 7812SOL     OW24334   1.008   2.403   4.166
 7812SOL    HW124335   1.074   2.358   4.106
 7812SOL    HW224336   0.968   2.482   4.118
 7813SOL     OW24337   4.146   1.941   1.066
 7813SOL    HW124338   4.083   1.914   1.139
 7813SOL    HW224339   4.169   1.861   1.010
 7814SOL     OW24340   6.612   3.365   3.373
 7814SOL    HW124341   6.577   3.277   3.341
 7814SOL    HW224342   6.656   3.353   3.463
 7815SOL     OW24343   5.699   2.182   3.811
 7815SOL    HW124344   5.613   2.206   3.856
 7815SOL    HW224345   5.734   2.097   3.851
 7816SOL     OW24346   1.493   2.104   6.611
 7816SOL    HW124347   1.453   2.012   6.606
 7816SOL    HW224348   1.446   2.157   6.681
 7817SOL     OW24349   4.494   4.496   4.343
 7817SOL    HW124350   4.488   4.579   4.399
 7817SOL    HW224351   4.403   4.460   4.327
 7818SOL     OW24352   4.955   0.257   2.992
 7818SOL    HW124353   5.016   0.299   3.059
 7818SOL    HW224354   4.863   0.249   3.031
 7819SOL     OW24355   0.232   3.643   4.014
 7819SOL    HW124356   0.311   3.674   4.068
 7819SOL    HW224357   0.264   3.596   3.932
 7820SOL     OW24358   1.764   1.339   5.522
 7820SOL    HW124359   1.748   1.281   5.602
 7820SOL    HW224360   1.807   1.286   5.450
 7821SOL     OW24361   5.674   5.757   0.218
 7821SOL    HW124362   5.736   5.831   0.242
 7821SOL    HW224363   5.725   5.671   0.212
 7822SOL     OW24364   1.126   1.045   6.876
 7822SOL    HW124365   1.160   1.092   6.958
 7822SOL    HW224366   1.192   0.975   6.849
 7823SOL     OW24367   2.956   3.425   6.141
 7823SOL    HW124368   2.929   3.430   6.045
 7823SOL    HW224369   2.989   3.515   6.171
 7824SOL     OW24370   5.725   1.134   3.634
 7824SOL    HW124371   5.642   1.119   3.687
 7824SOL    HW224372   5.788   1.192   3.686
 7825SOL     OW24373   0.902   3.509   0.889
 7825SOL    HW124374   0.951   3.562   0.958
 7825SOL    HW224375   0.805   3.502   0.915
 7826SOL     OW24376   6.146   1.658   6.585
 7826SOL    HW124377   6.242   1.631   6.591
 7826SOL    HW224378   6.110   1.674   6.677
 7827SOL     OW24379   2.578   4.525   1.109
 7827SOL    HW124380   2.492   4.520   1.161
 7827SOL    HW224381   2.633   4.444   1.127
 7828SOL     OW24382   0.672   5.216   1.009
 7828SOL    HW124383   0.732   5.160   1.067
 7828SOL    HW224384   0.724   5.250   0.931
 7829SOL     OW24385   2.133   2.863   0.452
 7829SOL    HW124386   2.082   2.811   0.383
 7829SOL    HW224387   2.082   2.946   0.475
 7830SOL     OW24388   4.318   3.774   5.777
 7830SOL    HW124389   4.234   3.755   5.727
 7830SOL    HW224390   4.385   3.817   5.716
 7831SOL     OW24391   1.425   5.281   1.093
 7831SOL    HW124392   1.374   5.206   1.135
 7831SOL    HW224393   1.478   5.329   1.163
 7832SOL     OW24394   3.363   1.095   4.233
 7832SOL    HW124395   3.441   1.109   4.293
 7832SOL    HW224396   3.307   1.019   4.267
 7833SOL     OW24397   0.753   0.507   6.975
 7833SOL    HW124398   0.729   0.495   0.050
 7833SOL    HW224399   0.734   0.601   6.948
 7834SOL     OW24400   0.217   1.590   3.618
 7834SOL    HW124401   0.165   1.673   3.638
 7834SOL    HW224402   0.162   1.529   3.561
 7835SOL     OW24403   2.285   2.149   4.371
 7835SOL    HW124404   2.288   2.239   4.413
 7835SOL    HW224405   2.330   2.083   4.431
 7836SOL     OW24406   3.439   2.811   5.291
 7836SOL    HW124407   3.381   2.729   5.283
 7836SOL    HW224408   3.387   2.885   5.334
 7837SOL     OW24409   6.816   5.215   1.297
 7837SOL    HW124410   6.775   5.160   1.369
 7837SOL    HW224411   6.904   5.174   1.271
 7838SOL     OW24412   4.155   6.309   0.951
 7838SOL    HW124413   4.156   6.397   0.902
 7838SOL    HW224414   4.081   6.309   1.017
 7839SOL     OW24415   5.977   4.283   5.295
 7839SOL    HW124416   5.881   4.272   5.322
 7839SOL    HW224417   6.032   4.304   5.376
 7840SOL     OW24418   5.019   3.323   4.508
 7840SOL    HW124419   5.072   3.329   4.592
 7840SOL    HW224420   4.940   3.263   4.522
 7841SOL     OW24421   4.696   1.395   6.819
 7841SOL    HW124422   4.752   1.325   6.776
 7841SOL    HW224423   4.687   1.377   6.917
 7842SOL     OW24424   1.976   1.616   2.765
 7842SOL    HW124425   1.919   1.596   2.685
 7842SOL    HW224426   2.005   1.711   2.763
 7843SOL     OW24427   4.714   4.653   1.960
 7843SOL    HW124428   4.671   4.584   1.903
 7843SOL    HW224429   4.675   4.649   2.052
 7844SOL     OW24430   4.459   0.037   3.652
 7844SOL    HW124431   4.498   0.026   3.743
 7844SOL    HW224432   4.403   6.979   3.630
 7845SOL     OW24433   5.681   1.468   4.223
 7845SOL    HW124434   5.744   1.391   4.230
 7845SOL    HW224435   5.683   1.504   4.130
 7846SOL     OW24436   1.368   1.328   1.928
 7846SOL    HW124437   1.454   1.356   1.886
 7846SOL    HW224438   1.359   1.228   1.920
 7847SOL     OW24439   6.574   1.953   2.142
 7847SOL    HW124440   6.557   1.856   2.155
 7847SOL    HW224441   6.602   1.995   2.229
 7848SOL     OW24442   3.071   3.113   0.896
 7848SOL    HW124443   3.085   3.193   0.954
 7848SOL    HW224444   2.974   3.086   0.901
 7849SOL     OW24445   4.921   3.869   3.018
 7849SOL    HW124446   4.862   3.811   2.962
 7849SOL    HW224447   5.017   3.854   2.994
 7850SOL     OW24448   0.554   1.644   3.877
 7850SOL    HW124449   0.472   1.640   3.820
 7850SOL    HW224450   0.562   1.560   3.931
 7851SOL     OW24451   6.729   6.785   1.126
 7851SOL    HW124452   6.824   6.816   1.117
 7851SOL    HW224453   6.689   6.772   1.035
 7852SOL     OW24454   2.522   0.222   5.295
 7852SOL    HW124455   2.502   0.291   5.226
 7852SOL    HW224456   2.512   0.262   5.386
 7853SOL     OW24457   3.819   1.252   1.894
 7853SOL    HW124458   3.825   1.153   1.883
 7853SOL    HW224459   3.784   1.275   1.984
 7854SOL     OW24460   2.512   3.223   0.351
 7854SOL    HW124461   2.440   3.279   0.310
 7854SOL    HW224462   2.500   3.127   0.324
 7855SOL     OW24463   2.972   5.715   5.565
 7855SOL    HW124464   2.965   5.666   5.652
 7855SOL    HW224465   2.915   5.669   5.496
 7856SOL     OW24466   5.501   5.201   4.798
 7856SOL    HW124467   5.588   5.152   4.803
 7856SOL    HW224468   5.475   5.213   4.702
 7857SOL     OW24469   6.038   2.656   5.413
 7857SOL    HW124470   6.035   2.576   5.353
 7857SOL    HW224471   6.072   2.735   5.363
 7858SOL     OW24472   5.004   5.112   3.566
 7858SOL    HW124473   4.926   5.079   3.513
 7858SOL    HW224474   5.019   5.209   3.546
 7859SOL     OW24475   6.414   3.614   5.301
 7859SOL    HW124476   6.339   3.671   5.268
 7859SOL    HW224477   6.501   3.662   5.287
 7860SOL     OW24478   4.277   0.045   2.681
 7860SOL    HW124479   4.284   6.971   2.706
 7860SOL    HW224480   4.362   0.074   2.636
 7861SOL     OW24481   4.015   5.263   1.655
 7861SOL    HW124482   3.960   5.306   1.583
 7861SOL    HW224483   4.109   5.297   1.650
 7862SOL     OW24484   2.985   4.670   1.633
 7862SOL    HW124485   2.945   4.604   1.697
 7862SOL    HW224486   2.916   4.738   1.608
 7863SOL     OW24487   6.867   6.088   4.041
 7863SOL    HW124488   6.856   6.177   4.086
 7863SOL    HW224489   6.845   6.098   3.944
 7864SOL     OW24490   0.031   6.731   5.417
 7864SOL    HW124491   0.098   6.690   5.355
 7864SOL    HW224492   6.961   6.709   5.385
 7865SOL     OW24493   5.237   6.763   4.695
 7865SOL    HW124494   5.174   6.730   4.766
 7865SOL    HW224495   5.234   6.862   4.691
 7866SOL     OW24496   1.961   2.516   0.015
 7866SOL    HW124497   2.030   2.497   6.967
 7866SOL    HW224498   1.886   2.568   6.996
 7867SOL     OW24499   5.365   6.718   2.586
 7867SOL    HW124500   5.305   6.788   2.625
 7867SOL    HW224501   5.323   6.628   2.597
 7868SOL     OW24502   5.590   6.370   2.370
 7868SOL    HW124503   5.585   6.309   2.291
 7868SOL    HW224504   5.654   6.332   2.437
 7869SOL     OW24505   5.260   3.487   6.648
 7869SOL    HW124506   5.343   3.467   6.595
 7869SOL    HW224507   5.180   3.464   6.592
 7870SOL     OW24508   4.503   5.003   4.494
 7870SOL    HW124509   4.560   5.065   4.548
 7870SOL    HW224510   4.407   5.026   4.509
 7871SOL     OW24511   5.426   3.837   2.542
 7871SOL    HW124512   5.384   3.877   2.460
 7871SOL    HW224513   5.369   3.762   2.575
 7872SOL     OW24514   2.266   4.251   2.864
 7872SOL    HW124515   2.177   4.297   2.875
 7872SOL    HW224516   2.336   4.319   2.846
 7873SOL     OW24517   5.252   0.904   5.561
 7873SOL    HW124518   5.289   0.997   5.552
 7873SOL    HW224519   5.306   0.842   5.504
 7874SOL     OW24520   5.151   1.523   0.862
 7874SOL    HW124521   5.108   1.539   0.950
 7874SOL    HW224522   5.197   1.607   0.832
 7875SOL     OW24523   4.506   2.391   6.921
 7875SOL    HW124524   4.521   2.486   6.947
 7875SOL    HW224525   4.481   2.385   6.824
 7876SOL     OW24526   6.868   6.939   5.226
 7876SOL    HW124527   6.780   6.933   5.180
 7876SOL    HW224528   6.941   6.953   5.159
 7877SOL     OW24529   6.574   3.121   2.959
 7877SOL    HW124530   6.643   3.155   3.022
 7877SOL    HW224531   6.536   3.034   2.993
 7878SOL     OW24532   5.016   5.104   4.093
 7878SOL    HW124533   5.052   5.034   4.156
 7878SOL    HW224534   4.927   5.075   4.060
 7879SOL     OW24535   4.881   5.766   3.527
 7879SOL    HW124536   4.791   5.808   3.520
 7879SOL    HW224537   4.902   5.716   3.443
 7880SOL     OW24538   1.573   5.358   0.865
 7880SOL    HW124539   1.526   5.321   0.945
 7880SOL    HW224540   1.631   5.286   0.825
 7881SOL     OW24541   5.539   3.658   4.712
 7881SOL    HW124542   5.638   3.663   4.725
 7881SOL    HW224543   5.507   3.566   4.736
 7882SOL     OW24544   1.436   3.489   2.620
 7882SOL    HW124545   1.500   3.558   2.584
 7882SOL    HW224546   1.465   3.461   2.711
 7883SOL     OW24547   1.350   6.772   1.170
 7883SOL    HW124548   1.291   6.708   1.219
 7883SOL    HW224549   1.365   6.854   1.225
 7884SOL     OW24550   2.115   3.472   4.031
 7884SOL    HW124551   2.143   3.521   4.114
 7884SOL    HW224552   2.110   3.536   3.954
 7885SOL     OW24553   6.155   6.430   1.579
 7885SOL    HW124554   6.145   6.375   1.496
 7885SOL    HW224555   6.087   6.401   1.646
 7886SOL     OW24556   3.996   5.193   0.967
 7886SOL    HW124557   4.014   5.215   1.063
 7886SOL    HW224558   3.940   5.265   0.927
 7887SOL     OW24559   3.248   2.603   5.348
 7887SOL    HW124560   3.204   2.596   5.438
 7887SOL    HW224561   3.213   2.531   5.288
 7888SOL     OW24562   6.977   0.589   5.176
 7888SOL    HW124563   0.031   0.590   5.111
 7888SOL    HW224564   6.928   0.502   5.168
 7889SOL     OW24565   0.644   4.674   6.903
 7889SOL    HW124566   0.577   4.685   6.977
 7889SOL    HW224567   0.736   4.677   6.942
 7890SOL     OW24568   0.509   3.087   3.689
 7890SOL    HW124569   0.417   3.050   3.706
 7890SOL    HW224570   0.525   3.166   3.748
 7891SOL     OW24571   1.939   4.293   5.042
 7891SOL    HW124572   1.881   4.372   5.065
 7891SOL    HW224573   1.889   4.233   4.980
 7892SOL     OW24574   1.886   1.836   3.662
 7892SOL    HW124575   1.970   1.800   3.702
 7892SOL    HW224576   1.810   1.820   3.725
 7893SOL     OW24577   6.127   0.105   1.656
 7893SOL    HW124578   6.160   0.110   1.750
 7893SOL    HW224579   6.049   0.042   1.651
 7894SOL     OW24580   3.591   0.946   1.153
 7894SOL    HW124581   3.538   0.968   1.070
 7894SOL    HW224582   3.629   0.854   1.144
 7895SOL     OW24583   4.824   0.247   4.180
 7895SOL    HW124584   4.898   0.313   4.188
 7895SOL    HW224585   4.744   0.280   4.231
 7896SOL     OW24586   4.492   2.617   1.089
 7896SOL    HW124587   4.505   2.711   1.059
 7896SOL    HW224588   4.444   2.566   1.018
 7897SOL     OW24589   3.461   2.159   1.426
 7897SOL    HW124590   3.489   2.146   1.521
 7897SOL    HW224591   3.379   2.217   1.423
 7898SOL     OW24592   4.036   0.148   3.758
 7898SOL    HW124593   4.081   0.233   3.731
 7898SOL    HW224594   4.024   0.090   3.678
 7899SOL     OW24595   5.695   6.600   1.264
 7899SOL    HW124596   5.646   6.524   1.222
 7899SOL    HW224597   5.646   6.631   1.345
 7900SOL     OW24598   0.988   5.387   1.554
 7900SOL    HW124599   0.975   5.289   1.543
 7900SOL    HW224600   0.939   5.436   1.482
 7901SOL     OW24601   4.468   0.727   6.789
 7901SOL    HW124602   4.417   0.770   6.864
 7901SOL    HW224603   4.504   0.797   6.728
 7902SOL     OW24604   6.241   6.150   2.304
 7902SOL    HW124605   6.179   6.185   2.234
 7902SOL    HW224606   6.302   6.223   2.334
 7903SOL     OW24607   4.807   1.566   2.896
 7903SOL    HW124608   4.887   1.617   2.865
 7903SOL    HW224609   4.734   1.630   2.920
 7904SOL     OW24610   5.606   6.585   2.542
 7904SOL    HW124611   5.590   6.509   2.478
 7904SOL    HW224612   5.518   6.621   2.573
 7905SOL     OW24613   6.106   2.771   0.731
 7905SOL    HW124614   6.064   2.682   0.750
 7905SOL    HW224615   6.201   2.758   0.702
 7906SOL     OW24616   0.606   4.816   0.918
 7906SOL    HW124617   0.524   4.761   0.903
 7906SOL    HW224618   0.590   4.910   0.886
 7907SOL     OW24619   6.174   1.927   3.635
 7907SOL    HW124620   6.103   1.956   3.571
 7907SOL    HW224621   6.143   1.943   3.729
 7908SOL     OW24622   1.653   0.460   5.790
 7908SOL    HW124623   1.726   0.460   5.859
 7908SOL    HW224624   1.588   0.388   5.810
 7909SOL     OW24625   5.153   4.240   3.812
 7909SOL    HW124626   5.165   4.337   3.794
 7909SOL    HW224627   5.241   4.200   3.837
 7910SOL     OW24628   2.426   2.863   0.499
 7910SOL    HW124629   2.454   2.889   0.407
 7910SOL    HW224630   2.329   2.885   0.512
 7911SOL     OW24631   1.124   4.781   0.564
 7911SOL    HW124632   1.103   4.684   0.574
 7911SOL    HW224633   1.045   4.835   0.592
 7912SOL     OW24634   5.767   4.511   1.017
 7912SOL    HW124635   5.828   4.453   0.964
 7912SOL    HW224636   5.782   4.496   1.115
 7913SOL     OW24637   1.189   4.127   1.730
 7913SOL    HW124638   1.209   4.127   1.828
 7913SOL    HW224639   1.169   4.033   1.701
 7914SOL     OW24640   0.105   4.494   0.421
 7914SOL    HW124641   0.157   4.471   0.503
 7914SOL    HW224642   0.010   4.514   0.446
 7915SOL     OW24643   5.136   2.604   1.997
 7915SOL    HW124644   5.133   2.542   2.075
 7915SOL    HW224645   5.042   2.626   1.969
 7916SOL     OW24646   6.941   6.413   5.589
 7916SOL    HW124647   0.010   6.443   5.563
 7916SOL    HW224648   6.899   6.482   5.649
 7917SOL     OW24649   3.714   2.984   5.323
 7917SOL    HW124650   3.635   2.923   5.322
 7917SOL    HW224651   3.740   3.004   5.418
 7918SOL     OW24652   6.281   1.205   4.427
 7918SOL    HW124653   6.241   1.138   4.364
 7918SOL    HW224654   6.373   1.229   4.395
 7919SOL     OW24655   1.674   4.695   3.372
 7919SOL    HW124656   1.750   4.655   3.424
 7919SOL    HW224657   1.657   4.788   3.405
 7920SOL     OW24658   6.556   0.528   0.377
 7920SOL    HW124659   6.616   0.526   0.297
 7920SOL    HW224660   6.509   0.440   0.386
 7921SOL     OW24661   6.298   6.245   1.937
 7921SOL    HW124662   6.297   6.169   1.871
 7921SOL    HW224663   6.225   6.232   2.003
 7922SOL     OW24664   0.622   6.000   0.406
 7922SOL    HW124665   0.596   5.977   0.312
 7922SOL    HW224666   0.540   6.022   0.459
 7923SOL     OW24667   4.080   0.635   6.337
 7923SOL    HW124668   4.102   0.598   6.427
 7923SOL    HW224669   4.033   0.566   6.282
 7924SOL     OW24670   5.171   0.090   2.057
 7924SOL    HW124671   5.133   0.070   2.147
 7924SOL    HW224672   5.097   0.110   1.993
 7925SOL     OW24673   0.728   6.607   0.662
 7925SOL    HW124674   0.674   6.690   0.674
 7925SOL    HW224675   0.756   6.572   0.751
 7926SOL     OW24676   4.020   1.918   6.652
 7926SOL    HW124677   4.028   2.008   6.696
 7926SOL    HW224678   3.949   1.921   6.582
 7927SOL     OW24679   4.576   5.894   2.840
 7927SOL    HW124680   4.543   5.914   2.932
 7927SOL    HW224681   4.504   5.917   2.773
 7928SOL     OW24682   1.300   1.575   3.683
 7928SOL    HW124683   1.241   1.556   3.762
 7928SOL    HW224684   1.245   1.578   3.600
 7929SOL     OW24685   3.961   3.694   5.516
 7929SOL    HW124686   4.058   3.675   5.535
 7929SOL    HW224687   3.940   3.667   5.422
 7930SOL     OW24688   4.390   5.242   5.600
 7930SOL    HW124689   4.433   5.228   5.511
 7930SOL    HW224690   4.435   5.185   5.668
 7931SOL     OW24691   3.047   3.059   0.063
 7931SOL    HW124692   2.957   3.103   0.070
 7931SOL    HW224693   3.058   3.022   6.993
 7932SOL     OW24694   1.109   6.418   6.510
 7932SOL    HW124695   1.127   6.387   6.604
 7932SOL    HW224696   1.107   6.518   6.508
 7933SOL     OW24697   6.821   6.938   6.146
 7933SOL    HW124698   6.844   6.969   6.054
 7933SOL    HW224699   6.904   6.932   6.201
 7934SOL     OW24700   1.601   5.085   6.543
 7934SOL    HW124701   1.570   5.001   6.499
 7934SOL    HW224702   1.544   5.161   6.513
 7935SOL     OW24703   5.874   6.071   1.055
 7935SOL    HW124704   5.909   6.158   1.020
 7935SOL    HW224705   5.898   6.062   1.151
 7936SOL     OW24706   2.920   6.036   2.216
 7936SOL    HW124707   2.834   5.992   2.240
 7936SOL    HW224708   2.982   5.968   2.177
 7937SOL     OW24709   6.619   5.817   3.936
 7937SOL    HW124710   6.600   5.891   3.871
 7937SOL    HW224711   6.538   5.760   3.948
 7938SOL     OW24712   6.440   6.128   4.365
 7938SOL    HW124713   6.465   6.058   4.299
 7938SOL    HW224714   6.371   6.091   4.427
 7939SOL     OW24715   1.861   2.218   4.779
 7939SOL    HW124716   1.819   2.230   4.689
 7939SOL    HW224717   1.953   2.255   4.778
 7940SOL     OW24718   1.711   3.207   1.786
 7940SOL    HW124719   1.702   3.163   1.876
 7940SOL    HW224720   1.805   3.196   1.754
 7941SOL     OW24721   6.209   6.276   1.377
 7941SOL    HW124722   6.226   6.321   1.290
 7941SOL    HW224723   6.294   6.233   1.410
 7942SOL     OW24724   0.248   5.124   2.421
 7942SOL    HW124725   0.206   5.107   2.510
 7942SOL    HW224726   0.330   5.068   2.411
 7943SOL     OW24727   0.691   3.978   6.431
 7943SOL    HW124728   0.650   3.912   6.495
 7943SOL    HW224729   0.704   3.935   6.342
 7944SOL     OW24730   0.726   2.561   0.722
 7944SOL    HW124731   0.731   2.657   0.692
 7944SOL    HW224732   0.664   2.554   0.800
 7945SOL     OW24733   6.688   5.330   1.090
 7945SOL    HW124734   6.613   5.275   1.125
 7945SOL    HW224735   6.759   5.339   1.160
 7946SOL     OW24736   3.648   0.038   5.452
 7946SOL    HW124737   3.666   0.118   5.395
 7946SOL    HW224738   3.583   7.000   5.406
 7947SOL     OW24739   3.014   1.445   5.501
 7947SOL    HW124740   3.050   1.366   5.550
 7947SOL    HW224741   2.942   1.489   5.556
 7948SOL     OW24742   1.235   5.998   1.159
 7948SOL    HW124743   1.292   6.009   1.078
 7948SOL    HW224744   1.156   5.940   1.137
 7949SOL     OW24745   4.967   4.067   5.389
 7949SOL    HW124746   4.901   3.998   5.419
 7949SOL    HW224747   5.025   4.094   5.466
 7950SOL     OW24748   4.970   5.442   4.294
 7950SOL    HW124749   4.886   5.481   4.256
 7950SOL    HW224750   5.034   5.421   4.220
 7951SOL     OW24751   2.439   5.019   2.400
 7951SOL    HW124752   2.402   5.111   2.411
 7951SOL    HW224753   2.514   5.005   2.465
 7952SOL     OW24754   6.928   3.310   6.645
 7952SOL    HW124755   6.868   3.289   6.568
 7952SOL    HW224756   6.919   3.407   6.669
 7953SOL     OW24757   3.771   2.142   3.017
 7953SOL    HW124758   3.784   2.116   2.922
 7953SOL    HW224759   3.858   2.134   3.067
 7954SOL     OW24760   3.270   4.424   6.227
 7954SOL    HW124761   3.287   4.334   6.268
 7954SOL    HW224762   3.244   4.488   6.299
 7955SOL     OW24763   2.901   0.947   6.652
 7955SOL    HW124764   2.888   0.870   6.715
 7955SOL    HW224765   2.988   0.993   6.672
 7956SOL     OW24766   4.928   6.625   1.980
 7956SOL    HW124767   4.885   6.535   1.972
 7956SOL    HW224768   4.873   6.682   2.041
 7957SOL     OW24769   0.929   0.619   0.986
 7957SOL    HW124770   0.969   0.565   1.060
 7957SOL    HW224771   0.962   0.713   0.991
 7958SOL     OW24772   4.180   5.044   5.571
 7958SOL    HW124773   4.268   5.091   5.565
 7958SOL    HW224774   4.194   4.951   5.603
 7959SOL     OW24775   5.196   5.786   0.908
 7959SOL    HW124776   5.294   5.795   0.891
 7959SOL    HW224777   5.181   5.722   0.983
 7960SOL     OW24778   2.182   1.120   5.876
 7960SOL    HW124779   2.142   1.116   5.968
 7960SOL    HW224780   2.206   1.214   5.853
 7961SOL     OW24781   6.900   1.069   0.228
 7961SOL    HW124782   6.962   1.064   0.307
 7961SOL    HW224783   6.808   1.044   0.258
 7962SOL     OW24784   1.400   0.778   5.975
 7962SOL    HW124785   1.427   0.768   5.880
 7962SOL    HW224786   1.464   0.838   6.022
 7963SOL     OW24787   6.518   6.518   4.360
 7963SOL    HW124788   6.613   6.493   4.340
 7963SOL    HW224789   6.513   6.614   4.385
 7964SOL     OW24790   6.984   4.109   3.153
 7964SOL    HW124791   0.010   4.130   3.069
 7964SOL    HW224792   6.949   4.015   3.150
 7965SOL     OW24793   4.355   2.432   6.093
 7965SOL    HW124794   4.287   2.487   6.142
 7965SOL    HW224795   4.422   2.396   6.158
 7966SOL     OW24796   2.567   2.419   5.467
 7966SOL    HW124797   2.637   2.351   5.446
 7966SOL    HW224798   2.551   2.422   5.565
 7967SOL     OW24799   3.542   6.453   2.332
 7967SOL    HW124800   3.635   6.487   2.348
 7967SOL    HW224801   3.518   6.465   2.236
 7968SOL     OW24802   1.054   2.219   3.732
 7968SOL    HW124803   1.154   2.227   3.727
 7968SOL    HW224804   1.015   2.241   3.642
 7969SOL     OW24805   5.091   5.820   0.655
 7969SOL    HW124806   5.144   5.846   0.574
 7969SOL    HW224807   5.152   5.815   0.735
 7970SOL     OW24808   6.816   2.955   2.153
 7970SOL    HW124809   6.761   3.004   2.221
 7970SOL    HW224810   6.907   2.937   2.190
 7971SOL     OW24811   3.350   1.966   1.086
 7971SOL    HW124812   3.401   1.910   1.152
 7971SOL    HW224813   3.289   1.907   1.033
 7972SOL     OW24814   2.291   2.677   0.230
 7972SOL    HW124815   2.200   2.637   0.236
 7972SOL    HW224816   2.285   2.777   0.232
 7973SOL     OW24817   4.254   4.931   4.818
 7973SOL    HW124818   4.324   4.864   4.790
 7973SOL    HW224819   4.254   5.008   4.754
 7974SOL     OW24820   5.836   0.642   5.368
 7974SOL    HW124821   5.914   0.662   5.309
 7974SOL    HW224822   5.813   0.545   5.362
 7975SOL     OW24823   6.724   1.086   1.784
 7975SOL    HW124824   6.812   1.129   1.764
 7975SOL    HW224825   6.707   1.014   1.716
 7976SOL     OW24826   0.685   0.585   6.224
 7976SOL    HW124827   0.666   0.644   6.302
 7976SOL    HW224828   0.770   0.534   6.240
 7977SOL     OW24829   4.853   5.907   2.846
 7977SOL    HW124830   4.753   5.917   2.850
 7977SOL    HW224831   4.876   5.810   2.842
 7978SOL     OW24832   6.129   2.551   6.431
 7978SOL    HW124833   6.090   2.538   6.340
 7978SOL    HW224834   6.073   2.615   6.483
 7979SOL     OW24835   3.771   5.650   5.846
 7979SOL    HW124836   3.693   5.592   5.872
 7979SOL    HW224837   3.759   5.741   5.884
 7980SOL     OW24838   3.086   5.780   7.015
 7980SOL    HW124839   2.999   5.822   0.022
 7980SOL    HW224840   3.114   5.711   0.060
 7981SOL     OW24841   0.753   4.929   2.056
 7981SOL    HW124842   0.797   4.966   1.975
 7981SOL    HW224843   0.660   4.900   2.034
 7982SOL     OW24844   1.933   1.509   0.216
 7982SOL    HW124845   1.968   1.603   0.223
 7982SOL    HW224846   1.856   1.498   0.278
 7983SOL     OW24847   6.756   2.064   0.969
 7983SOL    HW124848   6.668   2.018   0.959
 7983SOL    HW224849   6.819   2.032   0.897
 7984SOL     OW24850   1.354   1.171   1.003
 7984SOL    HW124851   1.256   1.189   1.006
 7984SOL    HW224852   1.371   1.082   0.962
 7985SOL     OW24853   3.066   0.916   4.075
 7985SOL    HW124854   3.001   0.986   4.047
 7985SOL    HW224855   3.158   0.941   4.044
 7986SOL     OW24856   3.118   1.199   6.259
 7986SOL    HW124857   3.118   1.173   6.356
 7986SOL    HW224858   3.066   1.132   6.206
 7987SOL     OW24859   2.047   2.433   6.749
 7987SOL    HW124860   2.144   2.444   6.725
 7987SOL    HW224861   2.005   2.367   6.687
 7988SOL     OW24862   0.806   2.081   3.088
 7988SOL    HW124863   0.769   1.996   3.127
 7988SOL    HW224864   0.904   2.069   3.071
 7989SOL     OW24865   2.735   3.363   6.907
 7989SOL    HW124866   2.752   3.276   6.953
 7989SOL    HW224867   2.740   3.350   6.808
 7990SOL     OW24868   1.319   4.500   4.270
 7990SOL    HW124869   1.249   4.433   4.297
 7990SOL    HW224870   1.399   4.452   4.234
 7991SOL     OW24871   5.606   0.280   3.130
 7991SOL    HW124872   5.564   0.198   3.091
 7991SOL    HW224873   5.573   0.293   3.224
 7992SOL     OW24874   1.038   0.420   0.695
 7992SOL    HW124875   1.026   0.519   0.689
 7992SOL    HW224876   0.958   0.375   0.655
 7993SOL     OW24877   0.527   6.830   0.687
 7993SOL    HW124878   0.467   6.818   0.608
 7993SOL    HW224879   0.526   6.926   0.715
 7994SOL     OW24880   3.942   6.785   3.517
 7994SOL    HW124881   3.984   6.875   3.522
 7994SOL    HW224882   3.843   6.794   3.503
 7995SOL     OW24883   6.030   5.849   3.680
 7995SOL    HW124884   5.948   5.794   3.659
 7995SOL    HW224885   6.090   5.797   3.740
 7996SOL     OW24886   2.814   0.010   4.941
 7996SOL    HW124887   2.856   0.100   4.929
 7996SOL    HW224888   2.789   7.020   5.037
 7997SOL     OW24889   0.288   1.229   1.410
 7997SOL    HW124890   0.300   1.311   1.466
 7997SOL    HW224891   0.251   1.155   1.466
 7998SOL     OW24892   2.829   0.141   0.288
 7998SOL    HW124893   2.760   0.141   0.214
 7998SOL    HW224894   2.897   0.070   0.269
 7999SOL     OW24895   1.113   0.731   6.038
 7999SOL    HW124896   1.092   0.658   5.974
 7999SOL    HW224897   1.212   0.741   6.046
 8000SOL     OW24898   4.916   6.878   6.922
 8000SOL    HW124899   4.911   6.779   6.931
 8000SOL    HW224900   4.829   6.913   6.888
 8001SOL     OW24901   4.588   6.195   1.624
 8001SOL    HW124902   4.576   6.251   1.706
 8001SOL    HW224903   4.653   6.122   1.644
 8002SOL     OW24904   2.226   0.634   6.221
 8002SOL    HW124905   2.301   0.595   6.275
 8002SOL    HW224906   2.165   0.561   6.191
 8003SOL     OW24907   2.637   5.639   1.952
 8003SOL    HW124908   2.633   5.556   2.007
 8003SOL    HW224909   2.551   5.689   1.961
 8004SOL     OW24910   2.140   2.744   2.681
 8004SOL    HW124911   2.046   2.739   2.648
 8004SOL    HW224912   2.190   2.813   2.629
 8005SOL     OW24913   3.116   1.540   3.292
 8005SOL    HW124914   3.193   1.537   3.356
 8005SOL    HW224915   3.145   1.587   3.208
 8006SOL     OW24916   2.122   6.328   5.765
 8006SOL    HW124917   2.030   6.290   5.753
 8006SOL    HW224918   2.189   6.269   5.721
 8007SOL     OW24919   6.296   1.136   5.630
 8007SOL    HW124920   6.394   1.152   5.627
 8007SOL    HW224921   6.253   1.174   5.549
 8008SOL     OW24922   4.450   5.995   6.574
 8008SOL    HW124923   4.470   6.087   6.606
 8008SOL    HW224924   4.352   5.988   6.553
 8009SOL     OW24925   5.827   0.721   1.591
 8009SOL    HW124926   5.744   0.777   1.590
 8009SOL    HW224927   5.802   0.624   1.590
 8010SOL     OW24928   1.964   1.195   5.252
 8010SOL    HW124929   1.892   1.155   5.195
 8010SOL    HW224930   1.964   1.152   5.342
 8011SOL     OW24931   3.518   2.143   0.936
 8011SOL    HW124932   3.475   2.074   0.995
 8011SOL    HW224933   3.458   2.223   0.930
 8012SOL     OW24934   2.182   3.684   0.119
 8012SOL    HW124935   2.123   3.604   0.106
 8012SOL    HW224936   2.170   3.719   0.212
 8013SOL     OW24937   1.680   5.197   3.571
 8013SOL    HW124938   1.674   5.116   3.629
 8013SOL    HW224939   1.705   5.276   3.626
 8014SOL     OW24940   1.237   6.338   5.041
 8014SOL    HW124941   1.282   6.359   4.954
 8014SOL    HW224942   1.187   6.419   5.072
 8015SOL     OW24943   3.258   0.592   6.054
 8015SOL    HW124944   3.184   0.549   6.003
 8015SOL    HW224945   3.293   0.530   6.123
 8016SOL     OW24946   4.747   0.371   5.549
 8016SOL    HW124947   4.798   0.315   5.614
 8016SOL    HW224948   4.811   0.413   5.485
 8017SOL     OW24949   5.885   0.014   0.767
 8017SOL    HW124950   5.822   6.970   0.809
 8017SOL    HW224951   5.866   0.105   0.803
 8018SOL     OW24952   3.238   2.058   6.679
 8018SOL    HW124953   3.185   2.060   6.594
 8018SOL    HW224954   3.287   2.144   6.690
 8019SOL     OW24955   2.520   4.943   0.600
 8019SOL    HW124956   2.472   5.026   0.630
 8019SOL    HW224957   2.553   4.893   0.680
 8020SOL     OW24958   6.097   0.475   6.983
 8020SOL    HW124959   6.119   0.419   0.040
 8020SOL    HW224960   6.177   0.530   6.957
 8021SOL     OW24961   1.333   2.356   0.868
 8021SOL    HW124962   1.350   2.343   0.770
 8021SOL    HW224963   1.235   2.356   0.885
 8022SOL     OW24964   5.789   0.119   2.691
 8022SOL    HW124965   5.843   0.134   2.609
 8022SOL    HW224966   5.800   0.024   2.721
 8023SOL     OW24967   5.598   5.325   2.895
 8023SOL    HW124968   5.667   5.397   2.901
 8023SOL    HW224969   5.570   5.298   2.987
 8024SOL     OW24970   1.261   4.539   5.987
 8024SOL    HW124971   1.274   4.448   5.949
 8024SOL    HW224972   1.175   4.543   6.036
 8025SOL     OW24973   2.038   5.944   6.937
 8025SOL    HW124974   1.947   5.966   6.971
 8025SOL    HW224975   2.105   5.953   7.010
 8026SOL     OW24976   6.820   4.237   6.992
 8026SOL    HW124977   6.795   4.311   6.929
 8026SOL    HW224978   6.919   4.241   7.010
 8027SOL     OW24979   4.674   0.295   4.861
 8027SOL    HW124980   4.718   0.382   4.840
 8027SOL    HW224981   4.599   0.310   4.926
 8028SOL     OW24982   4.060   6.019   5.600
 8028SOL    HW124983   3.989   6.035   5.531
 8028SOL    HW224984   4.022   6.031   5.691
 8029SOL     OW24985   4.862   3.068   1.044
 8029SOL    HW124986   4.947   3.016   1.033
 8029SOL    HW224987   4.784   3.010   1.018
 8030SOL     OW24988   4.554   4.750   0.037
 8030SOL    HW124989   4.474   4.811   0.039
 8030SOL    HW224990   4.544   4.680   0.108
 8031SOL     OW24991   6.376   6.392   2.395
 8031SOL    HW124992   6.365   6.442   2.309
 8031SOL    HW224993   6.459   6.423   2.441
 8032SOL     OW24994   6.417   4.073   1.716
 8032SOL    HW124995   6.330   4.077   1.667
 8032SOL    HW224996   6.409   4.125   1.801
 8033SOL     OW24997   4.973   1.993   6.516
 8033SOL    HW124998   5.057   2.047   6.514
 8033SOL    HW224999   4.995   1.896   6.512
 8034SOL     OW25000   4.816   0.983   4.740
 8034SOL    HW125001   4.784   1.059   4.683
 8034SOL    HW225002   4.751   0.908   4.736
 8035SOL     OW25003   5.303   1.843   3.927
 8035SOL    HW125004   5.246   1.918   3.959
 8035SOL    HW225005   5.280   1.760   3.978
 8036SOL     OW25006   6.533   4.030   3.828
 8036SOL    HW125007   6.449   4.083   3.842
 8036SOL    HW225008   6.542   4.007   3.732
 8037SOL     OW25009   1.655   3.334   0.048
 8037SOL    HW125010   1.751   3.322   0.025
 8037SOL    HW225011   1.605   3.368   6.991
 8038SOL     OW25012   4.770   0.248   2.436
 8038SOL    HW125013   4.679   0.212   2.457
 8038SOL    HW225014   4.784   0.333   2.488
 8039SOL     OW25015   0.789   1.699   5.384
 8039SOL    HW125016   0.808   1.670   5.477
 8039SOL    HW225017   0.813   1.795   5.373
 8040SOL     OW25018   1.176   5.544   6.968
 8040SOL    HW125019   1.243   5.565   0.017
 8040SOL    HW225020   1.200   5.456   6.926
 8041SOL     OW25021   2.845   1.412   2.770
 8041SOL    HW125022   2.815   1.355   2.693
 8041SOL    HW225023   2.851   1.356   2.853
 8042SOL     OW25024   3.326   3.236   4.385
 8042SOL    HW125025   3.348   3.217   4.480
 8042SOL    HW225026   3.251   3.301   4.380
 8043SOL     OW25027   3.583   6.409   0.994
 8043SOL    HW125028   3.494   6.451   1.013
 8043SOL    HW225029   3.583   6.316   1.031
 8044SOL     OW25030   4.125   2.527   1.459
 8044SOL    HW125031   4.127   2.459   1.532
 8044SOL    HW225032   4.212   2.576   1.455
 8045SOL     OW25033   5.833   2.541   2.985
 8045SOL    HW125034   5.798   2.516   2.894
 8045SOL    HW225035   5.767   2.513   3.055
 8046SOL     OW25036   0.833   4.364   1.787
 8046SOL    HW125037   0.754   4.338   1.843
 8046SOL    HW225038   0.805   4.431   1.718
 8047SOL     OW25039   4.056   5.808   5.321
 8047SOL    HW125040   3.984   5.750   5.280
 8047SOL    HW225041   4.043   5.812   5.420
 8048SOL     OW25042   4.731   2.131   6.544
 8048SOL    HW125043   4.813   2.074   6.537
 8048SOL    HW225044   4.755   2.226   6.521
 8049SOL     OW25045   0.558   0.303   0.236
 8049SOL    HW125046   0.559   0.361   0.318
 8049SOL    HW225047   0.642   0.249   0.232
 8050SOL     OW25048   2.072   3.460   3.565
 8050SOL    HW125049   2.095   3.364   3.578
 8050SOL    HW225050   2.061   3.478   3.467
 8051SOL     OW25051   4.398   5.570   4.390
 8051SOL    HW125052   4.465   5.504   4.355
 8051SOL    HW225053   4.429   5.607   4.477
 8052SOL     OW25054   3.325   1.181   0.468
 8052SOL    HW125055   3.395   1.225   0.413
 8052SOL    HW225056   3.237   1.189   0.423
 8053SOL     OW25057   3.136   3.026   4.021
 8053SOL    HW125058   3.110   2.930   4.020
 8053SOL    HW225059   3.168   3.053   3.930
 8054SOL     OW25060   6.452   4.796   4.887
 8054SOL    HW125061   6.357   4.765   4.887
 8054SOL    HW225062   6.475   4.833   4.977
 8055SOL     OW25063   0.671   0.200   5.117
 8055SOL    HW125064   0.761   0.242   5.115
 8055SOL    HW225065   0.669   0.123   5.053
 8056SOL     OW25066   2.084   1.036   3.484
 8056SOL    HW125067   2.136   0.965   3.437
 8056SOL    HW225068   2.024   1.082   3.419
 8057SOL     OW25069   3.038   2.109   3.113
 8057SOL    HW125070   3.051   2.073   3.020
 8057SOL    HW225071   2.941   2.129   3.127
 8058SOL     OW25072   3.795   0.048   3.336
 8058SOL    HW125073   3.738   6.997   3.373
 8058SOL    HW225074   3.737   0.127   3.313
 8059SOL     OW25075   2.740   1.793   4.694
 8059SOL    HW125076   2.707   1.699   4.688
 8059SOL    HW225077   2.789   1.805   4.781
 8060SOL     OW25078   6.588   2.041   6.180
 8060SOL    HW125079   6.558   2.098   6.257
 8060SOL    HW225080   6.640   2.096   6.116
 8061SOL     OW25081   0.088   0.393   2.698
 8061SOL    HW125082   0.110   0.297   2.683
 8061SOL    HW225083   0.170   0.442   2.729
 8062SOL     OW25084   3.413   4.986   4.529
 8062SOL    HW125085   3.462   4.962   4.613
 8062SOL    HW225086   3.412   5.085   4.519
 8063SOL     OW25087   1.927   2.127   2.642
 8063SOL    HW125088   1.924   2.227   2.636
 8063SOL    HW225089   2.020   2.095   2.625
 8064SOL     OW25090   6.499   2.513   1.107
 8064SOL    HW125091   6.497   2.483   1.012
 8064SOL    HW225092   6.485   2.435   1.167
 8065SOL     OW25093   2.608   5.816   4.314
 8065SOL    HW125094   2.628   5.866   4.229
 8065SOL    HW225095   2.549   5.738   4.294
 8066SOL     OW25096   0.504   1.454   5.215
 8066SOL    HW125097   0.526   1.492   5.305
 8066SOL    HW225098   0.437   1.381   5.225
 8067SOL     OW25099   5.010   2.730   2.737
 8067SOL    HW125100   4.957   2.658   2.693
 8067SOL    HW225101   4.949   2.806   2.762
 8068SOL     OW25102   7.021   4.345   1.607
 8068SOL    HW125103   6.954   4.292   1.556
 8068SOL    HW225104   0.077   4.287   1.630
 8069SOL     OW25105   2.379   5.819   0.791
 8069SOL    HW125106   2.384   5.914   0.759
 8069SOL    HW225107   2.342   5.761   0.719
 8070SOL     OW25108   4.164   3.600   1.027
 8070SOL    HW125109   4.177   3.506   1.060
 8070SOL    HW225110   4.132   3.657   1.102
 8071SOL     OW25111   3.451   6.563   4.576
 8071SOL    HW125112   3.391   6.621   4.631
 8071SOL    HW225113   3.532   6.615   4.549
 8072SOL     OW25114   4.319   1.475   0.879
 8072SOL    HW125115   4.242   1.414   0.895
 8072SOL    HW225116   4.349   1.467   0.784
 8073SOL     OW25117   2.918   5.057   5.205
 8073SOL    HW125118   2.941   5.031   5.298
 8073SOL    HW225119   2.993   5.112   5.166
 8074SOL     OW25120   3.183   2.506   0.939
 8074SOL    HW125121   3.248   2.431   0.927
 8074SOL    HW225122   3.186   2.539   1.033
 8075SOL     OW25123   6.734   6.824   0.472
 8075SOL    HW125124   6.723   6.745   0.533
 8075SOL    HW225125   6.652   6.835   0.416
 8076SOL     OW25126   6.276   0.897   5.344
 8076SOL    HW125127   6.178   0.889   5.356
 8076SOL    HW225128   6.297   0.909   5.247
 8077SOL     OW25129   3.144   6.477   2.663
 8077SOL    HW125130   3.155   6.378   2.656
 8077SOL    HW225131   3.225   6.522   2.625
 8078SOL     OW25132   6.967   2.015   0.485
 8078SOL    HW125133   0.020   2.004   0.550
 8078SOL    HW225134   6.961   2.110   0.456
 8079SOL     OW25135   5.992   1.725   3.578
 8079SOL    HW125136   5.964   1.629   3.573
 8079SOL    HW225137   5.945   1.770   3.653
 8080SOL     OW25138   1.009   3.009   1.865
 8080SOL    HW125139   1.050   3.034   1.777
 8080SOL    HW225140   1.077   3.017   1.937
 8081SOL     OW25141   6.397   5.716   5.617
 8081SOL    HW125142   6.355   5.652   5.681
 8081SOL    HW225143   6.414   5.671   5.530
 8082SOL     OW25144   4.087   6.803   2.366
 8082SOL    HW125145   4.025   6.861   2.420
 8082SOL    HW225146   4.122   6.729   2.424
 8083SOL     OW25147   5.024   2.713   3.046
 8083SOL    HW125148   5.042   2.739   2.951
 8083SOL    HW225149   5.027   2.613   3.054
 8084SOL     OW25150   3.665   6.752   0.398
 8084SOL    HW125151   3.674   6.652   0.393
 8084SOL    HW225152   3.756   6.793   0.398
 8085SOL     OW25153   6.529   6.381   2.065
 8085SOL    HW125154   6.487   6.323   1.996
 8085SOL    HW225155   6.561   6.324   2.141
 8086SOL     OW25156   6.105   0.941   2.442
 8086SOL    HW125157   6.142   0.936   2.349
 8086SOL    HW225158   6.015   0.897   2.444
 8087SOL     OW25159   2.112   0.535   0.275
 8087SOL    HW125160   2.088   0.504   0.367
 8087SOL    HW225161   2.171   0.615   0.282
 8088SOL     OW25162   6.149   1.330   1.368
 8088SOL    HW125163   6.137   1.243   1.321
 8088SOL    HW225164   6.060   1.373   1.382
 8089SOL     OW25165   5.879   2.931   0.655
 8089SOL    HW125166   5.813   2.901   0.724
 8089SOL    HW225167   5.968   2.888   0.673
 8090SOL     OW25168   4.774   1.933   0.208
 8090SOL    HW125169   4.689   1.966   0.167
 8090SOL    HW225170   4.835   1.900   0.136
 8091SOL     OW25171   2.249   4.142   4.800
 8091SOL    HW125172   2.193   4.224   4.804
 8091SOL    HW225173   2.292   4.125   4.889
 8092SOL     OW25174   5.443   2.264   4.993
 8092SOL    HW125175   5.442   2.357   5.031
 8092SOL    HW225176   5.455   2.270   4.894
 8093SOL     OW25177   4.129   4.820   3.063
 8093SOL    HW125178   4.163   4.784   3.150
 8093SOL    HW225179   4.180   4.903   3.039
 8094SOL     OW25180   1.095   3.277   4.519
 8094SOL    HW125181   1.111   3.231   4.431
 8094SOL    HW225182   1.056   3.213   4.584
 8095SOL     OW25183   0.435   4.857   4.528
 8095SOL    HW125184   0.455   4.772   4.578
 8095SOL    HW225185   0.489   4.932   4.568
 8096SOL     OW25186   1.709   0.055   3.290
 8096SOL    HW125187   1.755   0.144   3.300
 8096SOL    HW225188   1.764   7.018   3.232
 8097SOL     OW25189   4.257   0.044   4.294
 8097SOL    HW125190   4.286   0.042   4.390
 8097SOL    HW225191   4.278   6.978   4.252
 8098SOL     OW25192   1.849   6.396   3.024
 8098SOL    HW125193   1.771   6.345   3.060
 8098SOL    HW225194   1.865   6.476   3.081
 8099SOL     OW25195   3.933   6.108   4.903
 8099SOL    HW125196   3.994   6.155   4.840
 8099SOL    HW225197   3.881   6.175   4.956
 8100SOL     OW25198   0.146   0.775   0.327
 8100SOL    HW125199   0.091   0.810   0.403
 8100SOL    HW225200   0.233   0.742   0.362
 8101SOL     OW25201   1.783   6.022   2.315
 8101SOL    HW125202   1.833   5.989   2.395
 8101SOL    HW225203   1.804   6.118   2.300
 8102SOL     OW25204   0.825   4.235   3.787
 8102SOL    HW125205   0.766   4.230   3.868
 8102SOL    HW225206   0.910   4.282   3.811
 8103SOL     OW25207   2.850   6.857   1.460
 8103SOL    HW125208   2.802   6.824   1.541
 8103SOL    HW225209   2.836   6.955   1.450
 8104SOL     OW25210   2.246   0.730   5.715
 8104SOL    HW125211   2.336   0.753   5.753
 8104SOL    HW225212   2.214   0.645   5.756
 8105SOL     OW25213   0.683   2.907   3.221
 8105SOL    HW125214   0.655   2.920   3.317
 8105SOL    HW225215   0.606   2.928   3.162
 8106SOL     OW25216   2.874   6.082   3.027
 8106SOL    HW125217   2.965   6.124   3.022
 8106SOL    HW225218   2.867   6.029   3.112
 8107SOL     OW25219   1.017   4.984   4.566
 8107SOL    HW125220   1.033   4.985   4.664
 8107SOL    HW225221   0.919   4.974   4.548
 8108SOL     OW25222   6.084   3.009   5.777
 8108SOL    HW125223   6.095   2.914   5.747
 8108SOL    HW225224   6.149   3.028   5.851
 8109SOL     OW25225   0.524   3.922   4.664
 8109SOL    HW125226   0.449   3.967   4.712
 8109SOL    HW225227   0.502   3.825   4.650
 8110SOL     OW25228   4.047   5.982   1.755
 8110SOL    HW125229   3.949   5.997   1.774
 8110SOL    HW225230   4.061   5.980   1.656
 8111SOL     OW25231   5.273   1.304   5.170
 8111SOL    HW125232   5.267   1.378   5.103
 8111SOL    HW225233   5.212   1.229   5.143
 8112SOL     OW25234   2.723   1.832   4.088
 8112SOL    HW125235   2.789   1.879   4.147
 8112SOL    HW225236   2.630   1.858   4.115
 8113SOL     OW25237   1.911   3.832   0.305
 8113SOL    HW125238   1.906   3.750   0.249
 8113SOL    HW225239   1.868   3.815   0.394
 8114SOL     OW25240   1.605   4.297   3.124
 8114SOL    HW125241   1.665   4.327   3.049
 8114SOL    HW225242   1.569   4.206   3.103
 8115SOL     OW25243   3.631   0.318   0.321
 8115SOL    HW125244   3.534   0.313   0.344
 8115SOL    HW225245   3.675   0.389   0.375
 8116SOL     OW25246   4.353   4.857   6.131
 8116SOL    HW125247   4.394   4.804   6.057
 8116SOL    HW225248   4.418   4.863   6.207
 8117SOL     OW25249   2.013   0.210   3.308
 8117SOL    HW125250   1.988   0.296   3.265
 8117SOL    HW225251   2.071   0.157   3.245
 8118SOL     OW25252   5.231   4.464   6.314
 8118SOL    HW125253   5.168   4.387   6.325
 8118SOL    HW225254   5.180   4.545   6.287
 8119SOL     OW25255   5.039   5.981   6.212
 8119SOL    HW125256   4.944   5.949   6.216
 8119SOL    HW225257   5.061   6.008   6.118
 8120SOL     OW25258   3.231   5.002   0.715
 8120SOL    HW125259   3.274   5.091   0.697
 8120SOL    HW225260   3.154   4.989   0.652
 8121SOL     OW25261   7.019   5.067   2.281
 8121SOL    HW125262   6.984   4.990   2.333
 8121SOL    HW225263   0.080   5.102   2.325
 8122SOL     OW25264   0.568   5.580   3.376
 8122SOL    HW125265   0.662   5.545   3.376
 8122SOL    HW225266   0.527   5.566   3.286
 8123SOL     OW25267   0.158   1.667   6.571
 8123SOL    HW125268   0.113   1.633   6.653
 8123SOL    HW225269   0.095   1.661   6.494
 8124SOL     OW25270   5.762   6.275   1.240
 8124SOL    HW125271   5.844   6.288   1.184
 8124SOL    HW225272   5.780   6.306   1.333
 8125SOL     OW25273   1.600   1.327   3.151
 8125SOL    HW125274   1.690   1.366   3.132
 8125SOL    HW225275   1.532   1.370   3.092
 8126SOL     OW25276   4.452   4.589   2.485
 8126SOL    HW125277   4.514   4.522   2.444
 8126SOL    HW225278   4.502   4.643   2.553
 8127SOL     OW25279   2.682   4.333   6.307
 8127SOL    HW125280   2.601   4.344   6.366
 8127SOL    HW225281   2.764   4.350   6.360
 8128SOL     OW25282   2.527   1.352   1.707
 8128SOL    HW125283   2.454   1.360   1.776
 8128SOL    HW225284   2.594   1.424   1.722
 8129SOL     OW25285   4.353   0.255   6.447
 8129SOL    HW125286   4.273   0.230   6.501
 8129SOL    HW225287   4.412   0.175   6.434
 8130SOL     OW25288   0.217   3.408   6.523
 8130SOL    HW125289   0.222   3.316   6.563
 8130SOL    HW225290   0.309   3.447   6.518
 8131SOL     OW25291   2.886   1.823   1.016
 8131SOL    HW125292   2.881   1.922   1.008
 8131SOL    HW225293   2.888   1.782   0.925
 8132SOL     OW25294   6.138   6.606   6.178
 8132SOL    HW125295   6.178   6.547   6.107
 8132SOL    HW225296   6.203   6.679   6.199
 8133SOL     OW25297   2.941   5.511   1.807
 8133SOL    HW125298   2.876   5.438   1.787
 8133SOL    HW225299   2.971   5.503   1.902
 8134SOL     OW25300   6.585   2.859   5.975
 8134SOL    HW125301   6.634   2.946   5.973
 8134SOL    HW225302   6.605   2.808   5.892
 8135SOL     OW25303   2.755   6.782   1.210
 8135SOL    HW125304   2.796   6.692   1.199
 8135SOL    HW225305   2.767   6.813   1.305
 8136SOL     OW25306   4.248   5.627   3.527
 8136SOL    HW125307   4.314   5.637   3.453
 8136SOL    HW225308   4.296   5.627   3.615
 8137SOL     OW25309   3.134   2.000   5.224
 8137SOL    HW125310   3.185   1.923   5.186
 8137SOL    HW225311   3.145   2.080   5.165
 8138SOL     OW25312   5.401   1.462   0.400
 8138SOL    HW125313   5.301   1.470   0.392
 8138SOL    HW225314   5.434   1.394   0.335
 8139SOL     OW25315   0.085   1.619   2.182
 8139SOL    HW125316   0.065   1.705   2.135
 8139SOL    HW225317   7.021   1.573   2.205
 8140SOL     OW25318   4.953   0.573   0.401
 8140SOL    HW125319   4.897   0.654   0.386
 8140SOL    HW225320   5.038   0.599   0.447
 8141SOL     OW25321   4.951   6.003   5.111
 8141SOL    HW125322   5.036   5.988   5.061
 8141SOL    HW225323   4.927   5.920   5.162
 8142SOL     OW25324   0.901   5.655   6.911
 8142SOL    HW125325   0.979   5.595   6.928
 8142SOL    HW225326   0.916   5.706   6.826
 8143SOL     OW25327   6.038   4.282   1.389
 8143SOL    HW125328   6.039   4.183   1.398
 8143SOL    HW225329   6.130   4.315   1.367
 8144SOL     OW25330   6.113   5.930   6.295
 8144SOL    HW125331   6.096   5.930   6.394
 8144SOL    HW225332   6.122   6.024   6.263
 8145SOL     OW25333   5.786   5.500   1.587
 8145SOL    HW125334   5.707   5.559   1.605
 8145SOL    HW225335   5.759   5.427   1.524
 8146SOL     OW25336   4.869   0.192   4.528
 8146SOL    HW125337   4.802   0.242   4.474
 8146SOL    HW225338   4.959   0.234   4.515
 8147SOL     OW25339   6.290   1.738   1.096
 8147SOL    HW125340   6.235   1.793   1.032
 8147SOL    HW225341   6.259   1.643   1.093
 8148SOL     OW25342   5.115   4.485   1.185
 8148SOL    HW125343   5.137   4.581   1.197
 8148SOL    HW225344   5.036   4.476   1.124
 8149SOL     OW25345   3.250   6.271   2.054
 8149SOL    HW125346   3.169   6.231   2.097
 8149SOL    HW225347   3.234   6.368   2.036
 8150SOL     OW25348   1.535   3.783   0.724
 8150SOL    HW125349   1.479   3.742   0.651
 8150SOL    HW225350   1.612   3.831   0.683
 8151SOL     OW25351   5.602   2.420   1.376
 8151SOL    HW125352   5.566   2.513   1.363
 8151SOL    HW225353   5.652   2.416   1.462
 8152SOL     OW25354   6.837   2.365   2.455
 8152SOL    HW125355   6.794   2.346   2.367
 8152SOL    HW225356   6.923   2.415   2.441
 8153SOL     OW25357   2.254   0.456   3.301
 8153SOL    HW125358   2.298   0.447   3.212
 8153SOL    HW225359   2.163   0.413   3.298
 8154SOL     OW25360   3.073   5.152   2.084
 8154SOL    HW125361   3.152   5.119   2.033
 8154SOL    HW225362   2.989   5.129   2.034
 8155SOL     OW25363   1.589   3.903   2.014
 8155SOL    HW125364   1.490   3.905   2.032
 8155SOL    HW225365   1.629   3.825   2.061
 8156SOL     OW25366   4.913   0.241   1.250
 8156SOL    HW125367   4.890   0.292   1.167
 8156SOL    HW225368   4.994   0.281   1.293
 8157SOL     OW25369   6.934   5.219   6.388
 8157SOL    HW125370   6.977   5.149   6.331
 8157SOL    HW225371   6.955   5.310   6.351
 8158SOL     OW25372   4.774   4.974   0.599
 8158SOL    HW125373   4.716   4.893   0.607
 8158SOL    HW225374   4.748   5.025   0.517
 8159SOL     OW25375   2.978   5.716   2.320
 8159SOL    HW125376   2.885   5.679   2.312
 8159SOL    HW225377   3.010   5.747   2.231
 8160SOL     OW25378   5.219   0.896   3.658
 8160SOL    HW125379   5.251   0.810   3.697
 8160SOL    HW225380   5.191   0.881   3.563
 8161SOL     OW25381   5.553   1.493   6.576
 8161SOL    HW125382   5.475   1.431   6.564
 8161SOL    HW225383   5.528   1.585   6.547
 8162SOL     OW25384   6.164   5.787   5.844
 8162SOL    HW125385   6.194   5.860   5.783
 8162SOL    HW225386   6.212   5.795   5.931
 8163SOL     OW25387   2.652   3.938   5.309
 8163SOL    HW125388   2.653   3.843   5.339
 8163SOL    HW225389   2.563   3.960   5.270
 8164SOL     OW25390   5.069   3.261   0.688
 8164SOL    HW125391   5.151   3.313   0.712
 8164SOL    HW225392   5.011   3.315   0.628
 8165SOL     OW25393   1.032   4.100   6.367
 8165SOL    HW125394   0.966   4.047   6.420
 8165SOL    HW225395   1.083   4.038   6.307
 8166SOL     OW25396   1.610   0.456   2.452
 8166SOL    HW125397   1.671   0.517   2.401
 8166SOL    HW225398   1.547   0.510   2.507
 8167SOL     OW25399   5.809   6.786   4.869
 8167SOL    HW125400   5.733   6.843   4.899
 8167SOL    HW225401   5.823   6.800   4.771
 8168SOL     OW25402   2.205   1.710   3.619
 8168SOL    HW125403   2.223   1.689   3.523
 8168SOL    HW225404   2.129   1.654   3.651
 8169SOL     OW25405   5.334   2.147   0.901
 8169SOL    HW125406   5.278   2.209   0.846
 8169SOL    HW225407   5.283   2.063   0.918
 8170SOL     OW25408   1.416   5.489   2.729
 8170SOL    HW125409   1.480   5.551   2.684
 8170SOL    HW225410   1.329   5.491   2.680
 8171SOL     OW25411   1.355   1.803   6.964
 8171SOL    HW125412   1.380   1.893   6.997
 8171SOL    HW225413   1.320   1.810   6.870
 8172SOL     OW25414   0.556   2.006   1.971
 8172SOL    HW125415   0.485   1.936   1.964
 8172SOL    HW225416   0.646   1.963   1.975
 8173SOL     OW25417   4.888   1.213   2.288
 8173SOL    HW125418   4.875   1.125   2.242
 8173SOL    HW225419   4.841   1.212   2.376
 8174SOL     OW25420   6.089   3.264   0.933
 8174SOL    HW125421   6.056   3.218   1.015
 8174SOL    HW225422   6.080   3.202   0.855
 8175SOL     OW25423   6.953   3.193   6.101
 8175SOL    HW125424   6.987   3.191   6.195
 8175SOL    HW225425   6.869   3.139   6.095
 8176SOL     OW25426   3.001   5.428   2.074
 8176SOL    HW125427   3.045   5.339   2.083
 8176SOL    HW225428   2.941   5.444   2.153
 8177SOL     OW25429   2.783   6.134   3.992
 8177SOL    HW125430   2.881   6.114   3.986
 8177SOL    HW225431   2.761   6.162   4.085
 8178SOL     OW25432   2.967   5.737   6.658
 8178SOL    HW125433   2.930   5.735   6.751
 8178SOL    HW225434   3.066   5.725   6.662
 8179SOL     OW25435   4.801   2.171   6.044
 8179SOL    HW125436   4.704   2.177   6.068
 8179SOL    HW225437   4.849   2.253   6.077
 8180SOL     OW25438   6.240   0.196   4.962
 8180SOL    HW125439   6.168   0.145   4.915
 8180SOL    HW225440   6.241   0.290   4.929
 8181SOL     OW25441   2.123   1.440   1.657
 8181SOL    HW125442   2.197   1.496   1.620
 8181SOL    HW225443   2.159   1.376   1.724
 8182SOL     OW25444   4.010   3.157   6.221
 8182SOL    HW125445   3.916   3.124   6.220
 8182SOL    HW225446   4.044   3.166   6.127
 8183SOL     OW25447   0.317   2.683   4.547
 8183SOL    HW125448   0.222   2.654   4.536
 8183SOL    HW225449   0.322   2.761   4.609
 8184SOL     OW25450   5.220   1.997   6.055
 8184SOL    HW125451   5.129   2.020   6.089
 8184SOL    HW225452   5.214   1.917   5.996
 8185SOL     OW25453   2.534   6.458   0.293
 8185SOL    HW125454   2.514   6.554   0.315
 8185SOL    HW225455   2.452   6.403   0.309
 8186SOL     OW25456   3.497   5.921   6.370
 8186SOL    HW125457   3.543   5.912   6.458
 8186SOL    HW225458   3.401   5.893   6.379
 8187SOL     OW25459   1.385   2.382   5.592
 8187SOL    HW125460   1.421   2.466   5.553
 8187SOL    HW225461   1.321   2.405   5.666
 8188SOL     OW25462   5.704   2.738   2.071
 8188SOL    HW125463   5.705   2.786   1.983
 8188SOL    HW225464   5.612   2.740   2.110
 8189SOL     OW25465   4.522   5.003   2.851
 8189SOL    HW125466   4.425   4.988   2.870
 8189SOL    HW225467   4.559   5.068   2.917
 8190SOL     OW25468   3.998   5.082   4.025
 8190SOL    HW125469   3.931   5.157   4.024
 8190SOL    HW225470   4.056   5.091   4.106
 8191SOL     OW25471   3.426   6.529   2.897
 8191SOL    HW125472   3.352   6.578   2.851
 8191SOL    HW225473   3.453   6.450   2.841
 8192SOL     OW25474   3.689   5.750   0.831
 8192SOL    HW125475   3.786   5.760   0.808
 8192SOL    HW225476   3.635   5.743   0.747
 8193SOL     OW25477   6.530   6.822   4.434
 8193SOL    HW125478   6.437   6.855   4.419
 8193SOL    HW225479   6.589   6.857   4.361
 8194SOL     OW25480   5.994   2.461   1.111
 8194SOL    HW125481   6.077   2.455   1.165
 8194SOL    HW225482   5.940   2.377   1.121
 8195SOL     OW25483   1.012   0.374   1.139
 8195SOL    HW125484   1.018   0.371   1.239
 8195SOL    HW225485   0.923   0.337   1.111
 8196SOL     OW25486   3.638   0.244   5.268
 8196SOL    HW125487   3.613   0.245   5.171
 8196SOL    HW225488   3.576   0.305   5.319
 8197SOL     OW25489   4.270   1.310   6.264
 8197SOL    HW125490   4.236   1.296   6.171
 8197SOL    HW225491   4.354   1.258   6.277
 8198SOL     OW25492   3.249   5.941   3.468
 8198SOL    HW125493   3.304   5.860   3.488
 8198SOL    HW225494   3.187   5.921   3.392
 8199SOL     OW25495   6.153   3.073   6.338
 8199SOL    HW125496   6.243   3.094   6.377
 8199SOL    HW225497   6.089   3.052   6.413
 8200SOL     OW25498   4.413   3.832   1.714
 8200SOL    HW125499   4.356   3.914   1.701
 8200SOL    HW225500   4.358   3.759   1.754
 8201SOL     OW25501   5.841   1.193   4.196
 8201SOL    HW125502   5.786   1.132   4.140
 8201SOL    HW225503   5.854   1.153   4.287
 8202SOL     OW25504   0.534   5.447   4.119
 8202SOL    HW125505   0.536   5.493   4.030
 8202SOL    HW225506   0.442   5.455   4.158
 8203SOL     OW25507   4.952   2.451   0.994
 8203SOL    HW125508   4.897   2.404   0.925
 8203SOL    HW225509   4.892   2.482   1.068
 8204SOL     OW25510   3.164   5.434   0.901
 8204SOL    HW125511   3.230   5.417   0.828
 8204SOL    HW225512   3.091   5.367   0.897
 8205SOL     OW25513   0.264   4.875   1.110
 8205SOL    HW125514   0.315   4.939   1.053
 8205SOL    HW225515   0.226   4.924   1.189
 8206SOL     OW25516   4.317   2.850   6.074
 8206SOL    HW125517   4.244   2.832   6.007
 8206SOL    HW225518   4.402   2.870   6.026
 8207SOL     OW25519   3.910   4.160   5.118
 8207SOL    HW125520   3.821   4.139   5.157
 8207SOL    HW225521   3.905   4.157   5.018
 8208SOL     OW25522   1.781   6.856   1.655
 8208SOL    HW125523   1.776   6.950   1.620
 8208SOL    HW225524   1.863   6.845   1.710
 8209SOL     OW25525   1.179   1.480   6.056
 8209SOL    HW125526   1.208   1.524   6.141
 8209SOL    HW225527   1.231   1.517   5.980
 8210SOL     OW25528   2.828   0.764   1.172
 8210SOL    HW125529   2.872   0.726   1.254
 8210SOL    HW225530   2.730   0.745   1.175
 8211SOL     OW25531   3.410   3.844   3.172
 8211SOL    HW125532   3.363   3.880   3.252
 8211SOL    HW225533   3.427   3.918   3.107
 8212SOL     OW25534   3.454   1.640   0.993
 8212SOL    HW125535   3.390   1.698   0.942
 8212SOL    HW225536   3.528   1.610   0.932
 8213SOL     OW25537   5.138   4.741   2.246
 8213SOL    HW125538   5.106   4.683   2.171
 8213SOL    HW225539   5.060   4.784   2.291
 8214SOL     OW25540   1.385   5.616   4.257
 8214SOL    HW125541   1.392   5.714   4.275
 8214SOL    HW225542   1.314   5.576   4.314
 8215SOL     OW25543   3.776   5.481   6.614
 8215SOL    HW125544   3.830   5.473   6.698
 8215SOL    HW225545   3.679   5.486   6.636
 8216SOL     OW25546   4.976   6.207   3.361
 8216SOL    HW125547   5.020   6.188   3.449
 8216SOL    HW225548   4.917   6.287   3.371
 8217SOL     OW25549   2.100   3.875   2.357
 8217SOL    HW125550   2.123   3.788   2.314
 8217SOL    HW225551   2.101   3.864   2.457
 8218SOL     OW25552   1.197   6.651   4.400
 8218SOL    HW125553   1.236   6.560   4.415
 8218SOL    HW225554   1.097   6.644   4.398
 8219SOL     OW25555   3.650   3.554   1.444
 8219SOL    HW125556   3.720   3.617   1.479
 8219SOL    HW225557   3.694   3.469   1.415
 8220SOL     OW25558   3.294   3.958   5.321
 8220SOL    HW125559   3.209   4.003   5.349
 8220SOL    HW225560   3.302   3.869   5.367
 8221SOL     OW25561   6.230   5.313   3.492
 8221SOL    HW125562   6.307   5.376   3.479
 8221SOL    HW225563   6.251   5.226   3.447
 8222SOL     OW25564   4.937   2.104   1.452
 8222SOL    HW125565   5.007   2.171   1.476
 8222SOL    HW225566   4.980   2.023   1.413
 8223SOL     OW25567   0.409   4.574   5.949
 8223SOL    HW125568   0.408   4.474   5.949
 8223SOL    HW225569   0.319   4.607   5.921
 8224SOL     OW25570   5.149   2.245   1.573
 8224SOL    HW125571   5.241   2.241   1.534
 8224SOL    HW225572   5.150   2.202   1.663
 8225SOL     OW25573   3.394   1.443   1.410
 8225SOL    HW125574   3.430   1.350   1.411
 8225SOL    HW225575   3.392   1.479   1.503
 8226SOL     OW25576   3.333   0.328   0.405
 8226SOL    HW125577   3.329   0.428   0.393
 8226SOL    HW225578   3.243   0.289   0.385
 8227SOL     OW25579   0.263   1.586   2.417
 8227SOL    HW125580   0.321   1.658   2.377
 8227SOL    HW225581   0.167   1.611   2.407
 8228SOL     OW25582   1.262   1.433   5.676
 8228SOL    HW125583   1.170   1.456   5.705
 8228SOL    HW225584   1.329   1.480   5.734
 8229SOL     OW25585   3.823   4.561   1.332
 8229SOL    HW125586   3.788   4.554   1.239
 8229SOL    HW225587   3.778   4.638   1.378
 8230SOL     OW25588   3.907   6.992   5.513
 8230SOL    HW125589   3.813   6.987   5.480
 8230SOL    HW225590   3.926   0.063   5.543
 8231SOL     OW25591   3.402   2.408   1.717
 8231SOL    HW125592   3.481   2.421   1.778
 8231SOL    HW225593   3.348   2.331   1.749
 8232SOL     OW25594   5.792   1.925   1.877
 8232SOL    HW125595   5.872   1.920   1.937
 8232SOL    HW225596   5.724   1.858   1.906
 8233SOL     OW25597   1.273   0.049   6.414
 8233SOL    HW125598   1.311   6.988   6.372
 8233SOL    HW225599   1.173   0.041   6.419
 8234SOL     OW25600   2.758   3.821   0.099
 8234SOL    HW125601   2.850   3.817   0.137
 8234SOL    HW225602   2.693   3.779   0.163
 8235SOL     OW25603   0.045   3.557   6.832
 8235SOL    HW125604   0.089   3.627   6.776
 8235SOL    HW225605   6.968   3.562   6.818
 8236SOL     OW25606   0.035   5.038   6.194
 8236SOL    HW125607   6.961   5.024   6.170
 8236SOL    HW225608   0.093   4.977   6.140
 8237SOL     OW25609   4.651   6.351   6.546
 8237SOL    HW125610   4.708   6.300   6.483
 8237SOL    HW225611   4.603   6.424   6.497
 8238SOL     OW25612   0.272   6.294   6.876
 8238SOL    HW125613   0.274   6.196   6.894
 8238SOL    HW225614   0.336   6.315   6.802
 8239SOL     OW25615   1.039   0.767   4.650
 8239SOL    HW125616   0.970   0.707   4.689
 8239SOL    HW225617   1.128   0.747   4.692
 8240SOL     OW25618   3.218   3.885   3.433
 8240SOL    HW125619   3.254   3.871   3.525
 8240SOL    HW225620   3.209   3.984   3.416
 8241SOL     OW25621   2.471   4.422   6.102
 8241SOL    HW125622   2.563   4.387   6.084
 8241SOL    HW225623   2.472   4.477   6.186
 8242SOL     OW25624   0.513   3.468   4.756
 8242SOL    HW125625   0.455   3.486   4.835
 8242SOL    HW225626   0.583   3.401   4.779
 8243SOL     OW25627   6.737   3.549   1.022
 8243SOL    HW125628   6.735   3.510   0.930
 8243SOL    HW225629   6.667   3.506   1.078
 8244SOL     OW25630   0.420   0.305   4.557
 8244SOL    HW125631   0.429   0.208   4.577
 8244SOL    HW225632   0.331   0.338   4.591
 8245SOL     OW25633   3.853   1.587   2.948
 8245SOL    HW125634   3.820   1.642   3.025
 8245SOL    HW225635   3.931   1.533   2.979
 8246SOL     OW25636   0.125   4.859   6.585
 8246SOL    HW125637   0.059   4.813   6.525
 8246SOL    HW225638   0.181   4.921   6.531
 8247SOL     OW25639   2.144   6.564   3.584
 8247SOL    HW125640   2.171   6.591   3.677
 8247SOL    HW225641   2.144   6.644   3.525
 8248SOL     OW25642   0.559   4.886   5.066
 8248SOL    HW125643   0.584   4.981   5.089
 8248SOL    HW225644   0.635   4.826   5.090
 8249SOL     OW25645   2.064   1.402   5.790
 8249SOL    HW125646   2.071   1.351   5.704
 8249SOL    HW225647   2.146   1.457   5.803
 8250SOL     OW25648   3.250   2.210   1.064
 8250SOL    HW125649   3.283   2.120   1.032
 8250SOL    HW225650   3.152   2.205   1.082
 8251SOL     OW25651   5.457   1.166   4.660
 8251SOL    HW125652   5.520   1.163   4.583
 8251SOL    HW225653   5.478   1.091   4.722
 8252SOL     OW25654   4.047   2.076   0.169
 8252SOL    HW125655   4.026   2.170   0.143
 8252SOL    HW225656   3.983   2.046   0.240
 8253SOL     OW25657   3.760   5.519   0.123
 8253SOL    HW125658   3.771   5.534   0.025
 8253SOL    HW225659   3.735   5.424   0.140
 8254SOL     OW25660   4.974   4.457   5.501
 8254SOL    HW125661   5.045   4.391   5.527
 8254SOL    HW225662   5.015   4.530   5.447
 8255SOL     OW25663   1.255   0.050   5.693
 8255SOL    HW125664   1.215   7.018   5.767
 8255SOL    HW225665   1.243   0.147   5.712
 8256SOL     OW25666   6.783   6.291   3.019
 8256SOL    HW125667   6.737   6.292   2.930
 8256SOL    HW225668   6.780   6.383   3.059
 8257SOL     OW25669   5.328   4.118   4.073
 8257SOL    HW125670   5.313   4.068   3.988
 8257SOL    HW225671   5.333   4.216   4.054
 8258SOL     OW25672   4.654   3.204   1.681
 8258SOL    HW125673   4.616   3.132   1.739
 8258SOL    HW225674   4.753   3.192   1.674
 8259SOL     OW25675   3.689   2.327   5.439
 8259SOL    HW125676   3.592   2.323   5.414
 8259SOL    HW225677   3.709   2.253   5.503
 8260SOL     OW25678   1.606   6.257   1.740
 8260SOL    HW125679   1.578   6.202   1.819
 8260SOL    HW225680   1.568   6.349   1.749
 8261SOL     OW25681   5.394   6.375   3.386
 8261SOL    HW125682   5.377   6.312   3.311
 8261SOL    HW225683   5.327   6.360   3.459
 8262SOL     OW25684   0.769   4.745   0.547
 8262SOL    HW125685   0.782   4.839   0.577
 8262SOL    HW225686   0.789   4.683   0.622
 8263SOL     OW25687   6.608   3.105   6.675
 8263SOL    HW125688   6.663   3.176   6.719
 8263SOL    HW225689   6.661   3.020   6.668
 8264SOL     OW25690   0.746   6.807   1.632
 8264SOL    HW125691   0.648   6.797   1.648
 8264SOL    HW225692   0.791   6.718   1.642
 8265SOL     OW25693   5.121   0.409   1.998
 8265SOL    HW125694   5.115   0.359   2.085
 8265SOL    HW225695   5.044   0.382   1.940
 8266SOL     OW25696   2.618   0.841   4.609
 8266SOL    HW125697   2.590   0.753   4.570
 8266SOL    HW225698   2.656   0.899   4.537
 8267SOL     OW25699   1.608   4.517   1.518
 8267SOL    HW125700   1.549   4.489   1.442
 8267SOL    HW225701   1.626   4.615   1.512
 8268SOL     OW25702   3.727   5.380   6.166
 8268SOL    HW125703   3.708   5.429   6.081
 8268SOL    HW225704   3.758   5.445   6.236
 8269SOL     OW25705   4.317   2.320   2.635
 8269SOL    HW125706   4.400   2.376   2.635
 8269SOL    HW225707   4.328   2.245   2.570
 8270SOL     OW25708   3.239   5.760   5.563
 8270SOL    HW125709   3.247   5.859   5.552
 8270SOL    HW225710   3.145   5.732   5.544
 8271SOL     OW25711   6.492   6.316   3.673
 8271SOL    HW125712   6.393   6.321   3.662
 8271SOL    HW225713   6.518   6.343   3.766
 8272SOL     OW25714   6.766   1.402   2.577
 8272SOL    HW125715   6.857   1.443   2.575
 8272SOL    HW225716   6.771   1.310   2.614
 8273SOL     OW25717   2.824   0.980   0.057
 8273SOL    HW125718   2.769   1.020   7.006
 8273SOL    HW225719   2.912   0.950   0.019
 8274SOL     OW25720   4.124   4.732   5.829
 8274SOL    HW125721   4.166   4.754   5.741
 8274SOL    HW225722   4.025   4.725   5.819
 8275SOL     OW25723   5.889   0.347   4.460
 8275SOL    HW125724   5.883   0.412   4.385
 8275SOL    HW225725   5.980   0.306   4.462
 8276SOL     OW25726   6.519   2.282   5.838
 8276SOL    HW125727   6.611   2.306   5.870
 8276SOL    HW225728   6.521   2.190   5.798
 8277SOL     OW25729   1.960   5.833   5.163
 8277SOL    HW125730   1.928   5.841   5.068
 8277SOL    HW225731   1.904   5.890   5.222
 8278SOL     OW25732   3.474   1.867   6.618
 8278SOL    HW125733   3.387   1.908   6.648
 8278SOL    HW225734   3.544   1.884   6.687
 8279SOL     OW25735   6.379   6.077   5.439
 8279SOL    HW125736   6.409   6.166   5.404
 8279SOL    HW225737   6.457   6.027   5.476
 8280SOL     OW25738   4.163   2.883   0.743
 8280SOL    HW125739   4.074   2.846   0.716
 8280SOL    HW225740   4.150   2.974   0.784
 8281SOL     OW25741   2.199   4.326   2.273
 8281SOL    HW125742   2.218   4.340   2.371
 8281SOL    HW225743   2.190   4.415   2.228
 8282SOL     OW25744   2.589   3.571   6.957
 8282SOL    HW125745   2.557   3.610   6.871
 8282SOL    HW225746   2.660   3.502   6.939
 8283SOL     OW25747   1.401   5.097   4.332
 8283SOL    HW125748   1.463   5.029   4.292
 8283SOL    HW225749   1.337   5.050   4.393
 8284SOL     OW25750   1.510   4.047   2.253
 8284SOL    HW125751   1.540   4.005   2.339
 8284SOL    HW225752   1.587   4.094   2.210
 8285SOL     OW25753   3.954   3.311   5.608
 8285SOL    HW125754   4.050   3.337   5.618
 8285SOL    HW225755   3.903   3.387   5.566
 8286SOL     OW25756   5.538   1.792   4.745
 8286SOL    HW125757   5.548   1.870   4.806
 8286SOL    HW225758   5.492   1.822   4.661
 8287SOL     OW25759   1.266   6.047   3.848
 8287SOL    HW125760   1.343   6.049   3.912
 8287SOL    HW225761   1.241   6.140   3.822
 8288SOL     OW25762   0.703   2.565   2.490
 8288SOL    HW125763   0.792   2.591   2.529
 8288SOL    HW225764   0.631   2.581   2.558
 8289SOL     OW25765   5.846   0.580   6.307
 8289SOL    HW125766   5.857   0.501   6.367
 8289SOL    HW225767   5.817   0.549   6.216
 8290SOL     OW25768   4.809   1.988   1.681
 8290SOL    HW125769   4.885   1.926   1.700
 8290SOL    HW225770   4.835   2.051   1.607
 8291SOL     OW25771   5.992   5.468   6.496
 8291SOL    HW125772   5.913   5.515   6.534
 8291SOL    HW225773   6.022   5.516   6.413
 8292SOL     OW25774   2.770   5.874   6.266
 8292SOL    HW125775   2.840   5.871   6.194
 8292SOL    HW225776   2.688   5.827   6.233
 8293SOL     OW25777   1.498   4.062   1.746
 8293SOL    HW125778   1.425   3.999   1.722
 8293SOL    HW225779   1.582   4.011   1.766
 8294SOL     OW25780   6.285   3.253   4.556
 8294SOL    HW125781   6.248   3.341   4.527
 8294SOL    HW225782   6.312   3.201   4.475
 8295SOL     OW25783   5.141   3.334   2.795
 8295SOL    HW125784   5.062   3.385   2.762
 8295SOL    HW225785   5.218   3.347   2.732
 8296SOL     OW25786   3.393   5.084   0.257
 8296SOL    HW125787   3.478   5.115   0.300
 8296SOL    HW225788   3.397   4.985   0.242
 8297SOL     OW25789   6.491   3.223   2.575
 8297SOL    HW125790   6.444   3.172   2.647
 8297SOL    HW225791   6.470   3.182   2.486
 8298SOL     OW25792   7.009   0.308   0.413
 8298SOL    HW125793   0.080   0.287   0.383
 8298SOL    HW225794   6.953   0.225   0.409
 8299SOL     OW25795   0.575   2.593   0.936
 8299SOL    HW125796   0.569   2.581   1.035
 8299SOL    HW225797   0.533   2.680   0.911
 8300SOL     OW25798   6.690   6.701   4.933
 8300SOL    HW125799   6.761   6.631   4.938
 8300SOL    HW225800   6.659   6.711   4.839
 8301SOL     OW25801   4.703   0.599   6.877
 8301SOL    HW125802   4.750   0.548   6.805
 8301SOL    HW225803   4.619   0.639   6.840
 8302SOL     OW25804   4.786   0.009   5.615
 8302SOL    HW125805   4.764   6.991   5.704
 8302SOL    HW225806   4.862   0.073   5.625
 8303SOL     OW25807   6.967   0.551   3.031
 8303SOL    HW125808   0.036   0.513   3.016
 8303SOL    HW225809   6.949   0.621   2.962
 8304SOL     OW25810   5.735   4.906   1.657
 8304SOL    HW125811   5.641   4.931   1.632
 8304SOL    HW225812   5.764   4.960   1.736
 8305SOL     OW25813   4.204   4.769   4.257
 8305SOL    HW125814   4.148   4.832   4.310
 8305SOL    HW225815   4.301   4.783   4.278
 8306SOL     OW25816   6.691   1.312   3.161
 8306SOL    HW125817   6.751   1.341   3.235
 8306SOL    HW225818   6.650   1.224   3.184
 8307SOL     OW25819   3.329   5.541   1.660
 8307SOL    HW125820   3.290   5.626   1.626
 8307SOL    HW225821   3.256   5.486   1.702
 8308SOL     OW25822   2.163   4.574   0.374
 8308SOL    HW125823   2.175   4.521   0.290
 8308SOL    HW225824   2.224   4.538   0.445
 8309SOL     OW25825   5.542   5.053   2.888
 8309SOL    HW125826   5.614   4.985   2.901
 8309SOL    HW225827   5.584   5.143   2.871
 8310SOL     OW25828   1.234   5.355   0.868
 8310SOL    HW125829   1.297   5.297   0.817
 8310SOL    HW225830   1.268   5.368   0.961
 8311SOL     OW25831   5.585   0.665   4.600
 8311SOL    HW125832   5.510   0.701   4.656
 8311SOL    HW225833   5.623   0.583   4.643
 8312SOL     OW25834   5.578   1.088   6.893
 8312SOL    HW125835   5.537   1.080   6.803
 8312SOL    HW225836   5.674   1.116   6.884
 8313SOL     OW25837   4.893   0.334   5.787
 8313SOL    HW125838   4.851   0.349   5.877
 8313SOL    HW225839   4.956   0.409   5.768
 8314SOL     OW25840   5.898   6.439   6.322
 8314SOL    HW125841   5.873   6.461   6.228
 8314SOL    HW225842   5.828   6.475   6.385
 8315SOL     OW25843   3.947   2.993   2.894
 8315SOL    HW125844   3.982   3.056   2.964
 8315SOL    HW225845   3.877   2.934   2.935
 8316SOL     OW25846   1.695   3.389   0.828
 8316SOL    HW125847   1.623   3.349   0.884
 8316SOL    HW225848   1.783   3.378   0.875
 8317SOL     OW25849   2.292   2.056   3.132
 8317SOL    HW125850   2.280   2.148   3.169
 8317SOL    HW225851   2.212   2.000   3.157
 8318SOL     OW25852   4.089   1.616   5.448
 8318SOL    HW125853   4.117   1.648   5.538
 8318SOL    HW225854   4.139   1.666   5.377
 8319SOL     OW25855   1.605   0.425   0.199
 8319SOL    HW125856   1.662   0.483   0.258
 8319SOL    HW225857   1.545   0.482   0.144
 8320SOL     OW25858   3.399   4.133   3.417
 8320SOL    HW125859   3.366   4.103   3.507
 8320SOL    HW225860   3.482   4.083   3.394
 8321SOL     OW25861   0.012   0.269   6.471
 8321SOL    HW125862   7.003   0.228   6.557
 8321SOL    HW225863   0.097   0.319   6.487
 8322SOL     OW25864   0.055   1.676   0.180
 8322SOL    HW125865   0.069   1.596   0.239
 8322SOL    HW225866   7.014   1.739   0.225
 8323SOL     OW25867   3.451   5.035   1.478
 8323SOL    HW125868   3.392   5.024   1.398
 8323SOL    HW225869   3.416   4.980   1.554
 8324SOL     OW25870   5.081   0.320   0.611
 8324SOL    HW125871   5.071   0.256   0.534
 8324SOL    HW225872   5.040   0.408   0.587
 8325SOL     OW25873   0.615   3.943   5.334
 8325SOL    HW125874   0.699   3.904   5.296
 8325SOL    HW225875   0.635   4.032   5.375
 8326SOL     OW25876   4.241   4.239   6.816
 8326SOL    HW125877   4.216   4.191   6.731
 8326SOL    HW225878   4.221   4.337   6.806
 8327SOL     OW25879   0.784   0.614   5.937
 8327SOL    HW125880   0.739   0.563   6.010
 8327SOL    HW225881   0.802   0.708   5.967
 8328SOL     OW25882   2.460   6.804   6.405
 8328SOL    HW125883   2.392   6.733   6.389
 8328SOL    HW225884   2.537   6.792   6.341
 8329SOL     OW25885   0.377   2.056   5.058
 8329SOL    HW125886   0.405   1.960   5.059
 8329SOL    HW225887   0.425   2.104   4.984
 8330SOL     OW25888   3.588   1.587   6.793
 8330SOL    HW125889   3.583   1.596   6.693
 8330SOL    HW225890   3.644   1.661   6.830
 8331SOL     OW25891   3.389   0.848   0.738
 8331SOL    HW125892   3.443   0.927   0.711
 8331SOL    HW225893   3.296   0.877   0.761
 8332SOL     OW25894   5.507   5.127   1.855
 8332SOL    HW125895   5.595   5.087   1.878
 8332SOL    HW225896   5.438   5.094   1.919
 8333SOL     OW25897   1.730   4.738   6.771
 8333SOL    HW125898   1.829   4.722   6.773
 8333SOL    HW225899   1.685   4.664   6.721
 8334SOL     OW25900   2.817   2.490   5.883
 8334SOL    HW125901   2.810   2.515   5.980
 8334SOL    HW225902   2.911   2.503   5.852
 8335SOL     OW25903   3.747   2.097   0.018
 8335SOL    HW125904   3.801   2.158   0.076
 8335SOL    HW225905   3.801   2.015   7.019
 8336SOL     OW25906   0.915   4.130   2.916
 8336SOL    HW125907   0.884   4.076   2.994
 8336SOL    HW225908   0.878   4.092   2.831
 8337SOL     OW25909   0.038   7.002   4.042
 8337SOL    HW125910   6.976   6.961   4.078
 8337SOL    HW225911   0.096   6.930   4.003
 8338SOL     OW25912   3.815   5.649   2.034
 8338SOL    HW125913   3.846   5.604   1.950
 8338SOL    HW225914   3.872   5.729   2.053
 8339SOL     OW25915   0.253   1.036   1.601
 8339SOL    HW125916   0.246   0.963   1.534
 8339SOL    HW225917   0.209   1.007   1.686
 8340SOL     OW25918   5.414   4.225   0.457
 8340SOL    HW125919   5.465   4.310   0.458
 8340SOL    HW225920   5.329   4.236   0.509
 8341SOL     OW25921   3.877   0.293   6.930
 8341SOL    HW125922   3.929   0.283   7.014
 8341SOL    HW225923   3.815   0.215   6.919
 8342SOL     OW25924   4.140   6.879   0.622
 8342SOL    HW125925   4.110   6.821   0.697
 8342SOL    HW225926   4.068   6.945   0.600
 8343SOL     OW25927   6.632   5.209   3.582
 8343SOL    HW125928   6.557   5.165   3.533
 8343SOL    HW225929   6.607   5.303   3.603
 8344SOL     OW25930   6.746   4.545   4.908
 8344SOL    HW125931   6.780   4.459   4.944
 8344SOL    HW225932   6.658   4.530   4.861
 8345SOL     OW25933   4.504   2.299   3.380
 8345SOL    HW125934   4.485   2.392   3.347
 8345SOL    HW225935   4.432   2.238   3.348
 8346SOL     OW25936   3.862   3.663   6.418
 8346SOL    HW125937   3.803   3.588   6.392
 8346SOL    HW225938   3.915   3.694   6.339
 8347SOL     OW25939   3.291   6.820   6.096
 8347SOL    HW125940   3.272   6.741   6.155
 8347SOL    HW225941   3.305   6.901   6.153
 8348SOL     OW25942   2.260   0.719   1.601
 8348SOL    HW125943   2.217   0.631   1.620
 8348SOL    HW225944   2.209   0.792   1.647
 8349SOL     OW25945   1.240   6.515   1.890
 8349SOL    HW125946   1.195   6.426   1.895
 8349SOL    HW225947   1.208   6.572   1.965
 8350SOL     OW25948   3.096   6.688   6.423
 8350SOL    HW125949   3.100   6.788   6.421
 8350SOL    HW225950   3.091   6.653   6.330
 8351SOL     OW25951   5.811   5.288   4.386
 8351SOL    HW125952   5.716   5.268   4.362
 8351SOL    HW225953   5.825   5.387   4.384
 8352SOL     OW25954   1.722   6.901   2.613
 8352SOL    HW125955   1.712   6.956   2.696
 8352SOL    HW225956   1.800   6.934   2.561
 8353SOL     OW25957   0.521   3.773   0.605
 8353SOL    HW125958   0.611   3.730   0.615
 8353SOL    HW225959   0.526   3.869   0.631
 8354SOL     OW25960   3.412   0.092   4.116
 8354SOL    HW125961   3.342   0.153   4.156
 8354SOL    HW225962   3.503   0.130   4.134
 8355SOL     OW25963   1.770   1.118   5.058
 8355SOL    HW125964   1.689   1.146   5.110
 8355SOL    HW225965   1.787   1.184   4.985
 8356SOL     OW25966   1.340   5.747   1.397
 8356SOL    HW125967   1.392   5.827   1.426
 8356SOL    HW225968   1.245   5.757   1.427
 8357SOL     OW25969   3.961   6.690   5.544
 8357SOL    HW125970   4.029   6.644   5.602
 8357SOL    HW225971   3.958   6.787   5.566
 8358SOL     OW25972   1.199   2.784   4.432
 8358SOL    HW125973   1.157   2.837   4.358
 8358SOL    HW225974   1.278   2.834   4.468
 8359SOL     OW25975   2.599   1.818   5.113
 8359SOL    HW125976   2.631   1.867   5.032
 8359SOL    HW225977   2.632   1.724   5.110
 8360SOL     OW25978   4.631   0.197   1.213
 8360SOL    HW125979   4.619   0.270   1.281
 8360SOL    HW225980   4.724   0.200   1.177
 8361SOL     OW25981   3.773   0.428   0.504
 8361SOL    HW125982   3.832   0.509   0.506
 8361SOL    HW225983   3.741   0.409   0.597
 8362SOL     OW25984   5.701   2.129   0.786
 8362SOL    HW125985   5.629   2.108   0.720
 8362SOL    HW225986   5.663   2.185   0.860
 8363SOL     OW25987   5.059   1.975   0.468
 8363SOL    HW125988   5.033   2.026   0.386
 8363SOL    HW225989   5.151   1.938   0.457
 8364SOL     OW25990   0.119   2.957   4.053
 8364SOL    HW125991   0.135   2.859   4.046
 8364SOL    HW225992   0.040   2.974   4.112
 8365SOL     OW25993   1.601   2.251   2.614
 8365SOL    HW125994   1.631   2.193   2.538
 8365SOL    HW225995   1.556   2.332   2.578
 8366SOL     OW25996   3.552   5.620   1.053
 8366SOL    HW125997   3.596   5.533   1.029
 8366SOL    HW225998   3.570   5.687   0.981
 8367SOL     OW25999   3.511   5.416   5.089
 8367SOL    HW126000   3.512   5.489   5.157
 8367SOL    HW226001   3.582   5.433   5.021
 8368SOL     OW26002   0.885   5.849   0.342
 8368SOL    HW126003   0.795   5.892   0.341
 8368SOL    HW226004   0.948   5.903   0.286
 8369SOL     OW26005   0.720   0.979   0.013
 8369SOL    HW126006   0.801   0.973   0.071
 8369SOL    HW226007   0.731   1.054   6.970
 8370SOL     OW26008   2.369   1.187   6.124
 8370SOL    HW126009   2.390   1.244   6.045
 8370SOL    HW226010   2.269   1.183   6.136
 8371SOL     OW26011   2.378   3.376   0.026
 8371SOL    HW126012   2.450   3.446   0.029
 8371SOL    HW226013   2.317   3.387   0.105
 8372SOL     OW26014   1.657   5.830   1.640
 8372SOL    HW126015   1.580   5.820   1.702
 8372SOL    HW226016   1.718   5.901   1.675
 8373SOL     OW26017   1.754   0.100   4.753
 8373SOL    HW126018   1.773   0.004   4.737
 8373SOL    HW226019   1.768   0.121   4.850
 8374SOL     OW26020   0.330   0.067   4.874
 8374SOL    HW126021   0.273   0.117   4.940
 8374SOL    HW226022   0.274   0.003   4.823
 8375SOL     OW26023   3.344   6.431   5.875
 8375SOL    HW126024   3.313   6.471   5.788
 8375SOL    HW226025   3.387   6.343   5.858
 8376SOL     OW26026   1.551   1.006   3.864
 8376SOL    HW126027   1.622   1.076   3.855
 8376SOL    HW226028   1.553   0.946   3.783
 8377SOL     OW26029   5.666   6.145   0.127
 8377SOL    HW126030   5.710   6.073   0.180
 8377SOL    HW226031   5.604   6.197   0.186
 8378SOL     OW26032   3.894   5.237   3.665
 8378SOL    HW126033   3.868   5.161   3.725
 8378SOL    HW226034   3.816   5.297   3.653
 8379SOL     OW26035   4.956   2.913   2.028
 8379SOL    HW126036   4.993   2.912   2.121
 8379SOL    HW226037   4.881   2.979   2.022
 8380SOL     OW26038   0.223   0.030   0.159
 8380SOL    HW126039   0.313   7.009   0.171
 8380SOL    HW226040   0.196   0.026   0.063
 8381SOL     OW26041   0.165   2.434   3.459
 8381SOL    HW126042   0.092   2.464   3.397
 8381SOL    HW226043   0.234   2.507   3.466
 8382SOL     OW26044   2.284   6.670   1.631
 8382SOL    HW126045   2.254   6.691   1.538
 8382SOL    HW226046   2.252   6.741   1.694
 8383SOL     OW26047   2.877   6.736   5.667
 8383SOL    HW126048   2.893   6.832   5.643
 8383SOL    HW226049   2.962   6.685   5.657
 8384SOL     OW26050   6.818   1.719   0.957
 8384SOL    HW126051   6.797   1.623   0.977
 8384SOL    HW226052   6.795   1.739   0.862
 8385SOL     OW26053   4.411   2.271   0.629
 8385SOL    HW126054   4.442   2.240   0.539
 8385SOL    HW226055   4.380   2.192   0.682
 8386SOL     OW26056   2.091   5.700   1.186
 8386SOL    HW126057   2.105   5.686   1.284
 8386SOL    HW226058   2.072   5.613   1.142
 8387SOL     OW26059   1.445   2.104   1.384
 8387SOL    HW126060   1.533   2.112   1.432
 8387SOL    HW226061   1.439   2.176   1.315
 8388SOL     OW26062   1.502   6.330   1.242
 8388SOL    HW126063   1.579   6.378   1.202
 8388SOL    HW226064   1.458   6.388   1.311
 8389SOL     OW26065   0.207   3.150   4.428
 8389SOL    HW126066   0.274   3.109   4.365
 8389SOL    HW226067   0.136   3.196   4.375
 8390SOL     OW26068   3.787   6.595   0.071
 8390SOL    HW126069   3.806   6.527   0.000
 8390SOL    HW226070   3.719   6.560   0.135
 8391SOL     OW26071   4.633   4.926   1.073
 8391SOL    HW126072   4.550   4.958   1.026
 8391SOL    HW226073   4.612   4.842   1.124
 8392SOL     OW26074   6.657   5.202   5.626
 8392SOL    HW126075   6.560   5.225   5.620
 8392SOL    HW226076   6.697   5.198   5.534
 8393SOL     OW26077   6.828   6.988   3.772
 8393SOL    HW126078   6.912   7.010   3.823
 8393SOL    HW226079   6.748   7.006   3.830
 8394SOL     OW26080   0.017   2.968   1.768
 8394SOL    HW126081   0.025   3.045   1.705
 8394SOL    HW226082   6.986   2.895   1.725
 8395SOL     OW26083   1.655   6.020   4.210
 8395SOL    HW126084   1.713   6.045   4.132
 8395SOL    HW226085   1.700   5.948   4.263
 8396SOL     OW26086   4.308   4.695   2.247
 8396SOL    HW126087   4.336   4.680   2.342
 8396SOL    HW226088   4.213   4.726   2.245
 8397SOL     OW26089   2.438   0.975   3.388
 8397SOL    HW126090   2.391   1.062   3.402
 8397SOL    HW226091   2.533   0.983   3.419
 8398SOL     OW26092   4.274   2.492   6.500
 8398SOL    HW126093   4.317   2.557   6.438
 8398SOL    HW226094   4.191   2.531   6.538
 8399SOL     OW26095   6.346   0.090   0.101
 8399SOL    HW126096   6.268   0.068   0.042
 8399SOL    HW226097   6.357   0.019   0.170
 8400SOL     OW26098   1.138   0.247   3.977
 8400SOL    HW126099   1.063   0.304   4.010
 8400SOL    HW226100   1.204   0.233   4.050
 8401SOL     OW26101   3.520   2.203   6.389
 8401SOL    HW126102   3.504   2.104   6.391
 8401SOL    HW226103   3.580   2.228   6.464
 8402SOL     OW26104   4.008   1.923   5.506
 8402SOL    HW126105   3.977   1.967   5.421
 8402SOL    HW226106   4.107   1.910   5.503
 8403SOL     OW26107   0.850   1.785   2.836
 8403SOL    HW126108   0.947   1.805   2.823
 8403SOL    HW226109   0.838   1.686   2.842
 8404SOL     OW26110   4.324   5.777   6.759
 8404SOL    HW126111   4.366   5.849   6.703
 8404SOL    HW226112   4.332   5.801   6.856
 8405SOL     OW26113   2.466   1.001   5.769
 8405SOL    HW126114   2.491   1.041   5.681
 8405SOL    HW226115   2.369   1.017   5.786
 8406SOL     OW26116   4.851   6.963   0.657
 8406SOL    HW126117   4.828   0.022   0.603
 8406SOL    HW226118   4.848   6.987   0.754
 8407SOL     OW26119   4.648   6.357   4.031
 8407SOL    HW126120   4.739   6.389   4.059
 8407SOL    HW226121   4.657   6.271   3.981
 8408SOL     OW26122   5.111   2.961   2.589
 8408SOL    HW126123   5.101   2.891   2.660
 8408SOL    HW226124   5.041   3.031   2.601
 8409SOL     OW26125   5.994   3.440   3.320
 8409SOL    HW126126   6.077   3.420   3.268
 8409SOL    HW226127   5.917   3.387   3.283
 8410SOL     OW26128   4.777   0.746   1.529
 8410SOL    HW126129   4.824   0.658   1.530
 8410SOL    HW226130   4.834   0.813   1.481
 8411SOL     OW26131   1.153   5.161   6.069
 8411SOL    HW126132   1.210   5.103   6.128
 8411SOL    HW226133   1.157   5.255   6.101
 8412SOL     OW26134   4.216   1.942   2.186
 8412SOL    HW126135   4.211   1.907   2.092
 8412SOL    HW226136   4.245   2.037   2.184
 8413SOL     OW26137   4.330   4.902   0.037
 8413SOL    HW126138   4.260   4.852   7.009
 8413SOL    HW226139   4.333   4.997   0.005
 8414SOL     OW26140   4.444   5.584   3.358
 8414SOL    HW126141   4.480   5.636   3.281
 8414SOL    HW226142   4.498   5.501   3.370
 8415SOL     OW26143   6.515   5.035   4.147
 8415SOL    HW126144   6.487   5.082   4.063
 8415SOL    HW226145   6.456   5.064   4.223
 8416SOL     OW26146   5.162   4.223   2.951
 8416SOL    HW126147   5.099   4.146   2.941
 8416SOL    HW226148   5.235   4.215   2.884
 8417SOL     OW26149   1.511   4.932   6.312
 8417SOL    HW126150   1.608   4.907   6.319
 8417SOL    HW226151   1.460   4.855   6.274
 8418SOL     OW26152   6.322   5.317   1.287
 8418SOL    HW126153   6.244   5.278   1.336
 8418SOL    HW226154   6.383   5.243   1.258
 8419SOL     OW26155   5.728   1.381   2.965
 8419SOL    HW126156   5.660   1.385   2.892
 8419SOL    HW226157   5.703   1.308   3.030
 8420SOL     OW26158   4.241   0.079   0.957
 8420SOL    HW126159   4.261   0.020   1.036
 8420SOL    HW226160   4.282   0.169   0.971
 8421SOL     OW26161   3.072   5.849   0.746
 8421SOL    HW126162   3.168   5.848   0.773
 8421SOL    HW226163   3.035   5.757   0.749
 8422SOL     OW26164   4.148   0.804   1.460
 8422SOL    HW126165   4.142   0.741   1.383
 8422SOL    HW226166   4.174   0.895   1.427
 8423SOL     OW26167   3.529   4.776   5.799
 8423SOL    HW126168   3.452   4.753   5.857
 8423SOL    HW226169   3.501   4.770   5.703
 8424SOL     OW26170   2.544   2.438   2.688
 8424SOL    HW126171   2.466   2.416   2.629
 8424SOL    HW226172   2.618   2.476   2.632
 8425SOL     OW26173   5.782   5.878   0.555
 8425SOL    HW126174   5.861   5.853   0.612
 8425SOL    HW226175   5.764   5.975   0.564
 8426SOL     OW26176   2.962   3.272   4.207
 8426SOL    HW126177   3.044   3.245   4.157
 8426SOL    HW226178   2.920   3.350   4.162
 8427SOL     OW26179   2.692   3.701   5.421
 8427SOL    HW126180   2.766   3.664   5.365
 8427SOL    HW226181   2.709   3.681   5.517
 8428SOL     OW26182   0.363   4.060   1.999
 8428SOL    HW126183   0.406   4.058   1.909
 8428SOL    HW226184   0.384   4.147   2.044
 8429SOL     OW26185   2.200   4.028   3.702
 8429SOL    HW126186   2.147   3.986   3.775
 8429SOL    HW226187   2.298   4.021   3.723
 8430SOL     OW26188   3.840   6.134   4.533
 8430SOL    HW126189   3.803   6.053   4.579
 8430SOL    HW226190   3.937   6.143   4.555
 8431SOL     OW26191   2.871   5.305   1.009
 8431SOL    HW126192   2.823   5.385   1.045
 8431SOL    HW226193   2.804   5.237   0.980
 8432SOL     OW26194   5.631   6.720   6.285
 8432SOL    HW126195   5.659   6.816   6.274
 8432SOL    HW226196   5.564   6.697   6.214
 8433SOL     OW26197   6.351   2.350   0.536
 8433SOL    HW126198   6.432   2.304   0.502
 8433SOL    HW226199   6.327   2.314   0.626
 8434SOL     OW26200   3.339   6.652   5.274
 8434SOL    HW126201   3.398   6.575   5.253
 8434SOL    HW226202   3.260   6.621   5.328
 8435SOL     OW26203   5.608   0.569   1.129
 8435SOL    HW126204   5.510   0.576   1.107
 8435SOL    HW226205   5.660   0.632   1.072
 8436SOL     OW26206   3.285   0.050   4.454
 8436SOL    HW126207   3.211   0.074   4.392
 8436SOL    HW226208   3.247   0.006   4.536
 8437SOL     OW26209   1.505   0.206   3.567
 8437SOL    HW126210   1.481   0.241   3.657
 8437SOL    HW226211   1.426   0.160   3.527
 8438SOL     OW26212   2.776   5.002   2.183
 8438SOL    HW126213   2.679   4.980   2.181
 8438SOL    HW226214   2.799   5.056   2.102
 8439SOL     OW26215   6.569   5.308   1.692
 8439SOL    HW126216   6.490   5.296   1.753
 8439SOL    HW226217   6.558   5.391   1.639
 8440SOL     OW26218   0.829   1.758   3.645
 8440SOL    HW126219   0.884   1.684   3.682
 8440SOL    HW226220   0.884   1.842   3.639
 8441SOL     OW26221   5.661   6.445   0.107
 8441SOL    HW126222   5.646   6.535   0.148
 8441SOL    HW226223   5.730   6.452   0.035
 8442SOL     OW26224   3.126   2.661   5.584
 8442SOL    HW126225   3.064   2.736   5.562
 8442SOL    HW226226   3.184   2.687   5.661
 8443SOL     OW26227   1.400   6.383   3.630
 8443SOL    HW126228   1.436   6.302   3.584
 8443SOL    HW226229   1.314   6.411   3.588
 8444SOL     OW26230   3.647   6.075   4.086
 8444SOL    HW126231   3.618   6.170   4.077
 8444SOL    HW226232   3.671   6.039   3.996
 8445SOL     OW26233   3.635   5.538   1.635
 8445SOL    HW126234   3.694   5.508   1.710
 8445SOL    HW226235   3.548   5.571   1.672
 8446SOL     OW26236   4.299   5.169   6.944
 8446SOL    HW126237   4.348   5.207   6.865
 8446SOL    HW226238   4.203   5.155   6.921
 8447SOL     OW26239   5.469   2.526   2.015
 8447SOL    HW126240   5.387   2.558   2.062
 8447SOL    HW226241   5.539   2.504   2.083
 8448SOL     OW26242   5.629   5.177   4.180
 8448SOL    HW126243   5.537   5.167   4.143
 8448SOL    HW226244   5.638   5.124   4.264
 8449SOL     OW26245   6.324   2.847   4.063
 8449SOL    HW126246   6.299   2.941   4.042
 8449SOL    HW226247   6.322   2.792   3.979
 8450SOL     OW26248   1.153   5.473   2.166
 8450SOL    HW126249   1.218   5.545   2.189
 8450SOL    HW226250   1.073   5.480   2.227
 8451SOL     OW26251   4.853   2.709   0.891
 8451SOL    HW126252   4.787   2.766   0.940
 8451SOL    HW226253   4.829   2.613   0.902
 8452SOL     OW26254   6.729   1.276   2.332
 8452SOL    HW126255   6.636   1.294   2.299
 8452SOL    HW226256   6.737   1.307   2.427
 8453SOL     OW26257   6.779   3.918   6.559
 8453SOL    HW126258   6.767   3.984   6.633
 8453SOL    HW226259   6.847   3.953   6.494
 8454SOL     OW26260   0.321   6.153   0.924
 8454SOL    HW126261   0.405   6.168   0.872
 8454SOL    HW226262   0.293   6.239   0.967
 8455SOL     OW26263   5.492   2.050   1.551
 8455SOL    HW126264   5.591   2.039   1.556
 8455SOL    HW226265   5.469   2.146   1.538
 8456SOL     OW26266   4.548   5.265   3.029
 8456SOL    HW126267   4.629   5.324   3.034
 8456SOL    HW226268   4.469   5.319   3.002
 8457SOL     OW26269   0.045   6.530   5.221
 8457SOL    HW126270   0.064   6.438   5.255
 8457SOL    HW226271   0.104   6.550   5.143
 8458SOL     OW26272   2.531   1.218   0.088
 8458SOL    HW126273   2.488   1.237   0.176
 8458SOL    HW226274   2.467   1.170   0.029
 8459SOL     OW26275   3.419   6.293   1.821
 8459SOL    HW126276   3.385   6.286   1.914
 8459SOL    HW226277   3.411   6.387   1.789
 8460SOL     OW26278   4.647   2.560   5.538
 8460SOL    HW126279   4.627   2.463   5.544
 8460SOL    HW226280   4.665   2.597   5.629
 8461SOL     OW26281   0.387   4.076   2.961
 8461SOL    HW126282   0.289   4.095   2.969
 8461SOL    HW226283   0.421   4.041   3.048
 8462SOL     OW26284   3.705   2.430   0.751
 8462SOL    HW126285   3.802   2.406   0.752
 8462SOL    HW226286   3.654   2.358   0.705
 8463SOL     OW26287   6.182   0.295   0.219
 8463SOL    HW126288   6.257   0.237   0.185
 8463SOL    HW226289   6.216   0.354   0.292
 8464SOL     OW26290   5.512   3.378   5.717
 8464SOL    HW126291   5.414   3.359   5.724
 8464SOL    HW226292   5.528   3.439   5.639
 8465SOL     OW26293   1.896   2.671   0.977
 8465SOL    HW126294   1.869   2.637   1.068
 8465SOL    HW226295   1.947   2.756   0.987
 8466SOL     OW26296   0.253   6.983   5.145
 8466SOL    HW126297   0.284   0.052   5.170
 8466SOL    HW226298   0.162   6.988   5.105
 8467SOL     OW26299   3.938   0.461   1.277
 8467SOL    HW126300   3.841   0.482   1.285
 8467SOL    HW226301   3.950   0.369   1.240
 8468SOL     OW26302   4.783   2.405   0.795
 8468SOL    HW126303   4.705   2.461   0.767
 8468SOL    HW226304   4.815   2.352   0.717
 8469SOL     OW26305   3.100   1.713   5.389
 8469SOL    HW126306   3.102   1.627   5.441
 8469SOL    HW226307   3.165   1.777   5.428
 8470SOL     OW26308   0.466   4.817   0.064
 8470SOL    HW126309   0.446   4.834   0.161
 8470SOL    HW226310   0.388   4.846   0.009
 8471SOL     OW26311   4.232   0.540   4.507
 8471SOL    HW126312   4.249   0.606   4.580
 8471SOL    HW226313   4.210   0.451   4.547
 8472SOL     OW26314   6.668   0.620   5.604
 8472SOL    HW126315   6.590   0.682   5.611
 8472SOL    HW226316   6.646   0.546   5.541
 8473SOL     OW26317   6.635   5.820   0.837
 8473SOL    HW126318   6.708   5.788   0.776
 8473SOL    HW226319   6.653   5.787   0.929
 8474SOL     OW26320   3.410   3.671   2.285
 8474SOL    HW126321   3.444   3.577   2.291
 8474SOL    HW226322   3.339   3.685   2.354
 8475SOL     OW26323   0.059   2.585   3.176
 8475SOL    HW126324   0.147   2.626   3.198
 8475SOL    HW226325   0.054   2.567   3.077
 8476SOL     OW26326   6.372   2.058   0.681
 8476SOL    HW126327   6.294   1.999   0.659
 8476SOL    HW226328   6.388   2.057   0.779
 8477SOL     OW26329   4.957   6.536   2.452
 8477SOL    HW126330   4.999   6.569   2.367
 8477SOL    HW226331   4.914   6.613   2.499
 8478SOL     OW26332   1.506   6.942   6.223
 8478SOL    HW126333   1.538   6.939   6.318
 8478SOL    HW226334   1.584   6.944   6.161
 8479SOL     OW26335   0.873   2.366   0.791
 8479SOL    HW126336   0.821   2.448   0.766
 8479SOL    HW226337   0.843   2.290   0.734
 8480SOL     OW26338   5.280   2.883   0.283
 8480SOL    HW126339   5.245   2.849   0.196
 8480SOL    HW226340   5.271   2.982   0.287
 8481SOL     OW26341   5.300   2.755   5.051
 8481SOL    HW126342   5.230   2.686   5.030
 8481SOL    HW226343   5.291   2.831   4.987
 8482SOL     OW26344   4.940   6.268   2.506
 8482SOL    HW126345   4.977   6.259   2.598
 8482SOL    HW226346   4.936   6.364   2.481
 8483SOL     OW26347   3.942   6.621   1.819
 8483SOL    HW126348   3.980   6.669   1.898
 8483SOL    HW226349   3.947   6.522   1.835
 8484SOL     OW26350   0.110   6.122   3.552
 8484SOL    HW126351   0.107   6.042   3.492
 8484SOL    HW226352   0.190   6.116   3.611
 8485SOL     OW26353   3.478   2.592   0.327
 8485SOL    HW126354   3.417   2.518   0.299
 8485SOL    HW226355   3.427   2.678   0.329
 8486SOL     OW26356   2.414   1.833   2.093
 8486SOL    HW126357   2.508   1.818   2.124
 8486SOL    HW226358   2.409   1.821   1.994
 8487SOL     OW26359   5.625   1.473   5.524
 8487SOL    HW126360   5.540   1.446   5.478
 8487SOL    HW226361   5.617   1.454   5.622
 8488SOL     OW26362   5.081   6.419   0.961
 8488SOL    HW126363   5.062   6.354   0.887
 8488SOL    HW226364   5.012   6.409   1.033
 8489SOL     OW26365   6.351   1.682   1.830
 8489SOL    HW126366   6.369   1.585   1.845
 8489SOL    HW226367   6.366   1.704   1.734
 8490SOL     OW26368   4.163   6.915   5.000
 8490SOL    HW126369   4.210   6.839   4.956
 8490SOL    HW226370   4.080   6.882   5.045
 8491SOL     OW26371   2.454   5.777   1.539
 8491SOL    HW126372   2.434   5.761   1.442
 8491SOL    HW226373   2.535   5.724   1.566
 8492SOL     OW26374   5.808   3.571   5.075
 8492SOL    HW126375   5.831   3.606   4.984
 8492SOL    HW226376   5.881   3.510   5.105
 8493SOL     OW26377   2.091   2.227   5.926
 8493SOL    HW126378   2.046   2.260   5.843
 8493SOL    HW226379   2.070   2.289   6.002
 8494SOL     OW26380   4.075   5.292   1.213
 8494SOL    HW126381   4.064   5.391   1.203
 8494SOL    HW226382   4.162   5.272   1.257
 8495SOL     OW26383   6.600   4.601   2.037
 8495SOL    HW126384   6.673   4.609   2.104
 8495SOL    HW226385   6.577   4.692   2.000
 8496SOL     OW26386   1.374   2.021   2.514
 8496SOL    HW126387   1.299   2.023   2.448
 8496SOL    HW226388   1.459   2.048   2.468
 8497SOL     OW26389   6.746   0.979   3.589
 8497SOL    HW126390   6.696   0.927   3.658
 8497SOL    HW226391   6.836   0.938   3.576
 8498SOL     OW26392   6.032   6.026   2.987
 8498SOL    HW126393   6.079   6.013   2.900
 8498SOL    HW226394   6.099   6.050   3.057
 8499SOL     OW26395   2.383   3.852   6.620
 8499SOL    HW126396   2.348   3.945   6.620
 8499SOL    HW226397   2.450   3.841   6.694
 8500SOL     OW26398   1.367   5.863   5.326
 8500SOL    HW126399   1.346   5.960   5.330
 8500SOL    HW226400   1.283   5.812   5.309
 8501SOL     OW26401   0.379   2.368   6.792
 8501SOL    HW126402   0.358   2.271   6.783
 8501SOL    HW226403   0.475   2.379   6.817
 8502SOL     OW26404   0.518   3.543   0.953
 8502SOL    HW126405   0.543   3.532   1.050
 8502SOL    HW226406   0.537   3.458   0.904
 8503SOL     OW26407   0.650   5.981   4.133
 8503SOL    HW126408   0.742   5.953   4.159
 8503SOL    HW226409   0.587   5.905   4.145
 8504SOL     OW26410   2.785   4.773   2.903
 8504SOL    HW126411   2.852   4.763   2.977
 8504SOL    HW226412   2.695   4.790   2.942
 8505SOL     OW26413   6.360   3.524   3.396
 8505SOL    HW126414   6.452   3.485   3.399
 8505SOL    HW226415   6.354   3.600   3.461
 8506SOL     OW26416   1.060   0.676   6.822
 8506SOL    HW126417   0.996   0.605   6.791
 8506SOL    HW226418   1.129   0.634   6.881
 8507SOL     OW26419   3.982   0.719   4.707
 8507SOL    HW126420   4.019   0.691   4.796
 8507SOL    HW226421   4.022   0.807   4.680
 8508SOL     OW26422   5.264   2.027   4.905
 8508SOL    HW126423   5.261   2.055   5.001
 8508SOL    HW226424   5.359   2.024   4.875
 8509SOL     OW26425   4.553   0.942   4.272
 8509SOL    HW126426   4.463   0.898   4.268
 8509SOL    HW226427   4.620   0.883   4.227
 8510SOL     OW26428   5.823   4.746   2.531
 8510SOL    HW126429   5.742   4.798   2.503
 8510SOL    HW226430   5.795   4.670   2.589
 8511SOL     OW26431   5.932   4.365   2.404
 8511SOL    HW126432   5.832   4.371   2.410
 8511SOL    HW226433   5.968   4.450   2.367
 8512SOL     OW26434   2.674   1.603   2.665
 8512SOL    HW126435   2.683   1.522   2.722
 8512SOL    HW226436   2.749   1.606   2.599
 8513SOL     OW26437   6.694   5.414   0.625
 8513SOL    HW126438   6.767   5.453   0.570
 8513SOL    HW226439   6.710   5.434   0.722
 8514SOL     OW26440   1.919   2.046   4.130
 8514SOL    HW126441   1.891   2.112   4.200
 8514SOL    HW226442   1.911   2.088   4.039
 8515SOL     OW26443   4.748   2.159   1.273
 8515SOL    HW126444   4.747   2.259   1.278
 8515SOL    HW226445   4.792   2.122   1.354
 8516SOL     OW26446   6.850   1.951   1.991
 8516SOL    HW126447   6.830   1.869   1.938
 8516SOL    HW226448   6.764   1.994   2.021
 8517SOL     OW26449   0.556   2.666   6.280
 8517SOL    HW126450   0.619   2.601   6.322
 8517SOL    HW226451   0.596   2.700   6.195
 8518SOL     OW26452   4.117   4.249   0.128
 8518SOL    HW126453   4.051   4.322   0.109
 8518SOL    HW226454   4.110   4.179   0.058
 8519SOL     OW26455   1.926   4.683   2.384
 8519SOL    HW126456   1.831   4.710   2.369
 8519SOL    HW226457   1.946   4.684   2.482
 8520SOL     OW26458   3.586   2.243   0.586
 8520SOL    HW126459   3.669   2.188   0.582
 8520SOL    HW226460   3.511   2.187   0.621
 8521SOL     OW26461   1.554   4.832   5.742
 8521SOL    HW126462   1.607   4.749   5.759
 8521SOL    HW226463   1.541   4.844   5.644
 8522SOL     OW26464   1.234   5.372   1.660
 8522SOL    HW126465   1.227   5.308   1.736
 8522SOL    HW226466   1.143   5.393   1.625
 8523SOL     OW26467   3.250   0.190   6.301
 8523SOL    HW126468   3.169   0.234   6.341
 8523SOL    HW226469   3.319   0.260   6.282
 8524SOL     OW26470   1.259   1.908   5.067
 8524SOL    HW126471   1.163   1.929   5.089
 8524SOL    HW226472   1.304   1.872   5.149
 8525SOL     OW26473   6.419   4.563   2.907
 8525SOL    HW126474   6.333   4.572   2.856
 8525SOL    HW226475   6.470   4.484   2.872
 8526SOL     OW26476   3.380   4.818   0.262
 8526SOL    HW126477   3.318   4.770   0.325
 8526SOL    HW226478   3.469   4.772   0.261
 8527SOL     OW26479   3.078   0.153   4.825
 8527SOL    HW126480   3.137   0.225   4.862
 8527SOL    HW226481   3.034   0.185   4.741
 8528SOL     OW26482   4.940   2.727   6.340
 8528SOL    HW126483   4.849   2.729   6.299
 8528SOL    HW226484   4.937   2.770   6.430
 8529SOL     OW26485   0.686   6.981   0.486
 8529SOL    HW126486   0.657   6.893   0.449
 8529SOL    HW226487   0.612   0.025   0.476
 8530SOL     OW26488   2.307   3.996   5.420
 8530SOL    HW126489   2.349   3.995   5.330
 8530SOL    HW226490   2.230   4.059   5.421
 8531SOL     OW26491   6.631   4.236   1.616
 8531SOL    HW126492   6.606   4.292   1.536
 8531SOL    HW226493   6.551   4.182   1.645
 8532SOL     OW26494   4.248   5.080   4.582
 8532SOL    HW126495   4.187   5.046   4.511
 8532SOL    HW226496   4.239   5.180   4.588
 8533SOL     OW26497   1.673   0.018   6.007
 8533SOL    HW126498   1.722   0.080   6.069
 8533SOL    HW226499   1.736   7.006   5.937
 8534SOL     OW26500   6.635   3.447   4.092
 8534SOL    HW126501   6.705   3.519   4.096
 8534SOL    HW226502   6.603   3.426   4.184
 8535SOL     OW26503   0.539   2.119   5.312
 8535SOL    HW126504   0.485   2.084   5.236
 8535SOL    HW226505   0.497   2.203   5.346
 8536SOL     OW26506   6.202   1.762   5.167
 8536SOL    HW126507   6.276   1.807   5.219
 8536SOL    HW226508   6.234   1.743   5.075
 8537SOL     OW26509   5.731   1.334   2.675
 8537SOL    HW126510   5.830   1.323   2.661
 8537SOL    HW226511   5.687   1.244   2.672
 8538SOL     OW26512   0.978   1.413   5.732
 8538SOL    HW126513   0.931   1.333   5.693
 8538SOL    HW226514   0.925   1.449   5.809
 8539SOL     OW26515   6.628   1.422   1.514
 8539SOL    HW126516   6.568   1.344   1.528
 8539SOL    HW226517   6.574   1.505   1.505
 8540SOL     OW26518   3.894   1.900   0.354
 8540SOL    HW126519   3.958   1.828   0.384
 8540SOL    HW226520   3.801   1.872   0.374
 8541SOL     OW26521   3.381   2.111   4.494
 8541SOL    HW126522   3.387   2.198   4.446
 8541SOL    HW226523   3.345   2.040   4.433
 8542SOL     OW26524   2.354   4.354   5.552
 8542SOL    HW126525   2.405   4.315   5.475
 8542SOL    HW226526   2.419   4.390   5.620
 8543SOL     OW26527   3.274   1.168   6.711
 8543SOL    HW126528   3.338   1.154   6.636
 8543SOL    HW226529   3.260   1.266   6.724
 8544SOL     OW26530   5.417   2.849   4.323
 8544SOL    HW126531   5.399   2.923   4.388
 8544SOL    HW226532   5.330   2.816   4.286
 8545SOL     OW26533   4.537   0.094   5.230
 8545SOL    HW126534   4.577   0.018   5.282
 8545SOL    HW226535   4.610   0.153   5.195
 8546SOL     OW26536   0.735   0.358   2.493
 8546SOL    HW126537   0.817   0.408   2.463
 8546SOL    HW226538   0.758   0.299   2.570
 8547SOL     OW26539   0.869   6.965   6.584
 8547SOL    HW126540   0.809   6.917   6.647
 8547SOL    HW226541   0.853   0.041   6.592
 8548SOL     OW26542   6.669   3.150   5.906
 8548SOL    HW126543   6.601   3.141   5.833
 8548SOL    HW226544   6.683   3.246   5.927
 8549SOL     OW26545   0.545   2.180   3.970
 8549SOL    HW126546   0.547   2.150   4.065
 8549SOL    HW226547   0.629   2.149   3.924
 8550SOL     OW26548   1.519   4.853   0.258
 8550SOL    HW126549   1.498   4.834   0.354
 8550SOL    HW226550   1.566   4.940   0.250
 8551SOL     OW26551   2.594   2.625   0.139
 8551SOL    HW126552   2.594   2.653   0.043
 8551SOL    HW226553   2.502   2.597   0.166
 8552SOL     OW26554   2.269   0.552   2.778
 8552SOL    HW126555   2.284   0.478   2.844
 8552SOL    HW226556   2.262   0.514   2.686
 8553SOL     OW26557   3.999   4.645   6.527
 8553SOL    HW126558   3.945   4.706   6.584
 8553SOL    HW226559   4.018   4.689   6.439
 8554SOL     OW26560   0.626   5.710   0.601
 8554SOL    HW126561   0.722   5.692   0.584
 8554SOL    HW226562   0.616   5.762   0.686
 8555SOL     OW26563   3.487   1.166   3.517
 8555SOL    HW126564   3.526   1.155   3.425
 8555SOL    HW226565   3.556   1.201   3.579
 8556SOL     OW26566   2.092   6.461   5.091
 8556SOL    HW126567   2.025   6.399   5.050
 8556SOL    HW226568   2.096   6.446   5.190
 8557SOL     OW26569   6.384   7.018   2.258
 8557SOL    HW126570   6.448   7.004   2.183
 8557SOL    HW226571   6.291   7.000   2.226
 8558SOL     OW26572   2.263   5.938   3.522
 8558SOL    HW126573   2.207   5.858   3.543
 8558SOL    HW226574   2.303   5.929   3.431
 8559SOL     OW26575   2.062   6.940   2.553
 8559SOL    HW126576   2.130   6.977   2.489
 8559SOL    HW226577   2.031   6.850   2.521
 8560SOL     OW26578   1.578   5.379   2.326
 8560SOL    HW126579   1.568   5.473   2.292
 8560SOL    HW226580   1.498   5.325   2.298
 8561SOL     OW26581   3.216   0.223   2.836
 8561SOL    HW126582   3.208   0.168   2.753
 8561SOL    HW226583   3.237   0.163   2.913
 8562SOL     OW26584   3.514   6.380   6.838
 8562SOL    HW126585   3.443   6.311   6.854
 8562SOL    HW226586   3.533   6.386   6.740
 8563SOL     OW26587   1.139   4.868   1.781
 8563SOL    HW126588   1.180   4.778   1.769
 8563SOL    HW226589   1.116   4.883   1.877
 8564SOL     OW26590   3.313   0.087   5.029
 8564SOL    HW126591   3.397   0.036   5.008
 8564SOL    HW226592   3.249   0.077   4.953
 8565SOL     OW26593   3.571   5.130   1.160
 8565SOL    HW126594   3.581   5.070   1.081
 8565SOL    HW226595   3.482   5.113   1.203
 8566SOL     OW26596   0.744   0.040   1.729
 8566SOL    HW126597   0.689   0.112   1.688
 8566SOL    HW226598   0.732   6.977   1.678
 8567SOL     OW26599   0.271   2.020   2.013
 8567SOL    HW126600   0.204   2.012   2.087
 8567SOL    HW226601   0.333   2.097   2.033
 8568SOL     OW26602   5.559   2.238   0.069
 8568SOL    HW126603   5.535   2.171   0.139
 8568SOL    HW226604   5.540   2.201   7.000
 8569SOL     OW26605   4.939   1.790   5.324
 8569SOL    HW126606   4.852   1.834   5.348
 8569SOL    HW226607   5.010   1.822   5.387
 8570SOL     OW26608   0.808   1.337   3.895
 8570SOL    HW126609   0.832   1.400   3.821
 8570SOL    HW226610   0.709   1.329   3.902
 8571SOL     OW26611   0.516   6.163   5.722
 8571SOL    HW126612   0.440   6.191   5.781
 8571SOL    HW226613   0.558   6.080   5.759
 8572SOL     OW26614   1.774   4.056   5.718
 8572SOL    HW126615   1.863   4.015   5.740
 8572SOL    HW226616   1.764   4.065   5.619
 8573SOL     OW26617   3.254   5.895   6.442
 8573SOL    HW126618   3.241   5.977   6.497
 8573SOL    HW226619   3.176   5.883   6.381
 8574SOL     OW26620   6.236   6.797   6.507
 8574SOL    HW126621   6.234   6.809   6.408
 8574SOL    HW226622   6.164   6.853   6.549
 8575SOL     OW26623   2.308   2.269   3.313
 8575SOL    HW126624   2.294   2.276   3.412
 8575SOL    HW226625   2.405   2.282   3.293
 8576SOL     OW26626   1.621   4.810   4.587
 8576SOL    HW126627   1.594   4.800   4.492
 8576SOL    HW226628   1.646   4.906   4.604
 8577SOL     OW26629   1.361   0.004   5.456
 8577SOL    HW126630   1.449   6.980   5.461
 8577SOL    HW226631   1.315   7.020   5.545
 8578SOL     OW26632   6.373   5.527   5.017
 8578SOL    HW126633   6.433   5.507   4.939
 8578SOL    HW226634   6.383   5.624   5.043
 8579SOL     OW26635   1.523   6.549   1.768
 8579SOL    HW126636   1.430   6.519   1.791
 8579SOL    HW226637   1.581   6.544   1.850
 8580SOL     OW26638   1.801   5.603   0.569
 8580SOL    HW126639   1.835   5.575   0.659
 8580SOL    HW226640   1.742   5.531   0.531
 8581SOL     OW26641   3.328   4.308   1.668
 8581SOL    HW126642   3.231   4.327   1.684
 8581SOL    HW226643   3.355   4.227   1.720
 8582SOL     OW26644   4.707   4.170   5.119
 8582SOL    HW126645   4.780   4.214   5.172
 8582SOL    HW226646   4.738   4.082   5.085
 8583SOL     OW26647   3.924   0.285   4.463
 8583SOL    HW126648   3.841   0.240   4.495
 8583SOL    HW226649   3.902   0.342   4.384
 8584SOL     OW26650   0.593   6.015   5.980
 8584SOL    HW126651   0.653   6.091   6.003
 8584SOL    HW226652   0.636   5.957   5.911
 8585SOL     OW26653   6.162   1.566   0.174
 8585SOL    HW126654   6.131   1.475   0.145
 8585SOL    HW226655   6.206   1.613   0.097
 8586SOL     OW26656   3.441   6.567   1.754
 8586SOL    HW126657   3.365   6.626   1.726
 8586SOL    HW226658   3.504   6.620   1.811
 8587SOL     OW26659   0.692   0.764   4.607
 8587SOL    HW126660   0.668   0.742   4.512
 8587SOL    HW226661   0.749   0.691   4.645
 8588SOL     OW26662   4.245   1.277   6.987
 8588SOL    HW126663   4.284   1.203   0.019
 8588SOL    HW226664   4.319   1.326   6.940
 8589SOL     OW26665   5.613   2.656   5.381
 8589SOL    HW126666   5.521   2.637   5.413
 8589SOL    HW226667   5.645   2.581   5.323
 8590SOL     OW26668   0.306   0.635   2.560
 8590SOL    HW126669   0.309   0.615   2.658
 8590SOL    HW226670   0.397   0.624   2.520
 8591SOL     OW26671   0.372   4.244   6.934
 8591SOL    HW126672   0.365   4.245   0.012
 8591SOL    HW226673   0.464   4.215   6.908
 8592SOL     OW26674   5.654   2.294   6.636
 8592SOL    HW126675   5.624   2.367   6.697
 8592SOL    HW226676   5.749   2.271   6.653
 8593SOL     OW26677   3.413   0.932   0.095
 8593SOL    HW126678   3.498   0.879   0.089
 8593SOL    HW226679   3.354   0.908   0.018
 8594SOL     OW26680   5.381   2.250   5.628
 8594SOL    HW126681   5.462   2.194   5.617
 8594SOL    HW226682   5.302   2.205   5.585
 8595SOL     OW26683   0.036   1.259   3.725
 8595SOL    HW126684   0.036   1.359   3.734
 8595SOL    HW226685   6.973   1.222   3.762
 8596SOL     OW26686   1.145   4.891   3.288
 8596SOL    HW126687   1.209   4.821   3.255
 8596SOL    HW226688   1.167   4.979   3.246
 8597SOL     OW26689   5.195   1.534   2.077
 8597SOL    HW126690   5.157   1.444   2.097
 8597SOL    HW226691   5.144   1.604   2.129
 8598SOL     OW26692   6.051   0.006   7.004
 8598SOL    HW126693   6.021   0.061   6.926
 8598SOL    HW226694   6.107   6.952   6.971
 8599SOL     OW26695   1.618   1.976   4.347
 8599SOL    HW126696   1.553   1.912   4.305
 8599SOL    HW226697   1.633   2.053   4.285
 8600SOL     OW26698   5.360   4.016   6.601
 8600SOL    HW126699   5.428   3.983   6.667
 8600SOL    HW226700   5.320   3.939   6.552
 8601SOL     OW26701   0.862   1.468   3.664
 8601SOL    HW126702   0.779   1.496   3.616
 8601SOL    HW226703   0.916   1.408   3.605
 8602SOL     OW26704   3.009   6.642   2.865
 8602SOL    HW126705   3.084   6.706   2.878
 8602SOL    HW226706   3.034   6.575   2.795
 8603SOL     OW26707   5.151   6.315   1.415
 8603SOL    HW126708   5.205   6.254   1.357
 8603SOL    HW226709   5.054   6.296   1.402
 8604SOL     OW26710   1.160   2.554   5.388
 8604SOL    HW126711   1.152   2.589   5.294
 8604SOL    HW226712   1.166   2.454   5.385
 8605SOL     OW26713   2.522   5.327   4.302
 8605SOL    HW126714   2.435   5.286   4.328
 8605SOL    HW226715   2.592   5.256   4.297
 8606SOL     OW26716   2.055   2.721   6.760
 8606SOL    HW126717   2.054   2.624   6.734
 8606SOL    HW226718   2.144   2.743   6.799
 8607SOL     OW26719   3.128   4.822   6.331
 8607SOL    HW126720   3.086   4.761   6.398
 8607SOL    HW226721   3.109   4.788   6.238
 8608SOL     OW26722   2.994   4.802   2.737
 8608SOL    HW126723   3.032   4.872   2.797
 8608SOL    HW226724   2.920   4.754   2.786
 8609SOL     OW26725   5.103   0.401   3.195
 8609SOL    HW126726   5.077   0.413   3.290
 8609SOL    HW226727   5.065   0.476   3.140
 8610SOL     OW26728   1.153   1.385   2.866
 8610SOL    HW126729   1.105   1.441   2.934
 8610SOL    HW226730   1.119   1.291   2.870
 8611SOL     OW26731   2.897   1.979   4.525
 8611SOL    HW126732   2.834   1.919   4.574
 8611SOL    HW226733   2.988   1.938   4.523
 8612SOL     OW26734   2.635   2.893   1.057
 8612SOL    HW126735   2.567   2.966   1.059
 8612SOL    HW226736   2.707   2.916   0.992
 8613SOL     OW26737   2.820   2.013   2.001
 8613SOL    HW126738   2.903   2.059   1.971
 8613SOL    HW226739   2.744   2.079   2.002
 8614SOL     OW26740   1.164   3.139   4.023
 8614SOL    HW126741   1.204   3.225   3.991
 8614SOL    HW226742   1.120   3.093   3.946
 8615SOL     OW26743   4.261   2.157   5.173
 8615SOL    HW126744   4.224   2.160   5.081
 8615SOL    HW226745   4.283   2.062   5.198
 8616SOL     OW26746   3.136   4.735   1.898
 8616SOL    HW126747   3.202   4.742   1.972
 8616SOL    HW226748   3.050   4.698   1.933
 8617SOL     OW26749   5.653   1.140   5.080
 8617SOL    HW126750   5.747   1.107   5.074
 8617SOL    HW226751   5.598   1.077   5.135
 8618SOL     OW26752   6.501   4.588   1.080
 8618SOL    HW126753   6.474   4.680   1.109
 8618SOL    HW226754   6.428   4.523   1.099
 8619SOL     OW26755   4.026   5.260   1.968
 8619SOL    HW126756   4.124   5.242   1.960
 8619SOL    HW226757   4.012   5.344   2.021
 8620SOL     OW26758   2.050   6.631   2.845
 8620SOL    HW126759   2.016   6.605   2.936
 8620SOL    HW226760   2.150   6.636   2.847
 8621SOL     OW26761   5.633   2.080   2.217
 8621SOL    HW126762   5.709   2.027   2.254
 8621SOL    HW226763   5.633   2.171   2.257
 8622SOL     OW26764   5.046   4.031   1.386
 8622SOL    HW126765   5.023   4.091   1.309
 8622SOL    HW226766   4.979   3.957   1.392
 8623SOL     OW26767   1.225   4.020   5.125
 8623SOL    HW126768   1.281   4.051   5.202
 8623SOL    HW226769   1.226   3.920   5.122
 8624SOL     OW26770   2.143   3.879   4.798
 8624SOL    HW126771   2.052   3.901   4.763
 8624SOL    HW226772   2.191   3.964   4.821
 8625SOL     OW26773   4.423   1.105   5.949
 8625SOL    HW126774   4.465   1.195   5.933
 8625SOL    HW226775   4.487   1.034   5.920
 8626SOL     OW26776   3.936   2.826   6.953
 8626SOL    HW126777   4.033   2.822   6.978
 8626SOL    HW226778   3.927   2.824   6.853
 8627SOL     OW26779   1.478   1.693   2.316
 8627SOL    HW126780   1.420   1.621   2.278
 8627SOL    HW226781   1.453   1.710   2.411
 8628SOL     OW26782   5.974   6.486   0.442
 8628SOL    HW126783   5.950   6.444   0.354
 8628SOL    HW226784   5.969   6.585   0.434
 8629SOL     OW26785   1.753   6.503   4.965
 8629SOL    HW126786   1.806   6.568   5.019
 8629SOL    HW226787   1.748   6.535   4.870
 8630SOL     OW26788   5.004   3.184   4.027
 8630SOL    HW126789   5.040   3.194   4.120
 8630SOL    HW226790   5.079   3.176   3.962
 8631SOL     OW26791   0.762   5.350   6.452
 8631SOL    HW126792   0.799   5.331   6.543
 8631SOL    HW226793   0.711   5.270   6.420
 8632SOL     OW26794   3.697   4.794   5.233
 8632SOL    HW126795   3.795   4.814   5.224
 8632SOL    HW226796   3.644   4.867   5.189
 8633SOL     OW26797   5.783   2.311   5.959
 8633SOL    HW126798   5.717   2.376   5.920
 8633SOL    HW226799   5.875   2.331   5.924
 8634SOL     OW26800   5.439   4.286   6.893
 8634SOL    HW126801   5.482   4.214   6.838
 8634SOL    HW226802   5.440   4.372   6.843
 8635SOL     OW26803   5.087   3.225   6.336
 8635SOL    HW126804   5.146   3.173   6.398
 8635SOL    HW226805   5.082   3.320   6.367
 8636SOL     OW26806   5.450   5.851   0.900
 8636SOL    HW126807   5.485   5.885   0.988
 8636SOL    HW226808   5.527   5.837   0.838
 8637SOL     OW26809   2.721   1.049   6.845
 8637SOL    HW126810   2.765   0.996   6.772
 8637SOL    HW226811   2.631   1.079   6.815
 8638SOL     OW26812   3.399   2.092   5.093
 8638SOL    HW126813   3.377   1.996   5.106
 8638SOL    HW226814   3.318   2.141   5.059
 8639SOL     OW26815   5.529   2.755   0.368
 8639SOL    HW126816   5.440   2.795   0.389
 8639SOL    HW226817   5.569   2.802   0.289
 8640SOL     OW26818   4.057   3.488   6.985
 8640SOL    HW126819   4.157   3.488   6.980
 8640SOL    HW226820   4.021   3.567   6.934
 8641SOL     OW26821   4.150   4.722   3.992
 8641SOL    HW126822   4.130   4.731   4.090
 8641SOL    HW226823   4.238   4.677   3.980
 8642SOL     OW26824   1.018   6.332   4.717
 8642SOL    HW126825   1.090   6.381   4.666
 8642SOL    HW226826   1.033   6.234   4.710
 8643SOL     OW26827   2.506   0.927   6.115
 8643SOL    HW126828   2.477   1.010   6.162
 8643SOL    HW226829   2.551   0.951   6.029
 8644SOL     OW26830   5.573   2.427   5.826
 8644SOL    HW126831   5.512   2.363   5.873
 8644SOL    HW226832   5.582   2.401   5.730
 8645SOL     OW26833   4.341   4.513   0.951
 8645SOL    HW126834   4.305   4.440   1.010
 8645SOL    HW226835   4.271   4.582   0.937
 8646SOL     OW26836   0.456   1.672   0.223
 8646SOL    HW126837   0.401   1.620   0.157
 8646SOL    HW226838   0.491   1.610   0.293
 8647SOL     OW26839   2.349   4.686   0.093
 8647SOL    HW126840   2.379   4.779   0.113
 8647SOL    HW226841   2.249   4.683   0.089
 8648SOL     OW26842   6.925   0.039   2.585
 8648SOL    HW126843   7.008   0.072   2.541
 8648SOL    HW226844   6.851   0.105   2.570
 8649SOL     OW26845   5.455   5.708   6.501
 8649SOL    HW126846   5.376   5.768   6.512
 8649SOL    HW226847   5.531   5.741   6.557
 8650SOL     OW26848   1.024   5.487   5.121
 8650SOL    HW126849   1.064   5.447   5.202
 8650SOL    HW226850   1.096   5.516   5.058
 8651SOL     OW26851   4.410   1.122   0.678
 8651SOL    HW126852   4.431   1.030   0.710
 8651SOL    HW226853   4.316   1.145   0.702
 8652SOL     OW26854   1.929   5.073   3.331
 8652SOL    HW126855   1.937   5.039   3.425
 8652SOL    HW226856   1.901   5.169   3.332
 8653SOL     OW26857   6.580   0.864   6.156
 8653SOL    HW126858   6.675   0.832   6.153
 8653SOL    HW226859   6.556   0.906   6.068
 8654SOL     OW26860   0.820   4.757   2.298
 8654SOL    HW126861   0.791   4.844   2.259
 8654SOL    HW226862   0.788   4.751   2.393
 8655SOL     OW26863   5.989   0.528   4.058
 8655SOL    HW126864   5.967   0.585   4.137
 8655SOL    HW226865   5.955   0.435   4.074
 8656SOL     OW26866   6.428   0.649   1.907
 8656SOL    HW126867   6.439   0.689   1.998
 8656SOL    HW226868   6.430   0.722   1.839
 8657SOL     OW26869   5.168   6.165   6.966
 8657SOL    HW126870   5.230   6.091   6.994
 8657SOL    HW226871   5.081   6.156   7.016
 8658SOL     OW26872   5.948   6.340   0.199
 8658SOL    HW126873   5.852   6.354   0.174
 8658SOL    HW226874   5.958   6.250   0.241
 8659SOL     OW26875   4.892   2.383   2.136
 8659SOL    HW126876   4.952   2.313   2.098
 8659SOL    HW226877   4.885   2.459   2.071
 8660SOL     OW26878   0.160   3.634   1.892
 8660SOL    HW126879   0.136   3.551   1.943
 8660SOL    HW226880   0.077   3.685   1.870
 8661SOL     OW26881   0.004   4.048   1.406
 8661SOL    HW126882   6.940   4.018   1.446
 8661SOL    HW226883   7.010   4.125   1.344
 8662SOL     OW26884   4.529   5.407   1.833
 8662SOL    HW126885   4.606   5.401   1.897
 8662SOL    HW226886   4.548   5.479   1.766
 8663SOL     OW26887   2.991   5.412   2.494
 8663SOL    HW126888   2.982   5.313   2.506
 8663SOL    HW226889   2.911   5.457   2.533
 8664SOL     OW26890   2.118   5.665   1.442
 8664SOL    HW126891   2.171   5.625   1.517
 8664SOL    HW226892   2.023   5.677   1.470
 8665SOL     OW26893   5.409   5.418   4.915
 8665SOL    HW126894   5.442   5.333   4.875
 8665SOL    HW226895   5.368   5.399   5.004
 8666SOL     OW26896   5.469   1.071   3.699
 8666SOL    HW126897   5.438   0.982   3.732
 8666SOL    HW226898   5.416   1.097   3.618
 8667SOL     OW26899   4.329   1.965   3.911
 8667SOL    HW126900   4.411   1.911   3.930
 8667SOL    HW226901   4.269   1.913   3.850
 8668SOL     OW26902   5.193   3.859   3.021
 8668SOL    HW126903   5.194   3.760   3.010
 8668SOL    HW226904   5.240   3.884   3.106
 8669SOL     OW26905   0.602   6.693   6.719
 8669SOL    HW126906   0.651   6.770   6.758
 8669SOL    HW226907   0.645   6.666   6.633
 8670SOL     OW26908   4.138   5.301   5.761
 8670SOL    HW126909   4.204   5.354   5.814
 8670SOL    HW226910   4.183   5.219   5.724
 8671SOL     OW26911   6.208   1.575   3.444
 8671SOL    HW126912   6.152   1.650   3.409
 8671SOL    HW226913   6.229   1.511   3.370
 8672SOL     OW26914   0.725   5.626   3.756
 8672SOL    HW126915   0.786   5.692   3.713
 8672SOL    HW226916   0.710   5.549   3.695
 8673SOL     OW26917   5.770   2.328   0.287
 8673SOL    HW126918   5.802   2.414   0.325
 8673SOL    HW226919   5.685   2.343   0.237
 8674SOL     OW26920   5.613   5.804   2.585
 8674SOL    HW126921   5.679   5.833   2.515
 8674SOL    HW226922   5.654   5.814   2.675
 8675SOL     OW26923   4.415   1.851   4.673
 8675SOL    HW126924   4.502   1.818   4.638
 8675SOL    HW226925   4.430   1.931   4.731
 8676SOL     OW26926   5.854   6.576   3.331
 8676SOL    HW126927   5.895   6.630   3.257
 8676SOL    HW226928   5.759   6.603   3.343
 8677SOL     OW26929   2.259   5.316   6.646
 8677SOL    HW126930   2.165   5.283   6.659
 8677SOL    HW226931   2.293   5.285   6.557
 8678SOL     OW26932   0.715   0.468   0.914
 8678SOL    HW126933   0.807   0.500   0.937
 8678SOL    HW226934   0.722   0.383   0.862
 8679SOL     OW26935   0.773   1.191   3.561
 8679SOL    HW126936   0.849   1.254   3.544
 8679SOL    HW226937   0.709   1.232   3.626
 8680SOL     OW26938   6.216   3.705   0.349
 8680SOL    HW126939   6.270   3.701   0.265
 8680SOL    HW226940   6.206   3.801   0.377
 8681SOL     OW26941   4.796   5.290   1.429
 8681SOL    HW126942   4.877   5.234   1.412
 8681SOL    HW226943   4.761   5.270   1.521
 8682SOL     OW26944   6.308   0.309   2.558
 8682SOL    HW126945   6.337   0.356   2.641
 8682SOL    HW226946   6.238   0.242   2.580
 8683SOL     OW26947   1.725   2.507   5.246
 8683SOL    HW126948   1.641   2.550   5.277
 8683SOL    HW226949   1.783   2.486   5.325
 8684SOL     OW26950   6.079   2.899   4.216
 8684SOL    HW126951   6.100   2.985   4.263
 8684SOL    HW226952   6.164   2.855   4.188
 8685SOL     OW26953   5.769   2.137   6.171
 8685SOL    HW126954   5.763   2.209   6.102
 8685SOL    HW226955   5.864   2.109   6.183
 8686SOL     OW26956   6.672   0.554   2.449
 8686SOL    HW126957   6.758   0.604   2.443
 8686SOL    HW226958   6.662   0.494   2.370
 8687SOL     OW26959   4.865   5.295   2.458
 8687SOL    HW126960   4.903   5.259   2.543
 8687SOL    HW226961   4.811   5.224   2.412
 8688SOL     OW26962   1.251   5.171   6.483
 8688SOL    HW126963   1.190   5.117   6.424
 8688SOL    HW226964   1.202   5.251   6.517
 8689SOL     OW26965   3.966   2.171   1.215
 8689SOL    HW126966   4.058   2.191   1.182
 8689SOL    HW226967   3.913   2.127   1.143
 8690SOL     OW26968   1.032   3.754   4.249
 8690SOL    HW126969   1.069   3.751   4.156
 8690SOL    HW226970   0.950   3.810   4.250
 8691SOL     OW26971   3.835   1.678   6.679
 8691SOL    HW126972   3.800   1.664   6.586
 8691SOL    HW226973   3.835   1.775   6.701
 8692SOL     OW26974   3.434   1.460   4.374
 8692SOL    HW126975   3.432   1.440   4.472
 8692SOL    HW226976   3.529   1.466   4.344
 8693SOL     OW26977   5.750   6.973   0.364
 8693SOL    HW126978   5.808   0.018   0.409
 8693SOL    HW226979   5.806   6.909   0.313
 8694SOL     OW26980   5.233   1.455   4.923
 8694SOL    HW126981   5.305   1.461   4.853
 8694SOL    HW226982   5.228   1.542   4.972
 8695SOL     OW26983   4.526   3.712   6.204
 8695SOL    HW126984   4.439   3.720   6.155
 8695SOL    HW226985   4.584   3.789   6.180
 8696SOL     OW26986   2.901   5.357   5.193
 8696SOL    HW126987   2.905   5.426   5.265
 8696SOL    HW226988   2.889   5.267   5.234
 8697SOL     OW26989   0.406   4.149   6.223
 8697SOL    HW126990   0.327   4.124   6.278
 8697SOL    HW226991   0.463   4.215   6.273
 8698SOL     OW26992   5.067   5.977   4.702
 8698SOL    HW126993   4.986   5.927   4.735
 8698SOL    HW226994   5.080   5.959   4.605
 8699SOL     OW26995   1.362   3.018   4.417
 8699SOL    HW126996   1.413   2.960   4.354
 8699SOL    HW226997   1.287   3.063   4.367
 8700SOL     OW26998   0.844   0.448   4.918
 8700SOL    HW126999   0.905   0.384   4.965
 8700SOL    HW227000   0.809   0.515   4.983
 8701SOL     OW27001   1.459   1.345   0.108
 8701SOL    HW127002   1.472   1.435   0.068
 8701SOL    HW227003   1.530   1.328   0.177
 8702SOL     OW27004   5.320   4.997   2.007
 8702SOL    HW127005   5.285   4.915   1.963
 8702SOL    HW227006   5.247   5.040   2.060
 8703SOL     OW27007   2.463   4.938   0.152
 8703SOL    HW127008   2.509   4.999   0.216
 8703SOL    HW227009   2.367   4.963   0.145
 8704SOL     OW27010   0.843   4.238   3.528
 8704SOL    HW127011   0.786   4.171   3.481
 8704SOL    HW227012   0.833   4.227   3.627
 8705SOL     OW27013   5.119   1.557   6.314
 8705SOL    HW127014   5.207   1.598   6.293
 8705SOL    HW227015   5.045   1.612   6.275
 8706SOL     OW27016   4.855   2.331   0.158
 8706SOL    HW127017   4.828   2.398   0.227
 8706SOL    HW227018   4.778   2.270   0.139
 8707SOL     OW27019   0.869   1.446   5.316
 8707SOL    HW127020   0.831   1.539   5.309
 8707SOL    HW227021   0.938   1.433   5.245
 8708SOL     OW27022   4.353   1.241   3.490
 8708SOL    HW127023   4.355   1.239   3.590
 8708SOL    HW227024   4.259   1.261   3.459
 8709SOL     OW27025   6.364   6.922   6.806
 8709SOL    HW127026   6.280   6.868   6.803
 8709SOL    HW227027   6.422   6.890   6.881
 8710SOL     OW27028   1.519   2.881   3.029
 8710SOL    HW127029   1.532   2.802   2.969
 8710SOL    HW227030   1.542   2.855   3.123
 8711SOL     OW27031   1.763   6.576   2.810
 8711SOL    HW127032   1.778   6.499   2.873
 8711SOL    HW227033   1.851   6.617   2.786
 8712SOL     OW27034   3.740   1.828   4.180
 8712SOL    HW127035   3.689   1.889   4.119
 8712SOL    HW227036   3.722   1.855   4.275
 8713SOL     OW27037   6.914   3.309   2.217
 8713SOL    HW127038   6.988   3.243   2.203
 8713SOL    HW227039   6.826   3.261   2.217
 8714SOL     OW27040   1.265   0.320   5.774
 8714SOL    HW127041   1.181   0.349   5.819
 8714SOL    HW227042   1.265   0.352   5.679
 8715SOL     OW27043   4.200   0.766   0.616
 8715SOL    HW127044   4.244   0.698   0.557
 8715SOL    HW227045   4.267   0.799   0.683
 8716SOL     OW27046   0.154   6.786   0.707
 8716SOL    HW127047   0.121   6.832   0.624
 8716SOL    HW227048   0.223   6.843   0.751
 8717SOL     OW27049   2.890   3.563   5.292
 8717SOL    HW127050   2.990   3.566   5.302
 8717SOL    HW227051   2.865   3.488   5.231
 8718SOL     OW27052   1.503   2.633   5.348
 8718SOL    HW127053   1.432   2.675   5.291
 8718SOL    HW227054   1.521   2.690   5.428
 8719SOL     OW27055   3.750   0.084   0.335
 8719SOL    HW127056   3.690   0.041   0.267
 8719SOL    HW227057   3.714   0.175   0.356
 8720SOL     OW27058   1.151   6.231   6.328
 8720SOL    HW127059   1.227   6.255   6.268
 8720SOL    HW227060   1.119   6.313   6.375
 8721SOL     OW27061   6.790   2.121   1.230
 8721SOL    HW127062   6.701   2.131   1.274
 8721SOL    HW227063   6.778   2.089   1.136
 8722SOL     OW27064   3.313   1.435   1.093
 8722SOL    HW127065   3.313   1.463   1.189
 8722SOL    HW227066   3.359   1.505   1.037
 8723SOL     OW27067   5.032   6.807   1.699
 8723SOL    HW127068   5.092   6.740   1.744
 8723SOL    HW227069   4.976   6.852   1.768
 8724SOL     OW27070   5.259   6.703   4.264
 8724SOL    HW127071   5.315   6.727   4.184
 8724SOL    HW227072   5.207   6.783   4.293
 8725SOL     OW27073   2.100   5.480   5.673
 8725SOL    HW127074   2.049   5.403   5.712
 8725SOL    HW227075   2.098   5.473   5.573
 8726SOL     OW27076   0.260   0.502   3.077
 8726SOL    HW127077   0.319   0.561   3.133
 8726SOL    HW227078   0.227   0.426   3.133
 8727SOL     OW27079   6.392   0.032   1.548
 8727SOL    HW127080   6.383   6.960   1.581
 8727SOL    HW227081   6.304   0.079   1.558
 8728SOL     OW27082   5.974   0.942   1.840
 8728SOL    HW127083   6.005   1.028   1.800
 8728SOL    HW227084   6.012   0.866   1.789
 8729SOL     OW27085   3.520   4.981   5.350
 8729SOL    HW127086   3.444   4.965   5.286
 8729SOL    HW227087   3.555   4.894   5.383
 8730SOL     OW27088   5.047   3.995   2.601
 8730SOL    HW127089   5.136   3.999   2.647
 8730SOL    HW227090   5.038   4.074   2.539
 8731SOL     OW27091   0.749   3.747   3.165
 8731SOL    HW127092   0.823   3.698   3.212
 8731SOL    HW227093   0.695   3.683   3.111
 8732SOL     OW27094   5.289   4.745   1.898
 8732SOL    HW127095   5.369   4.690   1.922
 8732SOL    HW227096   5.226   4.691   1.842
 8733SOL     OW27097   1.457   5.752   1.143
 8733SOL    HW127098   1.425   5.767   1.236
 8733SOL    HW227099   1.428   5.828   1.085
 8734SOL     OW27100   1.060   3.441   2.930
 8734SOL    HW127101   1.089   3.417   2.837
 8734SOL    HW227102   1.094   3.373   2.994
 8735SOL     OW27103   0.809   2.992   6.500
 8735SOL    HW127104   0.789   2.905   6.454
 8735SOL    HW227105   0.893   2.982   6.553
 8736SOL     OW27106   0.214   5.283   1.867
 8736SOL    HW127107   0.177   5.324   1.784
 8736SOL    HW227108   0.150   5.213   1.900
 8737SOL     OW27109   1.831   6.522   0.336
 8737SOL    HW127110   1.841   6.616   0.306
 8737SOL    HW227111   1.738   6.490   0.317
 8738SOL     OW27112   2.625   5.904   4.057
 8738SOL    HW127113   2.682   5.983   4.035
 8738SOL    HW227114   2.529   5.932   4.056
 8739SOL     OW27115   6.014   5.546   5.824
 8739SOL    HW127116   6.070   5.624   5.853
 8739SOL    HW227117   5.917   5.570   5.830
 8740SOL     OW27118   4.287   1.253   3.799
 8740SOL    HW127119   4.345   1.173   3.788
 8740SOL    HW227120   4.331   1.318   3.860
 8741SOL     OW27121   2.423   0.948   2.915
 8741SOL    HW127122   2.501   0.886   2.927
 8741SOL    HW227123   2.451   1.041   2.937
 8742SOL     OW27124   4.846   0.496   1.515
 8742SOL    HW127125   4.895   0.433   1.574
 8742SOL    HW227126   4.770   0.449   1.470
 8743SOL     OW27127   1.131   0.069   1.685
 8743SOL    HW127128   1.136   0.160   1.726
 8743SOL    HW227129   1.197   0.008   1.729
 8744SOL     OW27130   4.404   2.929   0.489
 8744SOL    HW127131   4.339   2.978   0.546
 8744SOL    HW227132   4.488   2.983   0.481
 8745SOL     OW27133   6.083   1.441   6.404
 8745SOL    HW127134   6.064   1.527   6.451
 8745SOL    HW227135   6.056   1.364   6.462
 8746SOL     OW27136   5.147   5.546   4.648
 8746SOL    HW127137   5.239   5.548   4.608
 8746SOL    HW227138   5.116   5.451   4.653
 8747SOL     OW27139   0.037   1.727   2.568
 8747SOL    HW127140   0.038   1.628   2.551
 8747SOL    HW227141   0.129   1.758   2.591
 8748SOL     OW27142   0.671   1.763   5.033
 8748SOL    HW127143   0.718   1.812   5.106
 8748SOL    HW227144   0.723   1.680   5.010
 8749SOL     OW27145   1.981   0.611   5.394
 8749SOL    HW127146   2.081   0.608   5.393
 8749SOL    HW227147   1.949   0.695   5.350
 8750SOL     OW27148   3.601   3.765   5.981
 8750SOL    HW127149   3.540   3.780   6.059
 8750SOL    HW227150   3.681   3.713   6.010
 8751SOL     OW27151   6.452   1.965   1.914
 8751SOL    HW127152   6.493   1.967   2.005
 8751SOL    HW227153   6.428   1.871   1.890
 8752SOL     OW27154   3.106   3.005   6.477
 8752SOL    HW127155   3.169   2.950   6.532
 8752SOL    HW227156   3.154   3.038   6.395
 8753SOL     OW27157   2.975   1.865   6.605
 8753SOL    HW127158   2.917   1.928   6.657
 8753SOL    HW227159   3.055   1.914   6.570
 8754SOL     OW27160   1.506   4.288   5.158
 8754SOL    HW127161   1.425   4.267   5.214
 8754SOL    HW227162   1.537   4.204   5.112
 8755SOL     OW27163   2.147   1.035   1.239
 8755SOL    HW127164   2.172   1.025   1.143
 8755SOL    HW227165   2.048   1.025   1.249
 8756SOL     OW27166   2.171   3.089   3.364
 8756SOL    HW127167   2.179   3.040   3.450
 8756SOL    HW227168   2.206   3.182   3.375
 8757SOL     OW27169   4.375   5.528   6.645
 8757SOL    HW127170   4.421   5.470   6.712
 8757SOL    HW227171   4.343   5.612   6.689
 8758SOL     OW27172   4.434   6.346   2.874
 8758SOL    HW127173   4.371   6.272   2.851
 8758SOL    HW227174   4.524   6.326   2.836
 8759SOL     OW27175   4.965   3.335   6.905
 8759SOL    HW127176   5.001   3.245   6.881
 8759SOL    HW227177   4.911   3.327   6.989
 8760SOL     OW27178   2.755   1.022   4.775
 8760SOL    HW127179   2.698   0.974   4.708
 8760SOL    HW227180   2.851   1.019   4.745
 8761SOL     OW27181   6.436   2.291   1.228
 8761SOL    HW127182   6.354   2.235   1.233
 8761SOL    HW227183   6.506   2.254   1.290
 8762SOL     OW27184   0.758   4.918   4.529
 8762SOL    HW127185   0.739   4.860   4.450
 8762SOL    HW227186   0.707   5.004   4.521
 8763SOL     OW27187   6.332   6.852   6.237
 8763SOL    HW127188   6.425   6.824   6.213
 8763SOL    HW227189   6.337   6.938   6.288
 8764SOL     OW27190   4.254   6.886   5.608
 8764SOL    HW127191   4.321   6.937   5.660
 8764SOL    HW227192   4.246   6.925   5.516
 8765SOL     OW27193   5.015   0.389   3.822
 8765SOL    HW127194   4.916   0.385   3.824
 8765SOL    HW227195   5.047   0.467   3.875
 8766SOL     OW27196   4.500   4.291   5.278
 8766SOL    HW127197   4.443   4.344   5.216
 8766SOL    HW227198   4.580   4.256   5.228
 8767SOL     OW27199   6.021   6.669   2.755
 8767SOL    HW127200   6.114   6.697   2.729
 8767SOL    HW227201   5.956   6.704   2.687
 8768SOL     OW27202   1.332   2.553   0.165
 8768SOL    HW127203   1.274   2.635   0.172
 8768SOL    HW227204   1.417   2.569   0.215
 8769SOL     OW27205   6.908   0.975   3.122
 8769SOL    HW127206   6.810   0.995   3.124
 8769SOL    HW227207   6.939   0.973   3.028
 8770SOL     OW27208   4.608   4.419   2.350
 8770SOL    HW127209   4.532   4.380   2.297
 8770SOL    HW227210   4.670   4.345   2.378
 8771SOL     OW27211   1.479   1.974   6.172
 8771SOL    HW127212   1.516   1.947   6.083
 8771SOL    HW227213   1.485   1.898   6.236
 8772SOL     OW27214   4.459   0.527   6.382
 8772SOL    HW127215   4.405   0.454   6.425
 8772SOL    HW227216   4.434   0.615   6.423
 8773SOL     OW27217   5.463   2.641   3.312
 8773SOL    HW127218   5.400   2.582   3.361
 8773SOL    HW227219   5.540   2.587   3.278
 8774SOL     OW27220   1.511   0.892   0.331
 8774SOL    HW127221   1.530   0.846   0.244
 8774SOL    HW227222   1.582   0.960   0.349
 8775SOL     OW27223   5.335   1.280   6.107
 8775SOL    HW127224   5.432   1.256   6.112
 8775SOL    HW227225   5.283   1.201   6.074
 8776SOL     OW27226   4.495   3.622   0.785
 8776SOL    HW127227   4.513   3.593   0.879
 8776SOL    HW227228   4.411   3.676   0.782
 8777SOL     OW27229   6.142   4.437   3.129
 8777SOL    HW127230   6.111   4.393   3.213
 8777SOL    HW227231   6.192   4.371   3.073
 8778SOL     OW27232   4.971   2.780   5.867
 8778SOL    HW127233   5.015   2.858   5.911
 8778SOL    HW227234   5.037   2.705   5.859
 8779SOL     OW27235   2.518   5.591   2.304
 8779SOL    HW127236   2.474   5.653   2.239
 8779SOL    HW227237   2.506   5.626   2.397
 8780SOL     OW27238   0.007   0.105   3.089
 8780SOL    HW127239   0.092   0.148   3.119
 8780SOL    HW227240   6.998   0.149   3.004
 8781SOL     OW27241   4.995   0.626   4.005
 8781SOL    HW127242   5.025   0.716   4.036
 8781SOL    HW227243   4.977   0.568   4.085
 8782SOL     OW27244   6.877   0.576   1.745
 8782SOL    HW127245   6.964   0.560   1.698
 8782SOL    HW227246   6.805   0.592   1.677
 8783SOL     OW27247   6.610   4.276   3.062
 8783SOL    HW127248   6.618   4.176   3.068
 8783SOL    HW227249   6.520   4.300   3.028
 8784SOL     OW27250   0.292   6.619   6.350
 8784SOL    HW127251   0.291   6.718   6.366
 8784SOL    HW227252   0.289   6.602   6.251
 8785SOL     OW27253   5.878   4.975   6.927
 8785SOL    HW127254   5.947   5.024   6.980
 8785SOL    HW227255   5.902   4.878   6.922
 8786SOL     OW27256   2.665   0.899   0.606
 8786SOL    HW127257   2.745   0.864   0.654
 8786SOL    HW227258   2.695   0.953   0.527
 8787SOL     OW27259   2.912   1.576   2.136
 8787SOL    HW127260   2.985   1.536   2.191
 8787SOL    HW227261   2.934   1.566   2.039
 8788SOL     OW27262   0.177   0.997   5.093
 8788SOL    HW127263   0.102   1.058   5.068
 8788SOL    HW227264   0.251   1.051   5.134
 8789SOL     OW27265   6.514   5.079   5.240
 8789SOL    HW127266   6.502   5.178   5.248
 8789SOL    HW227267   6.435   5.032   5.278
 8790SOL     OW27268   6.227   0.523   6.617
 8790SOL    HW127269   6.222   0.608   6.669
 8790SOL    HW227270   6.291   0.534   6.540
 8791SOL     OW27271   5.597   6.771   5.321
 8791SOL    HW127272   5.623   6.850   5.265
 8791SOL    HW227273   5.649   6.773   5.407
 8792SOL     OW27274   3.363   5.038   3.063
 8792SOL    HW127275   3.442   5.089   3.028
 8792SOL    HW227276   3.384   5.004   3.155
 8793SOL     OW27277   0.551   4.601   2.528
 8793SOL    HW127278   0.493   4.622   2.607
 8793SOL    HW227279   0.623   4.670   2.520
 8794SOL     OW27280   5.453   0.412   2.933
 8794SOL    HW127281   5.422   0.483   2.996
 8794SOL    HW227282   5.511   0.348   2.982
 8795SOL     OW27283   1.055   4.670   5.513
 8795SOL    HW127284   1.091   4.718   5.592
 8795SOL    HW227285   0.961   4.640   5.532
 8796SOL     OW27286   5.032   2.446   3.090
 8796SOL    HW127287   5.002   2.405   3.004
 8796SOL    HW227288   5.022   2.379   3.164
 8797SOL     OW27289   0.382   0.089   6.345
 8797SOL    HW127290   0.285   0.081   6.322
 8797SOL    HW227291   0.403   0.184   6.369
 8798SOL     OW27292   4.533   6.196   6.772
 8798SOL    HW127293   4.453   6.254   6.788
 8798SOL    HW227294   4.592   6.239   6.704
 8799SOL     OW27295   2.436   5.084   3.942
 8799SOL    HW127296   2.341   5.066   3.914
 8799SOL    HW227297   2.439   5.100   4.040
 8800SOL     OW27298   5.717   4.748   6.225
 8800SOL    HW127299   5.650   4.758   6.152
 8800SOL    HW227300   5.776   4.669   6.205
 8801SOL     OW27301   6.513   1.851   4.664
 8801SOL    HW127302   6.526   1.752   4.672
 8801SOL    HW227303   6.422   1.875   4.698
 8802SOL     OW27304   1.724   6.141   6.302
 8802SOL    HW127305   1.648   6.186   6.350
 8802SOL    HW227306   1.689   6.062   6.250
 8803SOL     OW27307   6.598   0.258   0.262
 8803SOL    HW127308   6.588   0.205   0.178
 8803SOL    HW227309   6.607   0.195   0.340
 8804SOL     OW27310   2.139   6.298   1.231
 8804SOL    HW127311   2.075   6.228   1.263
 8804SOL    HW227312   2.207   6.316   1.302
 8805SOL     OW27313   3.620   6.392   3.523
 8805SOL    HW127314   3.712   6.389   3.562
 8805SOL    HW227315   3.606   6.313   3.464
 8806SOL     OW27316   3.100   4.526   1.050
 8806SOL    HW127317   3.084   4.476   1.135
 8806SOL    HW227318   3.185   4.493   1.008
 8807SOL     OW27319   4.960   1.512   0.646
 8807SOL    HW127320   4.866   1.524   0.675
 8807SOL    HW227321   5.022   1.529   0.723
 8808SOL     OW27322   6.347   2.581   6.098
 8808SOL    HW127323   6.333   2.676   6.071
 8808SOL    HW227324   6.307   2.520   6.030
 8809SOL     OW27325   3.288   5.080   4.127
 8809SOL    HW127326   3.357   5.060   4.196
 8809SOL    HW227327   3.203   5.031   4.150
 8810SOL     OW27328   5.918   0.297   5.192
 8810SOL    HW127329   5.853   0.349   5.247
 8810SOL    HW227330   5.907   0.320   5.096
 8811SOL     OW27331   3.405   1.023   2.930
 8811SOL    HW127332   3.465   0.969   2.989
 8811SOL    HW227333   3.432   1.011   2.834
 8812SOL     OW27334   2.108   0.364   0.510
 8812SOL    HW127335   2.077   0.273   0.480
 8812SOL    HW227336   2.034   0.409   0.560
 8813SOL     OW27337   2.064   5.999   3.697
 8813SOL    HW127338   2.069   6.046   3.785
 8813SOL    HW227339   2.153   6.005   3.651
 8814SOL     OW27340   5.959   0.131   0.532
 8814SOL    HW127341   6.001   0.217   0.563
 8814SOL    HW227342   5.951   0.068   0.609
 8815SOL     OW27343   5.336   0.022   1.435
 8815SOL    HW127344   5.383   0.093   1.383
 8815SOL    HW227345   5.256   7.012   1.384
 8816SOL     OW27346   0.916   6.808   6.958
 8816SOL    HW127347   0.886   6.713   6.958
 8816SOL    HW227348   1.005   6.815   6.911
 8817SOL     OW27349   6.915   3.924   3.771
 8817SOL    HW127350   6.872   4.008   3.804
 8817SOL    HW227351   6.982   3.946   3.700
 8818SOL     OW27352   1.332   5.891   3.608
 8818SOL    HW127353   1.288   5.933   3.688
 8818SOL    HW227354   1.270   5.824   3.568
 8819SOL     OW27355   5.762   5.091   5.252
 8819SOL    HW127356   5.704   5.146   5.193
 8819SOL    HW227357   5.858   5.111   5.233
 8820SOL     OW27358   2.652   0.768   5.860
 8820SOL    HW127359   2.612   0.677   5.871
 8820SOL    HW227360   2.584   0.829   5.819
 8821SOL     OW27361   1.737   6.032   0.717
 8821SOL    HW127362   1.731   5.954   0.780
 8821SOL    HW227363   1.766   6.113   0.767
 8822SOL     OW27364   0.683   0.901   3.602
 8822SOL    HW127365   0.711   0.995   3.584
 8822SOL    HW227366   0.630   0.867   3.524
 8823SOL     OW27367   2.562   0.967   2.332
 8823SOL    HW127368   2.570   0.933   2.426
 8823SOL    HW227369   2.624   1.044   2.318
 8824SOL     OW27370   1.649   1.351   0.316
 8824SOL    HW127371   1.711   1.410   0.367
 8824SOL    HW227372   1.596   1.295   0.380
 8825SOL     OW27373   1.183   1.166   2.129
 8825SOL    HW127374   1.199   1.157   2.030
 8825SOL    HW227375   1.252   1.228   2.168
 8826SOL     OW27376   0.956   3.855   0.608
 8826SOL    HW127377   0.945   3.899   0.697
 8826SOL    HW227378   0.924   3.916   0.536
 8827SOL     OW27379   4.068   6.849   2.839
 8827SOL    HW127380   3.971   6.875   2.846
 8827SOL    HW227381   4.077   6.774   2.774
 8828SOL     OW27382   3.818   4.924   6.482
 8828SOL    HW127383   3.895   4.986   6.465
 8828SOL    HW227384   3.742   4.976   6.521
 8829SOL     OW27385   5.557   1.988   1.125
 8829SOL    HW127386   5.544   2.080   1.090
 8829SOL    HW227387   5.489   1.927   1.085
 8830SOL     OW27388   2.292   1.824   2.368
 8830SOL    HW127389   2.358   1.763   2.413
 8830SOL    HW227390   2.314   1.830   2.271
 8831SOL     OW27391   5.313   2.411   2.861
 8831SOL    HW127392   5.364   2.393   2.946
 8831SOL    HW227393   5.371   2.388   2.783
 8832SOL     OW27394   6.675   6.178   3.313
 8832SOL    HW127395   6.626   6.265   3.311
 8832SOL    HW227396   6.711   6.158   3.222
 8833SOL     OW27397   3.093   4.868   6.694
 8833SOL    HW127398   3.042   4.954   6.690
 8833SOL    HW227399   3.036   4.797   6.736
 8834SOL     OW27400   5.763   3.687   4.267
 8834SOL    HW127401   5.699   3.623   4.310
 8834SOL    HW227402   5.717   3.736   4.193
 8835SOL     OW27403   5.148   1.085   5.783
 8835SOL    HW127404   5.130   1.083   5.881
 8835SOL    HW227405   5.066   1.056   5.733
 8836SOL     OW27406   5.386   1.794   1.012
 8836SOL    HW127407   5.308   1.761   1.066
 8836SOL    HW227408   5.356   1.812   0.919
 8837SOL     OW27409   0.133   6.993   2.816
 8837SOL    HW127410   0.221   0.017   2.824
 8837SOL    HW227411   0.094   7.013   2.726
 8838SOL     OW27412   1.857   4.514   3.813
 8838SOL    HW127413   1.808   4.584   3.864
 8838SOL    HW227414   1.948   4.501   3.852
 8839SOL     OW27415   4.287   5.864   2.115
 8839SOL    HW127416   4.370   5.907   2.080
 8839SOL    HW227417   4.289   5.863   2.215
 8840SOL     OW27418   6.590   0.984   2.584
 8840SOL    HW127419   6.673   1.035   2.605
 8840SOL    HW227420   6.605   0.887   2.602
 8841SOL     OW27421   6.910   1.578   4.571
 8841SOL    HW127422   6.968   1.516   4.517
 8841SOL    HW227423   6.950   1.670   4.570
 8842SOL     OW27424   3.251   3.209   3.257
 8842SOL    HW127425   3.351   3.210   3.248
 8842SOL    HW227426   3.215   3.300   3.238
 8843SOL     OW27427   2.069   3.257   4.532
 8843SOL    HW127428   2.026   3.254   4.442
 8843SOL    HW227429   2.075   3.351   4.564
 8844SOL     OW27430   6.830   1.917   4.705
 8844SOL    HW127431   6.915   1.874   4.673
 8844SOL    HW227432   6.842   2.016   4.710
 8845SOL     OW27433   2.633   3.857   1.300
 8845SOL    HW127434   2.668   3.874   1.208
 8845SOL    HW227435   2.565   3.926   1.323
 8846SOL     OW27436   3.864   4.914   4.563
 8846SOL    HW127437   3.768   4.937   4.574
 8846SOL    HW227438   3.901   4.881   4.650
 8847SOL     OW27439   2.743   1.056   2.729
 8847SOL    HW127440   2.796   1.085   2.808
 8847SOL    HW227441   2.736   1.132   2.664
 8848SOL     OW27442   2.878   2.206   2.277
 8848SOL    HW127443   2.835   2.275   2.336
 8848SOL    HW227444   2.883   2.241   2.183
 8849SOL     OW27445   3.686   5.600   3.348
 8849SOL    HW127446   3.771   5.653   3.353
 8849SOL    HW227447   3.689   5.539   3.269
 8850SOL     OW27448   2.106   0.795   6.837
 8850SOL    HW127449   2.030   0.809   6.901
 8850SOL    HW227450   2.152   0.709   6.858
 8851SOL     OW27451   1.030   4.884   2.045
 8851SOL    HW127452   1.061   4.801   2.091
 8851SOL    HW227453   0.930   4.888   2.048
 8852SOL     OW27454   4.313   4.089   5.891
 8852SOL    HW127455   4.254   4.074   5.812
 8852SOL    HW227456   4.321   4.187   5.908
 8853SOL     OW27457   3.606   0.820   6.139
 8853SOL    HW127458   3.644   0.745   6.192
 8853SOL    HW227459   3.665   0.901   6.147
 8854SOL     OW27460   3.188   1.762   6.232
 8854SOL    HW127461   3.161   1.785   6.325
 8854SOL    HW227462   3.265   1.697   6.234
 8855SOL     OW27463   0.096   6.138   0.207
 8855SOL    HW127464   0.085   6.040   0.223
 8855SOL    HW227465   0.008   6.178   0.182
 8856SOL     OW27466   6.190   0.897   6.165
 8856SOL    HW127467   6.210   0.813   6.217
 8856SOL    HW227468   6.180   0.974   6.228
 8857SOL     OW27469   6.672   2.339   4.065
 8857SOL    HW127470   6.580   2.371   4.085
 8857SOL    HW227471   6.723   2.328   4.151
 8858SOL     OW27472   1.390   2.797   5.078
 8858SOL    HW127473   1.488   2.785   5.089
 8858SOL    HW227474   1.372   2.854   4.998
 8859SOL     OW27475   6.169   0.984   4.311
 8859SOL    HW127476   6.198   0.890   4.327
 8859SOL    HW227477   6.080   1.000   4.355
 8860SOL     OW27478   1.142   3.669   3.030
 8860SOL    HW127479   1.141   3.730   2.950
 8860SOL    HW227480   1.106   3.580   3.004
 8861SOL     OW27481   3.718   1.728   6.285
 8861SOL    HW127482   3.702   1.687   6.195
 8861SOL    HW227483   3.762   1.816   6.274
 8862SOL     OW27484   6.267   0.388   3.185
 8862SOL    HW127485   6.219   0.300   3.179
 8862SOL    HW227486   6.200   0.462   3.184
 8863SOL     OW27487   1.537   5.571   4.043
 8863SOL    HW127488   1.470   5.594   4.114
 8863SOL    HW227489   1.489   5.530   3.965
 8864SOL     OW27490   2.777   2.882   6.025
 8864SOL    HW127491   2.789   2.963   5.968
 8864SOL    HW227492   2.862   2.830   6.029
 8865SOL     OW27493   2.931   1.799   5.820
 8865SOL    HW127494   2.852   1.746   5.788
 8865SOL    HW227495   2.954   1.772   5.914
 8866SOL     OW27496   5.440   6.879   3.299
 8866SOL    HW127497   5.373   6.952   3.284
 8866SOL    HW227498   5.502   6.904   3.373
 8867SOL     OW27499   5.176   3.476   2.135
 8867SOL    HW127500   5.241   3.498   2.062
 8867SOL    HW227501   5.083   3.500   2.106
 8868SOL     OW27502   6.613   2.989   0.238
 8868SOL    HW127503   6.659   3.055   0.298
 8868SOL    HW227504   6.667   2.977   0.154
 8869SOL     OW27505   4.182   6.301   4.480
 8869SOL    HW127506   4.142   6.261   4.398
 8869SOL    HW227507   4.270   6.343   4.457
 8870SOL     OW27508   4.626   0.137   0.214
 8870SOL    HW127509   4.551   0.163   0.275
 8870SOL    HW227510   4.609   0.174   0.123
 8871SOL     OW27511   1.059   0.251   3.600
 8871SOL    HW127512   1.137   0.222   3.544
 8871SOL    HW227513   1.088   0.323   3.663
 8872SOL     OW27514   1.478   4.689   5.281
 8872SOL    HW127515   1.411   4.616   5.294
 8872SOL    HW227516   1.463   4.735   5.194
 8873SOL     OW27517   0.701   5.619   2.260
 8873SOL    HW127518   0.663   5.711   2.271
 8873SOL    HW227519   0.780   5.623   2.198
 8874SOL     OW27520   2.761   6.153   1.526
 8874SOL    HW127521   2.778   6.157   1.427
 8874SOL    HW227522   2.749   6.245   1.562
 8875SOL     OW27523   6.202   3.945   4.398
 8875SOL    HW127524   6.109   3.909   4.388
 8875SOL    HW227525   6.206   4.039   4.364
 8876SOL     OW27526   1.662   0.014   4.503
 8876SOL    HW127527   1.647   0.108   4.535
 8876SOL    HW227528   1.693   0.016   4.408
 8877SOL     OW27529   2.946   1.112   3.926
 8877SOL    HW127530   2.987   1.071   3.845
 8877SOL    HW227531   3.001   1.189   3.956
 8878SOL     OW27532   6.932   5.299   0.300
 8878SOL    HW127533   6.977   5.259   0.380
 8878SOL    HW227534   6.834   5.281   0.304
 8879SOL     OW27535   4.959   4.330   1.612
 8879SOL    HW127536   5.030   4.310   1.545
 8879SOL    HW227537   4.936   4.246   1.662
 8880SOL     OW27538   6.024   5.400   4.718
 8880SOL    HW127539   6.071   5.429   4.634
 8880SOL    HW227540   5.930   5.375   4.697
 8881SOL     OW27541   6.318   6.984   4.430
 8881SOL    HW127542   6.225   7.001   4.462
 8881SOL    HW227543   6.381   0.019   4.483
 8882SOL     OW27544   5.618   1.339   1.008
 8882SOL    HW127545   5.672   1.422   0.992
 8882SOL    HW227546   5.634   1.308   1.102
 8883SOL     OW27547   1.891   6.752   5.741
 8883SOL    HW127548   1.963   6.784   5.803
 8883SOL    HW227549   1.842   6.831   5.705
 8884SOL     OW27550   5.892   4.068   6.934
 8884SOL    HW127551   5.968   4.029   6.986
 8884SOL    HW227552   5.816   4.087   6.996
 8885SOL     OW27553   0.704   3.532   0.404
 8885SOL    HW127554   0.639   3.457   0.388
 8885SOL    HW227555   0.701   3.559   0.500
 8886SOL     OW27556   3.534   6.377   5.072
 8886SOL    HW127557   3.448   6.400   5.115
 8886SOL    HW227558   3.588   6.319   5.133
 8887SOL     OW27559   3.181   1.727   1.476
 8887SOL    HW127560   3.253   1.759   1.413
 8887SOL    HW227561   3.168   1.629   1.464
 8888SOL     OW27562   1.530   1.607   7.019
 8888SOL    HW127563   1.609   1.624   6.960
 8888SOL    HW227564   1.459   1.674   6.999
 8889SOL     OW27565   5.731   0.396   5.335
 8889SOL    HW127566   5.713   0.352   5.423
 8889SOL    HW227567   5.645   0.415   5.288
 8890SOL     OW27568   6.463   5.385   4.077
 8890SOL    HW127569   6.559   5.411   4.086
 8890SOL    HW227570   6.453   5.315   4.007
 8891SOL     OW27571   5.125   3.128   5.635
 8891SOL    HW127572   5.168   3.051   5.682
 8891SOL    HW227573   5.036   3.147   5.678
 8892SOL     OW27574   3.902   5.783   3.333
 8892SOL    HW127575   3.890   5.880   3.312
 8892SOL    HW227576   3.954   5.773   3.418
 8893SOL     OW27577   1.196   6.690   3.410
 8893SOL    HW127578   1.154   6.679   3.320
 8893SOL    HW227579   1.289   6.726   3.399
 8894SOL     OW27580   4.338   2.673   5.709
 8894SOL    HW127581   4.347   2.773   5.709
 8894SOL    HW227582   4.409   2.633   5.765
 8895SOL     OW27583   6.729   2.015   2.372
 8895SOL    HW127584   6.775   2.049   2.455
 8895SOL    HW227585   6.752   1.919   2.358
 8896SOL     OW27586   1.671   3.490   5.450
 8896SOL    HW127587   1.732   3.477   5.372
 8896SOL    HW227588   1.576   3.478   5.420
 8897SOL     OW27589   1.935   3.094   3.208
 8897SOL    HW127590   1.979   3.018   3.256
 8897SOL    HW227591   1.840   3.102   3.238
 8898SOL     OW27592   5.244   3.752   3.474
 8898SOL    HW127593   5.202   3.661   3.472
 8898SOL    HW227594   5.206   3.808   3.400
 8899SOL     OW27595   2.092   4.858   0.936
 8899SOL    HW127596   2.112   4.818   1.026
 8899SOL    HW227597   2.175   4.899   0.899
 8900SOL     OW27598   6.133   3.130   2.272
 8900SOL    HW127599   6.078   3.210   2.298
 8900SOL    HW227600   6.076   3.048   2.274
 8901SOL     OW27601   1.449   1.286   4.540
 8901SOL    HW127602   1.536   1.307   4.585
 8901SOL    HW227603   1.396   1.370   4.528
 8902SOL     OW27604   2.251   6.821   1.059
 8902SOL    HW127605   2.315   6.826   0.981
 8902SOL    HW227606   2.246   6.727   1.092
 8903SOL     OW27607   0.745   1.138   4.491
 8903SOL    HW127608   0.836   1.099   4.510
 8903SOL    HW227609   0.679   1.100   4.556
 8904SOL     OW27610   6.041   6.100   3.783
 8904SOL    HW127611   6.044   6.015   3.730
 8904SOL    HW227612   6.013   6.080   3.876
 8905SOL     OW27613   1.771   4.642   4.044
 8905SOL    HW127614   1.831   4.584   4.099
 8905SOL    HW227615   1.811   4.734   4.038
 8906SOL     OW27616   0.037   6.532   0.040
 8906SOL    HW127617   0.035   6.482   6.976
 8906SOL    HW227618   0.098   6.487   0.105
 8907SOL     OW27619   2.854   2.206   4.698
 8907SOL    HW127620   2.895   2.292   4.669
 8907SOL    HW227621   2.851   2.142   4.621
 8908SOL     OW27622   0.946   3.700   6.794
 8908SOL    HW127623   0.997   3.623   6.758
 8908SOL    HW227624   0.852   3.696   6.761
 8909SOL     OW27625   2.146   0.862   5.262
 8909SOL    HW127626   2.173   0.784   5.205
 8909SOL    HW227627   2.197   0.858   5.349
 8910SOL     OW27628   0.293   2.967   6.039
 8910SOL    HW127629   0.257   3.051   6.000
 8910SOL    HW227630   0.220   2.918   6.088
 8911SOL     OW27631   4.422   2.366   4.957
 8911SOL    HW127632   4.498   2.362   5.022
 8911SOL    HW227633   4.336   2.379   5.007
 8912SOL     OW27634   3.867   3.002   0.670
 8912SOL    HW127635   3.776   3.042   0.682
 8912SOL    HW227636   3.860   2.903   0.672
 8913SOL     OW27637   4.803   5.312   6.081
 8913SOL    HW127638   4.715   5.269   6.101
 8913SOL    HW227639   4.814   5.393   6.139
 8914SOL     OW27640   3.652   0.211   4.151
 8914SOL    HW127641   3.663   0.234   4.247
 8914SOL    HW227642   3.739   0.222   4.103
 8915SOL     OW27643   0.806   2.707   3.786
 8915SOL    HW127644   0.830   2.611   3.802
 8915SOL    HW227645   0.714   2.711   3.747
 8916SOL     OW27646   0.141   3.614   0.422
 8916SOL    HW127647   0.157   3.540   0.356
 8916SOL    HW227648   0.124   3.699   0.373
 8917SOL     OW27649   6.524   3.768   6.550
 8917SOL    HW127650   6.514   3.731   6.642
 8917SOL    HW227651   6.598   3.835   6.548
 8918SOL     OW27652   6.753   3.719   1.585
 8918SOL    HW127653   6.741   3.689   1.491
 8918SOL    HW227654   6.665   3.750   1.622
 8919SOL     OW27655   3.918   4.340   0.478
 8919SOL    HW127656   3.918   4.438   0.498
 8919SOL    HW227657   4.000   4.317   0.425
 8920SOL     OW27658   0.795   0.172   0.212
 8920SOL    HW127659   0.873   0.192   0.153
 8920SOL    HW227660   0.819   0.097   0.274
 8921SOL     OW27661   2.196   1.905   2.806
 8921SOL    HW127662   2.134   1.968   2.852
 8921SOL    HW227663   2.245   1.851   2.875
 8922SOL     OW27664   3.735   5.097   1.381
 8922SOL    HW127665   3.683   5.109   1.296
 8922SOL    HW227666   3.675   5.063   1.453
 8923SOL     OW27667   1.302   2.971   6.017
 8923SOL    HW127668   1.349   2.992   6.102
 8923SOL    HW227669   1.315   2.875   5.993
 8924SOL     OW27670   3.035   5.797   6.141
 8924SOL    HW127671   3.038   5.887   6.185
 8924SOL    HW227672   3.126   5.774   6.107
 8925SOL     OW27673   0.548   1.045   2.852
 8925SOL    HW127674   0.541   0.997   2.765
 8925SOL    HW227675   0.629   1.104   2.852
 8926SOL     OW27676   6.054   3.687   5.894
 8926SOL    HW127677   6.012   3.597   5.906
 8926SOL    HW227678   6.128   3.700   5.959
 8927SOL     OW27679   0.864   1.515   4.243
 8927SOL    HW127680   0.813   1.431   4.225
 8927SOL    HW227681   0.801   1.585   4.278
 8928SOL     OW27682   0.084   0.489   5.985
 8928SOL    HW127683   0.111   0.580   6.018
 8928SOL    HW227684   7.006   0.485   5.978
 8929SOL     OW27685   6.557   3.368   4.353
 8929SOL    HW127686   6.518   3.459   4.366
 8929SOL    HW227687   6.547   3.315   4.438
 8930SOL     OW27688   1.358   4.159   4.471
 8930SOL    HW127689   1.346   4.113   4.559
 8930SOL    HW227690   1.450   4.198   4.466
 8931SOL     OW27691   3.142   3.048   1.358
 8931SOL    HW127692   3.058   2.997   1.377
 8931SOL    HW227693   3.221   2.990   1.377
 8932SOL     OW27694   5.514   0.339   0.656
 8932SOL    HW127695   5.581   0.413   0.652
 8932SOL    HW227696   5.455   0.352   0.736
 8933SOL     OW27697   1.790   2.979   6.107
 8933SOL    HW127698   1.849   2.976   6.026
 8933SOL    HW227699   1.840   2.943   6.186
 8934SOL     OW27700   2.938   5.263   4.687
 8934SOL    HW127701   3.023   5.302   4.723
 8934SOL    HW227702   2.917   5.304   4.598
 8935SOL     OW27703   6.011   3.972   1.396
 8935SOL    HW127704   5.915   3.962   1.422
 8935SOL    HW227705   6.034   3.904   1.327
 8936SOL     OW27706   1.109   3.317   1.415
 8936SOL    HW127707   1.188   3.334   1.357
 8936SOL    HW227708   1.109   3.381   1.492
 8937SOL     OW27709   0.307   6.894   4.490
 8937SOL    HW127710   0.393   6.943   4.476
 8937SOL    HW227711   0.238   6.929   4.427
 8938SOL     OW27712   0.292   1.267   0.381
 8938SOL    HW127713   0.244   1.223   0.306
 8938SOL    HW227714   0.325   1.198   0.445
 8939SOL     OW27715   5.702   4.086   4.414
 8939SOL    HW127716   5.649   4.153   4.363
 8939SOL    HW227717   5.642   4.013   4.446
 8940SOL     OW27718   5.609   0.894   1.585
 8940SOL    HW127719   5.564   0.919   1.671
 8940SOL    HW227720   5.641   0.977   1.539
 8941SOL     OW27721   6.461   2.741   3.295
 8941SOL    HW127722   6.379   2.684   3.300
 8941SOL    HW227723   6.497   2.755   3.388
 8942SOL     OW27724   0.780   5.489   5.788
 8942SOL    HW127725   0.770   5.405   5.734
 8942SOL    HW227726   0.693   5.539   5.788
 8943SOL     OW27727   3.698   5.689   0.360
 8943SOL    HW127728   3.693   5.653   0.267
 8943SOL    HW227729   3.637   5.769   0.368
 8944SOL     OW27730   5.303   6.131   4.516
 8944SOL    HW127731   5.248   6.190   4.575
 8944SOL    HW227732   5.371   6.082   4.572
 8945SOL     OW27733   0.165   2.156   4.284
 8945SOL    HW127734   0.145   2.129   4.190
 8945SOL    HW227735   0.094   2.122   4.345
 8946SOL     OW27736   3.896   0.785   4.223
 8946SOL    HW127737   3.862   0.706   4.274
 8946SOL    HW227738   3.976   0.822   4.269
 8947SOL     OW27739   1.944   2.975   5.885
 8947SOL    HW127740   1.956   3.060   5.833
 8947SOL    HW227741   2.010   2.907   5.853
 8948SOL     OW27742   5.935   5.911   3.419
 8948SOL    HW127743   5.893   6.002   3.410
 8948SOL    HW227744   6.018   5.917   3.473
 8949SOL     OW27745   3.808   6.024   0.584
 8949SOL    HW127746   3.821   6.085   0.506
 8949SOL    HW227747   3.748   6.069   0.651
 8950SOL     OW27748   3.818   3.194   0.900
 8950SOL    HW127749   3.739   3.135   0.885
 8950SOL    HW227750   3.842   3.241   0.815
 8951SOL     OW27751   2.184   1.099   5.145
 8951SOL    HW127752   2.110   1.150   5.189
 8951SOL    HW227753   2.193   1.010   5.190
 8952SOL     OW27754   0.720   5.097   3.766
 8952SOL    HW127755   0.786   5.030   3.799
 8952SOL    HW227756   0.627   5.064   3.785
 8953SOL     OW27757   0.417   4.383   0.876
 8953SOL    HW127758   0.472   4.390   0.960
 8953SOL    HW227759   0.423   4.469   0.826
 8954SOL     OW27760   6.851   0.280   4.714
 8954SOL    HW127761   6.927   0.255   4.653
 8954SOL    HW227762   6.887   0.307   4.803
 8955SOL     OW27763   6.841   4.874   3.266
 8955SOL    HW127764   6.840   4.879   3.166
 8955SOL    HW227765   6.824   4.965   3.304
 8956SOL     OW27766   1.810   1.345   5.876
 8956SOL    HW127767   1.901   1.374   5.845
 8956SOL    HW227768   1.769   1.287   5.806
 8957SOL     OW27769   1.910   4.556   1.538
 8957SOL    HW127770   1.817   4.543   1.571
 8957SOL    HW227771   1.907   4.599   1.447
 8958SOL     OW27772   0.896   2.372   5.474
 8958SOL    HW127773   0.962   2.444   5.452
 8958SOL    HW227774   0.867   2.327   5.390
 8959SOL     OW27775   1.883   4.058   3.439
 8959SOL    HW127776   1.850   4.142   3.481
 8959SOL    HW227777   1.899   3.989   3.509
 8960SOL     OW27778   5.412   5.492   4.056
 8960SOL    HW127779   5.494   5.464   4.005
 8960SOL    HW227780   5.345   5.418   4.056
 8961SOL     OW27781   3.832   1.291   3.555
 8961SOL    HW127782   3.918   1.312   3.602
 8961SOL    HW227783   3.853   1.238   3.472
 8962SOL     OW27784   6.131   5.344   2.016
 8962SOL    HW127785   6.168   5.270   2.072
 8962SOL    HW227786   6.125   5.427   2.071
 8963SOL     OW27787   3.823   0.215   4.749
 8963SOL    HW127788   3.872   0.162   4.679
 8963SOL    HW227789   3.881   0.226   4.829
 8964SOL     OW27790   5.936   2.886   2.953
 8964SOL    HW127791   5.962   2.944   2.876
 8964SOL    HW227792   5.991   2.803   2.953
 8965SOL     OW27793   2.552   5.466   0.140
 8965SOL    HW127794   2.632   5.503   0.188
 8965SOL    HW227795   2.479   5.534   0.139
 8966SOL     OW27796   6.657   4.324   0.427
 8966SOL    HW127797   6.750   4.307   0.462
 8966SOL    HW227798   6.606   4.378   0.494
 8967SOL     OW27799   3.762   0.642   1.996
 8967SOL    HW127800   3.764   0.577   2.072
 8967SOL    HW227801   3.855   0.669   1.972
 8968SOL     OW27802   4.311   5.805   2.445
 8968SOL    HW127803   4.226   5.849   2.417
 8968SOL    HW227804   4.320   5.811   2.545
 8969SOL     OW27805   0.122   0.232   4.027
 8969SOL    HW127806   0.102   0.135   4.014
 8969SOL    HW227807   0.166   0.268   3.946
 8970SOL     OW27808   2.175   2.473   6.482
 8970SOL    HW127809   2.220   2.512   6.402
 8970SOL    HW227810   2.244   2.448   6.550
 8971SOL     OW27811   5.540   5.277   0.977
 8971SOL    HW127812   5.442   5.285   0.993
 8971SOL    HW227813   5.582   5.367   0.982
 8972SOL     OW27814   4.507   4.052   0.915
 8972SOL    HW127815   4.506   3.969   0.860
 8972SOL    HW227816   4.413   4.074   0.943
 8973SOL     OW27817   6.774   3.571   3.283
 8973SOL    HW127818   6.844   3.593   3.350
 8973SOL    HW227819   6.716   3.497   3.319
 8974SOL     OW27820   1.680   3.325   4.004
 8974SOL    HW127821   1.640   3.387   3.938
 8974SOL    HW227822   1.609   3.291   4.066
 8975SOL     OW27823   0.825   6.230   6.849
 8975SOL    HW127824   0.922   6.229   6.874
 8975SOL    HW227825   0.785   6.140   6.867
 8976SOL     OW27826   6.660   5.321   0.249
 8976SOL    HW127827   6.631   5.347   0.341
 8976SOL    HW227828   6.579   5.311   0.191
 8977SOL     OW27829   6.405   3.407   6.585
 8977SOL    HW127830   6.391   3.313   6.557
 8977SOL    HW227831   6.441   3.460   6.509
 8978SOL     OW27832   5.582   6.778   4.394
 8978SOL    HW127833   5.655   6.727   4.347
 8978SOL    HW227834   5.493   6.739   4.369
 8979SOL     OW27835   1.417   4.669   6.220
 8979SOL    HW127836   1.365   4.642   6.139
 8979SOL    HW227837   1.500   4.614   6.225
 8980SOL     OW27838   4.917   2.599   5.395
 8980SOL    HW127839   4.958   2.689   5.387
 8980SOL    HW227840   4.827   2.606   5.439
 8981SOL     OW27841   4.563   1.885   5.679
 8981SOL    HW127842   4.600   1.792   5.676
 8981SOL    HW227843   4.638   1.951   5.680
 8982SOL     OW27844   0.576   1.566   1.331
 8982SOL    HW127845   0.481   1.569   1.300
 8982SOL    HW227846   0.583   1.509   1.412
 8983SOL     OW27847   0.554   5.500   0.434
 8983SOL    HW127848   0.569   5.537   0.343
 8983SOL    HW227849   0.577   5.569   0.503
 8984SOL     OW27850   6.322   6.122   3.863
 8984SOL    HW127851   6.234   6.111   3.817
 8984SOL    HW227852   6.381   6.044   3.842
 8985SOL     OW27853   2.399   1.594   0.983
 8985SOL    HW127854   2.393   1.685   0.941
 8985SOL    HW227855   2.489   1.582   1.024
 8986SOL     OW27856   3.965   5.223   2.599
 8986SOL    HW127857   4.028   5.295   2.629
 8986SOL    HW227858   3.955   5.155   2.671
 8987SOL     OW27859   2.949   0.308   1.283
 8987SOL    HW127860   3.032   0.254   1.293
 8987SOL    HW227861   2.956   0.365   1.201
 8988SOL     OW27862   2.096   4.596   0.712
 8988SOL    HW127863   2.042   4.626   0.634
 8988SOL    HW227864   2.128   4.676   0.763
 8989SOL     OW27865   4.859   4.027   2.211
 8989SOL    HW127866   4.819   4.093   2.148
 8989SOL    HW227867   4.959   4.031   2.204
 8990SOL     OW27868   2.335   5.240   1.995
 8990SOL    HW127869   2.384   5.192   2.067
 8990SOL    HW227870   2.249   5.193   1.975
 8991SOL     OW27871   2.352   1.267   0.549
 8991SOL    HW127872   2.402   1.296   0.467
 8991SOL    HW227873   2.409   1.203   0.600
 8992SOL     OW27874   0.048   2.333   6.424
 8992SOL    HW127875   0.053   2.261   6.494
 8992SOL    HW227876   0.077   2.420   6.464
 8993SOL     OW27877   4.689   2.630   2.513
 8993SOL    HW127878   4.666   2.608   2.418
 8993SOL    HW227879   4.718   2.725   2.520
 8994SOL     OW27880   0.939   6.035   4.441
 8994SOL    HW127881   0.879   6.115   4.446
 8994SOL    HW227882   0.884   5.952   4.450
 8995SOL     OW27883   1.130   2.609   5.814
 8995SOL    HW127884   1.101   2.638   5.905
 8995SOL    HW227885   1.134   2.509   5.810
 8996SOL     OW27886   0.013   4.412   2.159
 8996SOL    HW127887   0.067   4.415   2.243
 8996SOL    HW227888   6.990   4.324   2.151
 8997SOL     OW27889   4.322   1.581   6.317
 8997SOL    HW127890   4.320   1.481   6.317
 8997SOL    HW227891   4.292   1.615   6.228
 8998SOL     OW27892   0.486   2.838   4.063
 8998SOL    HW127893   0.430   2.820   4.144
 8998SOL    HW227894   0.515   2.752   4.023
 8999SOL     OW27895   4.525   0.321   6.716
 8999SOL    HW127896   4.519   0.323   6.616
 8999SOL    HW227897   4.611   0.277   6.743
 9000SOL     OW27898   2.365   4.157   6.251
 9000SOL    HW127899   2.329   4.136   6.342
 9000SOL    HW227900   2.409   4.246   6.253
 9001SOL     OW27901   1.439   5.635   2.960
 9001SOL    HW127902   1.443   5.584   2.875
 9001SOL    HW227903   1.350   5.680   2.969
 9002SOL     OW27904   0.194   5.170   5.036
 9002SOL    HW127905   0.213   5.135   4.944
 9002SOL    HW227906   0.152   5.099   5.091
 9003SOL     OW27907   5.502   2.523   1.056
 9003SOL    HW127908   5.429   2.556   0.995
 9003SOL    HW227909   5.507   2.582   1.136
 9004SOL     OW27910   4.460   6.705   1.824
 9004SOL    HW127911   4.457   6.677   1.728
 9004SOL    HW227912   4.454   6.805   1.830
 9005SOL     OW27913   5.875   1.948   4.348
 9005SOL    HW127914   5.832   1.984   4.431
 9005SOL    HW227915   5.806   1.899   4.294
 9006SOL     OW27916   2.030   5.813   0.700
 9006SOL    HW127917   1.937   5.782   0.682
 9006SOL    HW227918   2.088   5.734   0.720
 9007SOL     OW27919   3.781   6.397   4.309
 9007SOL    HW127920   3.694   6.394   4.260
 9007SOL    HW227921   3.783   6.325   4.379
 9008SOL     OW27922   6.419   5.111   2.630
 9008SOL    HW127923   6.427   5.210   2.641
 9008SOL    HW227924   6.376   5.072   2.712
 9009SOL     OW27925   2.284   6.908   0.528
 9009SOL    HW127926   2.272   6.881   0.623
 9009SOL    HW227927   2.341   6.841   0.481
 9010SOL     OW27928   1.210   0.099   4.692
 9010SOL    HW127929   1.277   0.044   4.642
 9010SOL    HW227930   1.120   0.089   4.650
 9011SOL     OW27931   4.173   1.834   1.934
 9011SOL    HW127932   4.105   1.762   1.953
 9011SOL    HW227933   4.137   1.897   1.866
 9012SOL     OW27934   2.794   4.315   1.194
 9012SOL    HW127935   2.785   4.291   1.290
 9012SOL    HW227936   2.780   4.234   1.137
 9013SOL     OW27937   6.673   6.276   4.423
 9013SOL    HW127938   6.658   6.305   4.518
 9013SOL    HW227939   6.605   6.207   4.398
 9014SOL     OW27940   1.213   0.986   0.418
 9014SOL    HW127941   1.210   1.057   0.488
 9014SOL    HW227942   1.281   1.010   0.349
 9015SOL     OW27943   6.377   0.847   0.749
 9015SOL    HW127944   6.347   0.934   0.788
 9015SOL    HW227945   6.329   0.831   0.662
 9016SOL     OW27946   0.361   6.167   6.431
 9016SOL    HW127947   0.318   6.196   6.346
 9016SOL    HW227948   0.344   6.235   6.503
 9017SOL     OW27949   5.035   2.881   2.282
 9017SOL    HW127950   4.948   2.835   2.300
 9017SOL    HW227951   5.071   2.918   2.367
 9018SOL     OW27952   3.942   1.256   5.189
 9018SOL    HW127953   3.846   1.226   5.189
 9018SOL    HW227954   3.946   1.353   5.214
 9019SOL     OW27955   0.457   0.415   1.024
 9019SOL    HW127956   0.471   0.365   1.109
 9019SOL    HW227957   0.545   0.428   0.977
 9020SOL     OW27958   1.354   3.657   1.665
 9020SOL    HW127959   1.414   3.702   1.598
 9020SOL    HW227960   1.396   3.663   1.756
 9021SOL     OW27961   6.484   0.573   3.587
 9021SOL    HW127962   6.501   0.481   3.620
 9021SOL    HW227963   6.464   0.570   3.489
 9022SOL     OW27964   2.970   0.990   1.146
 9022SOL    HW127965   3.044   0.985   1.214
 9022SOL    HW227966   2.914   0.907   1.152
 9023SOL     OW27967   3.300   2.989   2.681
 9023SOL    HW127968   3.210   3.005   2.723
 9023SOL    HW227969   3.288   2.974   2.582
 9024SOL     OW27970   1.064   5.613   5.940
 9024SOL    HW127971   1.064   5.615   5.840
 9024SOL    HW227972   1.010   5.689   5.975
 9025SOL     OW27973   0.181   5.812   0.863
 9025SOL    HW127974   0.155   5.716   0.874
 9025SOL    HW227975   0.121   5.869   0.920
 9026SOL     OW27976   3.553   3.411   2.221
 9026SOL    HW127977   3.522   3.356   2.298
 9026SOL    HW227978   3.508   3.381   2.137
 9027SOL     OW27979   2.078   1.904   3.229
 9027SOL    HW127980   2.073   1.840   3.153
 9027SOL    HW227981   1.991   1.905   3.278
 9028SOL     OW27982   2.553   3.461   6.180
 9028SOL    HW127983   2.467   3.431   6.138
 9028SOL    HW227984   2.616   3.493   6.110
 9029SOL     OW27985   3.381   5.579   5.388
 9029SOL    HW127986   3.415   5.488   5.413
 9029SOL    HW227987   3.337   5.621   5.467
 9030SOL     OW27988   1.956   0.706   3.099
 9030SOL    HW127989   1.889   0.775   3.070
 9030SOL    HW227990   2.048   0.740   3.082
 9031SOL     OW27991   4.954   5.296   5.338
 9031SOL    HW127992   5.046   5.309   5.374
 9031SOL    HW227993   4.929   5.199   5.344
 9032SOL     OW27994   3.558   3.368   0.771
 9032SOL    HW127995   3.652   3.375   0.737
 9032SOL    HW227996   3.556   3.391   0.869
 9033SOL     OW27997   2.354   4.332   3.659
 9033SOL    HW127998   2.445   4.367   3.680
 9033SOL    HW227999   2.339   4.336   3.560
 9034SOL     OW28000   3.194   0.466   4.617
 9034SOL    HW128001   3.181   0.475   4.716
 9034SOL    HW228002   3.210   0.557   4.578
 9035SOL     OW28003   1.226   6.522   5.741
 9035SOL    HW128004   1.294   6.495   5.810
 9035SOL    HW228005   1.160   6.585   5.782
 9036SOL     OW28006   1.465   0.781   5.146
 9036SOL    HW128007   1.496   0.860   5.092
 9036SOL    HW228008   1.516   0.777   5.232
 9037SOL     OW28009   1.314   4.290   5.908
 9037SOL    HW128010   1.247   4.219   5.930
 9037SOL    HW228011   1.405   4.250   5.902
 9038SOL     OW28012   4.165   0.797   5.327
 9038SOL    HW128013   4.086   0.858   5.314
 9038SOL    HW228014   4.197   0.804   5.421
 9039SOL     OW28015   1.845   4.336   4.628
 9039SOL    HW128016   1.780   4.410   4.643
 9039SOL    HW228017   1.938   4.371   4.638
 9040SOL     OW28018   2.857   1.915   3.362
 9040SOL    HW128019   2.833   1.935   3.267
 9040SOL    HW228020   2.780   1.937   3.422
 9041SOL     OW28021   0.504   2.358   1.855
 9041SOL    HW128022   0.489   2.319   1.946
 9041SOL    HW228023   0.417   2.362   1.806
 9042SOL     OW28024   3.104   7.001   3.773
 9042SOL    HW128025   3.037   0.014   3.708
 9042SOL    HW228026   3.111   6.902   3.763
 9043SOL     OW28027   2.083   1.189   6.128
 9043SOL    HW128028   2.118   1.283   6.121
 9043SOL    HW228029   1.985   1.191   6.146
 9044SOL     OW28030   6.282   1.294   1.683
 9044SOL    HW128031   6.267   1.393   1.683
 9044SOL    HW228032   6.345   1.270   1.609
 9045SOL     OW28033   3.641   1.541   2.753
 9045SOL    HW128034   3.550   1.512   2.782
 9045SOL    HW228035   3.700   1.554   2.833
 9046SOL     OW28036   3.151   3.416   3.962
 9046SOL    HW128037   3.060   3.453   3.944
 9046SOL    HW228038   3.179   3.438   4.055
 9047SOL     OW28039   1.668   3.433   5.037
 9047SOL    HW128040   1.761   3.412   5.069
 9047SOL    HW228041   1.664   3.528   5.006
 9048SOL     OW28042   5.783   2.539   6.212
 9048SOL    HW128043   5.875   2.554   6.176
 9048SOL    HW228044   5.728   2.490   6.144
 9049SOL     OW28045   3.997   6.915   6.860
 9049SOL    HW128046   3.987   7.013   6.842
 9049SOL    HW228047   3.974   6.896   6.956
 9050SOL     OW28048   0.503   4.807   5.560
 9050SOL    HW128049   0.504   4.711   5.535
 9050SOL    HW228050   0.548   4.819   5.649
 9051SOL     OW28051   4.577   6.023   0.996
 9051SOL    HW128052   4.520   6.103   0.976
 9051SOL    HW228053   4.543   5.945   0.942
 9052SOL     OW28054   1.893   2.850   3.350
 9052SOL    HW128055   1.871   2.911   3.426
 9052SOL    HW228056   1.947   2.773   3.384
 9053SOL     OW28057   1.900   1.410   3.021
 9053SOL    HW128058   1.956   1.340   3.066
 9053SOL    HW228059   1.850   1.369   2.945
 9054SOL     OW28060   1.641   6.872   2.343
 9054SOL    HW128061   1.675   6.904   2.432
 9054SOL    HW228062   1.543   6.892   2.336
 9055SOL     OW28063   6.456   3.881   3.521
 9055SOL    HW128064   6.502   3.793   3.519
 9055SOL    HW228065   6.523   3.955   3.519
 9056SOL     OW28066   6.334   6.801   1.591
 9056SOL    HW128067   6.377   6.720   1.551
 9056SOL    HW228068   6.236   6.800   1.572
 9057SOL     OW28069   6.194   4.983   6.425
 9057SOL    HW128070   6.114   4.952   6.374
 9057SOL    HW228071   6.272   4.991   6.363
 9058SOL     OW28072   1.886   2.091   3.535
 9058SOL    HW128073   1.844   2.088   3.444
 9058SOL    HW228074   1.855   2.012   3.589
 9059SOL     OW28075   0.721   1.270   4.236
 9059SOL    HW128076   0.646   1.337   4.237
 9059SOL    HW228077   0.730   1.229   4.327
 9060SOL     OW28078   0.302   3.115   1.925
 9060SOL    HW128079   0.306   3.021   1.890
 9060SOL    HW228080   0.314   3.179   1.849
 9061SOL     OW28081   3.348   5.774   2.067
 9061SOL    HW128082   3.332   5.678   2.044
 9061SOL    HW228083   3.386   5.780   2.159
 9062SOL     OW28084   1.928   5.284   2.177
 9062SOL    HW128085   1.901   5.290   2.274
 9062SOL    HW228086   1.846   5.285   2.120
 9063SOL     OW28087   2.360   6.880   2.678
 9063SOL    HW128088   2.450   6.919   2.696
 9063SOL    HW228089   2.351   6.793   2.725
 9064SOL     OW28090   5.604   3.468   4.341
 9064SOL    HW128091   5.662   3.413   4.401
 9064SOL    HW228092   5.519   3.491   4.388
 9065SOL     OW28093   3.400   5.785   6.773
 9065SOL    HW128094   3.390   5.846   6.852
 9065SOL    HW228095   3.324   5.720   6.772
 9066SOL     OW28096   5.724   0.709   0.426
 9066SOL    HW128097   5.631   0.688   0.398
 9066SOL    HW228098   5.783   0.630   0.407
 9067SOL     OW28099   6.006   0.091   4.833
 9067SOL    HW128100   5.993   0.010   4.891
 9067SOL    HW228101   5.977   0.070   4.740
 9068SOL     OW28102   3.055   0.557   5.054
 9068SOL    HW128103   3.113   0.627   5.094
 9068SOL    HW228104   2.971   0.548   5.107
 9069SOL     OW28105   3.057   2.158   1.606
 9069SOL    HW128106   2.978   2.161   1.544
 9069SOL    HW228107   3.025   2.150   1.700
 9070SOL     OW28108   0.734   3.634   5.575
 9070SOL    HW128109   0.814   3.691   5.562
 9070SOL    HW228110   0.732   3.600   5.670
 9071SOL     OW28111   5.031   6.648   0.663
 9071SOL    HW128112   5.100   6.579   0.687
 9071SOL    HW228113   4.940   6.609   0.676
 9072SOL     OW28114   6.035   0.950   1.467
 9072SOL    HW128115   6.079   0.966   1.379
 9072SOL    HW228116   6.095   0.896   1.526
 9073SOL     OW28117   3.368   6.451   0.651
 9073SOL    HW128118   3.369   6.459   0.751
 9073SOL    HW228119   3.381   6.542   0.611
 9074SOL     OW28120   1.846   0.828   2.133
 9074SOL    HW128121   1.822   0.840   2.037
 9074SOL    HW228122   1.940   0.857   2.148
 9075SOL     OW28123   0.610   0.651   1.427
 9075SOL    HW128124   0.694   0.694   1.393
 9075SOL    HW228125   0.532   0.691   1.380
 9076SOL     OW28126   5.651   1.401   5.026
 9076SOL    HW128127   5.659   1.318   5.081
 9076SOL    HW228128   5.741   1.439   5.008
 9077SOL     OW28129   6.013   0.874   6.594
 9077SOL    HW128130   5.996   0.820   6.512
 9077SOL    HW228131   6.107   0.858   6.625
 9078SOL     OW28132   4.845   3.846   0.188
 9078SOL    HW128133   4.944   3.837   0.172
 9078SOL    HW228134   4.800   3.868   0.101
 9079SOL     OW28135   2.190   5.845   4.625
 9079SOL    HW128136   2.148   5.799   4.704
 9079SOL    HW228137   2.130   5.918   4.593
 9080SOL     OW28138   6.005   2.458   0.570
 9080SOL    HW128139   5.997   2.362   0.542
 9080SOL    HW228140   6.025   2.463   0.668
 9081SOL     OW28141   3.498   6.939   2.801
 9081SOL    HW128142   3.569   7.009   2.807
 9081SOL    HW228143   3.486   6.895   2.889
 9082SOL     OW28144   2.631   0.042   5.523
 9082SOL    HW128145   2.604   7.010   5.443
 9082SOL    HW228146   2.602   0.137   5.511
 9083SOL     OW28147   4.017   4.250   6.018
 9083SOL    HW128148   4.088   4.252   6.088
 9083SOL    HW228149   4.050   4.199   5.939
 9084SOL     OW28150   2.867   3.127   5.900
 9084SOL    HW128151   2.783   3.181   5.897
 9084SOL    HW228152   2.946   3.186   5.891
 9085SOL     OW28153   1.367   4.874   0.483
 9085SOL    HW128154   1.371   4.924   0.396
 9085SOL    HW228155   1.275   4.839   0.497
 9086SOL     OW28156   0.394   4.653   0.816
 9086SOL    HW128157   0.295   4.654   0.826
 9086SOL    HW228158   0.419   4.683   0.723
 9087SOL     OW28159   4.836   2.620   1.935
 9087SOL    HW128160   4.838   2.720   1.937
 9087SOL    HW228161   4.822   2.589   1.841
 9088SOL     OW28162   6.357   5.836   0.809
 9088SOL    HW128163   6.392   5.866   0.720
 9088SOL    HW228164   6.422   5.772   0.850
 9089SOL     OW28165   5.201   5.963   4.964
 9089SOL    HW128166   5.262   5.886   4.984
 9089SOL    HW228167   5.170   5.957   4.869
 9090SOL     OW28168   6.490   6.330   3.950
 9090SOL    HW128169   6.448   6.244   3.923
 9090SOL    HW228170   6.467   6.350   4.045
 9091SOL     OW28171   2.759   3.830   1.046
 9091SOL    HW128172   2.835   3.777   1.084
 9091SOL    HW228173   2.717   3.779   0.970
 9092SOL     OW28174   0.025   1.658   0.601
 9092SOL    HW128175   0.065   1.658   0.692
 9092SOL    HW228176   6.977   1.729   0.595
 9093SOL     OW28177   1.385   6.299   6.204
 9093SOL    HW128178   1.420   6.212   6.169
 9093SOL    HW228179   1.436   6.325   6.285
 9094SOL     OW28180   6.003   5.312   2.727
 9094SOL    HW128181   5.982   5.291   2.823
 9094SOL    HW228182   5.918   5.322   2.676
 9095SOL     OW28183   4.584   4.003   6.721
 9095SOL    HW128184   4.536   4.046   6.797
 9095SOL    HW228185   4.655   4.066   6.687
 9096SOL     OW28186   5.839   4.029   2.005
 9096SOL    HW128187   5.866   4.058   1.913
 9096SOL    HW228188   5.817   3.932   2.003
 9097SOL     OW28189   1.278   2.294   6.713
 9097SOL    HW128190   1.264   2.286   6.614
 9097SOL    HW228191   1.189   2.290   6.759
 9098SOL     OW28192   3.568   2.597   6.666
 9098SOL    HW128193   3.558   2.682   6.614
 9098SOL    HW228194   3.562   2.618   6.764
 9099SOL     OW28195   2.753   3.122   0.048
 9099SOL    HW128196   2.791   3.091   0.135
 9099SOL    HW228197   2.655   3.103   0.046
 9100SOL     OW28198   0.783   3.862   4.306
 9100SOL    HW128199   0.724   3.781   4.312
 9100SOL    HW228200   0.757   3.916   4.226
 9101SOL     OW28201   2.641   2.312   3.000
 9101SOL    HW128202   2.591   2.244   2.946
 9101SOL    HW228203   2.612   2.404   2.974
 9102SOL     OW28204   2.893   0.338   1.976
 9102SOL    HW128205   2.935   0.285   2.050
 9102SOL    HW228206   2.794   0.327   1.980
 9103SOL     OW28207   5.972   3.296   6.296
 9103SOL    HW128208   5.913   3.299   6.215
 9103SOL    HW228209   5.986   3.202   6.324
 9104SOL     OW28210   6.172   6.621   2.174
 9104SOL    HW128211   6.266   6.617   2.208
 9104SOL    HW228212   6.170   6.593   2.078
 9105SOL     OW28213   1.772   1.679   6.816
 9105SOL    HW128214   1.751   1.665   6.719
 9105SOL    HW228215   1.753   1.774   6.841
 9106SOL     OW28216   0.084   4.027   6.758
 9106SOL    HW128217   0.135   4.108   6.729
 9106SOL    HW228218   0.028   4.049   6.837
 9107SOL     OW28219   3.434   0.965   6.290
 9107SOL    HW128220   3.390   1.030   6.227
 9107SOL    HW228221   3.469   0.888   6.237
 9108SOL     OW28222   4.545   3.711   5.411
 9108SOL    HW128223   4.519   3.798   5.370
 9108SOL    HW228224   4.571   3.646   5.339
 9109SOL     OW28225   0.448   3.010   2.578
 9109SOL    HW128226   0.516   3.079   2.604
 9109SOL    HW228227   0.416   2.962   2.659
 9110SOL     OW28228   2.126   3.616   3.802
 9110SOL    HW128229   2.126   3.578   3.709
 9110SOL    HW228230   2.046   3.676   3.813
 9111SOL     OW28231   4.690   1.508   0.745
 9111SOL    HW128232   4.615   1.456   0.705
 9111SOL    HW228233   4.679   1.605   0.723
 9112SOL     OW28234   0.488   4.925   3.602
 9112SOL    HW128235   0.453   4.947   3.693
 9112SOL    HW228236   0.525   4.832   3.603
 9113SOL     OW28237   5.387   1.302   2.834
 9113SOL    HW128238   5.330   1.221   2.850
 9113SOL    HW228239   5.343   1.362   2.768
 9114SOL     OW28240   0.664   4.512   2.136
 9114SOL    HW128241   0.740   4.457   2.173
 9114SOL    HW228242   0.693   4.607   2.126
 9115SOL     OW28243   6.916   5.163   5.119
 9115SOL    HW128244   6.994   5.199   5.069
 9115SOL    HW228245   6.882   5.081   5.073
 9116SOL     OW28246   6.704   1.063   2.066
 9116SOL    HW128247   6.736   0.980   2.020
 9116SOL    HW228248   6.677   1.041   2.160
 9117SOL     OW28249   6.038   2.815   0.267
 9117SOL    HW128250   6.024   2.914   0.279
 9117SOL    HW228251   6.136   2.796   0.261
 9118SOL     OW28252   6.530   3.701   0.451
 9118SOL    HW128253   6.436   3.722   0.479
 9118SOL    HW228254   6.555   3.610   0.483
 9119SOL     OW28255   4.861   0.257   2.109
 9119SOL    HW128256   4.829   0.351   2.094
 9119SOL    HW228257   4.901   0.250   2.201
 9120SOL     OW28258   6.381   2.013   5.797
 9120SOL    HW128259   6.300   2.003   5.739
 9120SOL    HW228260   6.353   2.033   5.891
 9121SOL     OW28261   3.762   1.128   4.916
 9121SOL    HW128262   3.840   1.067   4.931
 9121SOL    HW228263   3.706   1.131   4.999
 9122SOL     OW28264   1.856   4.041   2.339
 9122SOL    HW128265   1.916   3.961   2.343
 9122SOL    HW228266   1.834   4.062   2.244
 9123SOL     OW28267   2.664   0.875   3.629
 9123SOL    HW128268   2.665   0.788   3.578
 9123SOL    HW228269   2.695   0.858   3.723
 9124SOL     OW28270   5.276   6.246   0.216
 9124SOL    HW128271   5.271   6.251   0.116
 9124SOL    HW228272   5.204   6.185   0.249
 9125SOL     OW28273   4.764   3.831   0.856
 9125SOL    HW128274   4.827   3.876   0.920
 9125SOL    HW228275   4.787   3.734   0.850
 9126SOL     OW28276   6.449   3.566   1.409
 9126SOL    HW128277   6.436   3.665   1.402
 9126SOL    HW228278   6.362   3.523   1.433
 9127SOL     OW28279   6.984   2.051   6.301
 9127SOL    HW128280   6.943   2.095   6.220
 9127SOL    HW228281   6.929   2.073   6.382
 9128SOL     OW28282   5.576   1.732   5.406
 9128SOL    HW128283   5.585   1.637   5.436
 9128SOL    HW228284   5.592   1.793   5.484
 9129SOL     OW28285   0.558   2.557   0.346
 9129SOL    HW128286   0.476   2.553   0.289
 9129SOL    HW228287   0.604   2.468   0.345
 9130SOL     OW28288   0.360   3.341   6.202
 9130SOL    HW128289   0.432   3.325   6.134
 9130SOL    HW228290   0.279   3.378   6.157
 9131SOL     OW28291   5.889   2.825   5.100
 9131SOL    HW128292   5.931   2.738   5.074
 9131SOL    HW228293   5.958   2.883   5.143
 9132SOL     OW28294   0.504   5.770   4.134
 9132SOL    HW128295   0.489   5.708   4.056
 9132SOL    HW228296   0.557   5.723   4.204
 9133SOL     OW28297   3.603   6.513   1.546
 9133SOL    HW128298   3.537   6.534   1.618
 9133SOL    HW228299   3.554   6.483   1.464
 9134SOL     OW28300   4.291   5.743   1.077
 9134SOL    HW128301   4.195   5.764   1.056
 9134SOL    HW228302   4.320   5.664   1.023
 9135SOL     OW28303   6.668   6.788   1.534
 9135SOL    HW128304   6.653   6.727   1.612
 9135SOL    HW228305   6.753   6.762   1.488
 9136SOL     OW28306   4.891   6.595   6.911
 9136SOL    HW128307   4.876   6.553   6.821
 9136SOL    HW228308   4.811   6.577   6.969
 9137SOL     OW28309   5.437   1.027   0.361
 9137SOL    HW128310   5.458   1.120   0.333
 9137SOL    HW228311   5.507   0.994   0.424
 9138SOL     OW28312   0.097   5.940   6.709
 9138SOL    HW128313   0.197   5.940   6.716
 9138SOL    HW228314   0.058   5.964   6.798
 9139SOL     OW28315   2.161   1.666   3.349
 9139SOL    HW128316   2.203   1.756   3.333
 9139SOL    HW228317   2.062   1.677   3.356
 9140SOL     OW28318   0.076   3.428   2.922
 9140SOL    HW128319   7.015   3.386   2.957
 9140SOL    HW228320   0.066   3.445   2.824
 9141SOL     OW28321   5.178   0.605   0.631
 9141SOL    HW128322   5.241   0.586   0.706
 9141SOL    HW228323   5.157   0.702   0.628
 9142SOL     OW28324   0.751   2.935   0.885
 9142SOL    HW128325   0.674   2.997   0.869
 9142SOL    HW228326   0.737   2.886   0.970
 9143SOL     OW28327   6.437   3.485   0.167
 9143SOL    HW128328   6.384   3.534   0.098
 9143SOL    HW228329   6.415   3.520   0.258
 9144SOL     OW28330   2.318   4.914   4.675
 9144SOL    HW128331   2.375   4.836   4.647
 9144SOL    HW228332   2.376   4.985   4.714
 9145SOL     OW28333   0.558   5.716   6.802
 9145SOL    HW128334   0.627   5.653   6.838
 9145SOL    HW228335   0.602   5.785   6.746
 9146SOL     OW28336   5.372   3.167   3.668
 9146SOL    HW128337   5.451   3.114   3.697
 9146SOL    HW228338   5.401   3.260   3.645
 9147SOL     OW28339   6.072   0.033   5.428
 9147SOL    HW128340   6.034   0.039   5.336
 9147SOL    HW228341   6.113   0.121   5.453
 9148SOL     OW28342   5.509   6.173   1.425
 9148SOL    HW128343   5.530   6.086   1.468
 9148SOL    HW228344   5.586   6.202   1.368
 9149SOL     OW28345   5.611   4.212   2.524
 9149SOL    HW128346   5.616   4.114   2.545
 9149SOL    HW228347   5.632   4.265   2.607
 9150SOL     OW28348   3.798   5.355   1.468
 9150SOL    HW128349   3.728   5.377   1.536
 9150SOL    HW228350   3.779   5.265   1.429
 9151SOL     OW28351   2.425   4.637   3.549
 9151SOL    HW128352   2.406   4.732   3.575
 9151SOL    HW228353   2.494   4.599   3.610
 9152SOL     OW28354   2.192   4.460   4.911
 9152SOL    HW128355   2.289   4.475   4.893
 9152SOL    HW228356   2.179   4.423   5.003
 9153SOL     OW28357   0.327   2.910   7.013
 9153SOL    HW128358   0.334   2.925   0.089
 9153SOL    HW228359   0.267   2.979   6.973
 9154SOL     OW28360   4.987   4.576   6.559
 9154SOL    HW128361   5.003   4.604   6.464
 9154SOL    HW228362   4.921   4.638   6.602
 9155SOL     OW28363   1.356   3.847   2.166
 9155SOL    HW128364   1.405   3.920   2.213
 9155SOL    HW228365   1.342   3.770   2.229
 9156SOL     OW28366   1.120   2.221   0.482
 9156SOL    HW128367   1.147   2.128   0.506
 9156SOL    HW228368   1.064   2.260   0.556
 9157SOL     OW28369   1.592   3.722   6.430
 9157SOL    HW128370   1.653   3.684   6.499
 9157SOL    HW228371   1.647   3.766   6.358
 9158SOL     OW28372   5.970   3.576   4.131
 9158SOL    HW128373   5.888   3.588   4.187
 9158SOL    HW228374   5.991   3.661   4.084
 9159SOL     OW28375   1.500   1.262   2.321
 9159SOL    HW128376   1.534   1.310   2.240
 9159SOL    HW228377   1.514   1.320   2.402
 9160SOL     OW28378   6.839   6.578   5.806
 9160SOL    HW128379   6.786   6.618   5.731
 9160SOL    HW228380   6.908   6.644   5.837
 9161SOL     OW28381   5.383   5.173   4.089
 9161SOL    HW128382   5.392   5.150   3.992
 9161SOL    HW228383   5.291   5.209   4.106
 9162SOL     OW28384   4.247   0.853   3.470
 9162SOL    HW128385   4.332   0.887   3.429
 9162SOL    HW228386   4.245   0.877   3.567
 9163SOL     OW28387   0.805   2.446   4.440
 9163SOL    HW128388   0.899   2.465   4.413
 9163SOL    HW228389   0.776   2.359   4.403
 9164SOL     OW28390   2.429   0.440   0.146
 9164SOL    HW128391   2.340   0.398   0.167
 9164SOL    HW228392   2.497   0.368   0.130
 9165SOL     OW28393   6.179   1.196   5.381
 9165SOL    HW128394   6.255   1.195   5.316
 9165SOL    HW228395   6.106   1.136   5.347
 9166SOL     OW28396   4.378   5.959   1.211
 9166SOL    HW128397   4.352   5.879   1.157
 9166SOL    HW228398   4.457   6.004   1.169
 9167SOL     OW28399   2.352   1.822   6.410
 9167SOL    HW128400   2.368   1.921   6.416
 9167SOL    HW228401   2.254   1.805   6.402
 9168SOL     OW28402   6.735   6.016   5.762
 9168SOL    HW128403   6.753   6.031   5.859
 9168SOL    HW228404   6.711   5.920   5.747
 9169SOL     OW28405   6.638   0.117   6.221
 9169SOL    HW128406   6.545   0.098   6.251
 9169SOL    HW228407   6.679   0.034   6.182
 9170SOL     OW28408   1.824   0.366   6.653
 9170SOL    HW128409   1.814   0.426   6.732
 9170SOL    HW228410   1.755   0.391   6.584
 9171SOL     OW28411   3.596   5.847   0.572
 9171SOL    HW128412   3.686   5.865   0.612
 9171SOL    HW228413   3.585   5.901   0.489
 9172SOL     OW28414   5.172   1.139   2.924
 9172SOL    HW128415   5.080   1.173   2.943
 9172SOL    HW228416   5.211   1.100   3.007
 9173SOL     OW28417   5.656   4.448   5.997
 9173SOL    HW128418   5.625   4.409   5.911
 9173SOL    HW228419   5.578   4.461   6.058
 9174SOL     OW28420   6.902   4.258   0.506
 9174SOL    HW128421   6.951   4.199   0.443
 9174SOL    HW228422   6.967   4.307   0.564
 9175SOL     OW28423   1.403   6.194   6.666
 9175SOL    HW128424   1.375   6.115   6.612
 9175SOL    HW228425   1.322   6.239   6.704
 9176SOL     OW28426   2.297   1.215   2.896
 9176SOL    HW128427   2.245   1.300   2.886
 9176SOL    HW228428   2.381   1.221   2.840
 9177SOL     OW28429   0.735   4.866   4.067
 9177SOL    HW128430   0.786   4.788   4.032
 9177SOL    HW228431   0.729   4.859   4.167
 9178SOL     OW28432   1.954   5.515   0.797
 9178SOL    HW128433   1.966   5.442   0.729
 9178SOL    HW228434   1.935   5.474   0.886
 9179SOL     OW28435   2.203   5.431   3.892
 9179SOL    HW128436   2.294   5.452   3.859
 9179SOL    HW228437   2.165   5.511   3.938
 9180SOL     OW28438   6.602   2.486   3.220
 9180SOL    HW128439   6.570   2.397   3.252
 9180SOL    HW228440   6.525   2.550   3.216
 9181SOL     OW28441   5.784   2.300   4.391
 9181SOL    HW128442   5.853   2.291   4.464
 9181SOL    HW228443   5.794   2.389   4.347
 9182SOL     OW28444   2.764   0.032   3.067
 9182SOL    HW128445   2.735   0.113   3.118
 9182SOL    HW228446   2.759   0.050   2.969
 9183SOL     OW28447   4.475   4.315   6.944
 9183SOL    HW128448   4.559   4.281   6.987
 9183SOL    HW228449   4.421   4.237   6.912
 9184SOL     OW28450   4.486   2.089   1.258
 9184SOL    HW128451   4.472   2.033   1.340
 9184SOL    HW228452   4.583   2.112   1.249
 9185SOL     OW28453   6.082   6.254   5.419
 9185SOL    HW128454   6.101   6.197   5.339
 9185SOL    HW228455   6.120   6.210   5.501
 9186SOL     OW28456   5.715   0.031   4.376
 9186SOL    HW128457   5.716   6.980   4.444
 9186SOL    HW228458   5.685   0.116   4.419
 9187SOL     OW28459   3.284   2.111   0.308
 9187SOL    HW128460   3.381   2.124   0.291
 9187SOL    HW228461   3.231   2.148   0.232
 9188SOL     OW28462   2.218   0.436   1.909
 9188SOL    HW128463   2.266   0.350   1.925
 9188SOL    HW228464   2.264   0.510   1.958
 9189SOL     OW28465   3.055   5.800   2.078
 9189SOL    HW128466   3.152   5.778   2.091
 9189SOL    HW228467   3.037   5.814   1.981
 9190SOL     OW28468   1.476   3.250   5.492
 9190SOL    HW128469   1.567   3.208   5.492
 9190SOL    HW228470   1.430   3.227   5.578
 9191SOL     OW28471   5.721   0.831   6.988
 9191SOL    HW128472   5.806   0.826   6.935
 9191SOL    HW228473   5.676   0.918   6.971
 9192SOL     OW28474   0.110   2.339   6.171
 9192SOL    HW128475   0.081   2.323   6.265
 9192SOL    HW228476   0.150   2.430   6.163
 9193SOL     OW28477   4.163   3.634   4.931
 9193SOL    HW128478   4.177   3.554   4.990
 9193SOL    HW228479   4.178   3.608   4.836
 9194SOL     OW28480   3.121   0.835   2.503
 9194SOL    HW128481   3.067   0.787   2.572
 9194SOL    HW228482   3.218   0.815   2.516
 9195SOL     OW28483   1.294   3.853   3.183
 9195SOL    HW128484   1.249   3.773   3.143
 9195SOL    HW228485   1.232   3.898   3.247
 9196SOL     OW28486   5.660   6.507   3.638
 9196SOL    HW128487   5.625   6.558   3.559
 9196SOL    HW228488   5.686   6.415   3.609
 9197SOL     OW28489   3.137   4.798   1.073
 9197SOL    HW128490   3.053   4.834   1.114
 9197SOL    HW228491   3.142   4.699   1.088
 9198SOL     OW28492   6.459   4.388   6.500
 9198SOL    HW128493   6.510   4.358   6.580
 9198SOL    HW228494   6.448   4.312   6.437
 9199SOL     OW28495   6.833   3.007   5.698
 9199SOL    HW128496   6.770   3.079   5.729
 9199SOL    HW228497   6.862   3.027   5.604
 9200SOL     OW28498   3.165   6.070   5.776
 9200SOL    HW128499   3.232   6.078   5.851
 9200SOL    HW228500   3.213   6.069   5.689
 9201SOL     OW28501   6.719   3.448   0.179
 9201SOL    HW128502   6.621   3.449   0.197
 9201SOL    HW228503   6.752   3.542   0.171
 9202SOL     OW28504   0.978   6.337   3.434
 9202SOL    HW128505   1.059   6.385   3.467
 9202SOL    HW228506   0.963   6.358   3.338
 9203SOL     OW28507   6.348   3.260   5.859
 9203SOL    HW128508   6.323   3.317   5.781
 9203SOL    HW228509   6.378   3.170   5.826
 9204SOL     OW28510   4.913   3.803   4.385
 9204SOL    HW128511   4.937   3.752   4.468
 9204SOL    HW228512   4.821   3.841   4.395
 9205SOL     OW28513   5.235   5.784   3.511
 9205SOL    HW128514   5.150   5.745   3.475
 9205SOL    HW228515   5.214   5.844   3.588
 9206SOL     OW28516   3.460   5.889   3.299
 9206SOL    HW128517   3.486   5.796   3.275
 9206SOL    HW228518   3.361   5.900   3.289
 9207SOL     OW28519   4.541   4.231   0.536
 9207SOL    HW128520   4.492   4.317   0.550
 9207SOL    HW228521   4.638   4.243   0.560
 9208SOL     OW28522   5.629   4.592   2.609
 9208SOL    HW128523   5.580   4.592   2.522
 9208SOL    HW228524   5.568   4.622   2.682
 9209SOL     OW28525   4.789   0.859   0.500
 9209SOL    HW128526   4.809   0.831   0.594
 9209SOL    HW228527   4.691   0.872   0.489
 9210SOL     OW28528   0.957   1.545   1.185
 9210SOL    HW128529   0.898   1.625   1.172
 9210SOL    HW228530   0.969   1.530   1.283
 9211SOL     OW28531   6.074   2.630   6.166
 9211SOL    HW128532   6.172   2.647   6.174
 9211SOL    HW228533   6.029   2.711   6.130
 9212SOL     OW28534   5.152   4.513   3.745
 9212SOL    HW128535   5.056   4.530   3.767
 9212SOL    HW228536   5.209   4.543   3.822
 9213SOL     OW28537   4.902   4.989   4.713
 9213SOL    HW128538   4.993   4.950   4.722
 9213SOL    HW228539   4.882   5.047   4.792
 9214SOL     OW28540   6.877   2.688   5.130
 9214SOL    HW128541   6.934   2.627   5.186
 9214SOL    HW228542   6.930   2.769   5.105
 9215SOL     OW28543   1.686   4.157   2.048
 9215SOL    HW128544   1.632   4.077   2.019
 9215SOL    HW228545   1.783   4.139   2.032
 9216SOL     OW28546   2.402   0.090   3.165
 9216SOL    HW128547   2.446   0.177   3.143
 9216SOL    HW228548   2.453   0.044   3.237
 9217SOL     OW28549   6.099   3.392   6.510
 9217SOL    HW128550   6.172   3.324   6.522
 9217SOL    HW228551   6.033   3.357   6.443
 9218SOL     OW28552   3.673   0.910   6.876
 9218SOL    HW128553   3.706   0.999   6.906
 9218SOL    HW228554   3.661   0.850   6.955
 9219SOL     OW28555   4.743   3.885   6.438
 9219SOL    HW128556   4.682   3.807   6.447
 9219SOL    HW228557   4.805   3.888   6.516
 9220SOL     OW28558   1.210   5.925   1.955
 9220SOL    HW128559   1.138   5.890   1.896
 9220SOL    HW228560   1.292   5.944   1.901
 9221SOL     OW28561   1.758   0.336   3.280
 9221SOL    HW128562   1.733   0.357   3.374
 9221SOL    HW228563   1.840   0.387   3.255
 9222SOL     OW28564   2.837   5.533   5.401
 9222SOL    HW128565   2.756   5.529   5.342
 9222SOL    HW228566   2.830   5.461   5.470
 9223SOL     OW28567   1.286   2.087   4.231
 9223SOL    HW128568   1.329   2.174   4.256
 9223SOL    HW228569   1.344   2.039   4.165
 9224SOL     OW28570   0.887   5.604   3.992
 9224SOL    HW128571   0.978   5.624   3.956
 9224SOL    HW228572   0.820   5.607   3.918
 9225SOL     OW28573   2.976   5.920   5.891
 9225SOL    HW128574   3.022   5.898   5.977
 9225SOL    HW228575   3.032   5.984   5.839
 9226SOL     OW28576   0.497   7.013   1.513
 9226SOL    HW128577   0.530   0.069   1.566
 9226SOL    HW228578   0.486   6.934   1.574
 9227SOL     OW28579   2.164   5.384   1.024
 9227SOL    HW128580   2.065   5.397   1.024
 9227SOL    HW228581   2.198   5.396   0.930
 9228SOL     OW28582   2.790   1.318   6.847
 9228SOL    HW128583   2.820   1.369   6.927
 9228SOL    HW228584   2.744   1.234   6.875
 9229SOL     OW28585   0.600   5.039   5.417
 9229SOL    HW128586   0.554   4.951   5.433
 9229SOL    HW228587   0.674   5.026   5.351
 9230SOL     OW28588   4.881   3.264   3.601
 9230SOL    HW128589   4.788   3.259   3.638
 9230SOL    HW228590   4.934   3.331   3.653
 9231SOL     OW28591   1.427   3.785   4.873
 9231SOL    HW128592   1.417   3.830   4.785
 9231SOL    HW228593   1.348   3.727   4.891
 9232SOL     OW28594   3.207   5.270   6.737
 9232SOL    HW128595   3.148   5.294   6.660
 9232SOL    HW228596   3.167   5.304   6.822
 9233SOL     OW28597   5.976   6.096   1.317
 9233SOL    HW128598   5.904   6.092   1.387
 9233SOL    HW228599   6.045   6.163   1.345
 9234SOL     OW28600   3.258   5.699   0.352
 9234SOL    HW128601   3.289   5.607   0.329
 9234SOL    HW228602   3.208   5.697   0.438
 9235SOL     OW28603   2.057   2.615   3.370
 9235SOL    HW128604   2.070   2.593   3.466
 9235SOL    HW228605   2.146   2.620   3.324
 9236SOL     OW28606   2.361   4.268   6.805
 9236SOL    HW128607   2.361   4.253   6.904
 9236SOL    HW228608   2.390   4.361   6.785
 9237SOL     OW28609   0.549   5.887   3.107
 9237SOL    HW128610   0.594   5.962   3.157
 9237SOL    HW228611   0.474   5.924   3.053
 9238SOL     OW28612   2.230   2.617   6.026
 9238SOL    HW128613   2.154   2.553   6.012
 9238SOL    HW228614   2.287   2.619   5.944
 9239SOL     OW28615   0.390   3.521   5.920
 9239SOL    HW128616   0.334   3.598   5.952
 9239SOL    HW228617   0.478   3.522   5.966
 9240SOL     OW28618   5.467   2.781   2.181
 9240SOL    HW128619   5.378   2.813   2.149
 9240SOL    HW228620   5.459   2.747   2.275
 9241SOL     OW28621   0.700   4.914   6.516
 9241SOL    HW128622   0.783   4.956   6.552
 9241SOL    HW228623   0.657   4.976   6.451
 9242SOL     OW28624   1.122   4.299   0.510
 9242SOL    HW128625   1.110   4.386   0.557
 9242SOL    HW228626   1.218   4.287   0.484
 9243SOL     OW28627   0.340   0.553   1.229
 9243SOL    HW128628   0.413   0.516   1.172
 9243SOL    HW228629   0.358   0.650   1.247
 9244SOL     OW28630   3.249   4.927   6.077
 9244SOL    HW128631   3.305   4.888   6.150
 9244SOL    HW228632   3.190   4.999   6.114
 9245SOL     OW28633   0.930   6.150   4.115
 9245SOL    HW128634   0.914   6.051   4.121
 9245SOL    HW228635   0.870   6.189   4.045
 9246SOL     OW28636   6.556   6.838   2.685
 9246SOL    HW128637   6.644   6.821   2.641
 9246SOL    HW228638   6.499   6.895   2.626
 9247SOL     OW28639   2.385   6.047   3.271
 9247SOL    HW128640   2.399   6.041   3.172
 9247SOL    HW228641   2.309   6.108   3.290
 9248SOL     OW28642   3.331   1.958   4.253
 9248SOL    HW128643   3.339   1.860   4.270
 9248SOL    HW228644   3.246   1.977   4.204
 9249SOL     OW28645   3.700   4.756   1.482
 9249SOL    HW128646   3.645   4.801   1.552
 9249SOL    HW228647   3.776   4.816   1.456
 9250SOL     OW28648   5.711   2.476   4.172
 9250SOL    HW128649   5.796   2.529   4.169
 9250SOL    HW228650   5.695   2.434   4.083
 9251SOL     OW28651   3.876   1.842   3.187
 9251SOL    HW128652   3.822   1.867   3.267
 9251SOL    HW228653   3.920   1.924   3.149
 9252SOL     OW28654   4.931   0.731   4.264
 9252SOL    HW128655   5.000   0.800   4.287
 9252SOL    HW228656   4.863   0.771   4.202
 9253SOL     OW28657   5.475   5.453   5.247
 9253SOL    HW128658   5.524   5.527   5.291
 9253SOL    HW228659   5.409   5.414   5.311
 9254SOL     OW28660   5.819   5.097   3.224
 9254SOL    HW128661   5.778   5.117   3.313
 9254SOL    HW228662   5.900   5.040   3.237
 9255SOL     OW28663   4.268   4.143   0.634
 9255SOL    HW128664   4.329   4.070   0.605
 9255SOL    HW228665   4.220   4.180   0.554
 9256SOL     OW28666   2.778   0.089   2.780
 9256SOL    HW128667   2.711   0.144   2.729
 9256SOL    HW228668   2.821   0.023   2.718
 9257SOL     OW28669   0.159   4.555   3.436
 9257SOL    HW128670   0.182   4.645   3.473
 9257SOL    HW228671   0.225   4.530   3.365
 9258SOL     OW28672   3.488   3.990   2.617
 9258SOL    HW128673   3.541   3.919   2.663
 9258SOL    HW228674   3.405   4.010   2.670
 9259SOL     OW28675   0.266   1.922   0.255
 9259SOL    HW128676   0.343   1.985   0.248
 9259SOL    HW228677   0.189   1.957   0.200
 9260SOL     OW28678   6.290   1.473   5.340
 9260SOL    HW128679   6.374   1.514   5.302
 9260SOL    HW228680   6.211   1.528   5.313
 9261SOL     OW28681   2.723   1.114   0.404
 9261SOL    HW128682   2.730   1.202   0.451
 9261SOL    HW228683   2.792   1.110   0.332
 9262SOL     OW28684   6.818   4.674   5.209
 9262SOL    HW128685   6.788   4.636   5.122
 9262SOL    HW228686   6.851   4.600   5.268
 9263SOL     OW28687   5.056   0.449   1.684
 9263SOL    HW128688   5.059   0.358   1.726
 9263SOL    HW228689   5.146   0.473   1.649
 9264SOL     OW28690   5.169   4.469   0.413
 9264SOL    HW128691   5.186   4.412   0.493
 9264SOL    HW228692   5.070   4.475   0.396
 9265SOL     OW28693   4.261   2.369   0.198
 9265SOL    HW128694   4.236   2.305   0.271
 9265SOL    HW228695   4.190   2.439   0.189
 9266SOL     OW28696   1.011   6.446   0.692
 9266SOL    HW128697   1.094   6.391   0.690
 9266SOL    HW228698   0.934   6.390   0.661
 9267SOL     OW28699   0.206   2.346   4.621
 9267SOL    HW128700   0.159   2.258   4.619
 9267SOL    HW228701   0.262   2.356   4.539
 9268SOL     OW28702   1.068   5.205   2.878
 9268SOL    HW128703   1.066   5.171   2.784
 9268SOL    HW228704   1.152   5.173   2.923
 9269SOL     OW28705   4.022   0.926   6.235
 9269SOL    HW128706   4.063   0.995   6.294
 9269SOL    HW228707   4.064   0.837   6.252
 9270SOL     OW28708   4.118   6.451   6.098
 9270SOL    HW128709   4.190   6.385   6.121
 9270SOL    HW228710   4.035   6.429   6.148
 9271SOL     OW28711   6.275   0.352   1.335
 9271SOL    HW128712   6.184   0.372   1.371
 9271SOL    HW228713   6.266   0.288   1.258
 9272SOL     OW28714   0.742   5.919   5.400
 9272SOL    HW128715   0.697   5.989   5.344
 9272SOL    HW228716   0.677   5.881   5.465
 9273SOL     OW28717   6.128   6.905   2.547
 9273SOL    HW128718   6.172   6.820   2.520
 9273SOL    HW228719   6.048   6.922   2.489
 9274SOL     OW28720   6.516   1.438   0.391
 9274SOL    HW128721   6.450   1.513   0.387
 9274SOL    HW228722   6.598   1.463   0.338
 9275SOL     OW28723   6.232   0.824   0.486
 9275SOL    HW128724   6.282   0.777   0.413
 9275SOL    HW228725   6.218   0.920   0.460
 9276SOL     OW28726   1.517   3.782   1.472
 9276SOL    HW128727   1.588   3.769   1.402
 9276SOL    HW228728   1.476   3.873   1.462
 9277SOL     OW28729   4.515   4.589   0.270
 9277SOL    HW128730   4.470   4.503   0.248
 9277SOL    HW228731   4.500   4.612   0.366
 9278SOL     OW28732   1.769   0.196   6.166
 9278SOL    HW128733   1.858   0.226   6.201
 9278SOL    HW228734   1.699   0.263   6.189
 9279SOL     OW28735   3.352   0.405   2.178
 9279SOL    HW128736   3.433   0.462   2.182
 9279SOL    HW228737   3.318   0.389   2.271
 9280SOL     OW28738   2.349   1.730   2.929
 9280SOL    HW128739   2.376   1.651   2.984
 9280SOL    HW228740   2.430   1.772   2.888
 9281SOL     OW28741   2.285   3.532   6.481
 9281SOL    HW128742   2.337   3.458   6.524
 9281SOL    HW228743   2.346   3.586   6.423
 9282SOL     OW28744   5.995   0.655   3.479
 9282SOL    HW128745   6.030   0.747   3.494
 9282SOL    HW228746   6.000   0.603   3.564
 9283SOL     OW28747   5.386   0.697   4.045
 9283SOL    HW128748   5.405   0.673   3.949
 9283SOL    HW228749   5.306   0.756   4.049
 9284SOL     OW28750   2.877   3.432   5.872
 9284SOL    HW128751   2.900   3.510   5.814
 9284SOL    HW228752   2.781   3.439   5.902
 9285SOL     OW28753   5.125   2.671   1.074
 9285SOL    HW128754   5.056   2.632   1.013
 9285SOL    HW228755   5.125   2.621   1.160
 9286SOL     OW28756   5.684   5.451   0.837
 9286SOL    HW128757   5.592   5.477   0.806
 9286SOL    HW228758   5.752   5.489   0.774
 9287SOL     OW28759   3.120   5.019   0.367
 9287SOL    HW128760   3.216   5.013   0.338
 9287SOL    HW228761   3.103   5.110   0.405
 9288SOL     OW28762   4.460   1.483   2.875
 9288SOL    HW128763   4.382   1.541   2.851
 9288SOL    HW228764   4.504   1.518   2.957
 9289SOL     OW28765   4.045   0.641   1.920
 9289SOL    HW128766   4.092   0.554   1.936
 9289SOL    HW228767   4.035   0.656   1.822
 9290SOL     OW28768   5.655   1.183   3.121
 9290SOL    HW128769   5.685   1.141   3.206
 9290SOL    HW228770   5.618   1.113   3.060
 9291SOL     OW28771   1.077   5.524   5.413
 9291SOL    HW128772   1.155   5.475   5.374
 9291SOL    HW228773   0.992   5.485   5.378
 9292SOL     OW28774   2.095   3.404   6.312
 9292SOL    HW128775   2.171   3.450   6.358
 9292SOL    HW228776   2.106   3.305   6.322
 9293SOL     OW28777   5.441   3.221   6.438
 9293SOL    HW128778   5.469   3.187   6.348
 9293SOL    HW228779   5.361   3.171   6.469
 9294SOL     OW28780   4.278   6.645   6.195
 9294SOL    HW128781   4.361   6.618   6.146
 9294SOL    HW228782   4.200   6.596   6.157
 9295SOL     OW28783   5.910   1.075   5.039
 9295SOL    HW128784   5.965   1.157   5.022
 9295SOL    HW228785   5.937   1.003   4.974
 9296SOL     OW28786   1.485   5.696   6.680
 9296SOL    HW128787   1.474   5.755   6.600
 9296SOL    HW228788   1.441   5.739   6.759
 9297SOL     OW28789   0.815   0.005   3.109
 9297SOL    HW128790   0.722   0.010   3.145
 9297SOL    HW228791   0.851   6.935   3.122
 9298SOL     OW28792   0.735   6.300   6.602
 9298SOL    HW128793   0.738   6.240   6.522
 9298SOL    HW228794   0.788   6.259   6.677
 9299SOL     OW28795   0.812   2.362   5.005
 9299SOL    HW128796   0.779   2.372   4.911
 9299SOL    HW228797   0.856   2.273   5.016
 9300SOL     OW28798   0.332   4.301   5.964
 9300SOL    HW128799   0.381   4.245   6.031
 9300SOL    HW228800   0.334   4.256   5.875
 9301SOL     OW28801   5.774   5.305   4.655
 9301SOL    HW128802   5.714   5.380   4.681
 9301SOL    HW228803   5.766   5.288   4.557
 9302SOL     OW28804   2.287   2.520   4.139
 9302SOL    HW128805   2.241   2.443   4.094
 9302SOL    HW228806   2.363   2.551   4.081
 9303SOL     OW28807   2.814   4.081   1.060
 9303SOL    HW128808   2.776   3.990   1.046
 9303SOL    HW228809   2.913   4.074   1.074
 9304SOL     OW28810   3.984   4.669   1.782
 9304SOL    HW128811   4.080   4.644   1.798
 9304SOL    HW228812   3.928   4.587   1.777
 9305SOL     OW28813   3.720   1.075   0.536
 9305SOL    HW128814   3.807   1.117   0.561
 9305SOL    HW228815   3.652   1.097   0.606
 9306SOL     OW28816   0.531   4.548   5.488
 9306SOL    HW128817   0.553   4.463   5.536
 9306SOL    HW228818   0.460   4.530   5.420
 9307SOL     OW28819   0.788   4.056   1.036
 9307SOL    HW128820   0.828   4.016   1.118
 9307SOL    HW228821   0.689   4.062   1.047
 9308SOL     OW28822   1.536   3.160   0.459
 9308SOL    HW128823   1.519   3.096   0.534
 9308SOL    HW228824   1.470   3.235   0.463
 9309SOL     OW28825   4.018   5.267   6.114
 9309SOL    HW128826   3.941   5.204   6.126
 9309SOL    HW228827   3.991   5.342   6.053
 9310SOL     OW28828   6.050   5.551   5.548
 9310SOL    HW128829   6.054   5.643   5.508
 9310SOL    HW228830   6.028   5.559   5.645
 9311SOL     OW28831   4.866   4.588   1.656
 9311SOL    HW128832   4.883   4.493   1.631
 9311SOL    HW228833   4.783   4.594   1.711
 9312SOL     OW28834   1.063   3.684   1.049
 9312SOL    HW128835   1.153   3.728   1.049
 9312SOL    HW228836   1.002   3.734   1.110
 9313SOL     OW28837   6.918   0.318   1.215
 9313SOL    HW128838   6.894   0.404   1.171
 9313SOL    HW228839   7.013   0.323   1.248
 9314SOL     OW28840   6.108   4.417   0.081
 9314SOL    HW128841   6.029   4.371   0.122
 9314SOL    HW228842   6.109   4.399   7.004
 9315SOL     OW28843   6.712   6.941   5.504
 9315SOL    HW128844   6.696   6.860   5.560
 9315SOL    HW228845   6.784   6.922   5.438
 9316SOL     OW28846   5.342   6.336   5.893
 9316SOL    HW128847   5.365   6.308   5.800
 9316SOL    HW228848   5.281   6.416   5.890
 9317SOL     OW28849   5.392   5.748   3.950
 9317SOL    HW128850   5.298   5.746   3.915
 9317SOL    HW228851   5.409   5.664   4.003
 9318SOL     OW28852   5.881   1.205   5.992
 9318SOL    HW128853   5.960   1.262   6.014
 9318SOL    HW228854   5.799   1.261   5.989
 9319SOL     OW28855   2.383   2.468   6.697
 9319SOL    HW128856   2.392   2.463   6.796
 9319SOL    HW228857   2.405   2.561   6.666
 9320SOL     OW28858   3.607   0.757   4.935
 9320SOL    HW128859   3.543   0.804   4.874
 9320SOL    HW228860   3.604   0.800   5.025
 9321SOL     OW28861   0.576   0.474   5.288
 9321SOL    HW128862   0.494   0.474   5.231
 9321SOL    HW228863   0.655   0.503   5.232
 9322SOL     OW28864   0.097   3.444   6.138
 9322SOL    HW128865   0.043   3.475   6.217
 9322SOL    HW228866   0.058   3.360   6.102
 9323SOL     OW28867   1.297   1.034   5.452
 9323SOL    HW128868   1.358   1.104   5.489
 9323SOL    HW228869   1.303   1.033   5.352
 9324SOL     OW28870   1.363   4.516   1.947
 9324SOL    HW128871   1.401   4.585   2.009
 9324SOL    HW228872   1.312   4.448   1.999
 9325SOL     OW28873   6.007   1.540   0.424
 9325SOL    HW128874   6.042   1.581   0.340
 9325SOL    HW228875   5.931   1.479   0.401
 9326SOL     OW28876   2.683   4.733   0.320
 9326SOL    HW128877   2.664   4.782   0.236
 9326SOL    HW228878   2.781   4.733   0.338
 9327SOL     OW28879   4.485   0.166   2.520
 9327SOL    HW128880   4.428   0.246   2.497
 9327SOL    HW228881   4.494   0.108   2.439
 9328SOL     OW28882   2.423   0.870   4.812
 9328SOL    HW128883   2.484   0.875   4.733
 9328SOL    HW228884   2.396   0.963   4.839
 9329SOL     OW28885   5.810   3.630   1.070
 9329SOL    HW128886   5.777   3.630   1.164
 9329SOL    HW228887   5.826   3.725   1.040
 9330SOL     OW28888   6.573   0.137   5.540
 9330SOL    HW128889   6.609   0.226   5.513
 9330SOL    HW228890   6.637   0.065   5.514
 9331SOL     OW28891   2.505   0.934   6.623
 9331SOL    HW128892   2.522   1.026   6.657
 9331SOL    HW228893   2.406   0.918   6.619
 9332SOL     OW28894   4.230   4.897   0.316
 9332SOL    HW128895   4.244   4.944   0.229
 9332SOL    HW228896   4.229   4.798   0.300
 9333SOL     OW28897   3.382   4.879   6.821
 9333SOL    HW128898   3.327   4.907   6.900
 9333SOL    HW228899   3.343   4.796   6.781
 9334SOL     OW28900   5.041   6.573   4.195
 9334SOL    HW128901   5.128   6.619   4.213
 9334SOL    HW228902   5.000   6.544   4.281
 9335SOL     OW28903   1.400   1.148   6.592
 9335SOL    HW128904   1.378   1.093   6.672
 9335SOL    HW228905   1.396   1.245   6.615
 9336SOL     OW28906   3.947   6.694   5.061
 9336SOL    HW128907   4.010   6.616   5.061
 9336SOL    HW228908   3.877   6.681   4.990
 9337SOL     OW28909   4.057   1.056   5.052
 9337SOL    HW128910   4.018   1.119   5.119
 9337SOL    HW228911   3.989   0.986   5.029
 9338SOL     OW28912   6.345   6.897   1.254
 9338SOL    HW128913   6.338   6.958   1.333
 9338SOL    HW228914   6.424   6.837   1.265
 9339SOL     OW28915   5.895   6.605   0.679
 9339SOL    HW128916   5.966   6.586   0.747
 9339SOL    HW228917   5.912   6.551   0.597
 9340SOL     OW28918   4.152   4.819   3.724
 9340SOL    HW128919   4.131   4.916   3.726
 9340SOL    HW228920   4.162   4.785   3.818
 9341SOL     OW28921   6.442   5.015   0.926
 9341SOL    HW128922   6.386   4.984   1.003
 9341SOL    HW228923   6.529   4.965   0.925
 9342SOL     OW28924   3.172   6.898   4.112
 9342SOL    HW128925   3.124   6.853   4.037
 9342SOL    HW228926   3.254   6.944   4.075
 9343SOL     OW28927   4.870   4.126   1.775
 9343SOL    HW128928   4.806   4.058   1.740
 9343SOL    HW228929   4.832   4.168   1.858
 9344SOL     OW28930   5.363   6.223   1.644
 9344SOL    HW128931   5.394   6.209   1.550
 9344SOL    HW228932   5.328   6.316   1.655
 9345SOL     OW28933   6.996   5.172   1.718
 9345SOL    HW128934   6.985   5.109   1.640
 9345SOL    HW228935   0.013   5.258   1.686
 9346SOL     OW28936   5.231   0.843   2.020
 9346SOL    HW128937   5.191   0.922   2.065
 9346SOL    HW228938   5.191   0.759   2.057
 9347SOL     OW28939   3.703   4.238   0.632
 9347SOL    HW128940   3.764   4.282   0.567
 9347SOL    HW228941   3.748   4.158   0.672
 9348SOL     OW28942   2.406   6.150   2.610
 9348SOL    HW128943   2.322   6.125   2.657
 9348SOL    HW228944   2.392   6.236   2.561
 9349SOL     OW28945   5.783   5.050   1.892
 9349SOL    HW128946   5.818   4.972   1.944
 9349SOL    HW228947   5.828   5.134   1.924
 9350SOL     OW28948   6.790   2.568   5.562
 9350SOL    HW128949   6.743   2.574   5.474
 9350SOL    HW228950   6.887   2.590   5.549
 9351SOL     OW28951   3.438   0.395   6.222
 9351SOL    HW128952   3.479   0.418   6.311
 9351SOL    HW228953   3.494   0.324   6.178
 9352SOL     OW28954   3.546   1.360   6.395
 9352SOL    HW128955   3.603   1.327   6.320
 9352SOL    HW228956   3.500   1.283   6.438
 9353SOL     OW28957   0.304   4.239   0.684
 9353SOL    HW128958   0.340   4.265   0.594
 9353SOL    HW228959   0.342   4.299   0.754
 9354SOL     OW28960   0.299   1.945   6.213
 9354SOL    HW128961   0.209   1.943   6.255
 9354SOL    HW228962   0.312   2.031   6.164
 9355SOL     OW28963   0.065   1.784   4.596
 9355SOL    HW128964   0.104   1.819   4.511
 9355SOL    HW228965   0.135   1.733   4.646
 9356SOL     OW28966   4.529   6.016   2.089
 9356SOL    HW128967   4.598   6.056   2.149
 9356SOL    HW228968   4.487   6.089   2.035
 9357SOL     OW28969   1.328   3.295   6.662
 9357SOL    HW128970   1.391   3.315   6.588
 9357SOL    HW228971   1.272   3.216   6.638
 9358SOL     OW28972   6.921   3.146   2.574
 9358SOL    HW128973   7.009   3.148   2.622
 9358SOL    HW228974   6.875   3.234   2.586
 9359SOL     OW28975   1.740   3.766   5.468
 9359SOL    HW128976   1.722   3.676   5.508
 9359SOL    HW228977   1.839   3.778   5.456
 9360SOL     OW28978   1.216   5.601   6.687
 9360SOL    HW128979   1.301   5.601   6.635
 9360SOL    HW228980   1.236   5.594   6.784
 9361SOL     OW28981   1.829   5.648   2.553
 9361SOL    HW128982   1.891   5.570   2.542
 9361SOL    HW228983   1.784   5.641   2.643
 9362SOL     OW28984   2.004   3.485   2.855
 9362SOL    HW128985   2.003   3.406   2.916
 9362SOL    HW228986   1.931   3.549   2.882
 9363SOL     OW28987   3.665   6.539   2.031
 9363SOL    HW128988   3.706   6.600   2.099
 9363SOL    HW228989   3.565   6.540   2.042
 9364SOL     OW28990   3.838   3.331   6.407
 9364SOL    HW128991   3.920   3.386   6.425
 9364SOL    HW228992   3.846   3.287   6.317
 9365SOL     OW28993   2.575   1.928   4.415
 9365SOL    HW128994   2.617   2.019   4.421
 9365SOL    HW228995   2.508   1.927   4.340
 9366SOL     OW28996   3.501   6.375   6.512
 9366SOL    HW128997   3.490   6.471   6.486
 9366SOL    HW228998   3.417   6.325   6.493
 9367SOL     OW28999   0.498   6.714   3.060
 9367SOL    HW129000   0.420   6.658   3.030
 9367SOL    HW229001   0.477   6.755   3.149
 9368SOL     OW29002   2.859   1.108   2.983
 9368SOL    HW129003   2.848   1.192   3.036
 9368SOL    HW229004   2.940   1.058   3.014
 9369SOL     OW29005   6.916   6.297   4.678
 9369SOL    HW129006   6.963   6.259   4.757
 9369SOL    HW229007   6.817   6.290   4.691
 9370SOL     OW29008   5.337   0.125   3.843
 9370SOL    HW129009   5.243   0.097   3.861
 9370SOL    HW229010   5.399   0.075   3.904
 9371SOL     OW29011   2.940   5.404   0.682
 9371SOL    HW129012   2.919   5.363   0.771
 9371SOL    HW229013   2.863   5.390   0.620
 9372SOL     OW29014   5.342   0.068   2.732
 9372SOL    HW129015   5.399   0.053   2.651
 9372SOL    HW229016   5.310   0.163   2.733
 9373SOL     OW29017   4.973   1.888   2.593
 9373SOL    HW129018   5.063   1.866   2.633
 9373SOL    HW229019   4.986   1.928   2.503
 9374SOL     OW29020   0.869   3.782   0.083
 9374SOL    HW129021   0.773   3.776   0.109
 9374SOL    HW229022   0.904   3.690   0.065
 9375SOL     OW29023   0.500   1.211   1.629
 9375SOL    HW129024   0.452   1.138   1.579
 9375SOL    HW229025   0.547   1.172   1.708
 9376SOL     OW29026   2.467   4.103   1.404
 9376SOL    HW129027   2.540   4.168   1.383
 9376SOL    HW229028   2.389   4.152   1.441
 9377SOL     OW29029   1.904   5.815   4.114
 9377SOL    HW129030   1.923   5.813   4.212
 9377SOL    HW229031   1.907   5.909   4.081
 9378SOL     OW29032   1.745   1.199   3.875
 9378SOL    HW129033   1.798   1.162   3.799
 9378SOL    HW229034   1.742   1.299   3.867
 9379SOL     OW29035   4.800   6.495   5.867
 9379SOL    HW129036   4.878   6.458   5.816
 9379SOL    HW229037   4.751   6.421   5.912
 9380SOL     OW29038   4.810   5.583   4.956
 9380SOL    HW129039   4.848   5.575   5.049
 9380SOL    HW229040   4.711   5.596   4.961
 9381SOL     OW29041   4.075   3.109   5.950
 9381SOL    HW129042   3.991   3.148   5.913
 9381SOL    HW229043   4.068   3.009   5.950
 9382SOL     OW29044   3.688   0.790   3.804
 9382SOL    HW129045   3.689   0.872   3.746
 9382SOL    HW229046   3.687   0.817   3.900
 9383SOL     OW29047   0.061   5.862   4.451
 9383SOL    HW129048   0.122   5.816   4.516
 9383SOL    HW229049   0.088   5.839   4.358
 9384SOL     OW29050   4.267   0.377   2.155
 9384SOL    HW129051   4.199   0.307   2.134
 9384SOL    HW229052   4.300   0.417   2.069
 9385SOL     OW29053   4.135   1.026   3.251
 9385SOL    HW129054   4.133   0.958   3.178
 9385SOL    HW229055   4.193   0.994   3.325
 9386SOL     OW29056   2.179   5.792   4.901
 9386SOL    HW129057   2.180   5.879   4.952
 9386SOL    HW229058   2.229   5.723   4.953
 9387SOL     OW29059   3.081   2.046   6.894
 9387SOL    HW129060   3.147   2.024   6.822
 9387SOL    HW229061   2.990   2.058   6.854
 9388SOL     OW29062   3.045   6.355   3.064
 9388SOL    HW129063   3.098   6.351   2.979
 9388SOL    HW229064   2.954   6.317   3.049
 9389SOL     OW29065   2.147   0.601   3.550
 9389SOL    HW129066   2.190   0.670   3.490
 9389SOL    HW229067   2.048   0.600   3.533
 9390SOL     OW29068   5.092   4.601   6.065
 9390SOL    HW129069   5.008   4.548   6.067
 9390SOL    HW229070   5.170   4.540   6.049
 9391SOL     OW29071   1.429   1.456   5.217
 9391SOL    HW129072   1.489   1.505   5.282
 9391SOL    HW229073   1.337   1.494   5.222
 9392SOL     OW29074   5.733   5.476   5.669
 9392SOL    HW129075   5.722   5.559   5.614
 9392SOL    HW229076   5.760   5.400   5.609
 9393SOL     OW29077   2.930   6.908   6.831
 9393SOL    HW129078   2.877   6.882   6.912
 9393SOL    HW229079   3.015   6.953   6.859
 9394SOL     OW29080   6.476   0.426   1.715
 9394SOL    HW129081   6.550   0.488   1.693
 9394SOL    HW229082   6.464   0.421   1.815
 9395SOL     OW29083   3.636   1.712   1.183
 9395SOL    HW129084   3.576   1.690   1.106
 9395SOL    HW229085   3.675   1.627   1.219
 9396SOL     OW29086   2.213   4.042   4.021
 9396SOL    HW129087   2.213   4.080   4.114
 9396SOL    HW229088   2.132   3.985   4.008
 9397SOL     OW29089   3.669   6.773   6.158
 9397SOL    HW129090   3.633   6.790   6.066
 9397SOL    HW229091   3.625   6.835   6.223
 9398SOL     OW29092   6.098   1.195   4.781
 9398SOL    HW129093   6.130   1.237   4.696
 9398SOL    HW229094   6.059   1.266   4.840
 9399SOL     OW29095   1.211   3.046   5.246
 9399SOL    HW129096   1.159   3.117   5.293
 9399SOL    HW229097   1.208   2.962   5.299
 9400SOL     OW29098   4.577   1.178   1.574
 9400SOL    HW129099   4.538   1.086   1.575
 9400SOL    HW229100   4.601   1.203   1.481
 9401SOL     OW29101   6.510   0.786   3.114
 9401SOL    HW129102   6.592   0.811   3.165
 9401SOL    HW229103   6.474   0.868   3.068
 9402SOL     OW29104   1.136   5.176   2.595
 9402SOL    HW129105   1.213   5.122   2.561
 9402SOL    HW229106   1.162   5.272   2.602
 9403SOL     OW29107   6.458   1.136   1.857
 9403SOL    HW129108   6.411   1.166   1.775
 9403SOL    HW229109   6.555   1.121   1.837
 9404SOL     OW29110   0.889   2.415   0.501
 9404SOL    HW129111   0.904   2.483   0.429
 9404SOL    HW229112   0.835   2.457   0.574
 9405SOL     OW29113   2.265   4.303   3.906
 9405SOL    HW129114   2.245   4.215   3.949
 9405SOL    HW229115   2.300   4.289   3.814
 9406SOL     OW29116   6.840   2.812   6.151
 9406SOL    HW129117   6.746   2.780   6.159
 9406SOL    HW229118   6.864   2.867   6.231
 9407SOL     OW29119   2.919   5.132   3.779
 9407SOL    HW129120   2.978   5.060   3.816
 9407SOL    HW229121   2.861   5.167   3.852
 9408SOL     OW29122   6.263   2.802   6.363
 9408SOL    HW129123   6.217   2.773   6.447
 9408SOL    HW229124   6.216   2.881   6.324
 9409SOL     OW29125   6.103   5.332   0.480
 9409SOL    HW129126   6.080   5.424   0.446
 9409SOL    HW229127   6.152   5.282   0.410
 9410SOL     OW29128   1.931   0.556   2.392
 9410SOL    HW129129   1.874   0.633   2.419
 9410SOL    HW229130   1.993   0.583   2.318
 9411SOL     OW29131   3.504   3.634   2.635
 9411SOL    HW129132   3.422   3.681   2.603
 9411SOL    HW229133   3.479   3.564   2.702
 9412SOL     OW29134   0.807   1.202   2.827
 9412SOL    HW129135   0.825   1.204   2.729
 9412SOL    HW229136   0.875   1.145   2.873
 9413SOL     OW29137   4.040   5.777   3.575
 9413SOL    HW129138   4.085   5.831   3.645
 9413SOL    HW229139   4.097   5.697   3.553
 9414SOL     OW29140   3.159   1.260   3.240
 9414SOL    HW129141   3.099   1.340   3.248
 9414SOL    HW229142   3.159   1.209   3.326
 9415SOL     OW29143   2.519   6.769   2.340
 9415SOL    HW129144   2.574   6.834   2.287
 9415SOL    HW229145   2.472   6.817   2.414
 9416SOL     OW29146   6.722   1.775   6.460
 9416SOL    HW129147   6.720   1.864   6.505
 9416SOL    HW229148   6.652   1.771   6.389
 9417SOL     OW29149   4.349   0.854   0.825
 9417SOL    HW129150   4.448   0.866   0.836
 9417SOL    HW229151   4.302   0.898   0.901
 9418SOL     OW29152   3.216   0.565   1.543
 9418SOL    HW129153   3.183   0.481   1.501
 9418SOL    HW229154   3.244   0.629   1.472
 9419SOL     OW29155   2.360   4.224   5.894
 9419SOL    HW129156   2.443   4.238   5.948
 9419SOL    HW229157   2.282   4.265   5.942
 9420SOL     OW29158   5.346   4.957   6.631
 9420SOL    HW129159   5.344   4.907   6.717
 9420SOL    HW229160   5.432   5.008   6.624
 9421SOL     OW29161   2.643   6.671   4.769
 9421SOL    HW129162   2.651   6.764   4.735
 9421SOL    HW229163   2.665   6.607   4.696
 9422SOL     OW29164   3.122   5.579   2.693
 9422SOL    HW129165   3.092   5.672   2.670
 9422SOL    HW229166   3.069   5.514   2.638
 9423SOL     OW29167   2.939   6.813   3.613
 9423SOL    HW129168   2.886   6.898   3.622
 9423SOL    HW229169   2.890   6.738   3.657
 9424SOL     OW29170   4.868   1.927   4.898
 9424SOL    HW129171   4.890   2.009   4.950
 9424SOL    HW229172   4.952   1.879   4.873
 9425SOL     OW29173   5.237   3.904   1.209
 9425SOL    HW129174   5.300   3.859   1.273
 9425SOL    HW229175   5.168   3.954   1.261
 9426SOL     OW29176   3.506   1.667   6.021
 9426SOL    HW129177   3.590   1.660   5.967
 9426SOL    HW229178   3.471   1.760   6.016
 9427SOL     OW29179   3.018   5.638   3.123
 9427SOL    HW129180   2.960   5.691   3.061
 9427SOL    HW229181   2.980   5.640   3.215
 9428SOL     OW29182   6.396   1.260   1.435
 9428SOL    HW129183   6.301   1.291   1.429
 9428SOL    HW229184   6.432   1.246   1.343
 9429SOL     OW29185   1.996   3.796   3.586
 9429SOL    HW129186   2.059   3.802   3.663
 9429SOL    HW229187   2.044   3.761   3.505
 9430SOL     OW29188   0.546   2.832   4.978
 9430SOL    HW129189   0.470   2.784   5.022
 9430SOL    HW229190   0.607   2.870   5.048
 9431SOL     OW29191   6.718   4.234   0.792
 9431SOL    HW129192   6.668   4.243   0.706
 9431SOL    HW229193   6.654   4.249   0.868
 9432SOL     OW29194   5.696   0.321   3.476
 9432SOL    HW129195   5.728   0.290   3.566
 9432SOL    HW229196   5.756   0.284   3.405
 9433SOL     OW29197   3.143   6.033   3.731
 9433SOL    HW129198   3.219   6.091   3.761
 9433SOL    HW229199   3.165   5.993   3.643
 9434SOL     OW29200   5.547   5.767   1.933
 9434SOL    HW129201   5.550   5.669   1.915
 9434SOL    HW229202   5.458   5.790   1.974
 9435SOL     OW29203   0.536   2.688   3.665
 9435SOL    HW129204   0.446   2.665   3.703
 9435SOL    HW229205   0.580   2.604   3.631
 9436SOL     OW29206   1.548   2.932   1.401
 9436SOL    HW129207   1.550   2.869   1.323
 9436SOL    HW229208   1.513   3.021   1.371
 9437SOL     OW29209   1.204   5.758   3.024
 9437SOL    HW129210   1.104   5.752   3.024
 9437SOL    HW229211   1.232   5.840   3.073
 9438SOL     OW29212   0.530   0.205   1.699
 9438SOL    HW129213   0.553   0.201   1.796
 9438SOL    HW229214   0.431   0.205   1.688
 9439SOL     OW29215   0.780   2.797   6.803
 9439SOL    HW129216   0.852   2.757   6.862
 9439SOL    HW229217   0.770   2.894   6.825
 9440SOL     OW29218   3.905   4.873   3.239
 9440SOL    HW129219   3.954   4.910   3.318
 9440SOL    HW229220   3.970   4.860   3.164
 9441SOL     OW29221   6.099   4.601   6.280
 9441SOL    HW129222   6.081   4.699   6.283
 9441SOL    HW229223   6.017   4.553   6.249
 9442SOL     OW29224   4.951   3.759   1.464
 9442SOL    HW129225   4.853   3.772   1.448
 9442SOL    HW229226   4.964   3.700   1.543
 9443SOL     OW29227   2.405   5.164   0.712
 9443SOL    HW129228   2.486   5.222   0.717
 9443SOL    HW229229   2.325   5.217   0.740
 9444SOL     OW29230   1.856   3.631   0.789
 9444SOL    HW129231   1.914   3.639   0.870
 9444SOL    HW229232   1.773   3.579   0.812
 9445SOL     OW29233   6.155   3.527   2.964
 9445SOL    HW129234   6.152   3.451   2.900
 9445SOL    HW229235   6.179   3.494   3.055
 9446SOL     OW29236   6.106   5.531   4.940
 9446SOL    HW129237   6.195   5.498   4.974
 9446SOL    HW229238   6.083   5.482   4.856
 9447SOL     OW29239   5.630   4.892   3.837
 9447SOL    HW129240   5.711   4.914   3.890
 9447SOL    HW229241   5.655   4.831   3.761
 9448SOL     OW29242   7.004   0.187   5.944
 9448SOL    HW129243   7.000   0.203   5.845
 9448SOL    HW229244   6.960   0.263   5.992
 9449SOL     OW29245   5.395   0.042   0.394
 9449SOL    HW129246   5.342   6.980   0.382
 9449SOL    HW229247   5.397   0.067   0.491
 9450SOL     OW29248   2.494   5.877   3.657
 9450SOL    HW129249   2.482   5.817   3.736
 9450SOL    HW229250   2.405   5.901   3.619
 9451SOL     OW29251   4.343   6.370   5.768
 9451SOL    HW129252   4.442   6.383   5.778
 9451SOL    HW229253   4.316   6.284   5.811
 9452SOL     OW29254   1.838   3.675   0.039
 9452SOL    HW129255   1.887   3.733   6.996
 9452SOL    HW229256   1.900   3.604   0.073
 9453SOL     OW29257   2.798   5.121   3.274
 9453SOL    HW129258   2.846   5.052   3.220
 9453SOL    HW229259   2.859   5.156   3.345
 9454SOL     OW29260   3.356   3.459   6.348
 9454SOL    HW129261   3.379   3.433   6.255
 9454SOL    HW229262   3.321   3.380   6.398
 9455SOL     OW29263   2.237   1.922   3.804
 9455SOL    HW129264   2.241   1.839   3.749
 9455SOL    HW229265   2.195   1.902   3.892
 9456SOL     OW29266   0.148   3.411   0.710
 9456SOL    HW129267   0.203   3.491   0.688
 9456SOL    HW229268   0.054   3.426   0.679
 9457SOL     OW29269   1.305   3.974   3.944
 9457SOL    HW129270   1.299   3.992   4.042
 9457SOL    HW229271   1.384   4.022   3.905
 9458SOL     OW29272   0.810   3.626   6.318
 9458SOL    HW129273   0.743   3.555   6.339
 9458SOL    HW229274   0.841   3.669   6.403
 9459SOL     OW29275   5.347   4.695   3.589
 9459SOL    HW129276   5.265   4.650   3.625
 9459SOL    HW229277   5.335   4.794   3.593
 9460SOL     OW29278   1.671   3.949   4.099
 9460SOL    HW129279   1.666   3.944   3.999
 9460SOL    HW229280   1.610   3.880   4.138
 9461SOL     OW29281   0.324   2.117   1.542
 9461SOL    HW129282   0.250   2.146   1.482
 9461SOL    HW229283   0.302   2.028   1.581
 9462SOL     OW29284   1.509   3.625   3.472
 9462SOL    HW129285   1.487   3.720   3.493
 9462SOL    HW229286   1.596   3.601   3.514
 9463SOL     OW29287   6.015   0.336   1.507
 9463SOL    HW129288   5.917   0.323   1.524
 9463SOL    HW229289   6.066   0.257   1.541
 9464SOL     OW29290   5.983   0.486   1.287
 9464SOL    HW129291   5.956   0.574   1.326
 9464SOL    HW229292   6.003   0.421   1.361
 9465SOL     OW29293   0.503   4.021   1.725
 9465SOL    HW129294   0.530   3.957   1.797
 9465SOL    HW229295   0.571   4.020   1.653
 9466SOL     OW29296   3.623   4.996   5.054
 9466SOL    HW129297   3.676   4.981   4.971
 9466SOL    HW229298   3.554   5.067   5.037
 9467SOL     OW29299   1.456   2.303   1.218
 9467SOL    HW129300   1.536   2.281   1.163
 9467SOL    HW229301   1.414   2.387   1.185
 9468SOL     OW29302   5.591   3.853   6.329
 9468SOL    HW129303   5.522   3.829   6.398
 9468SOL    HW229304   5.653   3.922   6.367
 9469SOL     OW29305   0.197   4.628   1.975
 9469SOL    HW129306   0.170   4.532   1.963
 9469SOL    HW229307   0.115   4.685   1.979
 9470SOL     OW29308   5.041   3.473   6.446
 9470SOL    HW129309   4.941   3.476   6.458
 9470SOL    HW229310   5.074   3.565   6.425
 9471SOL     OW29311   6.390   2.499   4.329
 9471SOL    HW129312   6.435   2.412   4.347
 9471SOL    HW229313   6.296   2.483   4.301
 9472SOL     OW29314   6.292   2.563   5.068
 9472SOL    HW129315   6.351   2.629   5.020
 9472SOL    HW229316   6.320   2.558   5.164
 9473SOL     OW29317   3.097   5.254   0.491
 9473SOL    HW129318   3.060   5.311   0.564
 9473SOL    HW229319   3.197   5.253   0.498
 9474SOL     OW29320   7.014   3.616   0.107
 9474SOL    HW129321   0.007   3.596   0.010
 9474SOL    HW229322   0.035   3.544   0.162
 9475SOL     OW29323   3.582   2.847   0.608
 9475SOL    HW129324   3.576   2.945   0.626
 9475SOL    HW229325   3.592   2.832   0.510
 9476SOL     OW29326   4.104   3.750   4.189
 9476SOL    HW129327   4.203   3.767   4.185
 9476SOL    HW229328   4.079   3.687   4.115
 9477SOL     OW29329   0.894   2.882   0.083
 9477SOL    HW129330   0.953   2.920   0.155
 9477SOL    HW229331   0.804   2.862   0.122
 9478SOL     OW29332   5.281   3.280   1.145
 9478SOL    HW129333   5.306   3.184   1.151
 9478SOL    HW229334   5.250   3.312   1.234
 9479SOL     OW29335   4.356   6.733   0.461
 9479SOL    HW129336   4.296   6.778   0.527
 9479SOL    HW229337   4.418   6.670   0.508
 9480SOL     OW29338   5.300   4.684   0.473
 9480SOL    HW129339   5.251   4.603   0.440
 9480SOL    HW229340   5.235   4.755   0.498
 9481SOL     OW29341   4.996   3.383   2.389
 9481SOL    HW129342   5.093   3.376   2.411
 9481SOL    HW229343   4.974   3.318   2.316
 9482SOL     OW29344   0.325   1.116   2.445
 9482SOL    HW129345   0.369   1.205   2.438
 9482SOL    HW229346   0.384   1.052   2.494
 9483SOL     OW29347   1.476   0.148   1.096
 9483SOL    HW129348   1.562   0.119   1.053
 9483SOL    HW229349   1.492   0.230   1.150
 9484SOL     OW29350   4.150   0.294   4.599
 9484SOL    HW129351   4.190   0.202   4.603
 9484SOL    HW229352   4.062   0.290   4.552
 9485SOL     OW29353   0.385   0.984   0.855
 9485SOL    HW129354   0.474   1.030   0.858
 9485SOL    HW229355   0.313   1.052   0.865
 9486SOL     OW29356   3.734   6.423   0.704
 9486SOL    HW129357   3.703   6.387   0.616
 9486SOL    HW229358   3.667   6.402   0.775
 9487SOL     OW29359   3.198   3.792   3.733
 9487SOL    HW129360   3.237   3.707   3.768
 9487SOL    HW229361   3.120   3.819   3.789
 9488SOL     OW29362   2.679   0.151   1.196
 9488SOL    HW129363   2.656   0.247   1.208
 9488SOL    HW229364   2.749   0.125   1.262
 9489SOL     OW29365   4.676   4.112   1.131
 9489SOL    HW129366   4.648   4.059   1.051
 9489SOL    HW229367   4.617   4.089   1.208
 9490SOL     OW29368   5.853   5.478   2.485
 9490SOL    HW129369   5.816   5.388   2.508
 9490SOL    HW229370   5.951   5.470   2.466
 9491SOL     OW29371   5.356   4.584   3.924
 9491SOL    HW129372   5.328   4.502   3.973
 9491SOL    HW229373   5.420   4.637   3.980
 9492SOL     OW29374   3.720   3.255   4.560
 9492SOL    HW129375   3.741   3.340   4.609
 9492SOL    HW229376   3.788   3.185   4.584
 9493SOL     OW29377   2.631   5.787   4.614
 9493SOL    HW129378   2.563   5.829   4.673
 9493SOL    HW229379   2.586   5.749   4.533
 9494SOL     OW29380   5.394   2.773   2.448
 9494SOL    HW129381   5.428   2.866   2.446
 9494SOL    HW229382   5.393   2.739   2.542
 9495SOL     OW29383   6.884   1.992   2.968
 9495SOL    HW129384   6.966   2.009   3.024
 9495SOL    HW229385   6.843   2.080   2.942
 9496SOL     OW29386   6.255   3.537   1.623
 9496SOL    HW129387   6.236   3.634   1.612
 9496SOL    HW229388   6.347   3.525   1.661
 9497SOL     OW29389   5.856   0.047   6.011
 9497SOL    HW129390   5.825   0.114   6.078
 9497SOL    HW229391   5.956   0.045   6.011
 9498SOL     OW29392   5.547   6.336   4.154
 9498SOL    HW129393   5.640   6.367   4.138
 9498SOL    HW229394   5.496   6.332   4.068
 9499SOL     OW29395   2.203   4.498   6.324
 9499SOL    HW129396   2.144   4.570   6.286
 9499SOL    HW229397   2.295   4.536   6.339
 9500SOL     OW29398   4.754   0.557   0.769
 9500SOL    HW129399   4.658   0.574   0.748
 9500SOL    HW229400   4.773   0.459   0.757
 9501SOL     OW29401   2.792   0.854   5.596
 9501SOL    HW129402   2.786   0.860   5.696
 9501SOL    HW229403   2.887   0.860   5.568
 9502SOL     OW29404   5.751   2.484   5.164
 9502SOL    HW129405   5.665   2.489   5.113
 9502SOL    HW229406   5.825   2.520   5.107
 9503SOL     OW29407   0.587   1.777   0.956
 9503SOL    HW129408   0.680   1.804   0.980
 9503SOL    HW229409   0.581   1.762   0.857
 9504SOL     OW29410   6.776   3.118   0.436
 9504SOL    HW129411   6.819   3.208   0.444
 9504SOL    HW229412   6.735   3.094   0.524
 9505SOL     OW29413   5.266   4.384   4.049
 9505SOL    HW129414   5.176   4.360   4.085
 9505SOL    HW229415   5.318   4.433   4.118
 9506SOL     OW29416   1.726   2.187   6.519
 9506SOL    HW129417   1.795   2.225   6.580
 9506SOL    HW229418   1.650   2.150   6.572
 9507SOL     OW29419   0.130   0.962   2.305
 9507SOL    HW129420   0.156   0.883   2.249
 9507SOL    HW229421   0.211   1.016   2.326
 9508SOL     OW29422   6.232   1.717   1.538
 9508SOL    HW129423   6.192   1.682   1.622
 9508SOL    HW229424   6.191   1.805   1.514
 9509SOL     OW29425   0.259   0.862   3.681
 9509SOL    HW129426   0.178   0.880   3.626
 9509SOL    HW229427   0.313   0.945   3.691
 9510SOL     OW29428   1.739   3.596   3.611
 9510SOL    HW129429   1.810   3.662   3.587
 9510SOL    HW229430   1.776   3.531   3.678
 9511SOL     OW29431   1.751   0.082   1.318
 9511SOL    HW129432   1.663   0.124   1.337
 9511SOL    HW229433   1.739   7.007   1.300
 9512SOL     OW29434   6.502   1.654   1.563
 9512SOL    HW129435   6.562   1.733   1.550
 9512SOL    HW229436   6.411   1.675   1.527
 9513SOL     OW29437   2.145   3.675   6.126
 9513SOL    HW129438   2.149   3.705   6.221
 9513SOL    HW229439   2.211   3.727   6.071
 9514SOL     OW29440   2.078   5.206   5.727
 9514SOL    HW129441   2.108   5.127   5.674
 9514SOL    HW229442   1.979   5.203   5.740
 9515SOL     OW29443   1.500   5.570   0.681
 9515SOL    HW129444   1.540   5.659   0.701
 9515SOL    HW229445   1.527   5.504   0.751
 9516SOL     OW29446   6.162   5.067   6.741
 9516SOL    HW129447   6.085   5.089   6.681
 9516SOL    HW229448   6.247   5.101   6.700
 9517SOL     OW29449   1.393   4.163   1.217
 9517SOL    HW129450   1.438   4.111   1.145
 9517SOL    HW229451   1.324   4.223   1.177
 9518SOL     OW29452   2.304   1.894   0.473
 9518SOL    HW129453   2.242   1.886   0.551
 9518SOL    HW229454   2.281   1.825   0.405
 9519SOL     OW29455   2.924   3.580   4.899
 9519SOL    HW129456   3.001   3.643   4.892
 9519SOL    HW229457   2.898   3.548   4.808
 9520SOL     OW29458   1.726   2.137   3.277
 9520SOL    HW129459   1.746   2.070   3.205
 9520SOL    HW229460   1.768   2.224   3.253
 9521SOL     OW29461   5.114   5.756   2.014
 9521SOL    HW129462   5.146   5.715   1.929
 9521SOL    HW229463   5.029   5.806   1.997
 9522SOL     OW29464   2.292   5.823   1.052
 9522SOL    HW129465   2.312   5.812   0.955
 9522SOL    HW229466   2.202   5.784   1.072
 9523SOL     OW29467   3.195   5.347   4.761
 9523SOL    HW129468   3.149   5.391   4.838
 9523SOL    HW229469   3.253   5.414   4.714
 9524SOL     OW29470   3.585   2.856   1.386
 9524SOL    HW129471   3.618   2.762   1.389
 9524SOL    HW229472   3.493   2.860   1.426
 9525SOL     OW29473   2.340   2.939   5.708
 9525SOL    HW129474   2.302   3.030   5.695
 9525SOL    HW229475   2.439   2.946   5.722
 9526SOL     OW29476   5.232   5.589   1.806
 9526SOL    HW129477   5.183   5.524   1.748
 9526SOL    HW229478   5.276   5.540   1.881
 9527SOL     OW29479   0.904   0.439   3.364
 9527SOL    HW129480   0.952   0.484   3.439
 9527SOL    HW229481   0.898   0.341   3.383
 9528SOL     OW29482   0.283   1.303   6.776
 9528SOL    HW129483   0.307   1.355   6.694
 9528SOL    HW229484   0.198   1.252   6.759
 9529SOL     OW29485   6.031   3.055   4.988
 9529SOL    HW129486   6.038   3.151   4.961
 9529SOL    HW229487   6.061   2.997   4.912
 9530SOL     OW29488   1.857   3.601   2.376
 9530SOL    HW129489   1.859   3.502   2.360
 9530SOL    HW229490   1.912   3.647   2.307
 9531SOL     OW29491   5.096   5.586   3.055
 9531SOL    HW129492   5.134   5.678   3.040
 9531SOL    HW229493   5.043   5.559   2.975
 9532SOL     OW29494   0.438   0.024   2.316
 9532SOL    HW129495   0.392   6.995   2.389
 9532SOL    HW229496   0.512   0.079   2.355
 9533SOL     OW29497   6.613   6.971   5.034
 9533SOL    HW129498   6.517   6.977   5.061
 9533SOL    HW229499   6.628   6.885   4.985
 9534SOL     OW29500   6.490   3.201   5.130
 9534SOL    HW129501   6.565   3.245   5.178
 9534SOL    HW229502   6.526   3.133   5.065
 9535SOL     OW29503   2.666   1.680   5.680
 9535SOL    HW129504   2.713   1.735   5.611
 9535SOL    HW229505   2.572   1.713   5.690
 9536SOL     OW29506   2.844   4.779   5.334
 9536SOL    HW129507   2.944   4.778   5.339
 9536SOL    HW229508   2.814   4.740   5.247
 9537SOL     OW29509   2.591   6.152   3.016
 9537SOL    HW129510   2.527   6.080   2.992
 9537SOL    HW229511   2.683   6.126   2.988
 9538SOL     OW29512   6.547   2.197   3.763
 9538SOL    HW129513   6.623   2.224   3.823
 9538SOL    HW229514   6.477   2.149   3.817
 9539SOL     OW29515   2.019   3.888   5.387
 9539SOL    HW129516   2.111   3.866   5.421
 9539SOL    HW229517   2.021   3.891   5.287
 9540SOL     OW29518   5.415   4.167   4.353
 9540SOL    HW129519   5.371   4.156   4.264
 9540SOL    HW229520   5.353   4.134   4.424
 9541SOL     OW29521   3.154   1.662   5.742
 9541SOL    HW129522   3.144   1.569   5.776
 9541SOL    HW229523   3.070   1.714   5.761
 9542SOL     OW29524   5.274   4.103   4.590
 9542SOL    HW129525   5.181   4.128   4.615
 9542SOL    HW229526   5.334   4.112   4.670
 9543SOL     OW29527   3.311   1.116   4.805
 9543SOL    HW129528   3.403   1.152   4.792
 9543SOL    HW229529   3.244   1.188   4.787
 9544SOL     OW29530   0.254   1.559   3.319
 9544SOL    HW129531   0.167   1.517   3.344
 9544SOL    HW229532   0.328   1.494   3.332
 9545SOL     OW29533   6.433   5.091   3.892
 9545SOL    HW129534   6.468   5.014   3.840
 9545SOL    HW229535   6.341   5.114   3.860
 9546SOL     OW29536   3.002   2.727   6.040
 9546SOL    HW129537   3.052   2.767   5.963
 9546SOL    HW229538   3.057   2.733   6.122
 9547SOL     OW29539   2.310   6.263   4.206
 9547SOL    HW129540   2.314   6.276   4.306
 9547SOL    HW229541   2.293   6.351   4.162
 9548SOL     OW29542   5.566   6.158   5.204
 9548SOL    HW129543   5.568   6.179   5.302
 9548SOL    HW229544   5.607   6.069   5.188
 9549SOL     OW29545   3.081   3.542   1.372
 9549SOL    HW129546   3.153   3.481   1.342
 9549SOL    HW229547   3.010   3.490   1.419
 9550SOL     OW29548   0.516   1.397   0.325
 9550SOL    HW129549   0.429   1.346   0.323
 9550SOL    HW229550   0.574   1.366   0.250
 9551SOL     OW29551   6.214   1.003   3.820
 9551SOL    HW129552   6.214   0.905   3.802
 9551SOL    HW229553   6.251   1.020   3.912
 9552SOL     OW29554   1.216   6.261   2.357
 9552SOL    HW129555   1.184   6.337   2.413
 9552SOL    HW229556   1.155   6.248   2.279
 9553SOL     OW29557   6.137   4.041   0.018
 9553SOL    HW129558   6.127   4.072   6.945
 9553SOL    HW229559   6.228   4.066   0.051
 9554SOL     OW29560   2.542   0.654   1.769
 9554SOL    HW129561   2.523   0.577   1.707
 9554SOL    HW229562   2.535   0.740   1.719
 9555SOL     OW29563   0.945   1.022   1.750
 9555SOL    HW129564   0.855   0.990   1.721
 9555SOL    HW229565   0.934   1.085   1.827
 9556SOL     OW29566   2.496   2.513   1.379
 9556SOL    HW129567   2.504   2.540   1.283
 9556SOL    HW229568   2.588   2.510   1.420
 9557SOL     OW29569   6.905   0.569   2.686
 9557SOL    HW129570   6.837   0.503   2.654
 9557SOL    HW229571   6.996   0.529   2.680
 9558SOL     OW29572   6.559   5.929   4.571
 9558SOL    HW129573   6.568   5.965   4.664
 9558SOL    HW229574   6.646   5.889   4.542
 9559SOL     OW29575   0.248   3.908   1.397
 9559SOL    HW129576   0.217   3.814   1.409
 9559SOL    HW229577   0.174   3.971   1.422
 9560SOL     OW29578   1.484   1.245   2.789
 9560SOL    HW129579   1.423   1.169   2.812
 9560SOL    HW229580   1.461   1.325   2.844
 9561SOL     OW29581   1.321   6.519   0.148
 9561SOL    HW129582   1.262   6.522   0.229
 9561SOL    HW229583   1.313   6.430   0.103
 9562SOL     OW29584   3.481   6.930   4.949
 9562SOL    HW129585   3.493   6.840   4.993
 9562SOL    HW229586   3.539   6.936   4.869
 9563SOL     OW29587   5.965   6.728   0.289
 9563SOL    HW129588   6.021   6.793   0.340
 9563SOL    HW229589   6.021   6.684   0.218
 9564SOL     OW29590   2.566   0.045   6.740
 9564SOL    HW129591   2.601   7.002   6.673
 9564SOL    HW229592   2.586   0.012   6.832
 9565SOL     OW29593   3.649   6.197   5.231
 9565SOL    HW129594   3.605   6.146   5.305
 9565SOL    HW229595   3.748   6.194   5.243
 9566SOL     OW29596   3.026   5.356   6.552
 9566SOL    HW129597   3.014   5.263   6.516
 9566SOL    HW229598   2.938   5.404   6.549
 9567SOL     OW29599   6.327   4.551   6.819
 9567SOL    HW129600   6.318   4.647   6.790
 9567SOL    HW229601   6.415   4.538   6.864
 9568SOL     OW29602   4.838   2.819   0.296
 9568SOL    HW129603   4.813   2.730   0.333
 9568SOL    HW229604   4.869   2.809   0.201
 9569SOL     OW29605   0.089   0.810   2.531
 9569SOL    HW129606   0.164   0.749   2.558
 9569SOL    HW229607   0.109   0.850   2.441
 9570SOL     OW29608   1.060   2.221   2.199
 9570SOL    HW129609   1.073   2.250   2.104
 9570SOL    HW229610   1.053   2.302   2.258
 9571SOL     OW29611   2.581   3.874   6.874
 9571SOL    HW129612   2.650   3.849   6.943
 9571SOL    HW229613   2.493   3.888   6.919
 9572SOL     OW29614   1.459   4.965   0.891
 9572SOL    HW129615   1.454   4.927   0.983
 9572SOL    HW229616   1.455   5.065   0.895
 9573SOL     OW29617   0.711   1.545   6.414
 9573SOL    HW129618   0.652   1.538   6.334
 9573SOL    HW229619   0.800   1.504   6.393
 9574SOL     OW29620   3.857   3.065   4.120
 9574SOL    HW129621   3.888   3.036   4.030
 9574SOL    HW229622   3.802   2.992   4.161
 9575SOL     OW29623   5.798   0.690   0.992
 9575SOL    HW129624   5.810   0.690   0.893
 9575SOL    HW229625   5.885   0.668   1.037
 9576SOL     OW29626   3.022   0.607   2.818
 9576SOL    HW129627   3.002   0.684   2.879
 9576SOL    HW229628   3.117   0.580   2.828
 9577SOL     OW29629   0.982   1.050   3.690
 9577SOL    HW129630   0.890   1.079   3.664
 9577SOL    HW229631   1.050   1.104   3.639
 9578SOL     OW29632   6.833   3.707   3.534
 9578SOL    HW129633   6.919   3.713   3.482
 9578SOL    HW229634   6.854   3.690   3.630
 9579SOL     OW29635   1.649   5.200   3.291
 9579SOL    HW129636   1.602   5.114   3.269
 9579SOL    HW229637   1.663   5.206   3.390
 9580SOL     OW29638   4.638   2.860   1.045
 9580SOL    HW129639   4.603   2.909   1.124
 9580SOL    HW229640   4.578   2.874   0.966
 9581SOL     OW29641   1.105   5.375   6.590
 9581SOL    HW129642   1.147   5.458   6.627
 9581SOL    HW229643   1.010   5.369   6.621
 9582SOL     OW29644   4.429   4.699   4.780
 9582SOL    HW129645   4.375   4.645   4.845
 9582SOL    HW229646   4.506   4.740   4.828
 9583SOL     OW29647   2.884   3.250   1.228
 9583SOL    HW129648   2.925   3.305   1.301
 9583SOL    HW229649   2.948   3.240   1.153
 9584SOL     OW29650   6.178   6.505   0.081
 9584SOL    HW129651   6.170   6.474   7.009
 9584SOL    HW229652   6.114   6.454   0.139
 9585SOL     OW29653   6.721   1.204   2.930
 9585SOL    HW129654   6.815   1.227   2.903
 9585SOL    HW229655   6.697   1.256   3.012
 9586SOL     OW29656   6.277   3.911   1.970
 9586SOL    HW129657   6.348   3.865   2.024
 9586SOL    HW229658   6.263   4.003   2.005
 9587SOL     OW29659   6.145   0.412   2.211
 9587SOL    HW129660   6.156   0.457   2.122
 9587SOL    HW229661   6.235   0.404   2.255
 9588SOL     OW29662   0.673   1.946   2.330
 9588SOL    HW129663   0.730   1.987   2.259
 9588SOL    HW229664   0.723   1.943   2.416
 9589SOL     OW29665   2.934   5.513   6.247
 9589SOL    HW129666   2.900   5.546   6.335
 9589SOL    HW229667   3.032   5.532   6.240
 9590SOL     OW29668   0.064   5.058   2.644
 9590SOL    HW129669   0.131   5.069   2.717
 9590SOL    HW229670   0.013   4.973   2.657
 9591SOL     OW29671   3.109   6.031   6.884
 9591SOL    HW129672   3.097   5.935   6.908
 9591SOL    HW229673   3.060   6.088   6.950
 9592SOL     OW29674   3.724   5.110   1.762
 9592SOL    HW129675   3.655   5.155   1.819
 9592SOL    HW229676   3.695   5.016   1.742
 9593SOL     OW29677   5.854   1.121   4.684
 9593SOL    HW129678   5.940   1.124   4.736
 9593SOL    HW229679   5.798   1.201   4.707
 9594SOL     OW29680   0.622   6.087   3.315
 9594SOL    HW129681   0.632   6.167   3.375
 9594SOL    HW229682   0.611   6.005   3.371
 9595SOL     OW29683   1.989   4.105   4.398
 9595SOL    HW129684   1.922   4.031   4.396
 9595SOL    HW229685   1.946   4.188   4.434
 9596SOL     OW29686   0.111   5.697   0.558
 9596SOL    HW129687   0.199   5.720   0.515
 9596SOL    HW229688   0.077   5.776   0.608
 9597SOL     OW29689   6.984   4.241   0.954
 9597SOL    HW129690   0.052   4.197   0.962
 9597SOL    HW229691   6.919   4.176   0.916
 9598SOL     OW29692   0.279   3.695   4.977
 9598SOL    HW129693   0.278   3.598   4.955
 9598SOL    HW229694   0.292   3.707   5.076
 9599SOL     OW29695   3.134   0.744   4.878
 9599SOL    HW129696   3.096   0.659   4.913
 9599SOL    HW229697   3.067   0.818   4.891
 9600SOL     OW29698   2.340   6.909   5.795
 9600SOL    HW129699   2.328   6.937   5.700
 9600SOL    HW229700   2.271   6.841   5.819
 9601SOL     OW29701   6.262   3.772   6.452
 9601SOL    HW129702   6.207   3.721   6.518
 9601SOL    HW229703   6.358   3.746   6.462
 9602SOL     OW29704   6.514   4.663   6.333
 9602SOL    HW129705   6.563   4.576   6.326
 9602SOL    HW229706   6.437   4.654   6.396
 9603SOL     OW29707   2.597   0.169   4.177
 9603SOL    HW129708   2.675   0.118   4.214
 9603SOL    HW229709   2.536   0.106   4.130
 9604SOL     OW29710   5.122   0.263   0.875
 9604SOL    HW129711   5.153   0.167   0.875
 9604SOL    HW229712   5.106   0.293   0.781
 9605SOL     OW29713   0.124   4.526   5.676
 9605SOL    HW129714   0.215   4.485   5.682
 9605SOL    HW229715   0.119   4.585   5.595
 9606SOL     OW29716   1.258   6.669   4.727
 9606SOL    HW129717   1.294   6.719   4.806
 9606SOL    HW229718   1.289   6.574   4.732
 9607SOL     OW29719   1.235   2.020   1.974
 9607SOL    HW129720   1.240   1.968   1.888
 9607SOL    HW229721   1.186   2.105   1.959
 9608SOL     OW29722   0.132   6.403   2.622
 9608SOL    HW129723   0.165   6.411   2.528
 9608SOL    HW229724   0.098   6.492   2.653
 9609SOL     OW29725   1.576   4.064   5.063
 9609SOL    HW129726   1.531   3.982   5.098
 9609SOL    HW229727   1.655   4.037   5.007
 9610SOL     OW29728   1.593   3.816   5.221
 9610SOL    HW129729   1.656   3.842   5.148
 9610SOL    HW229730   1.645   3.802   5.306
 9611SOL     OW29731   0.638   6.392   1.359
 9611SOL    HW129732   0.606   6.311   1.310
 9611SOL    HW229733   0.599   6.474   1.317
 9612SOL     OW29734   6.187   2.756   1.407
 9612SOL    HW129735   6.206   2.761   1.505
 9612SOL    HW229736   6.092   2.782   1.390
 9613SOL     OW29737   5.115   5.720   3.871
 9613SOL    HW129738   5.074   5.727   3.962
 9613SOL    HW229739   5.079   5.791   3.812
 9614SOL     OW29740   4.022   3.622   1.366
 9614SOL    HW129741   4.058   3.674   1.289
 9614SOL    HW229742   3.953   3.677   1.414
 9615SOL     OW29743   1.469   6.363   2.316
 9615SOL    HW129744   1.499   6.355   2.411
 9615SOL    HW229745   1.387   6.307   2.302
 9616SOL     OW29746   4.185   3.719   0.539
 9616SOL    HW129747   4.265   3.685   0.490
 9616SOL    HW229748   4.141   3.791   0.485
 9617SOL     OW29749   0.818   4.174   4.373
 9617SOL    HW129750   0.895   4.222   4.415
 9617SOL    HW229751   0.801   4.089   4.423
 9618SOL     OW29752   3.541   6.882   6.390
 9618SOL    HW129753   3.519   6.792   6.425
 9618SOL    HW229754   3.552   6.946   6.466
 9619SOL     OW29755   1.188   6.999   0.763
 9619SOL    HW129756   1.123   0.018   0.698
 9619SOL    HW229757   1.140   6.932   0.820
 9620SOL     OW29758   5.217   1.869   6.698
 9620SOL    HW129759   5.298   1.893   6.645
 9620SOL    HW229760   5.161   1.804   6.646
 9621SOL     OW29761   1.325   1.071   2.399
 9621SOL    HW129762   1.311   0.998   2.332
 9621SOL    HW229763   1.388   1.139   2.361
 9622SOL     OW29764   6.157   1.485   6.880
 9622SOL    HW129765   6.097   1.561   6.906
 9622SOL    HW229766   6.121   1.442   6.797
 9623SOL     OW29767   4.529   5.361   5.904
 9623SOL    HW129768   4.597   5.433   5.886
 9623SOL    HW229769   4.437   5.402   5.905
 9624SOL     OW29770   5.357   3.962   5.039
 9624SOL    HW129771   5.420   3.978   4.963
 9624SOL    HW229772   5.405   3.912   5.111
 9625SOL     OW29773   5.029   4.455   6.998
 9625SOL    HW129774   4.951   4.507   0.010
 9625SOL    HW229775   5.071   4.505   6.922
 9626SOL     OW29776   2.541   5.879   5.344
 9626SOL    HW129777   2.614   5.908   5.406
 9626SOL    HW229778   2.554   5.922   5.255
 9627SOL     OW29779   0.288   4.302   4.834
 9627SOL    HW129780   0.354   4.257   4.894
 9627SOL    HW229781   0.324   4.304   4.741
 9628SOL     OW29782   6.094   3.541   0.783
 9628SOL    HW129783   6.073   3.476   0.857
 9628SOL    HW229784   6.172   3.598   0.810
 9629SOL     OW29785   6.743   5.842   3.208
 9629SOL    HW129786   6.651   5.861   3.173
 9629SOL    HW229787   6.800   5.923   3.196
 9630SOL     OW29788   6.435   6.288   5.783
 9630SOL    HW129789   6.492   6.282   5.701
 9630SOL    HW229790   6.493   6.311   5.861
 9631SOL     OW29791   4.571   1.873   0.877
 9631SOL    HW129792   4.564   1.809   0.953
 9631SOL    HW229793   4.592   1.823   0.793
 9632SOL     OW29794   2.165   5.228   2.483
 9632SOL    HW129795   2.220   5.308   2.459
 9632SOL    HW229796   2.071   5.256   2.503
 9633SOL     OW29797   3.753   4.198   0.292
 9633SOL    HW129798   3.814   4.231   0.364
 9633SOL    HW229799   3.789   4.112   0.255
 9634SOL     OW29800   6.657   5.729   3.470
 9634SOL    HW129801   6.729   5.766   3.529
 9634SOL    HW229802   6.673   5.759   3.376
 9635SOL     OW29803   0.932   4.241   5.669
 9635SOL    HW129804   0.944   4.270   5.764
 9635SOL    HW229805   0.936   4.321   5.609
 9636SOL     OW29806   3.791   1.617   6.016
 9636SOL    HW129807   3.839   1.547   6.069
 9636SOL    HW229808   3.774   1.584   5.923
 9637SOL     OW29809   3.827   3.173   1.189
 9637SOL    HW129810   3.808   3.075   1.201
 9637SOL    HW229811   3.848   3.190   1.093
 9638SOL     OW29812   6.668   3.418   5.958
 9638SOL    HW129813   6.705   3.472   6.033
 9638SOL    HW229814   6.576   3.452   5.934
 9639SOL     OW29815   4.192   2.308   1.694
 9639SOL    HW129816   4.242   2.388   1.727
 9639SOL    HW229817   4.096   2.315   1.721
 9640SOL     OW29818   3.160   0.627   2.127
 9640SOL    HW129819   3.201   0.541   2.154
 9640SOL    HW229820   3.088   0.610   2.059
 9641SOL     OW29821   5.840   6.162   2.092
 9641SOL    HW129822   5.749   6.201   2.107
 9641SOL    HW229823   5.832   6.063   2.079
 9642SOL     OW29824   1.493   6.254   4.306
 9642SOL    HW129825   1.541   6.179   4.261
 9642SOL    HW229826   1.486   6.236   4.404
 9643SOL     OW29827   5.154   3.923   3.712
 9643SOL    HW129828   5.164   3.882   3.803
 9643SOL    HW229829   5.174   3.853   3.643
 9644SOL     OW29830   1.771   5.715   5.687
 9644SOL    HW129831   1.809   5.689   5.598
 9644SOL    HW229832   1.758   5.633   5.742
 9645SOL     OW29833   2.453   4.532   4.894
 9645SOL    HW129834   2.499   4.539   4.982
 9645SOL    HW229835   2.493   4.598   4.830
 9646SOL     OW29836   2.806   5.507   2.262
 9646SOL    HW129837   2.708   5.525   2.270
 9646SOL    HW229838   2.843   5.479   2.351
 9647SOL     OW29839   0.331   6.948   3.599
 9647SOL    HW129840   0.369   0.001   3.546
 9647SOL    HW229841   0.244   6.919   3.558
 9648SOL     OW29842   4.316   2.645   0.809
 9648SOL    HW129843   4.287   2.571   0.869
 9648SOL    HW229844   4.250   2.720   0.816
 9649SOL     OW29845   2.421   4.276   0.043
 9649SOL    HW129846   2.405   4.226   0.128
 9649SOL    HW229847   2.513   4.314   0.043
 9650SOL     OW29848   4.474   4.580   2.986
 9650SOL    HW129849   4.416   4.576   3.067
 9650SOL    HW229850   4.569   4.566   3.012
 9651SOL     OW29851   4.652   1.229   1.305
 9651SOL    HW129852   4.655   1.202   1.209
 9651SOL    HW229853   4.736   1.277   1.329
 9652SOL     OW29854   1.132   4.668   1.382
 9652SOL    HW129855   1.150   4.570   1.386
 9652SOL    HW229856   1.214   4.718   1.409
 9653SOL     OW29857   4.801   4.509   5.137
 9653SOL    HW129858   4.747   4.489   5.055
 9653SOL    HW229859   4.838   4.424   5.174
 9654SOL     OW29860   3.148   3.334   2.968
 9654SOL    HW129861   3.095   3.385   2.900
 9654SOL    HW229862   3.100   3.250   2.992
 9655SOL     OW29863   0.190   1.868   0.521
 9655SOL    HW129864   0.238   1.858   0.434
 9655SOL    HW229865   0.148   1.780   0.546
 9656SOL     OW29866   4.800   2.591   1.181
 9656SOL    HW129867   4.721   2.629   1.133
 9656SOL    HW229868   4.769   2.533   1.256
 9657SOL     OW29869   6.024   4.162   2.557
 9657SOL    HW129870   5.990   4.240   2.505
 9657SOL    HW229871   5.961   4.140   2.631
 9658SOL     OW29872   5.593   1.722   1.955
 9658SOL    HW129873   5.517   1.662   1.929
 9658SOL    HW229874   5.578   1.757   2.048
 9659SOL     OW29875   1.029   2.605   7.022
 9659SOL    HW129876   1.045   2.690   0.050
 9659SOL    HW229877   0.965   2.548   0.050
 9660SOL     OW29878   0.853   0.135   2.671
 9660SOL    HW129879   0.789   0.078   2.723
 9660SOL    HW229880   0.940   0.087   2.661
 9661SOL     OW29881   3.829   6.276   1.343
 9661SOL    HW129882   3.769   6.198   1.357
 9661SOL    HW229883   3.874   6.300   1.429
 9662SOL     OW29884   5.431   4.004   0.092
 9662SOL    HW129885   5.365   4.068   0.054
 9662SOL    HW229886   5.417   3.913   0.053
 9663SOL     OW29887   0.134   5.838   2.645
 9663SOL    HW129888   0.132   5.914   2.580
 9663SOL    HW229889   0.207   5.775   2.620
 9664SOL     OW29890   5.519   4.801   4.082
 9664SOL    HW129891   5.448   4.864   4.113
 9664SOL    HW229892   5.538   4.818   3.985
 9665SOL     OW29893   5.868   6.633   6.113
 9665SOL    HW129894   5.813   6.671   6.187
 9665SOL    HW229895   5.964   6.637   6.138
 9666SOL     OW29896   6.258   3.657   2.299
 9666SOL    HW129897   6.256   3.749   2.337
 9666SOL    HW229898   6.174   3.639   2.249
 9667SOL     OW29899   3.745   3.660   0.178
 9667SOL    HW129900   3.844   3.645   0.169
 9667SOL    HW229901   3.697   3.589   0.127
 9668SOL     OW29902   0.885   0.664   6.505
 9668SOL    HW129903   0.942   0.663   6.423
 9668SOL    HW229904   0.913   0.589   6.565
 9669SOL     OW29905   2.269   6.838   2.048
 9669SOL    HW129906   2.213   6.884   2.116
 9669SOL    HW229907   2.264   6.739   2.062
 9670SOL     OW29908   0.441   5.131   5.657
 9670SOL    HW129909   0.487   5.105   5.571
 9670SOL    HW229910   0.465   5.065   5.728
 9671SOL     OW29911   6.776   4.050   0.216
 9671SOL    HW129912   6.728   4.111   0.154
 9671SOL    HW229913   6.720   3.969   0.234
 9672SOL     OW29914   2.032   4.861   3.558
 9672SOL    HW129915   1.987   4.777   3.527
 9672SOL    HW229916   2.113   4.838   3.612
 9673SOL     OW29917   3.288   3.471   0.699
 9673SOL    HW129918   3.367   3.412   0.716
 9673SOL    HW229919   3.247   3.497   0.787
 9674SOL     OW29920   4.024   6.572   3.164
 9674SOL    HW129921   4.107   6.561   3.110
 9674SOL    HW229922   3.946   6.588   3.103
 9675SOL     OW29923   4.961   2.438   6.787
 9675SOL    HW129924   5.041   2.442   6.726
 9675SOL    HW229925   4.992   2.438   6.882
 9676SOL     OW29926   1.459   3.277   6.151
 9676SOL    HW129927   1.513   3.247   6.072
 9676SOL    HW229928   1.478   3.373   6.170
 9677SOL     OW29929   6.607   4.925   4.706
 9677SOL    HW129930   6.606   5.020   4.735
 9677SOL    HW229931   6.549   4.870   4.767
 9678SOL     OW29932   2.920   3.560   4.112
 9678SOL    HW129933   2.871   3.574   4.026
 9678SOL    HW229934   2.970   3.643   4.135
 9679SOL     OW29935   2.257   0.355   3.795
 9679SOL    HW129936   2.169   0.401   3.788
 9679SOL    HW229937   2.296   0.343   3.704
 9680SOL     OW29938   4.448   0.259   4.387
 9680SOL    HW129939   4.399   0.255   4.474
 9680SOL    HW229940   4.419   0.184   4.328
 9681SOL     OW29941   3.002   2.423   0.697
 9681SOL    HW129942   2.965   2.385   0.782
 9681SOL    HW229943   3.034   2.516   0.713
 9682SOL     OW29944   4.780   4.114   3.801
 9682SOL    HW129945   4.774   4.015   3.793
 9682SOL    HW229946   4.750   4.156   3.716
 9683SOL     OW29947   3.095   6.546   1.533
 9683SOL    HW129948   3.168   6.584   1.477
 9683SOL    HW229949   3.036   6.489   1.477
 9684SOL     OW29950   0.990   3.489   5.411
 9684SOL    HW129951   0.923   3.481   5.337
 9684SOL    HW229952   1.053   3.564   5.392
 9685SOL     OW29953   4.960   3.932   1.036
 9685SOL    HW129954   4.962   4.005   1.105
 9685SOL    HW229955   5.050   3.924   0.994
 9686SOL     OW29956   0.554   3.062   6.017
 9686SOL    HW129957   0.480   3.008   5.978
 9686SOL    HW229958   0.549   3.156   5.982
 9687SOL     OW29959   0.312   1.182   3.683
 9687SOL    HW129960   0.220   1.214   3.708
 9687SOL    HW229961   0.380   1.250   3.711
 9688SOL     OW29962   1.026   2.838   0.916
 9688SOL    HW129963   1.042   2.787   0.832
 9688SOL    HW229964   0.935   2.879   0.914
 9689SOL     OW29965   1.532   4.510   6.699
 9689SOL    HW129966   1.452   4.475   6.748
 9689SOL    HW229967   1.505   4.589   6.644
 9690SOL     OW29968   6.126   6.202   6.221
 9690SOL    HW129969   6.203   6.251   6.261
 9690SOL    HW229970   6.047   6.263   6.216
 9691SOL     OW29971   2.745   4.248   1.432
 9691SOL    HW129972   2.772   4.156   1.462
 9691SOL    HW229973   2.724   4.304   1.512
 9692SOL     OW29974   4.088   5.918   1.493
 9692SOL    HW129975   4.187   5.926   1.484
 9692SOL    HW229976   4.044   5.953   1.410
 9693SOL     OW29977   6.253   4.241   2.687
 9693SOL    HW129978   6.335   4.246   2.630
 9693SOL    HW229979   6.180   4.195   2.636
 9694SOL     OW29980   3.126   1.442   1.467
 9694SOL    HW129981   3.223   1.428   1.446
 9694SOL    HW229982   3.097   1.375   1.535
 9695SOL     OW29983   6.807   2.790   3.146
 9695SOL    HW129984   6.808   2.810   3.244
 9695SOL    HW229985   6.835   2.871   3.095
 9696SOL     OW29986   5.480   2.661   1.332
 9696SOL    HW129987   5.553   2.721   1.364
 9696SOL    HW229988   5.432   2.704   1.255
 9697SOL     OW29989   0.565   5.338   0.080
 9697SOL    HW129990   0.503   5.395   0.133
 9697SOL    HW229991   0.519   5.251   0.058
 9698SOL     OW29992   5.391   2.553   6.174
 9698SOL    HW129993   5.397   2.485   6.101
 9698SOL    HW229994   5.316   2.617   6.153
 9699SOL     OW29995   6.847   5.686   6.928
 9699SOL    HW129996   6.909   5.695   7.006
 9699SOL    HW229997   6.769   5.628   6.954
 9700SOL     OW29998   6.194   4.981   5.131
 9700SOL    HW129999   6.134   5.046   5.177
 9700SOL    HW230000   6.248   5.028   5.061
 9701SOL     OW30001   4.773   4.431   5.692
 9701SOL    HW130002   4.852   4.446   5.631
 9701SOL    HW230003   4.701   4.384   5.641
 9702SOL     OW30004   3.582   2.427   0.050
 9702SOL    HW130005   3.571   2.411   0.148
 9702SOL    HW230006   3.674   2.460   0.032
 9703SOL     OW30007   4.864   3.740   3.541
 9703SOL    HW130008   4.886   3.692   3.456
 9703SOL    HW230009   4.874   3.677   3.618
 9704SOL     OW30010   2.995   6.364   1.335
 9704SOL    HW130011   3.076   6.308   1.353
 9704SOL    HW230012   2.918   6.304   1.312
 9705SOL     OW30013   5.419   4.277   6.085
 9705SOL    HW130014   5.444   4.337   6.160
 9705SOL    HW230015   5.409   4.183   6.119
 9706SOL     OW30016   2.078   2.598   1.346
 9706SOL    HW130017   2.075   2.498   1.359
 9706SOL    HW230018   1.987   2.632   1.324
 9707SOL     OW30019   6.463   4.717   2.537
 9707SOL    HW130020   6.536   4.760   2.591
 9707SOL    HW230021   6.375   4.732   2.582
 9708SOL     OW30022   0.434   1.715   3.473
 9708SOL    HW130023   0.407   1.806   3.442
 9708SOL    HW230024   0.358   1.673   3.523
 9709SOL     OW30025   5.451   6.058   2.555
 9709SOL    HW130026   5.475   5.963   2.573
 9709SOL    HW230027   5.521   6.118   2.593
 9710SOL     OW30028   6.510   1.521   1.220
 9710SOL    HW130029   6.487   1.462   1.297
 9710SOL    HW230030   6.446   1.599   1.217
 9711SOL     OW30031   3.676   5.386   5.689
 9711SOL    HW130032   3.719   5.449   5.625
 9711SOL    HW230033   3.666   5.296   5.646
 9712SOL     OW30034   5.464   3.756   6.758
 9712SOL    HW130035   5.427   3.720   6.844
 9712SOL    HW230036   5.563   3.765   6.765
 9713SOL     OW30037   2.162   4.517   3.531
 9713SOL    HW130038   2.155   4.419   3.551
 9713SOL    HW230039   2.248   4.552   3.566
 9714SOL     OW30040   4.308   6.573   6.631
 9714SOL    HW130041   4.273   6.665   6.616
 9714SOL    HW230042   4.265   6.510   6.566
 9715SOL     OW30043   5.976   4.317   0.367
 9715SOL    HW130044   6.072   4.303   0.343
 9715SOL    HW230045   5.926   4.231   0.356
 9716SOL     OW30046   3.292   4.656   7.006
 9716SOL    HW130047   3.387   4.650   0.015
 9716SOL    HW230048   3.249   4.738   0.023
 9717SOL     OW30049   5.211   6.601   5.939
 9717SOL    HW130050   5.179   6.695   5.953
 9717SOL    HW230051   5.295   6.586   5.992
 9718SOL     OW30052   5.198   3.484   0.784
 9718SOL    HW130053   5.163   3.557   0.725
 9718SOL    HW230054   5.186   3.509   0.880
 9719SOL     OW30055   5.896   1.096   5.724
 9719SOL    HW130056   5.883   1.099   5.823
 9719SOL    HW230057   5.970   1.033   5.702
 9720SOL     OW30058   0.853   4.358   2.304
 9720SOL    HW130059   0.848   4.262   2.278
 9720SOL    HW230060   0.815   4.370   2.396
 9721SOL     OW30061   0.607   1.322   0.576
 9721SOL    HW130062   0.580   1.371   0.494
 9721SOL    HW230063   0.573   1.228   0.572
 9722SOL     OW30064   3.826   1.659   5.080
 9722SOL    HW130065   3.793   1.752   5.094
 9722SOL    HW230066   3.885   1.655   5.000
 9723SOL     OW30067   4.129   6.654   3.399
 9723SOL    HW130068   4.055   6.706   3.442
 9723SOL    HW230069   4.094   6.605   3.320
 9724SOL     OW30070   1.757   5.168   0.012
 9724SOL    HW130071   1.732   5.219   6.952
 9724SOL    HW230072   1.789   5.077   7.008
 9725SOL     OW30073   4.558   6.111   6.211
 9725SOL    HW130074   4.480   6.053   6.231
 9725SOL    HW230075   4.634   6.055   6.177
 9726SOL     OW30076   4.594   1.183   3.401
 9726SOL    HW130077   4.503   1.201   3.439
 9726SOL    HW230078   4.621   1.260   3.343
 9727SOL     OW30079   1.028   2.331   6.816
 9727SOL    HW130080   0.937   2.291   6.831
 9727SOL    HW230081   1.075   2.340   6.904
 9728SOL     OW30082   0.772   0.859   5.560
 9728SOL    HW130083   0.724   0.883   5.644
 9728SOL    HW230084   0.722   0.895   5.482
 9729SOL     OW30085   1.121   4.193   3.596
 9729SOL    HW130086   1.043   4.219   3.540
 9729SOL    HW230087   1.193   4.262   3.588
 9730SOL     OW30088   2.007   4.866   2.967
 9730SOL    HW130089   1.964   4.818   2.890
 9730SOL    HW230090   1.944   4.864   3.045
 9731SOL     OW30091   5.209   5.350   1.281
 9731SOL    HW130092   5.199   5.408   1.200
 9731SOL    HW230093   5.253   5.402   1.354
 9732SOL     OW30094   0.453   4.469   2.308
 9732SOL    HW130095   0.536   4.493   2.258
 9732SOL    HW230096   0.460   4.498   2.403
 9733SOL     OW30097   5.103   5.146   0.430
 9733SOL    HW130098   5.014   5.175   0.394
 9733SOL    HW230099   5.158   5.227   0.451
 9734SOL     OW30100   0.066   0.751   0.593
 9734SOL    HW130101   0.151   0.759   0.646
 9734SOL    HW230102   0.034   0.657   0.596
 9735SOL     OW30103   2.045   3.342   3.299
 9735SOL    HW130104   2.072   3.381   3.211
 9735SOL    HW230105   2.009   3.250   3.286
 9736SOL     OW30106   5.616   1.220   5.744
 9736SOL    HW130107   5.697   1.210   5.685
 9736SOL    HW230108   5.623   1.306   5.795
 9737SOL     OW30109   5.153   2.186   3.019
 9737SOL    HW130110   5.128   2.261   2.958
 9737SOL    HW230111   5.127   2.210   3.113
 9738SOL     OW30112   2.324   0.128   0.421
 9738SOL    HW130113   2.390   0.117   0.347
 9738SOL    HW230114   2.308   0.039   0.464
 9739SOL     OW30115   4.874   5.916   0.791
 9739SOL    HW130116   4.900   6.010   0.813
 9739SOL    HW230117   4.951   5.869   0.748
 9740SOL     OW30118   0.333   1.922   3.349
 9740SOL    HW130119   0.286   1.914   3.262
 9740SOL    HW230120   0.353   2.018   3.368
 9741SOL     OW30121   2.838   1.584   2.450
 9741SOL    HW130122   2.834   1.611   2.354
 9741SOL    HW230123   2.866   1.488   2.457
 9742SOL     OW30124   3.705   0.993   0.249
 9742SOL    HW130125   3.626   1.050   0.225
 9742SOL    HW230126   3.748   1.031   0.331
 9743SOL     OW30127   6.835   3.631   4.076
 9743SOL    HW130128   6.913   3.594   4.126
 9743SOL    HW230129   6.831   3.730   4.090
 9744SOL     OW30130   1.053   6.819   1.740
 9744SOL    HW130131   1.036   6.883   1.665
 9744SOL    HW230132   0.972   6.762   1.754
 9745SOL     OW30133   4.828   2.675   6.732
 9745SOL    HW130134   4.756   2.661   6.799
 9745SOL    HW230135   4.891   2.597   6.735
 9746SOL     OW30136   5.922   0.614   5.896
 9746SOL    HW130137   5.979   0.692   5.870
 9746SOL    HW230138   5.975   0.553   5.955
 9747SOL     OW30139   2.476   2.102   1.867
 9747SOL    HW130140   2.521   2.098   1.778
 9747SOL    HW230141   2.526   2.165   1.927
 9748SOL     OW30142   6.586   6.744   3.541
 9748SOL    HW130143   6.503   6.688   3.545
 9748SOL    HW230144   6.666   6.687   3.559
 9749SOL     OW30145   1.755   0.450   4.277
 9749SOL    HW130146   1.831   0.511   4.300
 9749SOL    HW230147   1.701   0.433   4.360
 9750SOL     OW30148   5.581   5.264   3.151
 9750SOL    HW130149   5.503   5.206   3.174
 9750SOL    HW230150   5.665   5.212   3.161
 9751SOL     OW30151   2.236   0.236   1.073
 9751SOL    HW130152   2.285   0.159   1.113
 9751SOL    HW230153   2.195   0.209   0.986
 9752SOL     OW30154   3.875   1.996   5.296
 9752SOL    HW130155   3.793   1.938   5.289
 9752SOL    HW230156   3.922   1.997   5.208
 9753SOL     OW30157   0.051   5.565   6.580
 9753SOL    HW130158   0.072   5.521   6.668
 9753SOL    HW230159   0.128   5.622   6.552
 9754SOL     OW30160   1.713   0.055   0.976
 9754SOL    HW130161   1.800   0.070   1.022
 9754SOL    HW230162   1.698   6.979   0.964
 9755SOL     OW30163   3.643   3.621   4.297
 9755SOL    HW130164   3.741   3.633   4.310
 9755SOL    HW230165   3.618   3.526   4.313
 9756SOL     OW30166   5.563   2.796   6.092
 9756SOL    HW130167   5.563   2.718   6.155
 9756SOL    HW230168   5.546   2.763   5.999
 9757SOL     OW30169   5.629   4.590   4.237
 9757SOL    HW130170   5.539   4.547   4.228
 9757SOL    HW230171   5.633   4.670   4.177
 9758SOL     OW30172   2.182   0.537   6.825
 9758SOL    HW130173   2.176   0.439   6.843
 9758SOL    HW230174   2.273   0.570   6.852
 9759SOL     OW30175   1.198   0.727   0.480
 9759SOL    HW130176   1.169   0.741   0.574
 9759SOL    HW230177   1.235   0.813   0.443
 9760SOL     OW30178   4.871   2.916   5.638
 9760SOL    HW130179   4.774   2.927   5.659
 9760SOL    HW230180   4.909   2.841   5.693
 9761SOL     OW30181   0.476   1.481   2.153
 9761SOL    HW130182   0.392   1.455   2.199
 9761SOL    HW230183   0.474   1.580   2.134
 9762SOL     OW30184   3.238   1.944   4.697
 9762SOL    HW130185   3.310   2.004   4.662
 9762SOL    HW230186   3.196   1.986   4.777
 9763SOL     OW30187   4.731   1.815   2.634
 9763SOL    HW130188   4.830   1.829   2.636
 9763SOL    HW230189   4.708   1.753   2.559
 9764SOL     OW30190   6.532   3.083   3.297
 9764SOL    HW130191   6.442   3.044   3.278
 9764SOL    HW230192   6.594   3.060   3.222
 9765SOL     OW30193   6.727   6.450   3.611
 9765SOL    HW130194   6.790   6.399   3.553
 9765SOL    HW230195   6.634   6.418   3.594
 9766SOL     OW30196   2.751   6.912   2.206
 9766SOL    HW130197   2.844   6.885   2.232
 9766SOL    HW230198   2.743   6.915   2.106
 9767SOL     OW30199   3.744   1.596   5.761
 9767SOL    HW130200   3.817   1.528   5.767
 9767SOL    HW230201   3.768   1.665   5.693
 9768SOL     OW30202   5.234   1.197   1.676
 9768SOL    HW130203   5.288   1.215   1.758
 9768SOL    HW230204   5.192   1.106   1.682
 9769SOL     OW30205   4.306   0.665   4.723
 9769SOL    HW130206   4.238   0.631   4.788
 9769SOL    HW230207   4.390   0.688   4.772
 9770SOL     OW30208   3.878   1.221   5.896
 9770SOL    HW130209   3.903   1.179   5.983
 9770SOL    HW230210   3.846   1.151   5.833
 9771SOL     OW30211   2.947   5.693   0.429
 9771SOL    HW130212   2.933   5.783   0.470
 9771SOL    HW230213   3.017   5.644   0.481
 9772SOL     OW30214   1.475   5.971   1.478
 9772SOL    HW130215   1.519   5.999   1.392
 9772SOL    HW230216   1.541   5.922   1.535
 9773SOL     OW30217   5.260   5.233   4.603
 9773SOL    HW130218   5.309   5.315   4.574
 9773SOL    HW230219   5.178   5.222   4.547
 9774SOL     OW30220   6.700   5.638   1.924
 9774SOL    HW130221   6.614   5.641   1.873
 9774SOL    HW230222   6.774   5.607   1.863
 9775SOL     OW30223   3.035   0.656   3.291
 9775SOL    HW130224   3.123   0.613   3.271
 9775SOL    HW230225   2.999   0.620   3.378
 9776SOL     OW30226   0.364   4.901   5.266
 9776SOL    HW130227   0.403   4.879   5.177
 9776SOL    HW230228   0.385   4.827   5.331
 9777SOL     OW30229   6.066   5.861   0.153
 9777SOL    HW130230   6.053   5.770   0.113
 9777SOL    HW230231   6.090   5.926   0.082
 9778SOL     OW30232   0.077   1.701   4.264
 9778SOL    HW130233   7.000   1.712   4.269
 9778SOL    HW230234   0.109   1.730   4.173
 9779SOL     OW30235   0.703   1.852   3.966
 9779SOL    HW130236   0.752   1.892   3.888
 9779SOL    HW230237   0.647   1.776   3.935
 9780SOL     OW30238   2.248   2.462   0.455
 9780SOL    HW130239   2.257   2.442   0.552
 9780SOL    HW230240   2.328   2.515   0.425
 9781SOL     OW30241   2.122   2.300   4.715
 9781SOL    HW130242   2.097   2.338   4.626
 9781SOL    HW230243   2.203   2.346   4.750
 9782SOL     OW30244   0.327   1.072   1.191
 9782SOL    HW130245   0.290   1.102   1.104
 9782SOL    HW230246   0.308   1.140   1.261
 9783SOL     OW30247   4.773   2.689   3.147
 9783SOL    HW130248   4.869   2.707   3.122
 9783SOL    HW230249   4.760   2.710   3.244
 9784SOL     OW30250   3.336   2.406   6.320
 9784SOL    HW130251   3.398   2.356   6.381
 9784SOL    HW230252   3.250   2.355   6.310
 9785SOL     OW30253   1.116   2.073   5.872
 9785SOL    HW130254   1.104   1.975   5.890
 9785SOL    HW230255   1.073   2.096   5.784
 9786SOL     OW30256   2.915   4.073   0.358
 9786SOL    HW130257   2.841   4.131   0.324
 9786SOL    HW230258   3.003   4.115   0.335
 9787SOL     OW30259   3.213   3.469   2.599
 9787SOL    HW130260   3.166   3.382   2.578
 9787SOL    HW230261   3.179   3.540   2.538
 9788SOL     OW30262   0.499   0.230   3.790
 9788SOL    HW130263   0.551   0.243   3.875
 9788SOL    HW230264   0.561   0.239   3.712
 9789SOL     OW30265   1.686   5.339   0.550
 9789SOL    HW130266   1.698   5.266   0.618
 9789SOL    HW230267   1.592   5.335   0.514
 9790SOL     OW30268   6.848   5.024   6.555
 9790SOL    HW130269   6.915   5.097   6.537
 9790SOL    HW230270   6.800   5.043   6.640
 9791SOL     OW30271   0.743   0.537   0.396
 9791SOL    HW130272   0.838   0.508   0.410
 9791SOL    HW230273   0.742   0.624   0.347
 9792SOL     OW30274   3.446   4.230   0.535
 9792SOL    HW130275   3.539   4.220   0.572
 9792SOL    HW230276   3.434   4.167   0.458
 9793SOL     OW30277   3.866   6.903   2.505
 9793SOL    HW130278   3.839   6.809   2.523
 9793SOL    HW230279   3.847   6.959   2.586
 9794SOL     OW30280   0.216   4.255   6.683
 9794SOL    HW130281   0.209   4.344   6.637
 9794SOL    HW230282   0.297   4.255   6.742
 9795SOL     OW30283   1.752   1.729   4.438
 9795SOL    HW130284   1.710   1.813   4.405
 9795SOL    HW230285   1.750   1.728   4.538
 9796SOL     OW30286   3.217   2.957   2.386
 9796SOL    HW130287   3.172   2.992   2.304
 9796SOL    HW230288   3.273   2.877   2.362
 9797SOL     OW30289   2.078   5.696   0.111
 9797SOL    HW130290   1.996   5.683   0.055
 9797SOL    HW230291   2.093   5.794   0.125
 9798SOL     OW30292   3.314   0.349   2.464
 9798SOL    HW130293   3.355   0.320   2.550
 9798SOL    HW230294   3.227   0.302   2.450
 9799SOL     OW30295   3.059   4.043   5.466
 9799SOL    HW130296   3.083   4.119   5.528
 9799SOL    HW230297   2.960   4.038   5.458
 9800SOL     OW30298   4.627   4.835   4.930
 9800SOL    HW130299   4.599   4.840   5.026
 9800SOL    HW230300   4.724   4.812   4.924
 9801SOL     OW30301   5.096   3.888   0.162
 9801SOL    HW130302   5.080   3.967   0.221
 9801SOL    HW230303   5.137   3.918   0.075
 9802SOL     OW30304   6.884   4.189   2.130
 9802SOL    HW130305   6.861   4.092   2.120
 9802SOL    HW230306   6.809   4.245   2.098
 9803SOL     OW30307   1.819   1.904   6.412
 9803SOL    HW130308   1.855   1.931   6.323
 9803SOL    HW230309   1.791   1.986   6.463
 9804SOL     OW30310   1.265   6.107   3.271
 9804SOL    HW130311   1.208   6.061   3.339
 9804SOL    HW230312   1.356   6.066   3.271
 9805SOL     OW30313   0.739   6.637   3.264
 9805SOL    HW130314   0.807   6.643   3.337
 9805SOL    HW230315   0.781   6.662   3.176
 9806SOL     OW30316   1.363   1.162   6.312
 9806SOL    HW130317   1.389   1.153   6.408
 9806SOL    HW230318   1.282   1.106   6.294
 9807SOL     OW30319   3.613   4.501   0.711
 9807SOL    HW130320   3.592   4.416   0.662
 9807SOL    HW230321   3.581   4.495   0.805
 9808SOL     OW30322   3.568   0.248   5.012
 9808SOL    HW130323   3.620   0.178   4.962
 9808SOL    HW230324   3.484   0.270   4.961
 9809SOL     OW30325   0.908   3.315   6.514
 9809SOL    HW130326   0.984   3.380   6.511
 9809SOL    HW230327   0.907   3.268   6.602
 9810SOL     OW30328   2.066   2.671   3.834
 9810SOL    HW130329   2.137   2.719   3.886
 9810SOL    HW230330   1.995   2.736   3.808
 9811SOL     OW30331   5.664   4.884   3.150
 9811SOL    HW130332   5.714   4.869   3.064
 9811SOL    HW230333   5.705   4.962   3.198
 9812SOL     OW30334   4.048   1.933   5.794
 9812SOL    HW130335   3.963   1.932   5.846
 9812SOL    HW230336   4.028   1.923   5.696
 9813SOL     OW30337   4.849   1.462   0.961
 9813SOL    HW130338   4.878   1.366   0.955
 9813SOL    HW230339   4.793   1.484   0.881
 9814SOL     OW30340   6.577   0.248   6.845
 9814SOL    HW130341   6.518   0.261   6.925
 9814SOL    HW230342   6.520   0.227   6.765
 9815SOL     OW30343   5.596   3.893   4.594
 9815SOL    HW130344   5.683   3.922   4.633
 9815SOL    HW230345   5.567   3.808   4.638
 9816SOL     OW30346   0.625   0.889   6.149
 9816SOL    HW130347   0.703   0.889   6.087
 9816SOL    HW230348   0.657   0.874   6.243
 9817SOL     OW30349   3.001   6.720   3.270
 9817SOL    HW130350   2.945   6.667   3.206
 9817SOL    HW230351   2.942   6.761   3.340
 9818SOL     OW30352   0.645   0.459   4.022
 9818SOL    HW130353   0.629   0.361   4.030
 9818SOL    HW230354   0.558   0.508   4.026
 9819SOL     OW30355   4.907   3.553   3.732
 9819SOL    HW130356   4.902   3.515   3.824
 9819SOL    HW230357   4.986   3.513   3.684
 9820SOL     OW30358   4.146   3.238   6.457
 9820SOL    HW130359   4.106   3.204   6.371
 9820SOL    HW230360   4.112   3.330   6.474
 9821SOL     OW30361   4.960   1.074   6.427
 9821SOL    HW130362   4.973   1.160   6.378
 9821SOL    HW230363   4.971   1.089   6.525
 9822SOL     OW30364   2.153   0.111   3.518
 9822SOL    HW130365   2.103   0.138   3.435
 9822SOL    HW230366   2.214   0.185   3.546
 9823SOL     OW30367   2.496   0.929   0.285
 9823SOL    HW130368   2.525   1.010   0.335
 9823SOL    HW230369   2.577   0.874   0.261
 9824SOL     OW30370   1.683   5.066   4.646
 9824SOL    HW130371   1.768   5.093   4.693
 9824SOL    HW230372   1.609   5.127   4.675
 9825SOL     OW30373   4.904   5.528   5.206
 9825SOL    HW130374   4.908   5.439   5.250
 9825SOL    HW230375   4.995   5.571   5.210
 9826SOL     OW30376   4.560   5.151   6.118
 9826SOL    HW130377   4.499   5.141   6.039
 9826SOL    HW230378   4.532   5.231   6.172
 9827SOL     OW30379   2.062   3.200   3.959
 9827SOL    HW130380   2.045   3.138   4.035
 9827SOL    HW230381   2.097   3.287   3.994
 9828SOL     OW30382   2.215   2.711   5.473
 9828SOL    HW130383   2.125   2.748   5.448
 9828SOL    HW230384   2.235   2.632   5.415
 9829SOL     OW30385   4.101   5.247   6.585
 9829SOL    HW130386   4.096   5.299   6.670
 9829SOL    HW230387   4.109   5.310   6.507
 9830SOL     OW30388   6.047   2.126   2.004
 9830SOL    HW130389   6.129   2.142   1.949
 9830SOL    HW230390   5.974   2.188   1.974
 9831SOL     OW30391   2.536   5.184   1.067
 9831SOL    HW130392   2.579   5.155   1.152
 9831SOL    HW230393   2.540   5.283   1.059
 9832SOL     OW30394   5.081   5.641   2.602
 9832SOL    HW130395   5.176   5.611   2.611
 9832SOL    HW230396   5.059   5.653   2.506
 9833SOL     OW30397   3.329   3.458   4.906
 9833SOL    HW130398   3.332   3.556   4.922
 9833SOL    HW230399   3.419   3.425   4.876
 9834SOL     OW30400   2.493   4.233   5.353
 9834SOL    HW130401   2.517   4.136   5.362
 9834SOL    HW230402   2.417   4.241   5.288
 9835SOL     OW30403   3.983   3.205   5.257
 9835SOL    HW130404   4.060   3.194   5.319
 9835SOL    HW230405   3.966   3.119   5.208
 9836SOL     OW30406   6.529   4.681   3.436
 9836SOL    HW130407   6.444   4.647   3.395
 9836SOL    HW230408   6.571   4.747   3.375
 9837SOL     OW30409   3.277   0.500   2.832
 9837SOL    HW130410   3.367   0.540   2.848
 9837SOL    HW230411   3.280   0.402   2.850
 9838SOL     OW30412   1.666   0.032   6.847
 9838SOL    HW130413   1.707   7.014   6.929
 9838SOL    HW230414   1.738   0.063   6.785
 9839SOL     OW30415   5.433   0.334   3.444
 9839SOL    HW130416   5.531   0.340   3.466
 9839SOL    HW230417   5.397   0.247   3.477
 9840SOL     OW30418   5.889   1.450   0.742
 9840SOL    HW130419   5.955   1.490   0.678
 9840SOL    HW230420   5.808   1.419   0.692
 9841SOL     OW30421   1.785   4.868   5.368
 9841SOL    HW130422   1.777   4.789   5.307
 9841SOL    HW230423   1.824   4.945   5.318
 9842SOL     OW30424   3.433   3.356   1.964
 9842SOL    HW130425   3.344   3.328   1.930
 9842SOL    HW230426   3.488   3.392   1.888
 9843SOL     OW30427   6.195   1.043   1.253
 9843SOL    HW130428   6.252   1.115   1.213
 9843SOL    HW230429   6.150   0.992   1.180
 9844SOL     OW30430   6.446   0.753   2.181
 9844SOL    HW130431   6.520   0.809   2.219
 9844SOL    HW230432   6.389   0.719   2.256
 9845SOL     OW30433   1.959   2.806   3.092
 9845SOL    HW130434   2.047   2.851   3.076
 9845SOL    HW230435   1.936   2.810   3.189
 9846SOL     OW30436   3.840   3.319   2.169
 9846SOL    HW130437   3.757   3.332   2.224
 9846SOL    HW230438   3.875   3.226   2.183
 9847SOL     OW30439   3.673   2.972   3.799
 9847SOL    HW130440   3.628   3.061   3.792
 9847SOL    HW230441   3.627   2.916   3.868
 9848SOL     OW30442   3.529   3.155   4.757
 9848SOL    HW130443   3.461   3.227   4.771
 9848SOL    HW230444   3.597   3.185   4.690
 9849SOL     OW30445   1.106   6.950   6.732
 9849SOL    HW130446   1.090   0.026   6.737
 9849SOL    HW230447   1.060   6.913   6.651
 9850SOL     OW30448   6.054   6.752   4.254
 9850SOL    HW130449   6.062   6.738   4.156
 9850SOL    HW230450   6.046   6.664   4.301
 9851SOL     OW30451   6.313   0.473   4.468
 9851SOL    HW130452   6.393   0.483   4.527
 9851SOL    HW230453   6.265   0.389   4.492
 9852SOL     OW30454   4.077   1.905   3.768
 9852SOL    HW130455   4.049   1.899   3.864
 9852SOL    HW230456   4.039   1.988   3.727
 9853SOL     OW30457   4.986   3.714   4.630
 9853SOL    HW130458   5.085   3.697   4.629
 9853SOL    HW230459   4.956   3.723   4.725
 9854SOL     OW30460   6.708   5.548   5.271
 9854SOL    HW130461   6.665   5.475   5.219
 9854SOL    HW230462   6.804   5.556   5.246
 9855SOL     OW30463   2.187   3.628   1.173
 9855SOL    HW130464   2.260   3.651   1.108
 9855SOL    HW230465   2.228   3.592   1.257
 9856SOL     OW30466   4.989   4.089   4.613
 9856SOL    HW130467   4.912   4.118   4.556
 9856SOL    HW230468   4.992   3.989   4.617
 9857SOL     OW30469   4.831   2.925   2.756
 9857SOL    HW130470   4.823   2.932   2.656
 9857SOL    HW230471   4.803   3.012   2.797
 9858SOL     OW30472   0.162   0.838   1.453
 9858SOL    HW130473   0.132   0.760   1.508
 9858SOL    HW230474   0.136   0.822   1.357
 9859SOL     OW30475   6.397   6.795   2.412
 9859SOL    HW130476   6.412   6.732   2.335
 9859SOL    HW230477   6.378   6.886   2.377
 9860SOL     OW30478   1.206   1.692   3.045
 9860SOL    HW130479   1.296   1.700   3.089
 9860SOL    HW230480   1.195   1.766   2.979
 9861SOL     OW30481   3.219   0.387   3.601
 9861SOL    HW130482   3.236   0.474   3.555
 9861SOL    HW230483   3.214   0.402   3.700
 9862SOL     OW30484   3.716   2.959   6.979
 9862SOL    HW130485   3.810   2.924   6.974
 9862SOL    HW230486   3.651   2.884   6.971
 9863SOL     OW30487   3.176   0.065   2.614
 9863SOL    HW130488   3.223   7.006   2.579
 9863SOL    HW230489   3.084   0.071   2.574
 9864SOL     OW30490   3.561   6.629   3.751
 9864SOL    HW130491   3.502   6.556   3.714
 9864SOL    HW230492   3.534   6.716   3.711
 9865SOL     OW30493   1.322   0.320   4.355
 9865SOL    HW130494   1.241   0.354   4.402
 9865SOL    HW230495   1.296   0.253   4.286
 9866SOL     OW30496   4.885   4.418   6.127
 9866SOL    HW130497   4.854   4.370   6.209
 9866SOL    HW230498   4.808   4.431   6.065
 9867SOL     OW30499   6.658   1.303   0.748
 9867SOL    HW130500   6.667   1.401   0.731
 9867SOL    HW230501   6.650   1.254   0.661
 9868SOL     OW30502   0.470   3.643   5.521
 9868SOL    HW130503   0.457   3.643   5.422
 9868SOL    HW230504   0.567   3.628   5.542
 9869SOL     OW30505   1.051   2.742   1.573
 9869SOL    HW130506   1.084   2.833   1.596
 9869SOL    HW230507   1.121   2.674   1.596
 9870SOL     OW30508   3.460   6.275   2.803
 9870SOL    HW130509   3.451   6.266   2.703
 9870SOL    HW230510   3.547   6.235   2.832
 9871SOL     OW30511   0.073   6.060   5.995
 9871SOL    HW130512   7.009   6.015   6.018
 9871SOL    HW230513   0.076   6.081   5.897
 9872SOL     OW30514   2.466   5.492   4.744
 9872SOL    HW130515   2.461   5.395   4.765
 9872SOL    HW230516   2.553   5.513   4.700
 9873SOL     OW30517   2.543   2.610   0.477
 9873SOL    HW130518   2.507   2.703   0.478
 9873SOL    HW230519   2.626   2.606   0.421
 9874SOL     OW30520   5.787   3.105   5.084
 9874SOL    HW130521   5.882   3.079   5.066
 9874SOL    HW230522   5.770   3.196   5.048
 9875SOL     OW30523   5.761   6.165   1.804
 9875SOL    HW130524   5.664   6.184   1.816
 9875SOL    HW230525   5.786   6.084   1.857
 9876SOL     OW30526   5.975   0.484   3.786
 9876SOL    HW130527   6.013   0.393   3.765
 9876SOL    HW230528   5.995   0.507   3.881
 9877SOL     OW30529   6.637   5.259   4.487
 9877SOL    HW130530   6.607   5.188   4.423
 9877SOL    HW230531   6.590   5.345   4.465
 9878SOL     OW30532   2.808   4.047   5.944
 9878SOL    HW130533   2.800   3.974   6.012
 9878SOL    HW230534   2.785   4.135   5.988
 9879SOL     OW30535   5.584   5.614   5.444
 9879SOL    HW130536   5.592   5.714   5.452
 9879SOL    HW230537   5.526   5.580   5.518
 9880SOL     OW30538   4.107   0.716   0.094
 9880SOL    HW130539   4.133   0.620   0.087
 9880SOL    HW230540   4.184   0.773   0.064
 9881SOL     OW30541   1.339   1.162   3.915
 9881SOL    HW130542   1.428   1.117   3.911
 9881SOL    HW230543   1.346   1.244   3.973
 9882SOL     OW30544   1.376   3.488   4.307
 9882SOL    HW130545   1.339   3.463   4.217
 9882SOL    HW230546   1.404   3.405   4.356
 9883SOL     OW30547   1.406   5.977   0.952
 9883SOL    HW130548   1.502   5.994   0.974
 9883SOL    HW230549   1.390   5.993   0.855
 9884SOL     OW30550   4.645   2.320   1.692
 9884SOL    HW130551   4.589   2.241   1.715
 9884SOL    HW230552   4.739   2.304   1.722
 9885SOL     OW30553   0.522   2.203   4.861
 9885SOL    HW130554   0.604   2.255   4.838
 9885SOL    HW230555   0.465   2.191   4.780
 9886SOL     OW30556   1.149   4.589   1.779
 9886SOL    HW130557   1.106   4.517   1.725
 9886SOL    HW230558   1.228   4.551   1.828
 9887SOL     OW30559   4.806   0.286   6.756
 9887SOL    HW130560   4.876   0.352   6.726
 9887SOL    HW230561   4.850   0.200   6.780
 9888SOL     OW30562   5.596   4.896   2.394
 9888SOL    HW130563   5.527   4.881   2.323
 9888SOL    HW230564   5.551   4.909   2.482
 9889SOL     OW30565   6.273   5.057   0.690
 9889SOL    HW130566   6.320   5.042   0.777
 9889SOL    HW230567   6.223   5.143   0.694
 9890SOL     OW30568   0.924   2.946   1.149
 9890SOL    HW130569   0.864   2.876   1.186
 9890SOL    HW230570   0.992   2.904   1.089
 9891SOL     OW30571   5.766   3.303   1.559
 9891SOL    HW130572   5.806   3.216   1.585
 9891SOL    HW230573   5.795   3.327   1.466
 9892SOL     OW30574   1.694   4.761   2.275
 9892SOL    HW130575   1.678   4.844   2.221
 9892SOL    HW230576   1.607   4.713   2.289
 9893SOL     OW30577   0.334   0.381   2.337
 9893SOL    HW130578   0.430   0.387   2.363
 9893SOL    HW230579   0.302   0.287   2.351
 9894SOL     OW30580   3.008   2.761   0.317
 9894SOL    HW130581   3.047   2.784   0.406
 9894SOL    HW230582   3.081   2.735   0.254
 9895SOL     OW30583   5.543   3.532   5.108
 9895SOL    HW130584   5.541   3.436   5.136
 9895SOL    HW230585   5.638   3.564   5.105
 9896SOL     OW30586   6.109   1.100   0.762
 9896SOL    HW130587   6.178   1.118   0.692
 9896SOL    HW230588   6.103   1.178   0.824
 9897SOL     OW30589   5.966   0.117   2.175
 9897SOL    HW130590   5.954   0.178   2.253
 9897SOL    HW230591   6.034   0.047   2.198
 9898SOL     OW30592   0.878   5.185   6.111
 9898SOL    HW130593   0.973   5.180   6.080
 9898SOL    HW230594   0.838   5.271   6.080
 9899SOL     OW30595   0.763   5.148   1.806
 9899SOL    HW130596   0.676   5.111   1.771
 9899SOL    HW230597   0.744   5.229   1.861
 9900SOL     OW30598   1.401   3.033   2.660
 9900SOL    HW130599   1.470   3.032   2.731
 9900SOL    HW230600   1.420   3.108   2.596
 9901SOL     OW30601   3.149   0.536   6.475
 9901SOL    HW130602   3.202   0.619   6.459
 9901SOL    HW230603   3.089   0.519   6.397
 9902SOL     OW30604   3.504   4.310   1.435
 9902SOL    HW130605   3.589   4.260   1.449
 9902SOL    HW230606   3.462   4.330   1.523
 9903SOL     OW30607   5.527   1.407   1.410
 9903SOL    HW130608   5.550   1.419   1.506
 9903SOL    HW230609   5.592   1.458   1.353
 9904SOL     OW30610   0.469   3.552   6.508
 9904SOL    HW130611   0.534   3.485   6.472
 9904SOL    HW230612   0.432   3.606   6.432
 9905SOL     OW30613   2.600   0.329   5.560
 9905SOL    HW130614   2.682   0.355   5.611
 9905SOL    HW230615   2.519   0.360   5.609
 9906SOL     OW30616   1.772   3.022   0.887
 9906SOL    HW130617   1.771   3.066   0.976
 9906SOL    HW230618   1.862   3.031   0.845
 9907SOL     OW30619   1.535   0.614   1.342
 9907SOL    HW130620   1.520   0.577   1.433
 9907SOL    HW230621   1.454   0.665   1.312
 9908SOL     OW30622   6.148   2.434   4.872
 9908SOL    HW130623   6.188   2.356   4.825
 9908SOL    HW230624   6.195   2.449   4.959
 9909SOL     OW30625   3.987   0.667   2.373
 9909SOL    HW130626   4.043   0.687   2.454
 9909SOL    HW230627   4.040   0.683   2.290
 9910SOL     OW30628   1.354   5.168   1.507
 9910SOL    HW130629   1.302   5.230   1.567
 9910SOL    HW230630   1.452   5.185   1.519
 9911SOL     OW30631   2.587   6.017   1.885
 9911SOL    HW130632   2.546   6.084   1.947
 9911SOL    HW230633   2.560   6.038   1.791
 9912SOL     OW30634   3.928   1.345   0.890
 9912SOL    HW130635   3.900   1.441   0.899
 9912SOL    HW230636   3.854   1.293   0.846
 9913SOL     OW30637   6.363   3.356   0.611
 9913SOL    HW130638   6.342   3.258   0.612
 9913SOL    HW230639   6.290   3.405   0.564
 9914SOL     OW30640   6.540   7.015   5.770
 9914SOL    HW130641   6.542   0.071   5.832
 9914SOL    HW230642   6.543   0.025   5.675
 9915SOL     OW30643   5.839   0.889   3.571
 9915SOL    HW130644   5.789   0.972   3.596
 9915SOL    HW230645   5.829   0.821   3.644
 9916SOL     OW30646   2.136   2.366   3.105
 9916SOL    HW130647   2.182   2.335   3.189
 9916SOL    HW230648   2.199   2.359   3.028
 9917SOL     OW30649   3.815   3.944   5.906
 9917SOL    HW130650   3.737   3.882   5.918
 9917SOL    HW230651   3.792   4.015   5.840
 9918SOL     OW30652   1.305   2.609   2.705
 9918SOL    HW130653   1.257   2.690   2.671
 9918SOL    HW230654   1.388   2.637   2.752
 9919SOL     OW30655   2.339   5.257   1.531
 9919SOL    HW130656   2.314   5.170   1.488
 9919SOL    HW230657   2.352   5.326   1.460
 9920SOL     OW30658   4.890   0.503   2.594
 9920SOL    HW130659   4.791   0.506   2.605
 9920SOL    HW230660   4.913   0.509   2.497
 9921SOL     OW30661   4.431   6.298   4.183
 9921SOL    HW130662   4.526   6.318   4.158
 9921SOL    HW230663   4.370   6.328   4.109
 9922SOL     OW30664   4.040   4.325   0.725
 9922SOL    HW130665   3.980   4.307   0.647
 9922SOL    HW230666   4.064   4.422   0.726
 9923SOL     OW30667   6.346   3.927   0.195
 9923SOL    HW130668   6.272   3.887   0.141
 9923SOL    HW230669   6.313   4.011   0.238
 9924SOL     OW30670   5.794   2.007   2.628
 9924SOL    HW130671   5.758   2.065   2.701
 9924SOL    HW230672   5.725   1.938   2.604
 9925SOL     OW30673   0.326   5.190   3.932
 9925SOL    HW130674   0.409   5.183   3.988
 9925SOL    HW230675   0.290   5.099   3.914
 9926SOL     OW30676   4.354   2.437   0.963
 9926SOL    HW130677   4.412   2.356   0.974
 9926SOL    HW230678   4.281   2.435   1.032
 9927SOL     OW30679   1.514   1.320   0.832
 9927SOL    HW130680   1.594   1.316   0.891
 9927SOL    HW230681   1.440   1.264   0.872
 9928SOL     OW30682   4.895   4.730   3.456
 9928SOL    HW130683   4.993   4.707   3.457
 9928SOL    HW230684   4.847   4.669   3.393
 9929SOL     OW30685   3.692   4.013   4.359
 9929SOL    HW130686   3.653   4.032   4.449
 9929SOL    HW230687   3.792   4.017   4.365
 9930SOL     OW30688   0.595   6.923   5.929
 9930SOL    HW130689   0.542   6.839   5.931
 9930SOL    HW230690   0.546   6.995   5.978
 9931SOL     OW30691   6.932   5.024   4.737
 9931SOL    HW130692   6.883   4.988   4.657
 9931SOL    HW230693   6.882   5.002   4.820
 9932SOL     OW30694   2.605   3.000   5.640
 9932SOL    HW130695   2.657   3.085   5.641
 9932SOL    HW230696   2.616   2.955   5.552
 9933SOL     OW30697   2.350   6.529   4.117
 9933SOL    HW130698   2.439   6.524   4.072
 9933SOL    HW230699   2.324   6.625   4.127
 9934SOL     OW30700   0.349   2.205   6.097
 9934SOL    HW130701   0.272   2.254   6.138
 9934SOL    HW230702   0.433   2.231   6.144
 9935SOL     OW30703   2.383   0.041   1.183
 9935SOL    HW130704   2.351   6.970   1.166
 9935SOL    HW230705   2.483   0.044   1.177
 9936SOL     OW30706   6.380   4.586   0.474
 9936SOL    HW130707   6.461   4.576   0.533
 9936SOL    HW230708   6.357   4.683   0.466
 9937SOL     OW30709   0.565   1.634   1.811
 9937SOL    HW130710   0.548   1.697   1.735
 9937SOL    HW230711   0.522   1.670   1.894
 9938SOL     OW30712   5.457   5.106   3.847
 9938SOL    HW130713   5.410   5.094   3.760
 9938SOL    HW230714   5.521   5.030   3.860
 9939SOL     OW30715   3.713   2.513   1.013
 9939SOL    HW130716   3.693   2.493   0.917
 9939SOL    HW230717   3.691   2.432   1.069
 9940SOL     OW30718   1.095   0.317   1.893
 9940SOL    HW130719   1.014   0.281   1.940
 9940SOL    HW230720   1.178   0.279   1.935
 9941SOL     OW30721   3.044   4.294   6.007
 9941SOL    HW130722   3.136   4.310   6.042
 9941SOL    HW230723   3.049   4.256   5.915
 9942SOL     OW30724   3.545   5.496   2.546
 9942SOL    HW130725   3.459   5.482   2.594
 9942SOL    HW230726   3.529   5.496   2.447
 9943SOL     OW30727   1.258   4.893   6.629
 9943SOL    HW130728   1.340   4.884   6.686
 9943SOL    HW230729   1.256   4.984   6.587
 9944SOL     OW30730   0.598   4.450   6.738
 9944SOL    HW130731   0.503   4.472   6.757
 9944SOL    HW230732   0.658   4.521   6.775
 9945SOL     OW30733   4.628   5.592   0.026
 9945SOL    HW130734   4.664   5.665   6.990
 9945SOL    HW230735   4.564   5.631   0.093
 9946SOL     OW30736   6.529   7.009   3.459
 9946SOL    HW130737   6.445   7.005   3.405
 9946SOL    HW230738   6.569   6.918   3.466
 9947SOL     OW30739   2.649   2.218   4.415
 9947SOL    HW130740   2.635   2.265   4.327
 9947SOL    HW230741   2.596   2.265   4.486
 9948SOL     OW30742   7.010   4.898   5.239
 9948SOL    HW130743   6.949   4.825   5.210
 9948SOL    HW230744   6.962   4.986   5.232
 9949SOL     OW30745   6.854   4.870   3.810
 9949SOL    HW130746   6.802   4.819   3.879
 9949SOL    HW230747   6.951   4.847   3.818
 9950SOL     OW30748   5.707   6.072   6.201
 9950SOL    HW130749   5.684   6.028   6.114
 9950SOL    HW230750   5.623   6.102   6.247
 9951SOL     OW30751   1.243   2.517   3.432
 9951SOL    HW130752   1.254   2.610   3.397
 9951SOL    HW230753   1.176   2.517   3.506
 9952SOL     OW30754   1.563   4.336   0.563
 9952SOL    HW130755   1.554   4.289   0.651
 9952SOL    HW230756   1.650   4.312   0.521
 9953SOL     OW30757   6.051   2.166   4.285
 9953SOL    HW130758   5.955   2.138   4.292
 9953SOL    HW230759   6.097   2.151   4.372
 9954SOL     OW30760   1.284   0.420   5.530
 9954SOL    HW130761   1.371   0.409   5.481
 9954SOL    HW230762   1.209   0.420   5.464
 9955SOL     OW30763   4.484   4.071   6.462
 9955SOL    HW130764   4.492   4.169   6.479
 9955SOL    HW230765   4.557   4.022   6.509
 9956SOL     OW30766   0.630   5.642   4.333
 9956SOL    HW130767   0.572   5.591   4.397
 9956SOL    HW230768   0.672   5.578   4.269
 9957SOL     OW30769   5.816   0.081   1.483
 9957SOL    HW130770   5.784   0.160   1.535
 9957SOL    HW230771   5.740   0.039   1.435
 9958SOL     OW30772   2.381   5.983   6.901
 9958SOL    HW130773   2.431   6.063   6.866
 9958SOL    HW230774   2.329   5.941   6.826
 9959SOL     OW30775   4.106   3.637   3.704
 9959SOL    HW130776   4.139   3.605   3.615
 9959SOL    HW230777   4.135   3.731   3.718
 9960SOL     OW30778   0.586   0.290   2.298
 9960SOL    HW130779   0.640   0.318   2.378
 9960SOL    HW230780   0.635   0.219   2.248
 9961SOL     OW30781   1.213   5.218   4.901
 9961SOL    HW130782   1.280   5.201   4.828
 9961SOL    HW230783   1.140   5.277   4.866
 9962SOL     OW30784   4.519   0.449   2.840
 9962SOL    HW130785   4.430   0.417   2.808
 9962SOL    HW230786   4.563   0.377   2.894
 9963SOL     OW30787   2.401   2.257   6.004
 9963SOL    HW130788   2.482   2.221   5.957
 9963SOL    HW230789   2.318   2.228   5.955
 9964SOL     OW30790   4.252   4.308   6.161
 9964SOL    HW130791   4.263   4.379   6.092
 9964SOL    HW230792   4.330   4.246   6.158
 9965SOL     OW30793   3.798   4.691   5.729
 9965SOL    HW130794   3.787   4.611   5.788
 9965SOL    HW230795   3.727   4.758   5.749
 9966SOL     OW30796   2.396   5.781   1.977
 9966SOL    HW130797   2.450   5.836   1.914
 9966SOL    HW230798   2.344   5.840   2.038
 9967SOL     OW30799   6.031   5.809   1.373
 9967SOL    HW130800   6.111   5.834   1.428
 9967SOL    HW230801   5.999   5.890   1.323
 9968SOL     OW30802   3.353   4.364   6.585
 9968SOL    HW130803   3.401   4.444   6.550
 9968SOL    HW230804   3.304   4.389   6.669
 9969SOL     OW30805   1.477   2.227   3.974
 9969SOL    HW130806   1.479   2.134   4.010
 9969SOL    HW230807   1.544   2.235   3.900
 9970SOL     OW30808   5.942   4.616   2.323
 9970SOL    HW130809   5.873   4.634   2.254
 9970SOL    HW230810   5.910   4.648   2.412
 9971SOL     OW30811   2.642   4.069   0.183
 9971SOL    HW130812   2.544   4.050   0.174
 9971SOL    HW230813   2.694   3.987   0.156
 9972SOL     OW30814   3.610   4.948   0.938
 9972SOL    HW130815   3.520   4.904   0.941
 9972SOL    HW230816   3.680   4.881   0.961
 9973SOL     OW30817   4.419   2.233   4.418
 9973SOL    HW130818   4.419   2.313   4.359
 9973SOL    HW230819   4.401   2.261   4.512
 9974SOL     OW30820   5.947   3.492   3.583
 9974SOL    HW130821   5.978   3.451   3.497
 9974SOL    HW230822   6.025   3.505   3.644
 9975SOL     OW30823   6.884   4.436   0.248
 9975SOL    HW130824   6.828   4.518   0.258
 9975SOL    HW230825   6.825   4.356   0.243
 9976SOL     OW30826   6.951   5.495   5.774
 9976SOL    HW130827   6.964   5.434   5.852
 9976SOL    HW230828   0.014   5.500   5.722
 9977SOL     OW30829   6.937   5.275   5.964
 9977SOL    HW130830   6.850   5.281   6.013
 9977SOL    HW230831   6.936   5.194   5.905
 9978SOL     OW30832   6.508   2.713   3.580
 9978SOL    HW130833   6.586   2.732   3.639
 9978SOL    HW230834   6.502   2.614   3.564
 9979SOL     OW30835   6.408   4.796   6.118
 9979SOL    HW130836   6.433   4.890   6.140
 9979SOL    HW230837   6.444   4.735   6.190
 9980SOL     OW30838   1.847   1.422   6.916
 9980SOL    HW130839   1.937   1.385   6.942
 9980SOL    HW230840   1.858   1.517   6.885
 9981SOL     OW30841   2.600   1.545   1.296
 9981SOL    HW130842   2.665   1.593   1.237
 9981SOL    HW230843   2.611   1.575   1.391
 9982SOL     OW30844   0.478   1.378   3.361
 9982SOL    HW130845   0.457   1.286   3.394
 9982SOL    HW230846   0.495   1.375   3.262
 9983SOL     OW30847   1.422   2.172   2.160
 9983SOL    HW130848   1.371   2.097   2.119
 9983SOL    HW230849   1.365   2.254   2.162
 9984SOL     OW30850   1.269   0.274   0.671
 9984SOL    HW130851   1.245   0.228   0.757
 9984SOL    HW230852   1.195   0.335   0.645
 9985SOL     OW30853   2.764   1.040   2.086
 9985SOL    HW130854   2.766   0.941   2.094
 9985SOL    HW230855   2.718   1.066   2.001
 9986SOL     OW30856   5.135   4.145   6.699
 9986SOL    HW130857   5.155   4.242   6.710
 9986SOL    HW230858   5.203   4.103   6.637
 9987SOL     OW30859   5.829   1.633   2.856
 9987SOL    HW130860   5.806   1.632   2.759
 9987SOL    HW230861   5.795   1.550   2.900
 9988SOL     OW30862   0.296   5.149   5.390
 9988SOL    HW130863   0.294   5.072   5.326
 9988SOL    HW230864   0.389   5.185   5.395
 9989SOL     OW30865   5.436   4.256   2.830
 9989SOL    HW130866   5.455   4.181   2.893
 9989SOL    HW230867   5.518   4.313   2.820
 9990SOL     OW30868   2.563   0.239   2.649
 9990SOL    HW130869   2.590   0.321   2.599
 9990SOL    HW230870   2.580   0.158   2.593
 9991SOL     OW30871   1.837   3.545   4.752
 9991SOL    HW130872   1.753   3.566   4.803
 9991SOL    HW230873   1.848   3.446   4.744
 9992SOL     OW30874   4.628   3.851   0.340
 9992SOL    HW130875   4.712   3.846   0.287
 9992SOL    HW230876   4.641   3.807   0.429
 9993SOL     OW30877   4.031   0.212   2.189
 9993SOL    HW130878   3.955   0.154   2.160
 9993SOL    HW230879   4.045   0.201   2.287
 9994SOL     OW30880   6.855   3.911   4.115
 9994SOL    HW130881   6.850   4.006   4.146
 9994SOL    HW230882   6.927   3.902   4.047
 9995SOL     OW30883   2.949   0.279   2.495
 9995SOL    HW130884   3.013   0.243   2.426
 9995SOL    HW230885   2.856   0.255   2.470
 9996SOL     OW30886   2.820   3.378   1.479
 9996SOL    HW130887   2.766   3.295   1.478
 9996SOL    HW230888   2.768   3.452   1.520
 9997SOL     OW30889   4.337   2.043   0.794
 9997SOL    HW130890   4.282   1.962   0.775
 9997SOL    HW230891   4.429   2.014   0.821
 9998SOL     OW30892   6.677   3.800   1.970
 9998SOL    HW130893   6.602   3.814   2.034
 9998SOL    HW230894   6.762   3.835   2.009
 9999SOL     OW30895   6.056   4.436   5.051
 9999SOL    HW130896   6.026   4.381   5.129
 9999SOL    HW230897   5.977   4.487   5.015
10000SOL     OW30898   5.494   3.183   0.028
10000SOL    HW130899   5.404   3.225   0.034
10000SOL    HW230900   5.496   3.119   6.973
10001SOL     OW30901   5.074   1.304   2.060
10001SOL    HW130902   5.035   1.322   1.969
10001SOL    HW230903   5.001   1.277   2.122
10002SOL     OW30904   1.375   0.665   1.012
10002SOL    HW130905   1.373   0.646   1.110
10002SOL    HW230906   1.309   0.606   0.965
10003SOL     OW30907   3.729   1.848   3.439
10003SOL    HW130908   3.784   1.794   3.503
10003SOL    HW230909   3.740   1.945   3.458
10004SOL     OW30910   4.547   2.580   4.546
10004SOL    HW130911   4.493   2.561   4.464
10004SOL    HW230912   4.555   2.679   4.559
10005SOL     OW30913   4.750   6.654   3.504
10005SOL    HW130914   4.769   6.750   3.526
10005SOL    HW230915   4.822   6.596   3.541
10006SOL     OW30916   5.192   0.918   4.007
10006SOL    HW130917   5.236   1.007   4.005
10006SOL    HW230918   5.092   0.930   4.013
10007SOL     OW30919   0.715   4.573   5.060
10007SOL    HW130920   0.763   4.659   5.080
10007SOL    HW230921   0.749   4.535   4.974
10008SOL     OW30922   4.682   1.273   3.691
10008SOL    HW130923   4.697   1.365   3.727
10008SOL    HW230924   4.708   1.271   3.594
10009SOL     OW30925   1.725   3.907   1.741
10009SOL    HW130926   1.809   3.951   1.772
10009SOL    HW230927   1.723   3.812   1.772
10010SOL     OW30928   2.197   6.673   6.728
10010SOL    HW130929   2.244   6.724   6.656
10010SOL    HW230930   2.154   6.737   6.792
10011SOL     OW30931   6.116   2.076   4.903
10011SOL    HW130932   6.041   2.010   4.898
10011SOL    HW230933   6.083   2.160   4.946
10012SOL     OW30934   4.564   0.092   2.895
10012SOL    HW130935   4.498   0.020   2.875
10012SOL    HW230936   4.638   0.090   2.828
10013SOL     OW30937   1.515   1.548   3.855
10013SOL    HW130938   1.583   1.523   3.786
10013SOL    HW230939   1.426   1.561   3.811
10014SOL     OW30940   6.309   3.030   6.878
10014SOL    HW130941   6.357   2.972   6.813
10014SOL    HW230942   6.333   3.126   6.861
10015SOL     OW30943   2.609   4.361   0.863
10015SOL    HW130944   2.581   4.432   0.927
10015SOL    HW230945   2.706   4.370   0.843
10016SOL     OW30946   2.060   0.232   4.923
10016SOL    HW130947   2.113   0.157   4.963
10016SOL    HW230948   1.974   0.197   4.887
10017SOL     OW30949   1.941   2.157   2.319
10017SOL    HW130950   2.005   2.111   2.258
10017SOL    HW230951   1.989   2.183   2.403
10018SOL     OW30952   4.850   6.756   5.899
10018SOL    HW130953   4.787   6.824   5.861
10018SOL    HW230954   4.834   6.668   5.855
10019SOL     OW30955   1.518   1.947   2.948
10019SOL    HW130956   1.585   2.021   2.950
10019SOL    HW230957   1.555   1.870   2.896
10020SOL     OW30958   0.805   3.081   1.611
10020SOL    HW130959   0.890   3.029   1.606
10020SOL    HW230960   0.750   3.047   1.688
10021SOL     OW30961   0.358   3.233   1.030
10021SOL    HW130962   0.266   3.193   1.026
10021SOL    HW230963   0.350   3.333   1.037
10022SOL     OW30964   3.651   0.012   0.697
10022SOL    HW130965   3.575   0.075   0.712
10022SOL    HW230966   3.683   0.019   0.603
10023SOL     OW30967   1.501   5.129   6.084
10023SOL    HW130968   1.461   5.060   6.144
10023SOL    HW230969   1.510   5.215   6.133
10024SOL     OW30970   2.503   6.714   1.895
10024SOL    HW130971   2.430   6.761   1.846
10024SOL    HW230972   2.467   6.679   1.982
10025SOL     OW30973   1.277   1.311   1.504
10025SOL    HW130974   1.291   1.233   1.442
10025SOL    HW230975   1.187   1.304   1.546
10026SOL     OW30976   4.819   6.762   3.810
10026SOL    HW130977   4.808   6.664   3.820
10026SOL    HW230978   4.847   6.802   3.898
10027SOL     OW30979   0.228   4.099   5.197
10027SOL    HW130980   0.239   4.164   5.272
10027SOL    HW230981   0.274   4.013   5.221
10028SOL     OW30982   0.972   1.857   1.539
10028SOL    HW130983   1.020   1.941   1.566
10028SOL    HW230984   0.887   1.881   1.493
10029SOL     OW30985   3.819   2.108   4.013
10029SOL    HW130986   3.803   2.136   3.919
10029SOL    HW230987   3.736   2.125   4.067
10030SOL     OW30988   2.124   6.876   3.579
10030SOL    HW130989   2.216   6.852   3.608
10030SOL    HW230990   2.116   6.976   3.571
10031SOL     OW30991   6.169   5.136   3.801
10031SOL    HW130992   6.153   5.141   3.900
10031SOL    HW230993   6.088   5.168   3.752
10032SOL     OW30994   2.877   1.816   4.948
10032SOL    HW130995   2.936   1.897   4.951
10032SOL    HW230996   2.895   1.759   5.028
10033SOL     OW30997   5.101   2.319   3.538
10033SOL    HW130998   5.023   2.354   3.592
10033SOL    HW230999   5.171   2.285   3.601
10034SOL     OW31000   3.049   0.168   4.000
10034SOL    HW131001   3.011   0.114   3.924
10034SOL    HW231002   3.128   0.219   3.967
10035SOL     OW31003   6.689   4.328   1.984
10035SOL    HW131004   6.653   4.418   2.007
10035SOL    HW231005   6.768   4.338   1.923
10036SOL     OW31006   5.923   1.436   1.429
10036SOL    HW131007   5.922   1.509   1.498
10036SOL    HW231008   5.851   1.452   1.363
10037SOL     OW31009   6.662   0.916   0.800
10037SOL    HW131010   6.720   0.945   0.724
10037SOL    HW231011   6.598   0.846   0.768
10038SOL     OW31012   5.090   0.609   0.061
10038SOL    HW131013   5.058   0.533   0.118
10038SOL    HW231014   5.155   0.664   0.113
10039SOL     OW31015   3.652   0.265   3.306
10039SOL    HW131016   3.565   0.217   3.308
10039SOL    HW231017   3.659   0.324   3.386
10040SOL     OW31018   4.344   5.934   6.122
10040SOL    HW131019   4.412   5.894   6.061
10040SOL    HW231020   4.271   5.868   6.139
10041SOL     OW31021   4.142   6.187   6.885
10041SOL    HW131022   4.219   6.251   6.878
10041SOL    HW231023   4.064   6.224   6.834
10042SOL     OW31024   0.969   1.871   4.325
10042SOL    HW131025   1.017   1.788   4.351
10042SOL    HW231026   1.016   1.950   4.363
10043SOL     OW31027   6.530   1.629   5.002
10043SOL    HW131028   6.446   1.634   4.949
10043SOL    HW231029   6.593   1.700   4.971
10044SOL     OW31030   2.427   1.674   4.845
10044SOL    HW131031   2.470   1.626   4.768
10044SOL    HW231032   2.437   1.772   4.833
10045SOL     OW31033   3.571   0.239   3.021
10045SOL    HW131034   3.552   0.255   3.118
10045SOL    HW231035   3.661   0.198   3.010
10046SOL     OW31036   2.084   3.789   0.665
10046SOL    HW131037   2.098   3.880   0.703
10046SOL    HW231038   1.994   3.755   0.692
10047SOL     OW31039   0.803   3.391   4.767
10047SOL    HW131040   0.754   3.474   4.792
10047SOL    HW231041   0.814   3.333   4.848
10048SOL     OW31042   6.375   0.457   2.347
10048SOL    HW131043   6.416   0.538   2.389
10048SOL    HW231044   6.370   0.384   2.415
10049SOL     OW31045   1.177   1.805   5.890
10049SOL    HW131046   1.259   1.859   5.908
10049SOL    HW231047   1.164   1.796   5.791
10050SOL     OW31048   5.270   3.503   5.259
10050SOL    HW131049   5.345   3.443   5.287
10050SOL    HW231050   5.275   3.589   5.310
10051SOL     OW31051   6.569   3.960   5.516
10051SOL    HW131052   6.479   3.949   5.558
10051SOL    HW231053   6.600   4.054   5.528
10052SOL     OW31054   2.136   1.019   2.975
10052SOL    HW131055   2.191   1.099   2.949
10052SOL    HW231056   2.159   0.943   2.914
10053SOL     OW31057   4.067   5.495   3.374
10053SOL    HW131058   4.141   5.535   3.428
10053SOL    HW231059   4.074   5.526   3.279
10054SOL     OW31060   5.254   5.971   5.691
10054SOL    HW131061   5.308   6.003   5.768
10054SOL    HW231062   5.268   6.032   5.613
10055SOL     OW31063   6.130   1.342   5.128
10055SOL    HW131064   6.214   1.328   5.075
10055SOL    HW231065   6.143   1.305   5.220
10056SOL     OW31066   5.303   4.831   2.780
10056SOL    HW131067   5.332   4.746   2.822
10056SOL    HW231068   5.310   4.905   2.847
10057SOL     OW31069   4.405   3.039   5.397
10057SOL    HW131070   4.470   3.082   5.335
10057SOL    HW231071   4.378   2.949   5.362
10058SOL     OW31072   6.135   3.535   4.649
10058SOL    HW131073   6.100   3.546   4.556
10058SOL    HW231074   6.077   3.471   4.700
10059SOL     OW31075   0.371   1.569   6.731
10059SOL    HW131076   0.313   1.509   6.786
10059SOL    HW231077   0.314   1.615   6.662
10060SOL     OW31078   2.329   2.681   2.393
10060SOL    HW131079   2.304   2.738   2.315
10060SOL    HW231080   2.356   2.738   2.470
10061SOL     OW31081   4.820   1.481   3.807
10061SOL    HW131082   4.839   1.452   3.901
10061SOL    HW231083   4.889   1.547   3.778
10062SOL     OW31084   5.594   0.522   3.692
10062SOL    HW131085   5.579   0.499   3.596
10062SOL    HW231086   5.546   0.457   3.750
10063SOL     OW31087   2.861   1.304   4.478
10063SOL    HW131088   2.922   1.379   4.452
10063SOL    HW231089   2.872   1.285   4.575
10064SOL     OW31090   4.517   6.144   0.601
10064SOL    HW131091   4.468   6.058   0.582
10064SOL    HW231092   4.611   6.124   0.626
10065SOL     OW31093   2.485   0.637   2.342
10065SOL    HW131094   2.543   0.619   2.421
10065SOL    HW231095   2.537   0.690   2.275
10066SOL     OW31096   0.709   2.728   4.737
10066SOL    HW131097   0.774   2.769   4.801
10066SOL    HW231098   0.645   2.671   4.787
10067SOL     OW31099   0.411   3.295   5.378
10067SOL    HW131100   0.415   3.227   5.451
10067SOL    HW231101   0.329   3.350   5.388
10068SOL     OW31102   0.871   3.652   3.964
10068SOL    HW131103   0.783   3.633   3.920
10068SOL    HW231104   0.869   3.742   4.006
10069SOL     OW31105   3.169   5.252   1.707
10069SOL    HW131106   3.223   5.271   1.789
10069SOL    HW231107   3.229   5.236   1.629
10070SOL     OW31108   0.324   6.088   5.261
10070SOL    HW131109   0.281   6.175   5.286
10070SOL    HW231110   0.419   6.105   5.236
10071SOL     OW31111   0.073   6.142   4.475
10071SOL    HW131112   7.021   6.180   4.531
10071SOL    HW231113   0.063   6.043   4.468
10072SOL     OW31114   0.018   0.206   4.522
10072SOL    HW131115   0.039   0.109   4.511
10072SOL    HW231116   0.023   0.252   4.433
10073SOL     OW31117   6.703   3.842   4.328
10073SOL    HW131118   6.604   3.828   4.333
10073SOL    HW231119   6.729   3.864   4.234
10074SOL     OW31120   2.226   6.902   6.531
10074SOL    HW131121   2.302   6.877   6.470
10074SOL    HW231122   2.243   6.993   6.570
10075SOL     OW31123   1.609   2.320   1.821
10075SOL    HW131124   1.679   2.388   1.800
10075SOL    HW231125   1.637   2.266   1.900
10076SOL     OW31126   5.575   6.503   3.129
10076SOL    HW131127   5.586   6.498   3.229
10076SOL    HW231128   5.599   6.414   3.089
10077SOL     OW31129   4.025   3.573   0.786
10077SOL    HW131130   4.069   3.585   0.876
10077SOL    HW231131   4.016   3.662   0.742
10078SOL     OW31132   6.159   6.231   4.478
10078SOL    HW131133   6.190   6.159   4.540
10078SOL    HW231134   6.075   6.272   4.513
10079SOL     OW31135   5.763   3.346   3.163
10079SOL    HW131136   5.714   3.419   3.116
10079SOL    HW231137   5.755   3.261   3.110
10080SOL     OW31138   4.767   1.550   6.391
10080SOL    HW131139   4.712   1.477   6.434
10080SOL    HW231140   4.719   1.637   6.401
10081SOL     OW31141   0.920   1.835   6.780
10081SOL    HW131142   0.920   1.748   6.731
10081SOL    HW231143   0.868   1.825   6.865
10082SOL     OW31144   0.372   5.635   2.004
10082SOL    HW131145   0.381   5.541   2.038
10082SOL    HW231146   0.322   5.690   2.070
10083SOL     OW31147   3.270   0.295   3.875
10083SOL    HW131148   3.357   0.315   3.919
10083SOL    HW231149   3.284   0.229   3.801
10084SOL     OW31150   0.719   0.301   5.436
10084SOL    HW131151   0.684   0.211   5.410
10084SOL    HW231152   0.668   0.371   5.385
10085SOL     OW31153   3.482   0.193   0.870
10085SOL    HW131154   3.482   0.228   0.776
10085SOL    HW231155   3.576   0.184   0.902
10086SOL     OW31156   5.949   5.769   3.013
10086SOL    HW131157   5.969   5.861   3.045
10086SOL    HW231158   5.963   5.704   3.087
10087SOL     OW31159   6.191   5.844   4.192
10087SOL    HW131160   6.198   5.943   4.191
10087SOL    HW231161   6.243   5.808   4.270
10088SOL     OW31162   0.019   0.166   2.036
10088SOL    HW131163   6.988   0.251   2.045
10088SOL    HW231164   6.995   0.106   1.971
10089SOL     OW31165   3.256   2.160   3.274
10089SOL    HW131166   3.163   2.151   3.238
10089SOL    HW231167   3.315   2.202   3.205
10090SOL     OW31168   0.125   5.020   2.016
10090SOL    HW131169   0.057   4.949   2.000
10090SOL    HW231170   0.116   5.055   2.109
10091SOL     OW31171   6.619   5.535   6.252
10091SOL    HW131172   6.618   5.437   6.234
10091SOL    HW231173   6.704   5.559   6.300
10092SOL     OW31174   1.367   2.695   6.068
10092SOL    HW131175   1.328   2.632   6.136
10092SOL    HW231176   1.388   2.645   5.984
10093SOL     OW31177   4.572   3.296   5.350
10093SOL    HW131178   4.508   3.330   5.418
10093SOL    HW231179   4.612   3.373   5.300
10094SOL     OW31180   2.311   6.193   1.023
10094SOL    HW131181   2.242   6.244   1.075
10094SOL    HW231182   2.368   6.257   0.973
10095SOL     OW31183   5.166   1.814   4.573
10095SOL    HW131184   5.248   1.773   4.533
10095SOL    HW231185   5.169   1.805   4.673
10096SOL     OW31186   4.548   6.639   2.909
10096SOL    HW131187   4.520   6.545   2.888
10096SOL    HW231188   4.541   6.654   3.008
10097SOL     OW31189   1.792   2.165   6.804
10097SOL    HW131190   1.709   2.196   6.851
10097SOL    HW231191   1.872   2.199   6.852
10098SOL     OW31192   3.169   6.656   4.690
10098SOL    HW131193   3.163   6.756   4.685
10098SOL    HW231194   3.142   6.626   4.781
10099SOL     OW31195   0.280   4.726   1.718
10099SOL    HW131196   0.250   4.709   1.811
10099SOL    HW231197   0.313   4.641   1.677
10100SOL     OW31198   5.302   6.126   5.489
10100SOL    HW131199   5.379   6.071   5.457
10100SOL    HW231200   5.292   6.207   5.431
10101SOL     OW31201   0.048   3.415   1.991
10101SOL    HW131202   0.019   3.320   1.982
10101SOL    HW231203   6.994   3.470   2.026
10102SOL     OW31204   6.615   0.688   1.131
10102SOL    HW131205   6.585   0.604   1.087
10102SOL    HW231206   6.548   0.761   1.113
10103SOL     OW31207   2.090   0.298   5.559
10103SOL    HW131208   2.012   0.361   5.565
10103SOL    HW231209   2.136   0.311   5.471
10104SOL     OW31210   1.566   1.214   5.226
10104SOL    HW131211   1.481   1.172   5.194
10104SOL    HW231212   1.549   1.308   5.254
10105SOL     OW31213   1.835   0.471   5.985
10105SOL    HW131214   1.762   0.443   6.047
10105SOL    HW231215   1.921   0.427   6.012
10106SOL     OW31216   4.149   6.649   0.912
10106SOL    HW131217   4.119   6.714   0.982
10106SOL    HW231218   4.249   6.648   0.908
10107SOL     OW31219   5.336   1.714   6.276
10107SOL    HW131220   5.313   1.803   6.316
10107SOL    HW231221   5.435   1.708   6.263
10108SOL     OW31222   0.319   2.043   7.014
10108SOL    HW131223   0.357   2.040   6.921
10108SOL    HW231224   0.390   2.075   0.055
10109SOL     OW31225   0.562   1.176   0.862
10109SOL    HW131226   0.605   1.145   0.947
10109SOL    HW231227   0.493   1.245   0.883
10110SOL     OW31228   4.602   4.523   4.088
10110SOL    HW131229   4.633   4.433   4.060
10110SOL    HW231230   4.565   4.519   4.181
10111SOL     OW31231   0.024   3.698   3.338
10111SOL    HW131232   0.069   3.784   3.316
10111SOL    HW231233   0.059   3.626   3.277
10112SOL     OW31234   5.851   3.483   2.820
10112SOL    HW131235   5.851   3.412   2.891
10112SOL    HW231236   5.828   3.442   2.732
10113SOL     OW31237   4.457   0.330   0.788
10113SOL    HW131238   4.494   0.419   0.761
10113SOL    HW231239   4.391   0.299   0.720
10114SOL     OW31240   4.333   1.912   2.900
10114SOL    HW131241   4.428   1.933   2.874
10114SOL    HW231242   4.277   1.993   2.888
10115SOL     OW31243   4.005   1.951   5.042
10115SOL    HW131244   4.035   2.032   4.991
10115SOL    HW231245   3.992   1.875   4.979
10116SOL     OW31246   0.310   6.793   6.999
10116SOL    HW131247   0.327   6.718   6.935
10116SOL    HW231248   0.216   6.825   6.988
10117SOL     OW31249   6.873   6.368   6.006
10117SOL    HW131250   6.892   6.292   5.945
10117SOL    HW231251   6.835   6.445   5.954
10118SOL     OW31252   2.484   4.507   4.081
10118SOL    HW131253   2.390   4.484   4.058
10118SOL    HW231254   2.538   4.423   4.088
10119SOL     OW31255   6.262   4.817   4.038
10119SOL    HW131256   6.164   4.824   4.017
10119SOL    HW231257   6.297   4.908   4.062
10120SOL     OW31258   1.891   3.213   4.323
10120SOL    HW131259   1.887   3.286   4.254
10120SOL    HW231260   1.809   3.217   4.380
10121SOL     OW31261   6.067   3.966   0.364
10121SOL    HW131262   6.065   3.959   0.463
10121SOL    HW231263   6.119   4.047   0.337
10122SOL     OW31264   5.916   2.360   3.846
10122SOL    HW131265   5.994   2.299   3.862
10122SOL    HW231266   5.836   2.306   3.819
10123SOL     OW31267   5.909   6.321   0.955
10123SOL    HW131268   5.915   6.416   0.987
10123SOL    HW231269   5.838   6.315   0.884
10124SOL     OW31270   1.312   5.179   0.651
10124SOL    HW131271   1.346   5.090   0.681
10124SOL    HW231272   1.282   5.173   0.556
10125SOL     OW31273   2.659   1.415   0.874
10125SOL    HW131274   2.597   1.439   0.800
10125SOL    HW231275   2.646   1.318   0.898
10126SOL     OW31276   0.087   6.956   6.057
10126SOL    HW131277   0.098   6.978   6.154
10126SOL    HW231278   0.025   7.022   6.015
10127SOL     OW31279   1.953   3.488   0.400
10127SOL    HW131280   1.896   3.419   0.444
10127SOL    HW231281   1.947   3.574   0.452
10128SOL     OW31282   2.786   1.025   5.968
10128SOL    HW131283   2.812   1.012   6.064
10128SOL    HW231284   2.762   0.937   5.927
10129SOL     OW31285   0.049   1.955   2.214
10129SOL    HW131286   6.977   1.963   2.182
10129SOL    HW231287   0.061   2.006   2.299
10130SOL     OW31288   0.554   3.493   1.652
10130SOL    HW131289   0.650   3.466   1.647
10130SOL    HW231290   0.517   3.504   1.560
10131SOL     OW31291   1.408   0.537   4.001
10131SOL    HW131292   1.457   0.507   4.084
10131SOL    HW231293   1.402   0.636   4.000
10132SOL     OW31294   1.396   0.455   2.997
10132SOL    HW131295   1.478   0.399   2.997
10132SOL    HW231296   1.351   0.450   3.086
10133SOL     OW31297   4.441   6.665   0.909
10133SOL    HW131298   4.442   6.626   1.001
10133SOL    HW231299   4.455   6.764   0.914
10134SOL     OW31300   6.016   1.162   3.183
10134SOL    HW131301   6.035   1.072   3.223
10134SOL    HW231302   6.013   1.154   3.084
10135SOL     OW31303   4.868   2.480   3.602
10135SOL    HW131304   4.863   2.473   3.502
10135SOL    HW231305   4.811   2.556   3.633
10136SOL     OW31306   5.536   1.809   2.233
10136SOL    HW131307   5.495   1.803   2.324
10136SOL    HW231308   5.569   1.902   2.217
10137SOL     OW31309   0.177   4.898   5.676
10137SOL    HW131310   0.256   4.954   5.701
10137SOL    HW231311   0.208   4.809   5.644
10138SOL     OW31312   5.626   3.071   0.677
10138SOL    HW131313   5.712   3.056   0.627
10138SOL    HW231314   5.613   2.996   0.743
10139SOL     OW31315   3.122   3.772   4.893
10139SOL    HW131316   3.091   3.812   4.979
10139SOL    HW231317   3.220   3.786   4.883
10140SOL     OW31318   0.113   6.281   6.363
10140SOL    HW131319   0.097   6.363   6.418
10140SOL    HW231320   0.106   6.304   6.266
10141SOL     OW31321   3.937   1.183   4.634
10141SOL    HW131322   3.928   1.277   4.603
10141SOL    HW231323   3.911   1.177   4.731
10142SOL     OW31324   6.224   6.630   5.664
10142SOL    HW131325   6.188   6.539   5.684
10142SOL    HW231326   6.148   6.692   5.645
10143SOL     OW31327   5.653   2.966   0.109
10143SOL    HW131328   5.683   2.991   0.200
10143SOL    HW231329   5.574   3.022   0.083
10144SOL     OW31330   4.891   6.570   5.059
10144SOL    HW131331   4.890   6.617   5.147
10144SOL    HW231332   4.914   6.474   5.073
10145SOL     OW31333   3.748   5.790   2.963
10145SOL    HW131334   3.760   5.745   3.051
10145SOL    HW231335   3.728   5.722   2.893
10146SOL     OW31336   6.851   4.011   4.483
10146SOL    HW131337   6.816   3.930   4.434
10146SOL    HW231338   6.778   4.050   4.538
10147SOL     OW31339   4.845   4.184   6.359
10147SOL    HW131340   4.805   4.114   6.300
10147SOL    HW231341   4.791   4.192   6.443
10148SOL     OW31342   6.011   3.871   0.804
10148SOL    HW131343   6.071   3.801   0.842
10148SOL    HW231344   6.064   3.929   0.742
10149SOL     OW31345   4.998   4.739   1.453
10149SOL    HW131346   5.044   4.809   1.507
10149SOL    HW231347   4.920   4.703   1.505
10150SOL     OW31348   4.578   3.254   1.364
10150SOL    HW131349   4.607   3.213   1.451
10150SOL    HW231350   4.657   3.262   1.303
10151SOL     OW31351   0.834   0.365   6.152
10151SOL    HW131352   0.913   0.406   6.106
10151SOL    HW231353   0.764   0.343   6.084
10152SOL     OW31354   6.366   5.673   4.025
10152SOL    HW131355   6.376   5.585   4.073
10152SOL    HW231356   6.287   5.722   4.062
10153SOL     OW31357   4.663   5.926   4.200
10153SOL    HW131358   4.721   5.892   4.275
10153SOL    HW231359   4.713   5.918   4.114
10154SOL     OW31360   3.029   6.516   5.846
10154SOL    HW131361   3.004   6.609   5.874
10154SOL    HW231362   3.128   6.509   5.838
10155SOL     OW31363   4.866   2.394   5.765
10155SOL    HW131364   4.958   2.396   5.726
10155SOL    HW231365   4.818   2.479   5.742
10156SOL     OW31366   5.267   0.525   1.302
10156SOL    HW131367   5.277   0.512   1.401
10156SOL    HW231368   5.170   0.534   1.280
10157SOL     OW31369   0.115   2.390   0.197
10157SOL    HW131370   0.078   2.369   0.288
10157SOL    HW231371   0.105   2.310   0.138
10158SOL     OW31372   6.173   6.491   1.931
10158SOL    HW131373   6.233   6.416   1.956
10158SOL    HW231374   6.098   6.457   1.874
10159SOL     OW31375   3.735   3.273   2.717
10159SOL    HW131376   3.722   3.354   2.660
10159SOL    HW231377   3.647   3.225   2.727
10160SOL     OW31378   1.729   3.968   3.237
10160SOL    HW131379   1.783   4.009   3.311
10160SOL    HW231380   1.654   3.914   3.277
10161SOL     OW31381   3.410   5.093   6.683
10161SOL    HW131382   3.340   5.160   6.710
10161SOL    HW231383   3.390   5.005   6.726
10162SOL     OW31384   2.194   4.003   0.830
10162SOL    HW131385   2.238   3.921   0.794
10162SOL    HW231386   2.263   4.073   0.847
10163SOL     OW31387   0.559   5.079   6.357
10163SOL    HW131388   0.468   5.048   6.383
10163SOL    HW231389   0.552   5.163   6.302
10164SOL     OW31390   5.937   3.213   4.541
10164SOL    HW131391   5.990   3.180   4.463
10164SOL    HW231392   5.999   3.239   4.615
10165SOL     OW31393   6.706   2.774   3.750
10165SOL    HW131394   6.736   2.862   3.786
10165SOL    HW231395   6.745   2.700   3.806
10166SOL     OW31396   1.359   1.899   1.215
10166SOL    HW131397   1.375   1.976   1.276
10166SOL    HW231398   1.322   1.822   1.268
10167SOL     OW31399   6.977   5.732   0.157
10167SOL    HW131400   6.986   5.634   0.145
10167SOL    HW231401   0.046   5.773   0.166
10168SOL     OW31402   6.574   1.761   6.223
10168SOL    HW131403   6.581   1.860   6.210
10168SOL    HW231404   6.497   1.741   6.284
10169SOL     OW31405   6.352   3.851   3.252
10169SOL    HW131406   6.255   3.862   3.231
10169SOL    HW231407   6.372   3.895   3.340
10170SOL     OW31408   6.517   5.782   6.247
10170SOL    HW131409   6.557   5.836   6.321
10170SOL    HW231410   6.572   5.700   6.232
10171SOL     OW31411   0.558   2.522   4.454
10171SOL    HW131412   0.502   2.587   4.506
10171SOL    HW231413   0.655   2.537   4.476
10172SOL     OW31414   0.560   0.061   4.617
10172SOL    HW131415   0.561   0.042   4.715
10172SOL    HW231416   0.619   7.018   4.570
10173SOL     OW31417   2.548   3.213   6.675
10173SOL    HW131418   2.637   3.243   6.641
10173SOL    HW231419   2.483   3.288   6.669
10174SOL     OW31420   4.472   4.486   3.641
10174SOL    HW131421   4.379   4.460   3.666
10174SOL    HW231422   4.480   4.586   3.641
10175SOL     OW31423   6.165   1.597   3.909
10175SOL    HW131424   6.125   1.685   3.887
10175SOL    HW231425   6.188   1.594   4.006
10176SOL     OW31426   6.340   3.352   5.315
10176SOL    HW131427   6.372   3.308   5.231
10176SOL    HW231428   6.353   3.451   5.308
10177SOL     OW31429   1.569   6.832   0.999
10177SOL    HW131430   1.481   6.809   1.040
10177SOL    HW231431   1.555   6.897   0.924
10178SOL     OW31432   1.845   1.080   0.848
10178SOL    HW131433   1.943   1.098   0.848
10178SOL    HW231434   1.816   1.049   0.758
10179SOL     OW31435   0.237   3.835   6.450
10179SOL    HW131436   0.310   3.851   6.516
10179SOL    HW231437   0.276   3.825   6.358
10180SOL     OW31438   4.548   0.510   0.297
10180SOL    HW131439   4.600   0.530   0.214
10180SOL    HW231440   4.611   0.496   0.374
10181SOL     OW31441   0.765   3.145   1.091
10181SOL    HW131442   0.738   3.188   1.176
10181SOL    HW231443   0.812   3.059   1.110
10182SOL     OW31444   5.235   1.265   0.102
10182SOL    HW131445   5.211   1.225   0.014
10182SOL    HW231446   5.155   1.267   0.161
10183SOL     OW31447   5.959   2.834   6.042
10183SOL    HW131448   5.929   2.912   6.098
10183SOL    HW231449   5.952   2.858   5.945
10184SOL     OW31450   5.097   3.024   0.094
10184SOL    HW131451   5.034   3.012   0.171
10184SOL    HW231452   5.160   3.099   0.115
10185SOL     OW31453   5.731   5.990   2.337
10185SOL    HW131454   5.633   5.991   2.319
10185SOL    HW231455   5.776   5.924   2.277
10186SOL     OW31456   4.924   3.754   4.903
10186SOL    HW131457   4.863   3.691   4.951
10186SOL    HW231458   5.001   3.777   4.963
10187SOL     OW31459   1.742   4.432   5.683
10187SOL    HW131460   1.802   4.360   5.719
10187SOL    HW231461   1.797   4.509   5.651
10188SOL     OW31462   2.663   5.010   6.804
10188SOL    HW131463   2.643   5.107   6.815
10188SOL    HW231464   2.649   4.963   6.891
10189SOL     OW31465   1.717   0.811   6.236
10189SOL    HW131466   1.633   0.862   6.222
10189SOL    HW231467   1.743   0.764   6.152
10190SOL     OW31468   4.400   3.378   1.671
10190SOL    HW131469   4.464   3.302   1.682
10190SOL    HW231470   4.446   3.454   1.625
10191SOL     OW31471   5.511   5.747   0.503
10191SOL    HW131472   5.541   5.671   0.445
10191SOL    HW231473   5.578   5.821   0.499
10192SOL     OW31474   3.336   1.828   5.145
10192SOL    HW131475   3.296   1.743   5.112
10192SOL    HW231476   3.400   1.809   5.219
10193SOL     OW31477   3.018   3.862   2.246
10193SOL    HW131478   2.977   3.802   2.177
10193SOL    HW231479   3.112   3.885   2.219
10194SOL     OW31480   4.629   0.596   4.481
10194SOL    HW131481   4.539   0.614   4.441
10194SOL    HW231482   4.654   0.501   4.464
10195SOL     OW31483   6.887   0.051   1.850
10195SOL    HW131484   6.960   0.043   1.781
10195SOL    HW231485   6.798   0.049   1.804
10196SOL     OW31486   5.206   1.984   3.292
10196SOL    HW131487   5.153   1.921   3.236
10196SOL    HW231488   5.284   1.935   3.332
10197SOL     OW31489   4.883   1.605   4.239
10197SOL    HW131490   4.906   1.583   4.334
10197SOL    HW231491   4.939   1.550   4.177
10198SOL     OW31492   3.659   6.751   1.007
10198SOL    HW131493   3.635   6.766   0.911
10198SOL    HW231494   3.713   6.667   1.015
10199SOL     OW31495   0.508   1.884   6.393
10199SOL    HW131496   0.421   1.862   6.348
10199SOL    HW231497   0.517   1.829   6.477
10200SOL     OW31498   5.060   3.342   5.319
10200SOL    HW131499   5.144   3.396   5.308
10200SOL    HW231500   5.083   3.250   5.350
10201SOL     OW31501   0.649   5.850   1.246
10201SOL    HW131502   0.585   5.780   1.214
10201SOL    HW231503   0.670   5.913   1.172
10202SOL     OW31504   1.366   3.683   0.530
10202SOL    HW131505   1.282   3.653   0.577
10202SOL    HW231506   1.355   3.671   0.431
10203SOL     OW31507   1.162   3.012   1.620
10203SOL    HW131508   1.239   3.068   1.647
10203SOL    HW231509   1.115   3.054   1.542
10204SOL     OW31510   3.240   5.529   6.269
10204SOL    HW131511   3.279   5.489   6.351
10204SOL    HW231512   3.313   5.549   6.203
10205SOL     OW31513   3.298   1.403   2.580
10205SOL    HW131514   3.315   1.393   2.679
10205SOL    HW231515   3.213   1.357   2.557
10206SOL     OW31516   4.851   6.451   6.691
10206SOL    HW131517   4.898   6.494   6.613
10206SOL    HW231518   4.768   6.406   6.659
10207SOL     OW31519   2.123   1.132   0.492
10207SOL    HW131520   2.102   1.135   0.590
10207SOL    HW231521   2.205   1.186   0.474
10208SOL     OW31522   6.230   4.562   4.174
10208SOL    HW131523   6.180   4.569   4.260
10208SOL    HW231524   6.269   4.651   4.151
10209SOL     OW31525   0.575   0.367   5.681
10209SOL    HW131526   0.625   0.452   5.697
10209SOL    HW231527   0.616   0.318   5.605
10210SOL     OW31528   5.019   0.192   1.788
10210SOL    HW131529   4.934   0.153   1.753
10210SOL    HW231530   5.096   0.135   1.759
10211SOL     OW31531   4.202   6.304   5.274
10211SOL    HW131532   4.251   6.297   5.360
10211SOL    HW231533   4.248   6.248   5.204
10212SOL     OW31534   0.138   1.143   4.676
10212SOL    HW131535   0.101   1.207   4.744
10212SOL    HW231536   0.218   1.097   4.713
10213SOL     OW31537   5.857   2.280   1.913
10213SOL    HW131538   5.757   2.269   1.918
10213SOL    HW231539   5.878   2.365   1.866
10214SOL     OW31540   1.037   2.078   2.621
10214SOL    HW131541   1.082   2.072   2.532
10214SOL    HW231542   1.035   2.174   2.651
10215SOL     OW31543   3.513   2.874   4.027
10215SOL    HW131544   3.448   2.809   3.987
10215SOL    HW231545   3.466   2.960   4.048
10216SOL     OW31546   0.775   0.285   0.708
10216SOL    HW131547   0.810   0.207   0.759
10216SOL    HW231548   0.786   0.269   0.610
10217SOL     OW31549   2.553   1.560   4.171
10217SOL    HW131550   2.472   1.577   4.115
10217SOL    HW231551   2.631   1.542   4.112
10218SOL     OW31552   1.726   0.495   1.883
10218SOL    HW131553   1.791   0.568   1.861
10218SOL    HW231554   1.750   0.412   1.833
10219SOL     OW31555   0.579   3.133   1.959
10219SOL    HW131556   0.480   3.147   1.962
10219SOL    HW231557   0.617   3.146   2.050
10220SOL     OW31558   4.240   1.504   2.010
10220SOL    HW131559   4.223   1.410   1.978
10220SOL    HW231560   4.187   1.568   1.954
10221SOL     OW31561   1.699   2.447   3.848
10221SOL    HW131562   1.680   2.362   3.798
10221SOL    HW231563   1.655   2.524   3.803
10222SOL     OW31564   2.316   2.885   6.083
10222SOL    HW131565   2.267   2.805   6.048
10222SOL    HW231566   2.349   2.867   6.175
10223SOL     OW31567   1.470   6.056   6.890
10223SOL    HW131568   1.432   6.105   6.812
10223SOL    HW231569   1.562   6.025   6.867
10224SOL     OW31570   6.726   1.822   4.947
10224SOL    HW131571   6.741   1.862   4.856
10224SOL    HW231572   6.719   1.896   5.014
10225SOL     OW31573   1.884   6.148   5.876
10225SOL    HW131574   1.848   6.086   5.947
10225SOL    HW231575   1.809   6.203   5.840
10226SOL     OW31576   2.498   6.956   0.015
10226SOL    HW131577   2.404   6.989   0.026
10226SOL    HW231578   2.499   6.856   0.011
10227SOL     OW31579   5.024   4.889   0.995
10227SOL    HW131580   5.085   4.865   0.920
10227SOL    HW231581   5.049   4.836   1.077
10228SOL     OW31582   0.947   5.431   2.321
10228SOL    HW131583   0.936   5.332   2.311
10228SOL    HW231584   0.862   5.471   2.356
10229SOL     OW31585   0.496   1.444   4.259
10229SOL    HW131586   0.469   1.527   4.306
10229SOL    HW231587   0.468   1.364   4.313
10230SOL     OW31588   6.380   6.559   3.531
10230SOL    HW131589   6.282   6.554   3.511
10230SOL    HW231590   6.415   6.467   3.547
10231SOL     OW31591   6.506   5.553   5.853
10231SOL    HW131592   6.472   5.476   5.907
10231SOL    HW231593   6.564   5.519   5.779
10232SOL     OW31594   2.655   0.545   3.627
10232SOL    HW131595   2.613   0.587   3.547
10232SOL    HW231596   2.585   0.530   3.697
10233SOL     OW31597   4.858   3.552   5.355
10233SOL    HW131598   4.790   3.546   5.282
10233SOL    HW231599   4.926   3.480   5.342
10234SOL     OW31600   4.951   1.177   0.940
10234SOL    HW131601   4.988   1.168   1.033
10234SOL    HW231602   5.026   1.178   0.874
10235SOL     OW31603   4.778   2.568   0.352
10235SOL    HW131604   4.839   2.497   0.388
10235SOL    HW231605   4.683   2.544   0.374
10236SOL     OW31606   2.433   6.618   2.141
10236SOL    HW131607   2.453   6.678   2.218
10236SOL    HW231608   2.367   6.549   2.169
10237SOL     OW31609   6.185   3.730   0.988
10237SOL    HW131610   6.269   3.681   1.012
10237SOL    HW231611   6.180   3.814   1.042
10238SOL     OW31612   3.311   4.037   3.664
10238SOL    HW131613   3.312   4.101   3.741
10238SOL    HW231614   3.284   3.947   3.696
10239SOL     OW31615   1.052   4.222   5.099
10239SOL    HW131616   1.127   4.158   5.115
10239SOL    HW231617   1.078   4.313   5.133
10240SOL     OW31618   2.528   4.977   3.247
10240SOL    HW131619   2.463   5.019   3.310
10240SOL    HW231620   2.547   5.039   3.171
10241SOL     OW31621   6.918   0.648   2.386
10241SOL    HW131622   6.965   0.717   2.442
10241SOL    HW231623   6.967   0.561   2.392
10242SOL     OW31624   6.707   1.485   6.525
10242SOL    HW131625   6.694   1.581   6.500
10242SOL    HW231626   6.801   1.457   6.502
10243SOL     OW31627   0.794   5.109   1.226
10243SOL    HW131628   0.878   5.054   1.223
10243SOL    HW231629   0.809   5.189   1.284
10244SOL     OW31630   1.412   4.432   0.190
10244SOL    HW131631   1.510   4.443   0.205
10244SOL    HW231632   1.375   4.368   0.257
10245SOL     OW31633   2.943   4.899   0.012
10245SOL    HW131634   2.844   4.915   0.009
10245SOL    HW231635   2.978   4.895   6.941
10246SOL     OW31636   2.990   3.877   3.852
10246SOL    HW131637   2.978   3.832   3.941
10246SOL    HW231638   3.008   3.974   3.866
10247SOL     OW31639   0.126   5.369   5.377
10247SOL    HW131640   0.186   5.290   5.367
10247SOL    HW231641   0.109   5.410   5.287
10248SOL     OW31642   3.731   6.658   2.254
10248SOL    HW131643   3.718   6.756   2.238
10248SOL    HW231644   3.802   6.644   2.322
10249SOL     OW31645   3.686   1.309   6.160
10249SOL    HW131646   3.728   1.219   6.169
10249SOL    HW231647   3.634   1.313   6.075
10250SOL     OW31648   6.798   2.579   0.952
10250SOL    HW131649   6.734   2.568   0.877
10250SOL    HW231650   6.796   2.498   1.011
10251SOL     OW31651   2.905   2.152   5.146
10251SOL    HW131652   2.953   2.235   5.178
10251SOL    HW231653   2.957   2.071   5.174
10252SOL     OW31654   5.828   5.966   0.277
10252SOL    HW131655   5.897   5.923   0.218
10252SOL    HW231656   5.840   5.933   0.371
10253SOL     OW31657   5.057   5.807   0.228
10253SOL    HW131658   5.065   5.790   0.130
10253SOL    HW231659   5.073   5.721   0.278
10254SOL     OW31660   4.395   1.711   4.998
10254SOL    HW131661   4.320   1.657   4.960
10254SOL    HW231662   4.476   1.701   4.940
10255SOL     OW31663   2.038   5.927   1.559
10255SOL    HW131664   2.071   5.854   1.499
10255SOL    HW231665   2.106   5.946   1.630
10256SOL     OW31666   6.174   0.599   1.999
10256SOL    HW131667   6.260   0.649   1.989
10256SOL    HW231668   6.146   0.563   1.910
10257SOL     OW31669   1.844   5.300   4.236
10257SOL    HW131670   1.846   5.382   4.293
10257SOL    HW231671   1.836   5.219   4.294
10258SOL     OW31672   4.361   0.691   3.961
10258SOL    HW131673   4.303   0.754   3.909
10258SOL    HW231674   4.303   0.632   4.017
10259SOL     OW31675   0.251   4.853   3.183
10259SOL    HW131676   0.325   4.852   3.116
10259SOL    HW231677   0.191   4.774   3.169
10260SOL     OW31678   0.247   0.185   3.165
10260SOL    HW131679   0.276   0.129   3.088
10260SOL    HW231680   0.297   0.158   3.247
10261SOL     OW31681   6.486   5.279   3.334
10261SOL    HW131682   6.514   5.323   3.419
10261SOL    HW231683   6.404   5.324   3.298
10262SOL     OW31684   2.451   6.978   4.402
10262SOL    HW131685   2.360   7.008   4.371
10262SOL    HW231686   2.485   0.019   4.471
10263SOL     OW31687   4.742   0.815   6.182
10263SOL    HW131688   4.737   0.904   6.227
10263SOL    HW231689   4.771   0.746   6.248
10264SOL     OW31690   5.922   2.328   6.446
10264SOL    HW131691   5.843   2.388   6.430
10264SOL    HW231692   5.976   2.321   6.362
10265SOL     OW31693   3.238   1.849   3.230
10265SOL    HW131694   3.333   1.854   3.261
10265SOL    HW231695   3.215   1.931   3.179
10266SOL     OW31696   3.119   3.102   5.072
10266SOL    HW131697   3.084   3.158   4.997
10266SOL    HW231698   3.219   3.103   5.071
10267SOL     OW31699   5.765   1.494   0.174
10267SOL    HW131700   5.776   1.449   0.263
10267SOL    HW231701   5.847   1.548   0.154
10268SOL     OW31702   4.486   5.032   1.626
10268SOL    HW131703   4.530   5.040   1.537
10268SOL    HW231704   4.541   4.973   1.685
10269SOL     OW31705   1.073   2.659   5.141
10269SOL    HW131706   1.067   2.626   5.047
10269SOL    HW231707   1.125   2.744   5.144
10270SOL     OW31708   2.716   5.444   3.811
10270SOL    HW131709   2.807   5.449   3.768
10270SOL    HW231710   2.710   5.512   3.884
10271SOL     OW31711   4.133   2.934   0.363
10271SOL    HW131712   4.140   2.965   0.457
10271SOL    HW231713   4.201   2.861   0.347
10272SOL     OW31714   0.586   0.024   4.905
10272SOL    HW131715   0.490   0.052   4.898
10272SOL    HW231716   0.591   6.953   4.940
10273SOL     OW31717   4.304   5.090   3.677
10273SOL    HW131718   4.330   5.035   3.756
10273SOL    HW231719   4.320   5.187   3.696
10274SOL     OW31720   0.654   4.263   4.782
10274SOL    HW131721   0.564   4.279   4.741
10274SOL    HW231722   0.709   4.209   4.719
10275SOL     OW31723   0.774   6.259   2.184
10275SOL    HW131724   0.817   6.178   2.223
10275SOL    HW231725   0.770   6.248   2.084
10276SOL     OW31726   6.250   5.939   5.632
10276SOL    HW131727   6.318   5.867   5.641
10276SOL    HW231728   6.280   6.006   5.564
10277SOL     OW31729   2.737   5.529   4.237
10277SOL    HW131730   2.683   5.448   4.262
10277SOL    HW231731   2.699   5.570   4.155
10278SOL     OW31732   6.049   1.543   4.763
10278SOL    HW131733   5.982   1.599   4.714
10278SOL    HW231734   6.093   1.480   4.698
10279SOL     OW31735   2.453   5.927   4.725
10279SOL    HW131736   2.362   5.888   4.710
10279SOL    HW231737   2.456   6.020   4.689
10280SOL     OW31738   1.448   3.594   1.104
10280SOL    HW131739   1.489   3.663   1.043
10280SOL    HW231740   1.517   3.562   1.168
10281SOL     OW31741   6.339   1.620   2.723
10281SOL    HW131742   6.417   1.661   2.771
10281SOL    HW231743   6.269   1.594   2.790
10282SOL     OW31744   6.195   4.085   4.025
10282SOL    HW131745   6.214   4.119   4.117
10282SOL    HW231746   6.101   4.108   3.999
10283SOL     OW31747   0.975   3.467   0.448
10283SOL    HW131748   0.883   3.494   0.420
10283SOL    HW231749   0.970   3.393   0.514
10284SOL     OW31750   5.480   3.805   5.231
10284SOL    HW131751   5.485   3.714   5.190
10284SOL    HW231752   5.436   3.799   5.320
10285SOL     OW31753   4.888   1.355   1.369
10285SOL    HW131754   4.982   1.338   1.399
10285SOL    HW231755   4.877   1.452   1.348
10286SOL     OW31756   3.224   2.080   3.895
10286SOL    HW131757   3.216   2.024   3.813
10286SOL    HW231758   3.147   2.059   3.957
10287SOL     OW31759   2.428   6.262   1.731
10287SOL    HW131760   2.469   6.351   1.710
10287SOL    HW231761   2.470   6.191   1.674
10288SOL     OW31762   5.196   5.881   2.467
10288SOL    HW131763   5.193   5.808   2.399
10288SOL    HW231764   5.189   5.842   2.559
10289SOL     OW31765   3.049   1.085   2.014
10289SOL    HW131766   2.951   1.102   2.000
10289SOL    HW231767   3.061   1.011   2.080
10290SOL     OW31768   3.329   4.093   1.881
10290SOL    HW131769   3.344   4.160   1.954
10290SOL    HW231770   3.236   4.056   1.887
10291SOL     OW31771   4.402   1.397   4.010
10291SOL    HW131772   4.444   1.310   4.034
10291SOL    HW231773   4.394   1.454   4.092
10292SOL     OW31774   1.790   0.584   4.572
10292SOL    HW131775   1.824   0.495   4.541
10292SOL    HW231776   1.698   0.574   4.610
10293SOL     OW31777   2.339   5.766   3.949
10293SOL    HW131778   2.278   5.701   3.993
10293SOL    HW231779   2.299   5.858   3.956
10294SOL     OW31780   4.693   4.303   2.780
10294SOL    HW131781   4.778   4.251   2.786
10294SOL    HW231782   4.625   4.252   2.728
10295SOL     OW31783   6.081   5.254   5.808
10295SOL    HW131784   6.078   5.350   5.781
10295SOL    HW231785   6.162   5.237   5.863
10296SOL     OW31786   4.352   3.490   6.989
10296SOL    HW131787   4.449   3.466   6.975
10296SOL    HW231788   4.317   3.441   0.047
10297SOL     OW31789   1.871   6.470   5.784
10297SOL    HW131790   1.834   6.449   5.875
10297SOL    HW231791   1.888   6.568   5.777
10298SOL     OW31792   3.817   5.112   2.049
10298SOL    HW131793   3.904   5.161   2.053
10298SOL    HW231794   3.821   5.033   2.110
10299SOL     OW31795   4.874   4.897   2.753
10299SOL    HW131796   4.818   4.917   2.834
10299SOL    HW231797   4.828   4.930   2.671
10300SOL     OW31798   1.807   4.902   3.143
10300SOL    HW131799   1.816   4.829   3.210
10300SOL    HW231800   1.848   4.986   3.180
10301SOL     OW31801   6.370   2.315   3.369
10301SOL    HW131802   6.272   2.314   3.389
10301SOL    HW231803   6.386   2.267   3.282
10302SOL     OW31804   0.529   6.045   3.864
10302SOL    HW131805   0.608   6.074   3.810
10302SOL    HW231806   0.551   6.052   3.962
10303SOL     OW31807   2.431   5.346   1.768
10303SOL    HW131808   2.389   5.293   1.841
10303SOL    HW231809   2.417   5.298   1.680
10304SOL     OW31810   5.344   0.790   2.631
10304SOL    HW131811   5.437   0.753   2.635
10304SOL    HW231812   5.281   0.719   2.601
10305SOL     OW31813   0.628   5.006   6.979
10305SOL    HW131814   0.626   4.911   7.010
10305SOL    HW231815   0.555   5.057   0.001
10306SOL     OW31816   4.449   6.546   0.031
10306SOL    HW131817   4.486   6.632   7.019
10306SOL    HW231818   4.379   6.564   0.100
10307SOL     OW31819   2.067   1.964   4.371
10307SOL    HW131820   1.996   1.964   4.300
10307SOL    HW231821   2.146   2.016   4.339
10308SOL     OW31822   2.733   5.157   4.222
10308SOL    HW131823   2.807   5.093   4.239
10308SOL    HW231824   2.737   5.188   4.127
10309SOL     OW31825   6.024   0.965   3.367
10309SOL    HW131826   6.093   0.944   3.436
10309SOL    HW231827   5.934   0.972   3.411
10310SOL     OW31828   4.406   2.648   1.590
10310SOL    HW131829   4.429   2.598   1.506
10310SOL    HW231830   4.387   2.583   1.664
10311SOL     OW31831   0.663   5.429   1.472
10311SOL    HW131832   0.615   5.510   1.503
10311SOL    HW231833   0.597   5.359   1.445
10312SOL     OW31834   2.302   6.070   0.675
10312SOL    HW131835   2.265   6.141   0.615
10312SOL    HW231836   2.259   6.076   0.765
10313SOL     OW31837   3.845   0.110   1.368
10313SOL    HW131838   3.891   0.055   1.299
10313SOL    HW231839   3.747   0.116   1.347
10314SOL     OW31840   0.025   0.387   1.566
10314SOL    HW131841   6.966   0.329   1.560
10314SOL    HW231842   0.043   0.429   1.477
10315SOL     OW31843   6.137   5.545   4.487
10315SOL    HW131844   6.057   5.570   4.432
10315SOL    HW231845   6.207   5.616   4.478
10316SOL     OW31846   6.035   2.586   4.670
10316SOL    HW131847   6.098   2.629   4.606
10316SOL    HW231848   6.086   2.525   4.731
10317SOL     OW31849   3.350   6.087   6.196
10317SOL    HW131850   3.354   6.187   6.196
10317SOL    HW231851   3.424   6.051   6.253
10318SOL     OW31852   4.694   6.093   0.178
10318SOL    HW131853   4.666   6.013   0.230
10318SOL    HW231854   4.625   6.165   0.186
10319SOL     OW31855   1.561   2.718   5.629
10319SOL    HW131856   1.478   2.755   5.670
10319SOL    HW231857   1.586   2.632   5.675
10320SOL     OW31858   0.646   0.752   1.045
10320SOL    HW131859   0.699   0.672   1.019
10320SOL    HW231860   0.695   0.803   1.116
10321SOL     OW31861   4.167   0.649   3.689
10321SOL    HW131862   4.190   0.746   3.678
10321SOL    HW231863   4.123   0.636   3.778
10322SOL     OW31864   6.265   5.459   6.267
10322SOL    HW131865   6.177   5.503   6.281
10322SOL    HW231866   6.331   5.526   6.233
10323SOL     OW31867   6.449   3.695   5.817
10323SOL    HW131868   6.404   3.647   5.742
10323SOL    HW231869   6.406   3.672   5.903
10324SOL     OW31870   3.074   3.070   3.088
10324SOL    HW131871   3.001   3.024   3.139
10324SOL    HW231872   3.152   3.088   3.148
10325SOL     OW31873   6.769   4.503   3.033
10325SOL    HW131874   6.722   4.418   3.055
10325SOL    HW231875   6.833   4.525   3.106
10326SOL     OW31876   4.118   3.056   0.087
10326SOL    HW131877   4.149   3.029   0.178
10326SOL    HW231878   4.066   3.142   0.093
10327SOL     OW31879   2.668   1.555   1.797
10327SOL    HW131880   2.651   1.613   1.877
10327SOL    HW231881   2.766   1.552   1.779
10328SOL     OW31882   6.621   3.247   1.624
10328SOL    HW131883   6.568   3.330   1.608
10328SOL    HW231884   6.670   3.255   1.710
10329SOL     OW31885   3.874   0.337   3.944
10329SOL    HW131886   3.797   0.344   3.881
10329SOL    HW231887   3.951   0.293   3.898
10330SOL     OW31888   3.188   5.349   2.883
10330SOL    HW131889   3.165   5.335   2.979
10330SOL    HW231890   3.145   5.433   2.850
10331SOL     OW31891   6.676   0.437   3.129
10331SOL    HW131892   6.591   0.449   3.179
10331SOL    HW231893   6.744   0.503   3.161
10332SOL     OW31894   5.978   2.169   0.504
10332SOL    HW131895   5.955   2.140   0.597
10332SOL    HW231896   5.907   2.138   0.441
10333SOL     OW31897   6.530   4.149   4.343
10333SOL    HW131898   6.615   4.195   4.317
10333SOL    HW231899   6.547   4.091   4.422
10334SOL     OW31900   2.120   5.637   4.061
10334SOL    HW131901   2.037   5.694   4.060
10334SOL    HW231902   2.150   5.625   4.155
10335SOL     OW31903   2.199   4.991   0.076
10335SOL    HW131904   2.162   5.058   0.140
10335SOL    HW231905   2.129   4.924   0.053
10336SOL     OW31906   5.872   6.277   3.330
10336SOL    HW131907   5.883   6.375   3.312
10336SOL    HW231908   5.954   6.241   3.375
10337SOL     OW31909   6.504   6.659   5.118
10337SOL    HW131910   6.440   6.734   5.103
10337SOL    HW231911   6.576   6.663   5.047
10338SOL     OW31912   3.130   6.651   1.770
10338SOL    HW131913   3.103   6.748   1.771
10338SOL    HW231914   3.106   6.610   1.682
10339SOL     OW31915   3.562   5.178   0.806
10339SOL    HW131916   3.650   5.204   0.767
10339SOL    HW231917   3.571   5.089   0.851
10340SOL     OW31918   1.648   5.099   0.312
10340SOL    HW131919   1.699   5.157   0.249
10340SOL    HW231920   1.589   5.156   0.370
10341SOL     OW31921   2.253   3.273   1.665
10341SOL    HW131922   2.277   3.339   1.736
10341SOL    HW231923   2.336   3.243   1.618
10342SOL     OW31924   2.393   5.651   5.380
10342SOL    HW131925   2.445   5.735   5.366
10342SOL    HW231926   2.295   5.671   5.372
10343SOL     OW31927   2.376   3.980   0.209
10343SOL    HW131928   2.332   3.911   0.265
10343SOL    HW231929   2.346   3.970   0.114
10344SOL     OW31930   4.061   3.744   2.268
10344SOL    HW131931   4.128   3.793   2.212
10344SOL    HW231932   3.995   3.809   2.305
10345SOL     OW31933   1.805   0.747   5.970
10345SOL    HW131934   1.824   0.651   5.950
10345SOL    HW231935   1.891   0.799   5.967
10346SOL     OW31936   6.326   1.243   1.077
10346SOL    HW131937   6.397   1.196   1.025
10346SOL    HW231938   6.265   1.290   1.013
10347SOL     OW31939   5.448   2.325   1.836
10347SOL    HW131940   5.486   2.245   1.883
10347SOL    HW231941   5.466   2.407   1.891
10348SOL     OW31942   6.389   1.162   6.421
10348SOL    HW131943   6.384   1.260   6.398
10348SOL    HW231944   6.370   1.150   6.518
10349SOL     OW31945   6.727   1.647   0.019
10349SOL    HW131946   6.772   1.736   0.012
10349SOL    HW231947   6.785   1.576   7.003
10350SOL     OW31948   2.923   6.370   4.733
10350SOL    HW131949   3.021   6.355   4.746
10350SOL    HW231950   2.897   6.458   4.773
10351SOL     OW31951   6.256   5.176   6.027
10351SOL    HW131952   6.217   5.206   6.114
10351SOL    HW231953   6.206   5.096   5.994
10352SOL     OW31954   5.470   1.906   6.566
10352SOL    HW131955   5.481   1.991   6.513
10352SOL    HW231956   5.528   1.835   6.526
10353SOL     OW31957   6.893   2.757   4.373
10353SOL    HW131958   6.932   2.846   4.350
10353SOL    HW231959   6.877   2.705   4.289
10354SOL     OW31960   0.685   2.822   1.149
10354SOL    HW131961   0.619   2.896   1.166
10354SOL    HW231962   0.642   2.734   1.170
10355SOL     OW31963   1.392   0.934   0.859
10355SOL    HW131964   1.410   0.850   0.912
10355SOL    HW231965   1.449   0.935   0.777
10356SOL     OW31966   6.913   3.652   5.658
10356SOL    HW131967   6.874   3.741   5.636
10356SOL    HW231968   7.002   3.664   5.702
10357SOL     OW31969   3.923   2.444   5.831
10357SOL    HW131970   3.948   2.347   5.835
10357SOL    HW231971   3.911   2.471   5.735
10358SOL     OW31972   0.786   3.211   3.825
10358SOL    HW131973   0.690   3.236   3.820
10358SOL    HW231974   0.827   3.252   3.906
10359SOL     OW31975   5.152   2.180   2.003
10359SOL    HW131976   5.202   2.121   1.939
10359SOL    HW231977   5.174   2.276   1.985
10360SOL     OW31978   5.451   6.042   2.286
10360SOL    HW131979   5.400   5.973   2.234
10360SOL    HW231980   5.419   6.041   2.381
10361SOL     OW31981   2.727   1.264   2.533
10361SOL    HW131982   2.789   1.225   2.465
10361SOL    HW231983   2.642   1.290   2.489
10362SOL     OW31984   0.686   5.506   3.107
10362SOL    HW131985   0.754   5.522   3.036
10362SOL    HW231986   0.602   5.556   3.085
10363SOL     OW31987   5.323   2.283   1.272
10363SOL    HW131988   5.385   2.289   1.193
10363SOL    HW231989   5.375   2.294   1.356
10364SOL     OW31990   4.661   4.303   1.590
10364SOL    HW131991   4.614   4.218   1.614
10364SOL    HW231992   4.752   4.281   1.554
10365SOL     OW31993   6.075   4.701   0.134
10365SOL    HW131994   6.111   4.616   0.097
10365SOL    HW231995   5.991   4.725   0.085
10366SOL     OW31996   3.199   6.759   3.559
10366SOL    HW131997   3.101   6.768   3.579
10366SOL    HW231998   3.215   6.671   3.515
10367SOL     OW31999   0.225   1.836   1.302
10367SOL    HW132000   0.208   1.930   1.329
10367SOL    HW232001   0.163   1.775   1.352
10368SOL     OW32002   2.313   1.014   2.204
10368SOL    HW132003   2.381   0.973   2.264
10368SOL    HW232004   2.286   1.103   2.239
10369SOL     OW32005   2.678   6.631   5.863
10369SOL    HW132006   2.730   6.672   5.788
10369SOL    HW232007   2.742   6.589   5.928
10370SOL     OW32008   6.508   1.611   5.285
10370SOL    HW132009   6.597   1.594   5.326
10370SOL    HW232010   6.520   1.639   5.189
10371SOL     OW32011   2.371   6.621   4.479
10371SOL    HW132012   2.451   6.633   4.421
10371SOL    HW232013   2.300   6.686   4.453
10372SOL     OW32014   2.451   0.700   0.588
10372SOL    HW132015   2.461   0.662   0.496
10372SOL    HW232016   2.534   0.750   0.612
10373SOL     OW32017   1.213   6.969   4.926
10373SOL    HW132018   1.119   6.956   4.894
10373SOL    HW232019   1.263   0.003   4.860
10374SOL     OW32020   3.486   0.381   4.020
10374SOL    HW132021   3.549   0.336   4.083
10374SOL    HW232022   3.538   0.429   3.949
10375SOL     OW32023   2.619   2.158   5.858
10375SOL    HW132024   2.619   2.093   5.783
10375SOL    HW232025   2.684   2.129   5.928
10376SOL     OW32026   1.275   6.105   4.566
10376SOL    HW132027   1.230   6.082   4.480
10376SOL    HW232028   1.208   6.100   4.641
10377SOL     OW32029   0.395   1.172   2.004
10377SOL    HW132030   0.381   1.261   2.047
10377SOL    HW232031   0.320   1.154   1.940
10378SOL     OW32032   6.009   5.800   5.412
10378SOL    HW132033   6.098   5.841   5.391
10378SOL    HW232034   5.938   5.870   5.410
10379SOL     OW32035   3.574   5.673   4.705
10379SOL    HW132036   3.650   5.732   4.677
10379SOL    HW232037   3.491   5.728   4.715
10380SOL     OW32038   1.039   2.614   4.581
10380SOL    HW132039   1.091   2.672   4.519
10380SOL    HW232040   0.943   2.640   4.579
10381SOL     OW32041   4.368   3.800   1.332
10381SOL    HW132042   4.332   3.743   1.406
10381SOL    HW232043   4.336   3.764   1.244
10382SOL     OW32044   2.740   5.843   1.555
10382SOL    HW132045   2.742   5.760   1.611
10382SOL    HW232046   2.758   5.923   1.613
10383SOL     OW32047   0.894   4.240   0.656
10383SOL    HW132048   0.930   4.159   0.702
10383SOL    HW232049   0.964   4.279   0.597
10384SOL     OW32050   6.685   6.839   0.838
10384SOL    HW132051   6.674   6.930   0.877
10384SOL    HW232052   6.774   6.801   0.866
10385SOL     OW32053   4.141   5.947   6.433
10385SOL    HW132054   4.158   6.004   6.353
10385SOL    HW232055   4.051   5.968   6.471
10386SOL     OW32056   0.344   1.155   5.995
10386SOL    HW132057   0.421   1.155   6.059
10386SOL    HW232058   0.342   1.068   5.945
10387SOL     OW32059   4.861   3.198   2.845
10387SOL    HW132060   4.957   3.175   2.831
10387SOL    HW232061   4.842   3.203   2.943
10388SOL     OW32062   0.983   5.517   1.954
10388SOL    HW132063   1.006   5.608   1.920
10388SOL    HW232064   1.064   5.477   1.997
10389SOL     OW32065   6.265   3.993   1.173
10389SOL    HW132066   6.268   3.931   1.252
10389SOL    HW232067   6.358   4.016   1.145
10390SOL     OW32068   2.151   3.143   0.237
10390SOL    HW132069   2.116   3.075   0.173
10390SOL    HW232070   2.104   3.135   0.325
10391SOL     OW32071   0.340   6.072   4.080
10391SOL    HW132072   0.418   6.106   4.134
10391SOL    HW232073   0.369   6.057   3.986
10392SOL     OW32074   6.139   4.928   5.948
10392SOL    HW132075   6.040   4.942   5.959
10392SOL    HW232076   6.164   4.839   5.985
10393SOL     OW32077   2.192   2.953   3.104
10393SOL    HW132078   2.189   3.013   3.024
10393SOL    HW232079   2.196   3.009   3.187
10394SOL     OW32080   2.762   5.322   5.548
10394SOL    HW132081   2.720   5.237   5.515
10394SOL    HW232082   2.763   5.322   5.648
10395SOL     OW32083   0.119   0.646   1.647
10395SOL    HW132084   0.217   0.658   1.660
10395SOL    HW232085   0.102   0.581   1.573
10396SOL     OW32086   3.853   1.596   3.874
10396SOL    HW132087   3.925   1.581   3.941
10396SOL    HW232088   3.784   1.524   3.882
10397SOL     OW32089   3.598   1.067   4.400
10397SOL    HW132090   3.671   1.123   4.439
10397SOL    HW232091   3.600   0.976   4.441
10398SOL     OW32092   5.996   2.499   0.838
10398SOL    HW132093   6.021   2.492   0.934
10398SOL    HW232094   5.903   2.535   0.830
10399SOL     OW32095   4.713   1.874   3.003
10399SOL    HW132096   4.706   1.924   3.090
10399SOL    HW232097   4.661   1.923   2.933
10400SOL     OW32098   4.362   5.893   6.991
10400SOL    HW132099   4.439   5.957   6.990
10400SOL    HW232100   4.379   5.821   0.036
10401SOL     OW32101   0.209   6.245   2.836
10401SOL    HW132102   0.303   6.232   2.805
10401SOL    HW232103   0.159   6.302   2.771
10402SOL     OW32104   0.064   1.551   5.727
10402SOL    HW132105   0.132   1.490   5.768
10402SOL    HW232106   0.034   1.512   5.640
10403SOL     OW32107   4.723   2.658   2.876
10403SOL    HW132108   4.760   2.668   2.968
10403SOL    HW232109   4.730   2.745   2.827
10404SOL     OW32110   6.041   6.474   4.302
10404SOL    HW132111   6.095   6.441   4.379
10404SOL    HW232112   6.067   6.424   4.220
10405SOL     OW32113   1.385   6.376   4.742
10405SOL    HW132114   1.448   6.375   4.821
10405SOL    HW232115   1.439   6.378   4.658
10406SOL     OW32116   2.128   3.214   3.687
10406SOL    HW132117   2.187   3.144   3.648
10406SOL    HW232118   2.115   3.197   3.785
10407SOL     OW32119   2.759   6.576   6.372
10407SOL    HW132120   2.768   6.674   6.354
10407SOL    HW232121   2.665   6.555   6.399
10408SOL     OW32122   4.823   0.624   1.047
10408SOL    HW132123   4.867   0.687   0.983
10408SOL    HW232124   4.807   0.536   1.002
10409SOL     OW32125   6.705   4.937   0.936
10409SOL    HW132126   6.781   4.969   0.993
10409SOL    HW232127   6.726   4.845   0.902
10410SOL     OW32128   5.032   1.852   1.701
10410SOL    HW132129   5.098   1.883   1.633
10410SOL    HW232130   5.079   1.838   1.789
10411SOL     OW32131   2.867   6.560   3.694
10411SOL    HW132132   2.945   6.510   3.657
10411SOL    HW232133   2.816   6.500   3.756
10412SOL     OW32134   0.221   1.342   0.697
10412SOL    HW132135   0.265   1.271   0.643
10412SOL    HW232136   0.136   1.370   0.652
10413SOL     OW32137   6.757   3.134   0.887
10413SOL    HW132138   6.826   3.076   0.845
10413SOL    HW232139   6.759   3.121   0.987
10414SOL     OW32140   3.676   5.121   5.589
10414SOL    HW132141   3.691   5.148   5.494
10414SOL    HW232142   3.642   5.027   5.592
10415SOL     OW32143   1.157   3.806   4.651
10415SOL    HW132144   1.060   3.783   4.648
10415SOL    HW232145   1.203   3.767   4.571
10416SOL     OW32146   5.725   0.014   5.290
10416SOL    HW132147   5.776   0.001   5.205
10416SOL    HW232148   5.783   7.012   5.368
10417SOL     OW32149   3.330   4.912   3.907
10417SOL    HW132150   3.428   4.890   3.908
10417SOL    HW232151   3.302   4.939   3.999
10418SOL     OW32152   6.411   4.169   5.966
10418SOL    HW132153   6.343   4.124   6.025
10418SOL    HW232154   6.496   4.117   5.967
10419SOL     OW32155   3.166   6.571   6.176
10419SOL    HW132156   3.224   6.491   6.192
10419SOL    HW232157   3.110   6.556   6.094
10420SOL     OW32158   0.078   3.555   4.231
10420SOL    HW132159   0.151   3.582   4.168
10420SOL    HW232160   0.107   3.573   4.325
10421SOL     OW32161   1.440   2.527   4.109
10421SOL    HW132162   1.451   2.437   4.066
10421SOL    HW232163   1.401   2.516   4.201
10422SOL     OW32164   6.183   3.012   4.668
10422SOL    HW132165   6.219   3.097   4.631
10422SOL    HW232166   6.086   3.024   4.691
10423SOL     OW32167   5.603   5.157   5.726
10423SOL    HW132168   5.665   5.085   5.693
10423SOL    HW232169   5.598   5.230   5.658
10424SOL     OW32170   4.186   3.372   1.158
10424SOL    HW132171   4.230   3.291   1.121
10424SOL    HW232172   4.213   3.384   1.254
10425SOL     OW32173   1.362   6.804   2.090
10425SOL    HW132174   1.405   6.745   2.158
10425SOL    HW232175   1.269   6.772   2.073
10426SOL     OW32176   5.002   4.860   0.126
10426SOL    HW132177   5.033   4.954   0.113
10426SOL    HW232178   5.081   4.798   0.122
10427SOL     OW32179   4.009   1.098   0.094
10427SOL    HW132180   3.932   1.115   0.032
10427SOL    HW232181   4.086   1.156   0.067
10428SOL     OW32182   3.881   0.815   3.422
10428SOL    HW132183   3.921   0.860   3.502
10428SOL    HW232184   3.795   0.860   3.398
10429SOL     OW32185   0.024   4.040   1.784
10429SOL    HW132186   7.021   4.093   1.865
10429SOL    HW232187   6.976   4.050   1.714
10430SOL     OW32188   5.019   7.009   4.912
10430SOL    HW132189   4.937   0.014   4.864
10430SOL    HW232190   5.031   6.910   4.905
10431SOL     OW32191   2.842   6.281   4.477
10431SOL    HW132192   2.772   6.210   4.472
10431SOL    HW232193   2.883   6.281   4.568
10432SOL     OW32194   5.783   0.469   4.661
10432SOL    HW132195   5.832   0.556   4.658
10432SOL    HW232196   5.822   0.406   4.593
10433SOL     OW32197   0.858   6.046   2.359
10433SOL    HW132198   0.810   5.967   2.396
10433SOL    HW232199   0.932   6.015   2.299
10434SOL     OW32200   3.871   5.899   2.768
10434SOL    HW132201   3.819   5.844   2.703
10434SOL    HW232202   3.840   5.879   2.861
10435SOL     OW32203   0.732   1.219   5.428
10435SOL    HW132204   0.770   1.293   5.372
10435SOL    HW232205   0.748   1.131   5.383
10436SOL     OW32206   6.186   4.457   5.628
10436SOL    HW132207   6.105   4.419   5.673
10436SOL    HW232208   6.264   4.397   5.645
10437SOL     OW32209   4.497   4.158   6.192
10437SOL    HW132210   4.508   4.085   6.125
10437SOL    HW232211   4.499   4.120   6.284
10438SOL     OW32212   6.494   6.616   6.915
10438SOL    HW132213   6.547   6.536   6.886
10438SOL    HW232214   6.444   6.594   6.999
10439SOL     OW32215   3.926   1.455   4.842
10439SOL    HW132216   3.876   1.412   4.917
10439SOL    HW232217   3.864   1.471   4.765
10440SOL     OW32218   1.488   6.436   0.849
10440SOL    HW132219   1.456   6.404   0.759
10440SOL    HW232220   1.431   6.396   0.921
10441SOL     OW32221   4.231   1.597   1.353
10441SOL    HW132222   4.286   1.680   1.349
10441SOL    HW232223   4.237   1.558   1.445
10442SOL     OW32224   4.103   6.518   6.952
10442SOL    HW132225   4.141   6.598   6.907
10442SOL    HW232226   4.176   6.456   6.980
10443SOL     OW32227   4.922   3.783   4.026
10443SOL    HW132228   4.917   3.686   4.048
10443SOL    HW232229   5.008   3.821   4.061
10444SOL     OW32230   4.410   5.497   4.026
10444SOL    HW132231   4.393   5.534   3.935
10444SOL    HW232232   4.470   5.560   4.076
10445SOL     OW32233   0.965   4.668   4.272
10445SOL    HW132234   1.017   4.672   4.357
10445SOL    HW232235   0.996   4.741   4.211
10446SOL     OW32236   1.446   3.235   5.775
10446SOL    HW132237   1.542   3.222   5.801
10446SOL    HW232238   1.387   3.179   5.834
10447SOL     OW32239   0.116   1.280   2.372
10447SOL    HW132240   0.186   1.210   2.388
10447SOL    HW232241   0.137   1.330   2.288
10448SOL     OW32242   4.628   0.522   2.595
10448SOL    HW132243   4.578   0.493   2.676
10448SOL    HW232244   4.579   0.596   2.550
10449SOL     OW32245   1.927   5.564   4.965
10449SOL    HW132246   2.018   5.531   4.940
10449SOL    HW232247   1.929   5.600   5.059
10450SOL     OW32248   0.795   1.384   0.754
10450SOL    HW132249   0.727   1.370   0.682
10450SOL    HW232250   0.828   1.295   0.786
10451SOL     OW32251   2.310   5.785   2.460
10451SOL    HW132252   2.395   5.758   2.504
10451SOL    HW232253   2.242   5.808   2.530
10452SOL     OW32254   6.660   3.209   2.280
10452SOL    HW132255   6.677   3.137   2.347
10452SOL    HW232256   6.563   3.210   2.257
10453SOL     OW32257   3.927   6.977   1.147
10453SOL    HW132258   3.874   6.907   1.194
10453SOL    HW232259   3.922   6.962   1.048
10454SOL     OW32260   4.891   3.434   0.536
10454SOL    HW132261   4.902   3.483   0.449
10454SOL    HW232262   4.797   3.400   0.543
10455SOL     OW32263   6.447   5.858   3.599
10455SOL    HW132264   6.518   5.797   3.564
10455SOL    HW232265   6.372   5.864   3.534
10456SOL     OW32266   2.297   5.932   0.424
10456SOL    HW132267   2.281   5.971   0.515
10456SOL    HW232268   2.366   5.860   0.430
10457SOL     OW32269   3.487   3.139   1.415
10457SOL    HW132270   3.561   3.184   1.465
10457SOL    HW232271   3.518   3.051   1.381
10458SOL     OW32272   6.252   0.765   6.716
10458SOL    HW132273   6.347   0.777   6.685
10458SOL    HW232274   6.229   0.837   6.780
10459SOL     OW32275   5.145   5.747   1.338
10459SOL    HW132276   5.090   5.830   1.327
10459SOL    HW232277   5.177   5.741   1.433
10460SOL     OW32278   0.783   4.393   2.566
10460SOL    HW132279   0.748   4.487   2.558
10460SOL    HW232280   0.817   4.379   2.659
10461SOL     OW32281   6.859   5.080   5.770
10461SOL    HW132282   6.786   5.143   5.746
10461SOL    HW232283   6.934   5.088   5.704
10462SOL     OW32284   5.727   1.589   3.348
10462SOL    HW132285   5.787   1.561   3.273
10462SOL    HW232286   5.775   1.577   3.435
10463SOL     OW32287   4.300   3.240   5.987
10463SOL    HW132288   4.291   3.320   6.047
10463SOL    HW232289   4.210   3.200   5.971
10464SOL     OW32290   6.656   7.009   1.363
10464SOL    HW132291   6.590   0.061   1.375
10464SOL    HW232292   6.627   6.929   1.416
10465SOL     OW32293   6.429   5.333   0.845
10465SOL    HW132294   6.496   5.261   0.862
10465SOL    HW232295   6.431   5.358   0.748
10466SOL     OW32296   4.305   5.118   6.005
10466SOL    HW132297   4.225   5.164   6.045
10466SOL    HW232298   4.309   5.025   6.039
10467SOL     OW32299   2.891   1.386   6.617
10467SOL    HW132300   2.915   1.478   6.648
10467SOL    HW232301   2.856   1.333   6.695
10468SOL     OW32302   3.999   5.251   3.273
10468SOL    HW132303   4.011   5.335   3.326
10468SOL    HW232304   3.991   5.173   3.334
10469SOL     OW32305   4.192   4.469   5.574
10469SOL    HW132306   4.149   4.557   5.553
10469SOL    HW232307   4.121   4.399   5.582
10470SOL     OW32308   2.467   2.556   3.628
10470SOL    HW132309   2.471   2.607   3.542
10470SOL    HW232310   2.449   2.460   3.609
10471SOL     OW32311   2.729   2.010   1.285
10471SOL    HW132312   2.812   1.964   1.317
10471SOL    HW232313   2.650   1.951   1.299
10472SOL     OW32314   3.996   5.452   0.244
10472SOL    HW132315   3.970   5.427   0.337
10472SOL    HW232316   3.914   5.477   0.192
10473SOL     OW32317   6.812   0.337   6.253
10473SOL    HW132318   6.765   0.250   6.269
10473SOL    HW232319   6.898   0.340   6.303
10474SOL     OW32320   3.763   2.161   4.633
10474SOL    HW132321   3.669   2.195   4.622
10474SOL    HW232322   3.785   2.156   4.730
10475SOL     OW32323   4.247   6.764   1.566
10475SOL    HW132324   4.175   6.711   1.522
10475SOL    HW232325   4.325   6.705   1.586
10476SOL     OW32326   0.221   5.817   0.191
10476SOL    HW132327   0.265   5.801   0.102
10476SOL    HW232328   0.289   5.853   0.255
10477SOL     OW32329   6.817   1.815   4.244
10477SOL    HW132330   6.835   1.870   4.163
10477SOL    HW232331   6.759   1.738   4.219
10478SOL     OW32332   7.001   0.622   1.385
10478SOL    HW132333   6.986   0.566   1.304
10478SOL    HW232334   6.938   0.699   1.385
10479SOL     OW32335   0.211   2.690   1.877
10479SOL    HW132336   0.148   2.677   1.801
10479SOL    HW232337   0.173   2.757   1.941
10480SOL     OW32338   6.904   6.995   1.571
10480SOL    HW132339   6.819   6.959   1.532
10480SOL    HW232340   6.982   6.961   1.519
10481SOL     OW32341   2.288   7.014   4.705
10481SOL    HW132342   2.383   0.016   4.687
10481SOL    HW232343   2.275   6.999   4.804
10482SOL     OW32344   6.281   5.043   4.761
10482SOL    HW132345   6.249   5.078   4.673
10482SOL    HW232346   6.272   4.943   4.762
10483SOL     OW32347   6.641   4.730   0.066
10483SOL    HW132348   6.734   4.752   0.036
10483SOL    HW232349   6.618   4.638   0.036
10484SOL     OW32350   6.053   1.145   1.694
10484SOL    HW132351   6.038   1.090   1.612
10484SOL    HW232352   6.133   1.203   1.681
10485SOL     OW32353   3.456   3.984   1.200
10485SOL    HW132354   3.517   4.052   1.160
10485SOL    HW232355   3.435   4.010   1.294
10486SOL     OW32356   6.606   0.597   6.987
10486SOL    HW132357   6.666   0.615   6.909
10486SOL    HW232358   6.659   0.556   0.039
10487SOL     OW32359   4.717   1.683   2.346
10487SOL    HW132360   4.788   1.715   2.283
10487SOL    HW232361   4.740   1.592   2.379
10488SOL     OW32362   2.900   2.012   5.590
10488SOL    HW132363   2.985   2.062   5.570
10488SOL    HW232364   2.922   1.917   5.612
10489SOL     OW32365   6.537   0.075   4.546
10489SOL    HW132366   6.534   0.127   4.632
10489SOL    HW232367   6.549   7.000   4.567
10490SOL     OW32368   6.131   1.916   0.596
10490SOL    HW132369   6.053   1.854   0.591
10490SOL    HW232370   6.101   2.009   0.574
10491SOL     OW32371   2.618   1.951   5.708
10491SOL    HW132372   2.575   1.905   5.630
10491SOL    HW232373   2.717   1.936   5.704
10492SOL     OW32374   5.407   5.587   0.708
10492SOL    HW132375   5.413   5.637   0.621
10492SOL    HW232376   5.311   5.571   0.730
10493SOL     OW32377   3.171   6.552   2.023
10493SOL    HW132378   3.165   6.586   1.929
10493SOL    HW232379   3.087   6.574   2.072
10494SOL     OW32380   5.521   4.498   6.276
10494SOL    HW132381   5.559   4.460   6.361
10494SOL    HW232382   5.426   4.525   6.291
10495SOL     OW32383   0.863   6.414   1.134
10495SOL    HW132384   0.810   6.407   1.218
10495SOL    HW232385   0.958   6.436   1.156
10496SOL     OW32386   5.914   4.027   6.148
10496SOL    HW132387   5.957   4.028   6.058
10496SOL    HW232388   5.965   3.967   6.209
10497SOL     OW32389   1.840   6.927   2.163
10497SOL    HW132390   1.788   6.913   2.079
10497SOL    HW232391   1.778   6.923   2.242
10498SOL     OW32392   5.326   5.046   0.676
10498SOL    HW132393   5.317   4.947   0.664
10498SOL    HW232394   5.266   5.093   0.611
10499SOL     OW32395   5.018   0.121   2.469
10499SOL    HW132396   5.036   0.139   2.565
10499SOL    HW232397   4.924   0.149   2.447
10500SOL     OW32398   6.024   1.318   5.601
10500SOL    HW132399   6.081   1.277   5.530
10500SOL    HW232400   5.965   1.248   5.642
10501SOL     OW32401   2.166   5.557   2.455
10501SOL    HW132402   2.226   5.636   2.444
10501SOL    HW232403   2.113   5.544   2.371
10502SOL     OW32404   2.816   2.254   1.486
10502SOL    HW132405   2.847   2.243   1.392
10502SOL    HW232406   2.779   2.345   1.499
10503SOL     OW32407   5.089   2.927   1.075
10503SOL    HW132408   5.098   2.961   1.168
10503SOL    HW232409   5.106   2.828   1.074
10504SOL     OW32410   1.309   2.762   5.689
10504SOL    HW132411   1.240   2.701   5.728
10504SOL    HW232412   1.274   2.856   5.689
10505SOL     OW32413   5.592   5.068   0.799
10505SOL    HW132414   5.520   4.998   0.808
10505SOL    HW232415   5.578   5.140   0.867
10506SOL     OW32416   0.324   3.828   6.915
10506SOL    HW132417   0.268   3.838   6.833
10506SOL    HW232418   0.372   3.740   6.912
10507SOL     OW32419   1.766   5.843   0.903
10507SOL    HW132420   1.741   5.757   0.948
10507SOL    HW232421   1.836   5.890   0.957
10508SOL     OW32422   6.765   5.835   4.877
10508SOL    HW132423   6.768   5.735   4.873
10508SOL    HW232424   6.837   5.873   4.819
10509SOL     OW32425   6.659   5.353   5.057
10509SOL    HW132426   6.594   5.295   5.008
10509SOL    HW232427   6.738   5.298   5.084
10510SOL     OW32428   4.688   6.522   0.365
10510SOL    HW132429   4.594   6.489   0.375
10510SOL    HW232430   4.750   6.445   0.358
10511SOL     OW32431   2.482   1.472   2.154
10511SOL    HW132432   2.502   1.561   2.113
10511SOL    HW232433   2.567   1.425   2.175
10512SOL     OW32434   4.253   0.555   5.403
10512SOL    HW132435   4.218   0.634   5.353
10512SOL    HW232436   4.243   0.570   5.501
10513SOL     OW32437   6.600   3.370   3.671
10513SOL    HW132438   6.561   3.456   3.638
10513SOL    HW232439   6.531   3.298   3.664
10514SOL     OW32440   0.635   3.267   0.895
10514SOL    HW132441   0.556   3.208   0.876
10514SOL    HW232442   0.692   3.225   0.966
10515SOL     OW32443   1.325   4.071   4.207
10515SOL    HW132444   1.259   4.136   4.170
10515SOL    HW232445   1.335   4.085   4.306
10516SOL     OW32446   3.071   2.015   0.683
10516SOL    HW132447   3.167   2.042   0.672
10516SOL    HW232448   3.024   2.021   0.595
10517SOL     OW32449   0.676   3.182   0.552
10517SOL    HW132450   0.586   3.167   0.592
10517SOL    HW232451   0.745   3.186   0.625
10518SOL     OW32452   6.992   5.949   0.994
10518SOL    HW132453   6.937   5.987   0.919
10518SOL    HW232454   6.940   5.877   1.039
10519SOL     OW32455   3.057   3.904   0.908
10519SOL    HW132456   3.015   3.856   0.985
10519SOL    HW232457   3.103   3.986   0.940
10520SOL     OW32458   0.873   2.279   5.859
10520SOL    HW132459   0.902   2.248   5.768
10520SOL    HW232460   0.938   2.247   5.928
10521SOL     OW32461   6.482   5.116   1.247
10521SOL    HW132462   6.457   5.023   1.221
10521SOL    HW232463   6.552   5.113   1.319
10522SOL     OW32464   0.292   1.429   4.572
10522SOL    HW132465   0.276   1.508   4.512
10522SOL    HW232466   0.344   1.360   4.522
10523SOL     OW32467   0.852   4.648   2.814
10523SOL    HW132468   0.850   4.708   2.894
10523SOL    HW232469   0.855   4.553   2.844
10524SOL     OW32470   0.348   6.312   4.299
10524SOL    HW132471   0.423   6.295   4.235
10524SOL    HW232472   0.375   6.283   4.391
10525SOL     OW32473   3.665   0.592   5.454
10525SOL    HW132474   3.618   0.657   5.513
10525SOL    HW232475   3.716   0.526   5.509
10526SOL     OW32476   1.004   6.881   2.614
10526SOL    HW132477   1.031   6.961   2.666
10526SOL    HW232478   1.025   6.798   2.666
10527SOL     OW32479   0.936   0.782   5.110
10527SOL    HW132480   0.906   0.866   5.155
10527SOL    HW232481   1.024   0.753   5.149
10528SOL     OW32482   1.373   3.953   5.972
10528SOL    HW132483   1.425   4.036   5.951
10528SOL    HW232484   1.417   3.875   5.928
10529SOL     OW32485   2.721   6.532   4.264
10529SOL    HW132486   2.724   6.514   4.362
10529SOL    HW232487   2.667   6.615   4.247
10530SOL     OW32488   1.623   0.428   6.432
10530SOL    HW132489   1.560   0.461   6.503
10530SOL    HW232490   1.698   0.493   6.421
10531SOL     OW32491   1.648   2.495   4.285
10531SOL    HW132492   1.627   2.566   4.352
10531SOL    HW232493   1.606   2.518   4.197
10532SOL     OW32494   0.777   6.781   6.322
10532SOL    HW132495   0.678   6.788   6.334
10532SOL    HW232496   0.819   6.867   6.350
10533SOL     OW32497   3.040   0.031   3.202
10533SOL    HW132498   3.118   0.031   3.138
10533SOL    HW232499   2.957   0.003   3.153
10534SOL     OW32500   6.054   5.536   2.196
10534SOL    HW132501   5.973   5.495   2.238
10534SOL    HW232502   6.080   5.618   2.247
10535SOL     OW32503   1.783   1.943   2.175
10535SOL    HW132504   1.808   1.868   2.113
10535SOL    HW232505   1.799   1.915   2.269
10536SOL     OW32506   4.705   0.514   4.156
10536SOL    HW132507   4.669   0.468   4.075
10536SOL    HW232508   4.674   0.609   4.157
10537SOL     OW32509   4.318   6.515   4.366
10537SOL    HW132510   4.359   6.517   4.457
10537SOL    HW232511   4.360   6.443   4.311
10538SOL     OW32512   6.567   3.827   1.213
10538SOL    HW132513   6.628   3.882   1.156
10538SOL    HW232514   6.515   3.764   1.156
10539SOL     OW32515   6.900   4.628   0.496
10539SOL    HW132516   6.818   4.585   0.457
10539SOL    HW232517   6.904   4.724   0.468
10540SOL     OW32518   1.758   3.192   5.571
10540SOL    HW132519   1.735   3.181   5.668
10540SOL    HW232520   1.776   3.102   5.532
10541SOL     OW32521   3.714   4.075   1.928
10541SOL    HW132522   3.672   4.065   2.019
10541SOL    HW232523   3.663   4.143   1.875
10542SOL     OW32524   6.964   1.398   5.485
10542SOL    HW132525   6.925   1.306   5.484
10542SOL    HW232526   0.008   1.407   5.411
10543SOL     OW32527   0.433   1.818   4.602
10543SOL    HW132528   0.496   1.872   4.546
10543SOL    HW232529   0.404   1.871   4.681
10544SOL     OW32530   2.738   6.757   1.709
10544SOL    HW132531   2.664   6.727   1.770
10544SOL    HW232532   2.802   6.681   1.696
10545SOL     OW32533   0.545   2.100   1.027
10545SOL    HW132534   0.641   2.077   1.012
10545SOL    HW232535   0.499   2.024   1.070
10546SOL     OW32536   1.932   0.022   0.665
10546SOL    HW132537   1.963   6.950   0.679
10546SOL    HW232538   1.983   0.063   0.589
10547SOL     OW32539   5.092   2.971   3.152
10547SOL    HW132540   5.112   3.024   3.070
10547SOL    HW232541   5.068   2.877   3.126
10548SOL     OW32542   6.238   4.181   4.283
10548SOL    HW132543   6.337   4.184   4.297
10548SOL    HW232544   6.195   4.246   4.345
10549SOL     OW32545   0.752   1.256   1.508
10549SOL    HW132546   0.758   1.157   1.508
10549SOL    HW232547   0.684   1.286   1.575
10550SOL     OW32548   5.047   6.619   3.387
10550SOL    HW132549   5.108   6.668   3.325
10550SOL    HW232550   5.039   6.671   3.472
10551SOL     OW32551   2.000   2.247   6.573
10551SOL    HW132552   2.006   2.154   6.610
10551SOL    HW232553   2.043   2.250   6.483
10552SOL     OW32554   2.051   0.930   5.736
10552SOL    HW132555   2.083   1.002   5.798
10552SOL    HW232556   2.114   0.853   5.740
10553SOL     OW32557   0.381   4.505   1.623
10553SOL    HW132558   0.405   4.446   1.700
10553SOL    HW232559   0.381   4.452   1.538
10554SOL     OW32560   5.124   4.760   1.209
10554SOL    HW132561   5.077   4.773   1.296
10554SOL    HW232562   5.218   4.730   1.226
10555SOL     OW32563   2.516   2.653   1.128
10555SOL    HW132564   2.550   2.746   1.142
10555SOL    HW232565   2.567   2.610   1.054
10556SOL     OW32566   1.060   1.299   4.000
10556SOL    HW132567   0.965   1.292   3.968
10556SOL    HW232568   1.098   1.207   4.011
10557SOL     OW32569   2.202   3.118   2.837
10557SOL    HW132570   2.217   3.116   2.738
10557SOL    HW232571   2.127   3.182   2.858
10558SOL     OW32572   4.108   6.468   5.069
10558SOL    HW132573   4.137   6.416   5.149
10558SOL    HW232574   4.186   6.477   5.006
10559SOL     OW32575   4.767   1.162   2.047
10559SOL    HW132576   4.721   1.238   2.094
10559SOL    HW232577   4.747   1.166   1.949
10560SOL     OW32578   4.512   6.878   2.750
10560SOL    HW132579   4.536   6.800   2.808
10560SOL    HW232580   4.596   6.919   2.713
10561SOL     OW32581   3.700   4.536   1.677
10561SOL    HW132582   3.718   4.581   1.589
10561SOL    HW232583   3.653   4.600   1.738
10562SOL     OW32584   4.161   5.420   0.014
10562SOL    HW132585   4.104   5.428   0.096
10562SOL    HW232586   4.257   5.418   0.040
10563SOL     OW32587   0.223   1.140   2.812
10563SOL    HW132588   0.131   1.101   2.808
10563SOL    HW232589   0.289   1.066   2.821
10564SOL     OW32590   5.389   6.195   3.160
10564SOL    HW132591   5.365   6.117   3.217
10564SOL    HW232592   5.483   6.186   3.127
10565SOL     OW32593   0.030   6.697   5.946
10565SOL    HW132594   0.072   6.690   5.855
10565SOL    HW232595   0.048   6.787   5.984
10566SOL     OW32596   4.117   2.198   6.766
10566SOL    HW132597   4.188   2.213   6.835
10566SOL    HW232598   4.035   2.250   6.790
10567SOL     OW32599   2.637   2.520   5.166
10567SOL    HW132600   2.559   2.581   5.176
10567SOL    HW232601   2.607   2.436   5.120
10568SOL     OW32602   6.971   2.939   0.883
10568SOL    HW132603   6.912   2.878   0.937
10568SOL    HW232604   6.990   2.897   0.794
10569SOL     OW32605   5.506   1.285   1.808
10569SOL    HW132606   5.548   1.252   1.724
10569SOL    HW232607   5.505   1.385   1.807
10570SOL     OW32608   1.805   4.279   3.629
10570SOL    HW132609   1.808   4.309   3.534
10570SOL    HW232610   1.802   4.360   3.689
10571SOL     OW32611   0.414   4.543   4.905
10571SOL    HW132612   0.330   4.492   4.885
10571SOL    HW232613   0.483   4.482   4.944
10572SOL     OW32614   0.134   4.717   2.863
10572SOL    HW132615   0.121   4.666   2.777
10572SOL    HW232616   0.223   4.763   2.861
10573SOL     OW32617   5.344   0.700   4.914
10573SOL    HW132618   5.258   0.652   4.931
10573SOL    HW232619   5.345   0.787   4.965
10574SOL     OW32620   0.589   1.424   4.663
10574SOL    HW132621   0.511   1.486   4.657
10574SOL    HW232622   0.674   1.476   4.660
10575SOL     OW32623   6.813   1.172   3.785
10575SOL    HW132624   6.795   1.105   3.713
10575SOL    HW232625   6.829   1.124   3.871
10576SOL     OW32626   0.365   5.466   4.573
10576SOL    HW132627   0.349   5.515   4.487
10576SOL    HW232628   0.461   5.473   4.598
10577SOL     OW32629   1.953   4.696   0.507
10577SOL    HW132630   2.032   4.664   0.454
10577SOL    HW232631   1.871   4.692   0.449
10578SOL     OW32632   4.234   1.192   2.825
10578SOL    HW132633   4.308   1.181   2.892
10578SOL    HW232634   4.164   1.253   2.862
10579SOL     OW32635   4.376   2.895   1.457
10579SOL    HW132636   4.281   2.910   1.431
10579SOL    HW232637   4.389   2.799   1.483
10580SOL     OW32638   6.907   0.448   6.713
10580SOL    HW132639   6.910   0.371   6.776
10580SOL    HW232640   6.988   0.446   6.653
10581SOL     OW32641   5.785   0.297   2.891
10581SOL    HW132642   5.755   0.260   2.980
10581SOL    HW232643   5.765   0.230   2.820
10582SOL     OW32644   4.588   4.277   5.570
10582SOL    HW132645   4.654   4.213   5.607
10582SOL    HW232646   4.575   4.259   5.472
10583SOL     OW32647   3.902   1.286   3.929
10583SOL    HW132648   3.952   1.360   3.973
10583SOL    HW232649   3.888   1.307   3.833
10584SOL     OW32650   6.728   0.628   0.542
10584SOL    HW132651   6.717   0.727   0.535
10584SOL    HW232652   6.662   0.583   0.482
10585SOL     OW32653   2.792   1.938   5.269
10585SOL    HW132654   2.811   2.036   5.282
10585SOL    HW232655   2.716   1.927   5.205
10586SOL     OW32656   5.585   4.429   5.677
10586SOL    HW132657   5.546   4.342   5.708
10586SOL    HW232658   5.683   4.431   5.697
10587SOL     OW32659   6.432   4.918   0.038
10587SOL    HW132660   6.524   4.878   0.044
10587SOL    HW232661   6.385   4.907   0.125
10588SOL     OW32662   1.535   2.402   4.916
10588SOL    HW132663   1.473   2.421   4.992
10588SOL    HW232664   1.605   2.337   4.945
10589SOL     OW32665   5.899   1.024   4.442
10589SOL    HW132666   5.909   1.071   4.530
10589SOL    HW232667   5.832   0.950   4.452
10590SOL     OW32668   0.506   0.166   0.485
10590SOL    HW132669   0.440   0.100   0.520
10590SOL    HW232670   0.461   0.227   0.420
10591SOL     OW32671   1.295   2.105   6.985
10591SOL    HW132672   1.235   2.178   7.017
10591SOL    HW232673   1.253   2.058   6.907
10592SOL     OW32674   5.754   4.049   3.200
10592SOL    HW132675   5.765   4.027   3.103
10592SOL    HW232676   5.801   4.135   3.220
10593SOL     OW32677   2.823   5.745   0.883
10593SOL    HW132678   2.883   5.779   0.956
10593SOL    HW232679   2.758   5.817   0.858
10594SOL     OW32680   5.159   1.542   3.104
10594SOL    HW132681   5.221   1.478   3.149
10594SOL    HW232682   5.190   1.636   3.120
10595SOL     OW32683   5.439   0.180   0.023
10595SOL    HW132684   5.484   0.180   0.112
10595SOL    HW232685   5.507   0.170   6.973
10596SOL     OW32686   4.363   0.851   0.008
10596SOL    HW132687   4.363   0.949   0.026
10596SOL    HW232688   4.427   0.806   0.070
10597SOL     OW32689   3.545   1.305   5.926
10597SOL    HW132690   3.490   1.228   5.897
10597SOL    HW232691   3.580   1.354   5.847
10598SOL     OW32692   2.976   3.256   0.428
10598SOL    HW132693   2.905   3.198   0.467
10598SOL    HW232694   2.945   3.292   0.340
10599SOL     OW32695   5.368   3.753   6.519
10599SOL    HW132696   5.409   3.734   6.608
10599SOL    HW232697   5.372   3.670   6.463
10600SOL     OW32698   3.553   2.736   1.002
10600SOL    HW132699   3.466   2.703   1.040
10600SOL    HW232700   3.616   2.660   0.993
10601SOL     OW32701   1.377   4.790   5.044
10601SOL    HW132702   1.445   4.815   4.975
10601SOL    HW232703   1.310   4.729   5.003
10602SOL     OW32704   1.626   0.411   2.123
10602SOL    HW132705   1.617   0.312   2.117
10602SOL    HW232706   1.660   0.447   2.036
10603SOL     OW32707   4.031   0.033   3.477
10603SOL    HW132708   4.101   0.066   3.414
10603SOL    HW232709   3.940   0.061   3.444
10604SOL     OW32710   6.602   6.051   5.174
10604SOL    HW132711   6.630   5.962   5.210
10604SOL    HW232712   6.659   6.123   5.214
10605SOL     OW32713   2.022   6.501   6.496
10605SOL    HW132714   2.071   6.420   6.461
10605SOL    HW232715   2.086   6.577   6.505
10606SOL     OW32716   0.438   7.001   1.163
10606SOL    HW132717   0.464   0.065   1.207
10606SOL    HW232718   0.515   6.937   1.167
10607SOL     OW32719   3.982   5.573   6.058
10607SOL    HW132720   3.924   5.655   6.049
10607SOL    HW232721   3.959   5.508   5.986
10608SOL     OW32722   6.842   3.376   4.424
10608SOL    HW132723   6.845   3.475   4.443
10608SOL    HW232724   6.746   3.346   4.425
10609SOL     OW32725   2.744   6.873   6.608
10609SOL    HW132726   2.815   6.907   6.669
10609SOL    HW232727   2.716   6.781   6.638
10610SOL     OW32728   0.535   2.588   4.000
10610SOL    HW132729   0.443   2.579   3.963
10610SOL    HW232730   0.537   2.558   4.095
10611SOL     OW32731   2.690   4.320   0.093
10611SOL    HW132732   2.678   4.221   0.103
10611SOL    HW232733   2.740   4.356   0.172
10612SOL     OW32734   3.834   2.153   4.894
10612SOL    HW132735   3.929   2.180   4.909
10612SOL    HW232736   3.784   2.160   4.980
10613SOL     OW32737   5.910   5.856   5.954
10613SOL    HW132738   6.009   5.860   5.964
10613SOL    HW232739   5.870   5.813   6.034
10614SOL     OW32740   4.727   1.740   5.047
10614SOL    HW132741   4.654   1.773   5.107
10614SOL    HW232742   4.758   1.815   4.988
10615SOL     OW32743   3.625   0.707   5.706
10615SOL    HW132744   3.593   0.738   5.796
10615SOL    HW232745   3.715   0.664   5.716
10616SOL     OW32746   2.233   6.794   0.208
10616SOL    HW132747   2.314   6.765   0.259
10616SOL    HW232748   2.167   6.719   0.204
10617SOL     OW32749   3.212   4.144   1.021
10617SOL    HW132750   3.269   4.201   1.080
10617SOL    HW232751   3.270   4.093   0.958
10618SOL     OW32752   1.008   4.270   5.951
10618SOL    HW132753   1.052   4.319   6.027
10618SOL    HW232754   1.013   4.172   5.969
10619SOL     OW32755   0.710   3.345   3.263
10619SOL    HW132756   0.762   3.285   3.202
10619SOL    HW232757   0.770   3.417   3.298
10620SOL     OW32758   1.244   6.712   5.381
10620SOL    HW132759   1.269   6.623   5.418
10620SOL    HW232760   1.277   6.720   5.287
10621SOL     OW32761   0.989   4.817   1.560
10621SOL    HW132762   1.055   4.825   1.635
10621SOL    HW232763   1.028   4.763   1.486
10622SOL     OW32764   5.002   1.653   2.228
10622SOL    HW132765   5.003   1.634   2.326
10622SOL    HW232766   4.939   1.590   2.182
10623SOL     OW32767   0.042   5.086   5.544
10623SOL    HW132768   0.121   5.131   5.503
10623SOL    HW232769   0.074   5.008   5.599
10624SOL     OW32770   1.052   2.192   4.916
10624SOL    HW132771   1.110   2.228   4.988
10624SOL    HW232772   1.067   2.243   4.831
10625SOL     OW32773   0.307   4.609   1.121
10625SOL    HW132774   0.293   4.708   1.129
10625SOL    HW232775   0.340   4.588   1.029
10626SOL     OW32776   3.215   2.840   1.025
10626SOL    HW132777   3.186   2.929   1.059
10626SOL    HW232778   3.241   2.848   0.929
10627SOL     OW32779   5.467   0.785   6.603
10627SOL    HW132780   5.458   0.758   6.507
10627SOL    HW232781   5.516   0.714   6.654
10628SOL     OW32782   5.122   6.031   1.048
10628SOL    HW132783   5.127   5.952   0.987
10628SOL    HW232784   5.026   6.053   1.067
10629SOL     OW32785   2.433   5.197   4.766
10629SOL    HW132786   2.452   5.213   4.863
10629SOL    HW232787   2.516   5.163   4.721
10630SOL     OW32788   6.233   1.337   3.263
10630SOL    HW132789   6.166   1.292   3.203
10630SOL    HW232790   6.248   1.281   3.344
10631SOL     OW32791   3.404   5.164   5.035
10631SOL    HW132792   3.439   5.253   5.061
10631SOL    HW232793   3.339   5.131   5.104
10632SOL     OW32794   5.556   6.699   3.801
10632SOL    HW132795   5.599   6.695   3.891
10632SOL    HW232796   5.597   6.630   3.741
10633SOL     OW32797   2.918   2.382   0.982
10633SOL    HW132798   3.007   2.425   0.966
10633SOL    HW232799   2.922   2.326   1.065
10634SOL     OW32800   2.868   4.443   0.800
10634SOL    HW132801   2.939   4.377   0.777
10634SOL    HW232802   2.910   4.530   0.827
10635SOL     OW32803   1.820   3.861   6.823
10635SOL    HW132804   1.786   3.795   6.756
10635SOL    HW232805   1.744   3.893   6.880
10636SOL     OW32806   0.294   1.917   0.829
10636SOL    HW132807   0.373   1.892   0.773
10636SOL    HW232808   0.230   1.840   0.831
10637SOL     OW32809   1.313   4.781   5.867
10637SOL    HW132810   1.406   4.800   5.833
10637SOL    HW232811   1.311   4.689   5.908
10638SOL     OW32812   5.551   5.966   3.018
10638SOL    HW132813   5.634   6.019   3.034
10638SOL    HW232814   5.486   6.022   2.967
10639SOL     OW32815   1.249   4.019   3.411
10639SOL    HW132816   1.253   4.099   3.472
10639SOL    HW232817   1.154   3.996   3.393
10640SOL     OW32818   4.908   6.801   4.140
10640SOL    HW132819   4.963   6.721   4.163
10640SOL    HW232820   4.812   6.782   4.160
10641SOL     OW32821   1.615   2.145   2.374
10641SOL    HW132822   1.553   2.162   2.298
10641SOL    HW232823   1.702   2.111   2.339
10642SOL     OW32824   6.615   2.319   0.926
10642SOL    HW132825   6.669   2.333   1.009
10642SOL    HW232826   6.677   2.311   0.848
10643SOL     OW32827   1.482   5.793   4.537
10643SOL    HW132828   1.440   5.819   4.450
10643SOL    HW232829   1.463   5.863   4.605
10644SOL     OW32830   6.056   2.768   1.929
10644SOL    HW132831   6.080   2.862   1.905
10644SOL    HW232832   6.071   2.754   2.027
10645SOL     OW32833   1.928   2.607   4.648
10645SOL    HW132834   2.016   2.641   4.616
10645SOL    HW232835   1.917   2.511   4.619
10646SOL     OW32836   0.170   6.846   6.520
10646SOL    HW132837   0.259   6.875   6.555
10646SOL    HW232838   0.115   6.808   6.595
10647SOL     OW32839   2.996   5.722   4.953
10647SOL    HW132840   3.024   5.726   4.857
10647SOL    HW232841   3.032   5.639   4.994
10648SOL     OW32842   5.858   3.966   6.489
10648SOL    HW132843   5.784   4.032   6.483
10648SOL    HW232844   5.849   3.912   6.573
10649SOL     OW32845   6.928   4.432   2.508
10649SOL    HW132846   6.952   4.335   2.494
10649SOL    HW232847   6.895   4.470   2.422
10650SOL     OW32848   0.219   0.341   3.772
10650SOL    HW132849   0.314   0.319   3.751
10650SOL    HW232850   0.177   0.386   3.694
10651SOL     OW32851   5.528   6.400   6.882
10651SOL    HW132852   5.554   6.413   6.978
10651SOL    HW232853   5.501   6.488   6.843
10652SOL     OW32854   3.518   6.604   5.547
10652SOL    HW132855   3.427   6.622   5.585
10652SOL    HW232856   3.528   6.506   5.530
10653SOL     OW32857   4.187   5.524   4.211
10653SOL    HW132858   4.250   5.496   4.140
10653SOL    HW232859   4.237   5.568   4.286
10654SOL     OW32860   5.512   0.683   0.770
10654SOL    HW132861   5.486   0.714   0.861
10654SOL    HW232862   5.531   0.762   0.711
10655SOL     OW32863   2.509   5.322   0.445
10655SOL    HW132864   2.417   5.299   0.414
10655SOL    HW232865   2.566   5.346   0.366
10656SOL     OW32866   0.456   2.194   2.886
10656SOL    HW132867   0.387   2.259   2.854
10656SOL    HW232868   0.524   2.179   2.814
10657SOL     OW32869   5.447   0.368   5.563
10657SOL    HW132870   5.357   0.356   5.520
10657SOL    HW232871   5.463   0.466   5.578
10658SOL     OW32872   6.274   4.574   5.130
10658SOL    HW132873   6.243   4.666   5.152
10658SOL    HW232874   6.195   4.512   5.125
10659SOL     OW32875   0.429   5.269   1.529
10659SOL    HW132876   0.337   5.287   1.563
10659SOL    HW232877   0.479   5.215   1.595
10660SOL     OW32878   5.086   3.551   6.100
10660SOL    HW132879   5.018   3.607   6.146
10660SOL    HW232880   5.056   3.531   6.007
10661SOL     OW32881   1.265   6.818   1.547
10661SOL    HW132882   1.277   6.855   1.640
10661SOL    HW232883   1.202   6.740   1.550
10662SOL     OW32884   5.579   6.853   2.314
10662SOL    HW132885   5.626   6.918   2.255
10662SOL    HW232886   5.555   6.898   2.400
10663SOL     OW32887   0.617   2.265   3.095
10663SOL    HW132888   0.541   2.226   3.042
10663SOL    HW232889   0.696   2.203   3.091
10664SOL     OW32890   6.384   4.102   4.905
10664SOL    HW132891   6.362   4.128   4.999
10664SOL    HW232892   6.365   4.005   4.893
10665SOL     OW32893   0.637   2.010   0.417
10665SOL    HW132894   0.727   2.031   0.379
10665SOL    HW232895   0.566   2.039   0.352
10666SOL     OW32896   3.854   3.565   1.831
10666SOL    HW132897   3.852   3.493   1.900
10666SOL    HW232898   3.762   3.602   1.819
10667SOL     OW32899   4.963   2.663   4.668
10667SOL    HW132900   4.878   2.698   4.709
10667SOL    HW232901   5.000   2.731   4.605
10668SOL     OW32902   2.555   0.311   4.854
10668SOL    HW132903   2.528   0.321   4.950
10668SOL    HW232904   2.474   0.297   4.797
10669SOL     OW32905   5.934   6.938   1.681
10669SOL    HW132906   5.974   6.852   1.649
10669SOL    HW232907   5.863   6.967   1.617
10670SOL     OW32908   5.498   4.173   5.257
10670SOL    HW132909   5.456   4.145   5.171
10670SOL    HW232910   5.436   4.153   5.333
10671SOL     OW32911   2.522   2.593   3.358
10671SOL    HW132912   2.557   2.505   3.326
10671SOL    HW232913   2.435   2.612   3.312
10672SOL     OW32914   6.535   3.404   1.113
10672SOL    HW132915   6.481   3.377   1.033
10672SOL    HW232916   6.478   3.397   1.195
10673SOL     OW32917   1.272   0.829   6.773
10673SOL    HW132918   1.201   0.774   6.818
10673SOL    HW232919   1.280   0.800   6.677
10674SOL     OW32920   3.590   4.128   2.153
10674SOL    HW132921   3.542   4.115   2.239
10674SOL    HW232922   3.601   4.225   2.135
10675SOL     OW32923   1.639   6.948   6.478
10675SOL    HW132924   1.619   0.024   6.486
10675SOL    HW232925   1.596   6.899   6.554
10676SOL     OW32926   6.961   6.191   5.757
10676SOL    HW132927   6.941   6.246   5.676
10676SOL    HW232928   6.886   6.127   5.773
10677SOL     OW32929   1.340   0.490   2.162
10677SOL    HW132930   1.283   0.416   2.197
10677SOL    HW232931   1.428   0.453   2.133
10678SOL     OW32932   4.486   4.916   4.197
10678SOL    HW132933   4.555   4.847   4.177
10678SOL    HW232934   4.470   4.919   4.296
10679SOL     OW32935   4.965   5.492   6.646
10679SOL    HW132936   4.875   5.518   6.612
10679SOL    HW232937   4.964   5.396   6.676
10680SOL     OW32938   4.189   1.619   3.649
10680SOL    HW132939   4.225   1.708   3.620
10680SOL    HW232940   4.210   1.604   3.746
10681SOL     OW32941   0.830   3.917   0.372
10681SOL    HW132942   0.861   3.983   0.304
10681SOL    HW232943   0.792   3.836   0.326
10682SOL     OW32944   0.932   1.167   5.211
10682SOL    HW132945   0.976   1.114   5.139
10682SOL    HW232946   0.956   1.128   5.300
10683SOL     OW32947   3.825   2.088   3.483
10683SOL    HW132948   3.918   2.114   3.457
10683SOL    HW232949   3.819   2.081   3.583
10684SOL     OW32950   5.496   4.600   2.379
10684SOL    HW132951   5.497   4.512   2.331
10684SOL    HW232952   5.442   4.665   2.326
10685SOL     OW32953   0.533   5.436   2.423
10685SOL    HW132954   0.559   5.493   2.346
10685SOL    HW232955   0.608   5.432   2.489
10686SOL     OW32956   0.626   4.720   6.320
10686SOL    HW132957   0.667   4.795   6.372
10686SOL    HW232958   0.563   4.670   6.378
10687SOL     OW32959   6.402   5.796   1.991
10687SOL    HW132960   6.383   5.757   2.081
10687SOL    HW232961   6.400   5.723   1.922
10688SOL     OW32962   6.634   3.825   2.711
10688SOL    HW132963   6.696   3.802   2.786
10688SOL    HW232964   6.550   3.770   2.719
10689SOL     OW32965   0.567   5.861   3.475
10689SOL    HW132966   0.601   5.771   3.449
10689SOL    HW232967   0.504   5.852   3.552
10690SOL     OW32968   6.901   6.256   3.491
10690SOL    HW132969   6.857   6.226   3.407
10690SOL    HW232970   6.977   6.195   3.513
10691SOL     OW32971   0.296   2.369   2.402
10691SOL    HW132972   0.211   2.414   2.375
10691SOL    HW232973   0.373   2.413   2.355
10692SOL     OW32974   3.483   6.148   3.447
10692SOL    HW132975   3.471   6.066   3.391
10692SOL    HW232976   3.439   6.136   3.536
10693SOL     OW32977   2.236   6.474   6.938
10693SOL    HW132978   2.330   6.448   6.959
10693SOL    HW232979   2.236   6.548   6.870
10694SOL     OW32980   5.432   6.542   1.865
10694SOL    HW132981   5.355   6.539   1.801
10694SOL    HW232982   5.411   6.605   1.939
10695SOL     OW32983   6.295   2.451   2.933
10695SOL    HW132984   6.333   2.428   2.843
10695SOL    HW232985   6.284   2.367   2.986
10696SOL     OW32986   0.363   3.571   3.774
10696SOL    HW132987   0.456   3.607   3.758
10696SOL    HW232988   0.299   3.620   3.715
10697SOL     OW32989   6.989   5.894   4.747
10697SOL    HW132990   0.048   5.950   4.763
10697SOL    HW232991   7.000   5.842   4.662
10698SOL     OW32992   4.626   5.135   5.780
10698SOL    HW132993   4.675   5.071   5.839
10698SOL    HW232994   4.594   5.212   5.835
10699SOL     OW32995   4.166   3.327   1.875
10699SOL    HW132996   4.075   3.368   1.881
10699SOL    HW232997   4.207   3.323   1.966
10700SOL     OW32998   6.882   6.648   1.415
10700SOL    HW132999   6.893   6.595   1.500
10700SOL    HW233000   6.836   6.591   1.347
10701SOL     OW33001   3.486   6.238   0.209
10701SOL    HW133002   3.519   6.229   0.115
10701SOL    HW233003   3.387   6.227   0.211
10702SOL     OW33004   5.961   2.522   1.809
10702SOL    HW133005   6.050   2.486   1.782
10702SOL    HW233006   5.974   2.609   1.857
10703SOL     OW33007   2.992   4.076   5.138
10703SOL    HW133008   3.006   3.980   5.162
10703SOL    HW233009   2.894   4.092   5.123
10704SOL     OW33010   6.540   5.541   1.545
10704SOL    HW133011   6.473   5.553   1.472
10704SOL    HW233012   6.628   5.513   1.506
10705SOL     OW33013   6.745   4.608   1.528
10705SOL    HW133014   6.775   4.544   1.457
10705SOL    HW233015   6.753   4.564   1.618
10706SOL     OW33016   5.241   6.497   1.662
10706SOL    HW133017   5.235   6.474   1.565
10706SOL    HW233018   5.159   6.465   1.709
10707SOL     OW33019   0.218   6.325   3.892
10707SOL    HW133020   0.143   6.391   3.901
10707SOL    HW233021   0.181   6.233   3.889
10708SOL     OW33022   4.324   0.394   2.428
10708SOL    HW133023   4.303   0.366   2.334
10708SOL    HW233024   4.369   0.483   2.426
10709SOL     OW33025   6.427   6.193   5.026
10709SOL    HW133026   6.470   6.282   5.042
10709SOL    HW233027   6.477   6.122   5.076
10710SOL     OW33028   0.571   6.385   4.496
10710SOL    HW133029   0.638   6.313   4.481
10710SOL    HW233030   0.488   6.346   4.536
10711SOL     OW33031   1.923   6.517   3.848
10711SOL    HW133032   1.912   6.555   3.756
10711SOL    HW233033   1.851   6.449   3.864
10712SOL     OW33034   2.762   1.348   1.474
10712SOL    HW133035   2.765   1.259   1.428
10712SOL    HW233036   2.671   1.363   1.512
10713SOL     OW33037   1.106   3.861   1.625
10713SOL    HW133038   1.114   3.867   1.526
10713SOL    HW233039   1.128   3.768   1.654
10714SOL     OW33040   5.921   3.896   4.403
10714SOL    HW133041   5.891   3.841   4.324
10714SOL    HW233042   5.843   3.946   4.440
10715SOL     OW33043   5.175   6.869   2.741
10715SOL    HW133044   5.231   6.951   2.739
10715SOL    HW233045   5.155   6.844   2.836
10716SOL     OW33046   5.605   2.166   4.226
10716SOL    HW133047   5.512   2.199   4.241
10716SOL    HW233048   5.668   2.217   4.284
10717SOL     OW33049   1.038   2.762   0.667
10717SOL    HW133050   1.088   2.814   0.597
10717SOL    HW233051   1.073   2.669   0.671
10718SOL     OW33052   1.407   2.459   6.493
10718SOL    HW133053   1.448   2.376   6.455
10718SOL    HW233054   1.367   2.513   6.418
10719SOL     OW33055   5.531   5.529   1.181
10719SOL    HW133056   5.497   5.504   1.272
10719SOL    HW233057   5.601   5.599   1.190
10720SOL     OW33058   7.000   3.637   4.957
10720SOL    HW133059   6.953   3.577   4.892
10720SOL    HW233060   0.076   3.638   4.938
10721SOL     OW33061   6.017   4.120   4.980
10721SOL    HW133062   6.096   4.134   5.040
10721SOL    HW233063   5.937   4.095   5.034
10722SOL     OW33064   0.204   3.791   0.800
10722SOL    HW133065   0.277   3.732   0.765
10722SOL    HW233066   0.156   3.744   0.874
10723SOL     OW33067   0.709   3.892   6.170
10723SOL    HW133068   0.804   3.878   6.142
10723SOL    HW233069   0.676   3.979   6.133
10724SOL     OW33070   4.650   0.995   6.932
10724SOL    HW133071   4.702   1.078   6.949
10724SOL    HW233072   4.613   0.960   7.018
10725SOL     OW33073   0.444   4.305   4.586
10725SOL    HW133074   0.500   4.294   4.504
10725SOL    HW233075   0.387   4.387   4.577
10726SOL     OW33076   5.066   0.079   5.578
10726SOL    HW133077   5.125   0.005   5.610
10726SOL    HW233078   5.119   0.163   5.569
10727SOL     OW33079   0.344   4.826   4.216
10727SOL    HW133080   0.405   4.904   4.203
10727SOL    HW233081   0.255   4.857   4.247
10728SOL     OW33082   6.399   6.229   0.846
10728SOL    HW133083   6.320   6.185   0.803
10728SOL    HW233084   6.479   6.217   0.787
10729SOL     OW33085   5.588   1.076   2.667
10729SOL    HW133086   5.608   0.984   2.634
10729SOL    HW233087   5.501   1.107   2.628
10730SOL     OW33088   2.483   0.036   2.008
10730SOL    HW133089   2.509   0.070   2.099
10730SOL    HW233090   2.466   6.960   2.014
10731SOL     OW33091   3.098   5.931   0.293
10731SOL    HW133092   3.142   6.014   0.258
10731SOL    HW233093   3.165   5.857   0.297
10732SOL     OW33094   4.717   5.137   2.283
10732SOL    HW133095   4.657   5.059   2.267
10732SOL    HW233096   4.779   5.149   2.205
10733SOL     OW33097   5.256   1.907   0.071
10733SOL    HW133098   5.308   1.964   0.135
10733SOL    HW233099   5.320   1.849   0.020
10734SOL     OW33100   1.300   0.211   0.193
10734SOL    HW133101   1.393   0.178   0.178
10734SOL    HW233102   1.271   0.188   0.286
10735SOL     OW33103   1.677   4.599   2.794
10735SOL    HW133104   1.731   4.577   2.876
10735SOL    HW233105   1.580   4.583   2.813
10736SOL     OW33106   6.846   0.647   3.257
10736SOL    HW133107   6.896   0.607   3.334
10736SOL    HW233108   6.899   0.635   3.173
10737SOL     OW33109   1.569   1.779   0.225
10737SOL    HW133110   1.563   1.703   0.162
10737SOL    HW233111   1.534   1.862   0.182
10738SOL     OW33112   2.596   0.722   3.415
10738SOL    HW133113   2.557   0.634   3.390
10738SOL    HW233114   2.537   0.796   3.382
10739SOL     OW33115   0.071   0.942   1.184
10739SOL    HW133116   0.154   0.994   1.206
10739SOL    HW233117   7.013   0.995   1.211
10740SOL     OW33118   0.680   4.659   5.877
10740SOL    HW133119   0.721   4.644   5.967
10740SOL    HW233120   0.582   4.677   5.889
10741SOL     OW33121   0.467   0.839   3.428
10741SOL    HW133122   0.374   0.802   3.418
10741SOL    HW233123   0.522   0.811   3.350
10742SOL     OW33124   5.709   0.350   1.837
10742SOL    HW133125   5.805   0.321   1.841
10742SOL    HW233126   5.699   0.437   1.886
10743SOL     OW33127   2.051   1.938   5.186
10743SOL    HW133128   2.037   1.965   5.281
10743SOL    HW233129   2.030   2.015   5.126
10744SOL     OW33130   2.678   1.747   1.991
10744SOL    HW133131   2.712   1.733   2.084
10744SOL    HW233132   2.714   1.833   1.954
10745SOL     OW33133   1.078   4.532   0.692
10745SOL    HW133134   1.151   4.520   0.759
10745SOL    HW233135   0.993   4.556   0.739
10746SOL     OW33136   1.891   3.967   1.439
10746SOL    HW133137   1.825   4.041   1.454
10746SOL    HW233138   1.896   3.910   1.521
10747SOL     OW33139   4.269   0.559   3.128
10747SOL    HW133140   4.246   0.470   3.089
10747SOL    HW233141   4.241   0.562   3.224
10748SOL     OW33142   3.516   0.767   1.398
10748SOL    HW133143   3.544   0.819   1.317
10748SOL    HW233144   3.453   0.823   1.452
10749SOL     OW33145   6.847   5.139   3.380
10749SOL    HW133146   6.801   5.166   3.464
10749SOL    HW233147   6.939   5.178   3.378
10750SOL     OW33148   4.099   6.221   4.221
10750SOL    HW133149   4.111   6.304   4.167
10750SOL    HW233150   4.034   6.160   4.175
10751SOL     OW33151   1.147   4.326   4.458
10751SOL    HW133152   1.107   4.325   4.550
10751SOL    HW233153   1.233   4.275   4.459
10752SOL     OW33154   6.272   3.725   6.085
10752SOL    HW133155   6.240   3.818   6.070
10752SOL    HW233156   6.292   3.711   6.182
10753SOL     OW33157   4.213   6.843   4.568
10753SOL    HW133158   4.143   6.824   4.636
10753SOL    HW233159   4.201   6.782   4.490
10754SOL     OW33160   1.183   1.658   3.414
10754SOL    HW133161   1.091   1.655   3.375
10754SOL    HW233162   1.201   1.751   3.448
10755SOL     OW33163   0.399   2.080   6.765
10755SOL    HW133164   0.323   2.039   6.714
10755SOL    HW233165   0.481   2.024   6.754
10756SOL     OW33166   6.553   4.268   0.182
10756SOL    HW133167   6.607   4.272   0.266
10756SOL    HW233168   6.469   4.321   0.193
10757SOL     OW33169   1.172   2.736   6.811
10757SOL    HW133170   1.125   2.697   6.890
10757SOL    HW233171   1.244   2.674   6.780
10758SOL     OW33172   0.979   6.521   5.366
10758SOL    HW133173   0.978   6.603   5.422
10758SOL    HW233174   1.073   6.488   5.357
10759SOL     OW33175   1.926   2.933   6.684
10759SOL    HW133176   1.876   2.955   6.768
10759SOL    HW233177   1.989   2.857   6.702
10760SOL     OW33178   6.200   1.085   0.399
10760SOL    HW133179   6.183   1.178   0.434
10760SOL    HW233180   6.257   1.091   0.317
10761SOL     OW33181   1.481   1.750   6.309
10761SOL    HW133182   1.581   1.750   6.300
10761SOL    HW233183   1.451   1.660   6.342
10762SOL     OW33184   3.635   1.896   5.113
10762SOL    HW133185   3.638   1.996   5.120
10762SOL    HW233186   3.567   1.861   5.177
10763SOL     OW33187   4.476   6.630   1.215
10763SOL    HW133188   4.488   6.703   1.282
10763SOL    HW233189   4.409   6.565   1.249
10764SOL     OW33190   5.738   2.024   5.903
10764SOL    HW133191   5.814   2.013   5.838
10764SOL    HW233192   5.752   2.107   5.957
10765SOL     OW33193   5.921   2.728   1.117
10765SOL    HW133194   5.948   2.639   1.153
10765SOL    HW233195   6.003   2.781   1.095
10766SOL     OW33196   3.695   2.629   1.270
10766SOL    HW133197   3.715   2.607   1.174
10766SOL    HW233198   3.663   2.547   1.317
10767SOL     OW33199   1.396   0.627   0.142
10767SOL    HW133200   1.416   0.600   0.236
10767SOL    HW233201   1.469   0.686   0.108
10768SOL     OW33202   4.376   5.291   0.651
10768SOL    HW133203   4.445   5.284   0.724
10768SOL    HW233204   4.292   5.246   0.681
10769SOL     OW33205   2.145   5.277   4.776
10769SOL    HW133206   2.239   5.244   4.767
10769SOL    HW233207   2.145   5.377   4.777
10770SOL     OW33208   5.440   0.172   4.975
10770SOL    HW133209   5.440   0.168   5.075
10770SOL    HW233210   5.512   0.113   4.939
10771SOL     OW33211   5.116   0.929   4.332
10771SOL    HW133212   5.064   1.004   4.373
10771SOL    HW233213   5.201   0.916   4.384
10772SOL     OW33214   0.074   6.354   4.299
10772SOL    HW133215   0.162   6.389   4.270
10772SOL    HW233216   0.087   6.275   4.359
10773SOL     OW33217   0.233   5.474   6.914
10773SOL    HW133218   0.311   5.458   6.853
10773SOL    HW233219   0.266   5.494   7.006
10774SOL     OW33220   1.470   1.419   6.669
10774SOL    HW133221   1.550   1.412   6.610
10774SOL    HW233222   1.443   1.515   6.676
10775SOL     OW33223   0.282   2.789   0.497
10775SOL    HW133224   0.254   2.697   0.524
10775SOL    HW233225   0.381   2.797   0.504
10776SOL     OW33226   1.371   6.444   6.855
10776SOL    HW133227   1.467   6.416   6.849
10776SOL    HW233228   1.359   6.533   6.811
10777SOL     OW33229   3.758   5.962   4.321
10777SOL    HW133230   3.726   5.982   4.229
10777SOL    HW233231   3.761   6.046   4.375
10778SOL     OW33232   5.492   6.460   5.329
10778SOL    HW133233   5.458   6.435   5.239
10778SOL    HW233234   5.557   6.535   5.321
10779SOL     OW33235   6.053   4.966   3.207
10779SOL    HW133236   6.127   4.982   3.272
10779SOL    HW233237   6.066   4.877   3.163
10780SOL     OW33238   1.586   0.068   3.941
10780SOL    HW133239   1.662   0.097   4.000
10780SOL    HW233240   1.598   6.995   3.915
10781SOL     OW33241   3.982   0.942   2.924
10781SOL    HW133242   4.042   0.863   2.921
10781SOL    HW233243   3.929   0.940   3.009
10782SOL     OW33244   6.967   1.990   3.418
10782SOL    HW133245   6.887   1.931   3.430
10782SOL    HW233246   6.940   2.086   3.432
10783SOL     OW33247   0.986   3.613   3.299
10783SOL    HW133248   1.013   3.581   3.390
10783SOL    HW233249   1.048   3.575   3.231
10784SOL     OW33250   3.458   1.349   3.897
10784SOL    HW133251   3.516   1.336   3.817
10784SOL    HW233252   3.441   1.261   3.941
10785SOL     OW33253   0.025   5.076   1.326
10785SOL    HW133254   6.992   5.031   1.395
10785SOL    HW233255   0.120   5.080   1.357
10786SOL     OW33256   4.695   4.941   1.988
10786SOL    HW133257   4.650   4.918   2.074
10786SOL    HW233258   4.763   4.872   1.965
10787SOL     OW33259   3.076   1.495   4.474
10787SOL    HW133260   3.137   1.445   4.413
10787SOL    HW233261   3.130   1.547   4.540
10788SOL     OW33262   2.325   4.932   6.502
10788SOL    HW133263   2.301   4.906   6.595
10788SOL    HW233264   2.420   4.963   6.499
10789SOL     OW33265   5.943   2.797   0.019
10789SOL    HW133266   5.997   2.792   0.103
10789SOL    HW233267   5.851   2.761   0.037
10790SOL     OW33268   0.868   0.834   2.649
10790SOL    HW133269   0.793   0.787   2.603
10790SOL    HW233270   0.890   0.918   2.600
10791SOL     OW33271   0.226   0.078   0.517
10791SOL    HW133272   0.186   0.129   0.441
10791SOL    HW233273   0.188   7.008   0.520
10792SOL     OW33274   3.601   3.819   2.817
10792SOL    HW133275   3.563   3.737   2.774
10792SOL    HW233276   3.674   3.794   2.880
10793SOL     OW33277   5.016   2.738   4.069
10793SOL    HW133278   4.921   2.707   4.070
10793SOL    HW233279   5.049   2.742   3.974
10794SOL     OW33280   2.915   3.556   3.829
10794SOL    HW133281   2.843   3.509   3.778
10794SOL    HW233282   2.967   3.616   3.768
10795SOL     OW33283   0.157   4.178   3.404
10795SOL    HW133284   0.139   4.147   3.498
10795SOL    HW233285   0.072   4.182   3.353
10796SOL     OW33286   5.721   6.800   0.679
10796SOL    HW133287   5.782   6.721   0.673
10796SOL    HW233288   5.669   6.808   0.594
10797SOL     OW33289   3.816   1.813   1.584
10797SOL    HW133290   3.749   1.809   1.657
10797SOL    HW233291   3.810   1.901   1.537
10798SOL     OW33292   2.461   6.338   0.869
10798SOL    HW133293   2.469   6.321   0.771
10798SOL    HW233294   2.517   6.418   0.893
10799SOL     OW33295   3.502   0.550   2.456
10799SOL    HW133296   3.469   0.643   2.476
10799SOL    HW233297   3.430   0.484   2.475
10800SOL     OW33298   0.235   0.247   0.292
10800SOL    HW133299   0.271   0.160   0.258
10800SOL    HW233300   0.261   0.320   0.229
10801SOL     OW33301   0.864   6.988   5.886
10801SOL    HW133302   0.904   7.016   5.973
10801SOL    HW233303   0.769   6.960   5.902
10802SOL     OW33304   0.940   2.806   3.424
10802SOL    HW133305   0.933   2.755   3.339
10802SOL    HW233306   0.849   2.840   3.450
10803SOL     OW33307   3.384   3.495   5.781
10803SOL    HW133308   3.371   3.593   5.791
10803SOL    HW233309   3.338   3.464   5.698
10804SOL     OW33310   5.726   3.767   1.955
10804SOL    HW133311   5.765   3.688   1.907
10804SOL    HW233312   5.642   3.739   2.002
10805SOL     OW33313   4.194   0.015   0.160
10805SOL    HW133314   4.134   6.959   0.144
10805SOL    HW233315   4.288   7.005   0.172
10806SOL     OW33316   4.759   3.743   5.945
10806SOL    HW133317   4.749   3.806   5.867
10806SOL    HW233318   4.693   3.669   5.937
10807SOL     OW33319   1.434   6.982   2.711
10807SOL    HW133320   1.339   7.013   2.706
10807SOL    HW233321   1.494   0.032   2.678
10808SOL     OW33322   6.358   3.130   6.564
10808SOL    HW133323   6.327   3.035   6.570
10808SOL    HW233324   6.441   3.140   6.619
10809SOL     OW33325   3.473   5.826   3.843
10809SOL    HW133326   3.479   5.801   3.747
10809SOL    HW233327   3.520   5.913   3.858
10810SOL     OW33328   2.042   0.472   4.778
10810SOL    HW133329   2.042   0.398   4.846
10810SOL    HW233330   2.133   0.481   4.739
10811SOL     OW33331   3.993   4.666   5.553
10811SOL    HW133332   3.950   4.604   5.488
10811SOL    HW233333   3.932   4.681   5.631
10812SOL     OW33334   0.854   3.510   1.535
10812SOL    HW133335   0.871   3.495   1.437
10812SOL    HW233336   0.930   3.473   1.588
10813SOL     OW33337   2.312   4.883   6.760
10813SOL    HW133338   2.285   4.792   6.792
10813SOL    HW233339   2.294   4.950   6.831
10814SOL     OW33340   1.256   6.677   6.510
10814SOL    HW133341   1.201   6.663   6.427
10814SOL    HW233342   1.237   6.768   6.548
10815SOL     OW33343   4.861   4.505   3.841
10815SOL    HW133344   4.805   4.479   3.920
10815SOL    HW233345   4.883   4.423   3.788
10816SOL     OW33346   2.045   2.313   1.363
10816SOL    HW133347   2.132   2.264   1.359
10816SOL    HW233348   1.973   2.250   1.391
10817SOL     OW33349   5.177   6.739   3.152
10817SOL    HW133350   5.184   6.640   3.138
10817SOL    HW233351   5.268   6.780   3.141
10818SOL     OW33352   4.382   4.547   5.404
10818SOL    HW133353   4.447   4.476   5.377
10818SOL    HW233354   4.324   4.513   5.478
10819SOL     OW33355   6.769   4.525   6.600
10819SOL    HW133356   6.781   4.487   6.508
10819SOL    HW233357   6.780   4.624   6.597
10820SOL     OW33358   5.930   5.747   4.225
10820SOL    HW133359   6.022   5.783   4.206
10820SOL    HW233360   5.877   5.743   4.140
10821SOL     OW33361   5.661   6.654   1.961
10821SOL    HW133362   5.587   6.598   1.922
10821SOL    HW233363   5.655   6.651   2.061
10822SOL     OW33364   0.661   3.040   2.871
10822SOL    HW133365   0.681   3.124   2.821
10822SOL    HW233366   0.632   3.063   2.964
10823SOL     OW33367   1.594   5.343   1.315
10823SOL    HW133368   1.680   5.394   1.319
10823SOL    HW233369   1.523   5.394   1.364
10824SOL     OW33370   6.315   1.184   3.482
10824SOL    HW133371   6.332   1.240   3.564
10824SOL    HW233372   6.302   1.089   3.510
10825SOL     OW33373   2.841   0.737   6.200
10825SOL    HW133374   2.870   0.832   6.214
10825SOL    HW233375   2.745   0.727   6.226
10826SOL     OW33376   1.035   3.257   3.705
10826SOL    HW133377   1.076   3.329   3.760
10826SOL    HW233378   0.942   3.238   3.738
10827SOL     OW33379   5.934   4.206   4.314
10827SOL    HW133380   5.999   4.224   4.388
10827SOL    HW233381   5.863   4.143   4.347
10828SOL     OW33382   0.655   5.217   2.188
10828SOL    HW133383   0.705   5.280   2.129
10828SOL    HW233384   0.560   5.211   2.157
10829SOL     OW33385   3.820   1.917   1.148
10829SOL    HW133386   3.747   1.848   1.145
10829SOL    HW233387   3.818   1.970   1.064
10830SOL     OW33388   5.018   1.868   3.611
10830SOL    HW133389   5.112   1.899   3.595
10830SOL    HW233390   4.968   1.868   3.524
10831SOL     OW33391   3.641   5.761   2.495
10831SOL    HW133392   3.698   5.719   2.425
10831SOL    HW233393   3.612   5.691   2.561
10832SOL     OW33394   1.187   2.341   0.108
10832SOL    HW133395   1.242   2.424   0.107
10832SOL    HW233396   1.172   2.313   0.203
10833SOL     OW33397   1.635   1.025   1.915
10833SOL    HW133398   1.649   1.058   1.822
10833SOL    HW233399   1.716   1.042   1.970
10834SOL     OW33400   1.250   2.064   6.258
10834SOL    HW133401   1.249   2.067   6.358
10834SOL    HW233402   1.329   2.010   6.228
10835SOL     OW33403   6.329   2.136   6.921
10835SOL    HW133404   6.373   2.059   6.876
10835SOL    HW233405   6.346   2.220   6.869
10836SOL     OW33406   0.120   2.089   4.671
10836SOL    HW133407   0.056   2.045   4.607
10836SOL    HW233408   0.080   2.089   4.763
10837SOL     OW33409   0.209   5.010   0.551
10837SOL    HW133410   0.185   4.957   0.470
10837SOL    HW233411   0.169   5.101   0.544
10838SOL     OW33412   5.712   6.255   4.772
10838SOL    HW133413   5.656   6.242   4.690
10838SOL    HW233414   5.706   6.351   4.801
10839SOL     OW33415   4.049   2.813   1.116
10839SOL    HW133416   3.952   2.835   1.128
10839SOL    HW233417   4.058   2.729   1.063
10840SOL     OW33418   3.504   5.405   2.271
10840SOL    HW133419   3.573   5.398   2.199
10840SOL    HW233420   3.415   5.423   2.231
10841SOL     OW33421   5.305   5.424   6.904
10841SOL    HW133422   5.323   5.382   6.815
10841SOL    HW233423   5.364   5.381   6.973
10842SOL     OW33424   5.153   2.547   1.313
10842SOL    HW133425   5.241   2.501   1.313
10842SOL    HW233426   5.101   2.520   1.395
10843SOL     OW33427   1.337   2.512   1.091
10843SOL    HW133428   1.251   2.562   1.099
10843SOL    HW233429   1.339   2.462   1.004
10844SOL     OW33430   0.297   6.698   3.753
10844SOL    HW133431   0.334   6.675   3.843
10844SOL    HW233432   0.290   6.614   3.698
10845SOL     OW33433   3.064   0.191   5.478
10845SOL    HW133434   3.044   0.286   5.457
10845SOL    HW233435   3.116   0.150   5.403
10846SOL     OW33436   4.752   2.200   0.622
10846SOL    HW133437   4.668   2.184   0.570
10846SOL    HW233438   4.765   2.126   0.688
10847SOL     OW33439   4.074   3.492   6.518
10847SOL    HW133440   4.008   3.564   6.536
10847SOL    HW233441   4.145   3.492   6.588
10848SOL     OW33442   3.011   3.452   6.881
10848SOL    HW133443   3.082   3.482   6.817
10848SOL    HW233444   2.921   3.479   6.847
10849SOL     OW33445   2.860   5.980   3.283
10849SOL    HW133446   2.761   5.967   3.279
10849SOL    HW233447   2.882   6.038   3.361
10850SOL     OW33448   3.473   5.313   0.150
10850SOL    HW133449   3.444   5.225   0.187
10850SOL    HW233450   3.573   5.318   0.150
10851SOL     OW33451   2.403   2.833   6.335
10851SOL    HW133452   2.496   2.848   6.302
10851SOL    HW233453   2.387   2.890   6.416
10852SOL     OW33454   1.242   0.304   6.781
10852SOL    HW133455   1.330   0.265   6.809
10852SOL    HW233456   1.240   0.314   6.682
10853SOL     OW33457   3.129   2.221   5.829
10853SOL    HW133458   3.078   2.147   5.871
10853SOL    HW233459   3.123   2.214   5.729
10854SOL     OW33460   4.576   6.620   4.969
10854SOL    HW133461   4.604   6.694   4.908
10854SOL    HW233462   4.638   6.542   4.956
10855SOL     OW33463   2.511   6.683   1.388
10855SOL    HW133464   2.419   6.708   1.358
10855SOL    HW233465   2.560   6.764   1.419
10856SOL     OW33466   6.111   1.516   1.692
10856SOL    HW133467   6.124   1.535   1.789
10856SOL    HW233468   6.045   1.441   1.681
10857SOL     OW33469   6.238   2.598   3.228
10857SOL    HW133470   6.170   2.647   3.174
10857SOL    HW233471   6.288   2.533   3.169
10858SOL     OW33472   0.696   1.949   6.191
10858SOL    HW133473   0.768   2.009   6.225
10858SOL    HW233474   0.636   1.923   6.267
10859SOL     OW33475   2.089   2.980   4.210
10859SOL    HW133476   2.002   3.027   4.221
10859SOL    HW233477   2.075   2.881   4.221
10860SOL     OW33478   6.430   1.567   5.986
10860SOL    HW133479   6.487   1.498   5.942
10860SOL    HW233480   6.487   1.628   6.042
10861SOL     OW33481   3.819   3.478   3.184
10861SOL    HW133482   3.828   3.570   3.145
10861SOL    HW233483   3.803   3.412   3.111
10862SOL     OW33484   2.482   1.647   6.559
10862SOL    HW133485   2.578   1.672   6.565
10862SOL    HW233486   2.428   1.726   6.532
10863SOL     OW33487   3.927   0.372   3.018
10863SOL    HW133488   3.883   0.291   3.057
10863SOL    HW233489   4.024   0.373   3.043
10864SOL     OW33490   3.333   5.245   0.694
10864SOL    HW133491   3.399   5.221   0.766
10864SOL    HW233492   3.364   5.326   0.646
10865SOL     OW33493   6.127   1.574   2.878
10865SOL    HW133494   6.070   1.656   2.867
10865SOL    HW233495   6.076   1.494   2.847
10866SOL     OW33496   4.894   4.459   0.384
10866SOL    HW133497   4.869   4.438   0.289
10866SOL    HW233498   4.882   4.557   0.400
10867SOL     OW33499   3.408   4.231   0.081
10867SOL    HW133500   3.421   4.170   0.159
10867SOL    HW233501   3.474   4.305   0.084
10868SOL     OW33502   2.587   2.167   3.628
10868SOL    HW133503   2.606   2.262   3.653
10868SOL    HW233504   2.556   2.117   3.709
10869NA      NA33505   0.634   2.298   5.871
10870NA      NA33506   4.328   4.669   5.196
10871NA      NA33507   1.887   4.210   2.513
10872NA      NA33508   5.030   4.114   3.646
10873NA      NA33509   4.202   2.346   5.305
10874NA      NA33510   3.216   4.723   1.683
10875NA      NA33511   0.083   4.376   0.215
10876NA      NA33512   3.369   3.458   2.987
10877NA      NA33513   4.833   5.036   1.026
10878NA      NA33514   3.931   6.686   5.305
10879NA      NA33515   6.017   5.336   1.138
10880NA      NA33516   1.946   0.705   4.681
10881NA      NA33517   3.964   5.079   1.798
10882NA      NA33518   4.174   3.276   1.632
   7.02221   7.02221   7.02221
