Generated by trjconv : CNT in water t= 231.00000
33518
    1C        C    1   2.849   2.774   4.748
    1C        C    2   2.903   2.726   4.870
    1C        C    3   2.842   2.771   4.987
    1C        C    4   2.848   2.776   4.261
    1C        C    5   2.905   2.732   4.382
    1C        C    6   2.853   2.779   4.505
    1C        C    7   3.015   2.643   4.627
    1C        C    8   2.899   2.724   4.626
    1C        C    9   3.077   2.603   4.748
    1C        C   10   3.013   2.637   4.869
    1C        C   11   3.182   2.490   4.975
    1C        C   12   3.063   2.564   4.977
    1C        C   13   2.852   2.773   3.771
    1C        C   14   2.904   2.727   3.894
    1C        C   15   2.852   2.774   4.017
    1C        C   16   3.018   2.647   4.138
    1C        C   17   2.904   2.730   4.141
    1C        C   18   3.080   2.615   4.261
    1C        C   19   3.020   2.649   4.383
    1C        C   20   3.213   2.564   4.505
    1C        C   21   3.079   2.611   4.505
    1C        C   22   3.281   2.541   4.626
    1C        C   23   3.208   2.549   4.747
    1C        C   24   3.415   2.486   4.868
    1C        C   25   3.272   2.501   4.864
    1C        C   26   3.490   2.478   4.986
    1C        C   27   2.850   2.770   3.285
    1C        C   28   2.908   2.728   3.407
    1C        C   29   2.854   2.778   3.528
    1C        C   30   3.020   2.642   3.649
    1C        C   31   2.906   2.726   3.649
    1C        C   32   3.082   2.610   3.772
    1C        C   33   3.021   2.648   3.894
    1C        C   34   3.210   2.553   4.019
    1C        C   35   3.081   2.611   4.016
    1C        C   36   3.281   2.538   4.140
    1C        C   37   3.213   2.566   4.261
    1C        C   38   3.420   2.518   4.385
    1C        C   39   3.282   2.547   4.383
    1C        C   40   3.490   2.506   4.507
    1C        C   41   3.419   2.510   4.628
    1C        C   42   3.633   2.481   4.747
    1C        C   43   3.491   2.489   4.748
    1C        C   44   3.710   2.482   4.865
    1C        C   45   3.629   2.478   4.979
    1C        C   46   2.836   2.752   2.795
    1C        C   47   2.895   2.712   2.917
    1C        C   48   2.847   2.765   3.040
    1C        C   49   3.017   2.641   3.161
    1C        C   50   2.901   2.722   3.163
    1C        C   51   3.077   2.602   3.283
    1C        C   52   3.021   2.644   3.406
    1C        C   53   3.213   2.553   3.528
    1C        C   54   3.082   2.606   3.527
    1C        C   55   3.280   2.533   3.651
    1C        C   56   3.212   2.556   3.773
    1C        C   57   3.416   2.509   3.896
    1C        C   58   3.277   2.533   3.896
    1C        C   59   3.488   2.506   4.017
    1C        C   60   3.419   2.511   4.141
    1C        C   61   3.630   2.505   4.260
    1C        C   62   3.489   2.501   4.263
    1C        C   63   3.702   2.507   4.381
    1C        C   64   3.632   2.507   4.504
    1C        C   65   3.837   2.546   4.622
    1C        C   66   3.702   2.505   4.627
    1C        C   67   3.909   2.560   4.743
    1C        C   68   3.845   2.523   4.863
    1C        C   69   4.049   2.589   4.981
    1C        C   70   3.922   2.529   4.980
    1C        C   71   2.825   2.734   2.311
    1C        C   72   2.882   2.688   2.431
    1C        C   73   2.831   2.744   2.551
    1C        C   74   3.008   2.628   2.676
    1C        C   75   2.888   2.703   2.674
    1C        C   76   3.075   2.598   2.796
    1C        C   77   3.013   2.634   2.918
    1C        C   78   3.207   2.545   3.038
    1C        C   79   3.076   2.600   3.039
    1C        C   80   3.274   2.524   3.161
    1C        C   81   3.207   2.547   3.283
    1C        C   82   3.415   2.502   3.406
    1C        C   83   3.276   2.527   3.404
    1C        C   84   3.488   2.502   3.527
    1C        C   85   3.418   2.507   3.650
    1C        C   86   3.628   2.506   3.771
    1C        C   87   3.487   2.502   3.774
    1C        C   88   3.700   2.513   3.892
    1C        C   89   3.629   2.502   4.014
    1C        C   90   3.837   2.546   4.136
    1C        C   91   3.699   2.514   4.137
    1C        C   92   3.905   2.568   4.258
    1C        C   93   3.838   2.545   4.380
    1C        C   94   4.028   2.640   4.500
    1C        C   95   3.907   2.568   4.501
    1C        C   96   4.092   2.674   4.621
    1C        C   97   4.035   2.626   4.741
    1C        C   98   4.183   2.771   4.863
    1C        C   99   4.098   2.656   4.864
    1C        C  100   4.206   2.846   4.979
    1C        C  101   2.823   2.727   2.073
    1C        C  102   2.992   2.591   2.194
    1C        C  103   2.879   2.678   2.192
    1C        C  104   3.062   2.567   2.316
    1C        C  105   3.004   2.616   2.435
    1C        C  106   3.205   2.542   2.552
    1C        C  107   3.074   2.594   2.556
    1C        C  108   3.273   2.523   2.674
    1C        C  109   3.207   2.547   2.797
    1C        C  110   3.415   2.495   2.918
    1C        C  111   3.277   2.525   2.917
    1C        C  112   3.484   2.489   3.041
    1C        C  113   3.412   2.495   3.162
    1C        C  114   3.625   2.500   3.279
    1C        C  115   3.484   2.492   3.284
    1C        C  116   3.696   2.516   3.401
    1C        C  117   3.629   2.509   3.525
    1C        C  118   3.837   2.540   3.647
    1C        C  119   3.698   2.513   3.648
    1C        C  120   3.902   2.569   3.769
    1C        C  121   3.836   2.551   3.893
    1C        C  122   4.029   2.639   4.015
    1C        C  123   3.903   2.575   4.015
    1C        C  124   4.091   2.674   4.137
    1C        C  125   4.030   2.633   4.258
    1C        C  126   4.200   2.765   4.379
    1C        C  127   4.092   2.674   4.378
    1C        C  128   4.244   2.823   4.500
    1C        C  129   4.196   2.770   4.621
    1C        C  130   4.321   2.942   4.744
    1C        C  131   4.239   2.825   4.744
    1C        C  132   4.350   3.008   4.865
    1C        C  133   4.281   2.963   4.978
    1C        C  134   3.173   2.469   2.082
    1C        C  135   3.039   2.508   2.087
    1C        C  136   3.259   2.477   2.193
    1C        C  137   3.195   2.517   2.312
    1C        C  138   3.408   2.477   2.430
    1C        C  139   3.269   2.503   2.432
    1C        C  140   3.482   2.485   2.550
    1C        C  141   3.412   2.498   2.672
    1C        C  142   3.624   2.492   2.790
    1C        C  143   3.483   2.487   2.794
    1C        C  144   3.693   2.503   2.913
    1C        C  145   3.625   2.493   3.037
    1C        C  146   3.835   2.534   3.156
    1C        C  147   3.698   2.501   3.158
    1C        C  148   3.902   2.561   3.278
    1C        C  149   3.833   2.547   3.401
    1C        C  150   4.027   2.628   3.523
    1C        C  151   3.900   2.566   3.524
    1C        C  152   4.083   2.672   3.645
    1C        C  153   4.024   2.641   3.770
    1C        C  154   4.196   2.766   3.890
    1C        C  155   4.085   2.679   3.891
    1C        C  156   4.250   2.812   4.013
    1C        C  157   4.201   2.762   4.135
    1C        C  158   4.335   2.927   4.256
    1C        C  159   4.252   2.814   4.257
    1C        C  160   4.372   2.989   4.378
    1C        C  161   4.329   2.936   4.502
    1C        C  162   4.437   3.121   4.618
    1C        C  163   4.368   2.998   4.623
    1C        C  164   4.464   3.187   4.739
    1C        C  165   4.429   3.125   4.861
    1C        C  166   4.522   3.319   4.974
    1C        C  167   4.474   3.188   4.978
    1C        C  168   3.475   2.435   2.077
    1C        C  169   3.399   2.463   2.192
    1C        C  170   3.620   2.469   2.307
    1C        C  171   3.478   2.456   2.309
    1C        C  172   3.696   2.488   2.425
    1C        C  173   3.623   2.484   2.546
    1C        C  174   3.830   2.534   2.666
    1C        C  175   3.695   2.493   2.668
    1C        C  176   3.894   2.562   2.789
    1C        C  177   3.829   2.539   2.913
    1C        C  178   4.026   2.623   3.032
    1C        C  179   3.900   2.560   3.034
    1C        C  180   4.086   2.662   3.154
    1C        C  181   4.027   2.628   3.278
    1C        C  182   4.199   2.750   3.401
    1C        C  183   4.087   2.663   3.400
    1C        C  184   4.248   2.803   3.523
    1C        C  185   4.193   2.761   3.646
    1C        C  186   4.337   2.920   3.766
    1C        C  187   4.247   2.811   3.766
    1C        C  188   4.376   2.980   3.888
    1C        C  189   4.335   2.925   4.011
    1C        C  190   4.442   3.109   4.131
    1C        C  191   4.371   2.986   4.133
    1C        C  192   4.471   3.175   4.252
    1C        C  193   4.438   3.114   4.375
    1C        C  194   4.511   3.317   4.494
    1C        C  195   4.469   3.182   4.494
    1C        C  196   4.524   3.390   4.614
    1C        C  197   4.507   3.323   4.737
    1C        C  198   4.553   3.536   4.856
    1C        C  199   4.535   3.394   4.857
    1C        C  200   4.585   3.623   4.966
    1C        C  201   3.614   2.422   2.078
    1C        C  202   3.833   2.506   2.185
    1C        C  203   3.696   2.463   2.188
    1C        C  204   3.905   2.535   2.304
    1C        C  205   3.834   2.518   2.425
    1C        C  206   4.022   2.624   2.545
    1C        C  207   3.896   2.560   2.544
    1C        C  208   4.087   2.653   2.668
    1C        C  209   4.020   2.626   2.789
    1C        C  210   4.193   2.753   2.909
    1C        C  211   4.082   2.665   2.909
    1C        C  212   4.246   2.798   3.032
    1C        C  213   4.193   2.753   3.155
    1C        C  214   4.332   2.912   3.275
    1C        C  215   4.243   2.802   3.278
    1C        C  216   4.367   2.974   3.397
    1C        C  217   4.334   2.915   3.521
    1C        C  218   4.438   3.102   3.641
    1C        C  219   4.371   2.978   3.642
    1C        C  220   4.463   3.172   3.761
    1C        C  221   4.436   3.108   3.885
    1C        C  222   4.506   3.308   4.008
    1C        C  223   4.468   3.172   4.007
    1C        C  224   4.523   3.380   4.128
    1C        C  225   4.513   3.310   4.250
    1C        C  226   4.526   3.526   4.370
    1C        C  227   4.522   3.384   4.370
    1C        C  228   4.530   3.600   4.491
    1C        C  229   4.540   3.530   4.613
    1C        C  230   4.509   3.743   4.732
    1C        C  231   4.545   3.606   4.733
    1C        C  232   4.495   3.821   4.850
    1C        C  233   4.549   3.758   4.963
    1C        C  234   4.018   2.613   2.067
    1C        C  235   3.896   2.547   2.067
    1C        C  236   4.090   2.646   2.182
    1C        C  237   4.029   2.605   2.302
    1C        C  238   4.201   2.736   2.424
    1C        C  239   4.086   2.652   2.422
    1C        C  240   4.251   2.789   2.545
    1C        C  241   4.195   2.744   2.666
    1C        C  242   4.343   2.900   2.787
    1C        C  243   4.248   2.796   2.786
    1C        C  244   4.382   2.959   2.909
    1C        C  245   4.339   2.905   3.033
    1C        C  246   4.440   3.094   3.150
    1C        C  247   4.379   2.966   3.153
    1C        C  248   4.460   3.161   3.273
    1C        C  249   4.433   3.099   3.398
    1C        C  250   4.493   3.306   3.517
    1C        C  251   4.461   3.168   3.518
    1C        C  252   4.509   3.375   3.639
    1C        C  253   4.499   3.308   3.763
    1C        C  254   4.527   3.518   3.881
    1C        C  255   4.517   3.377   3.885
    1C        C  256   4.523   3.591   4.002
    1C        C  257   4.528   3.522   4.125
    1C        C  258   4.496   3.732   4.244
    1C        C  259   4.525   3.593   4.247
    1C        C  260   4.474   3.802   4.365
    1C        C  261   4.500   3.738   4.488
    1C        C  262   4.434   3.940   4.607
    1C        C  263   4.484   3.808   4.609
    1C        C  264   4.405   4.013   4.725
    1C        C  265   4.439   3.950   4.847
    1C        C  266   4.320   4.132   4.962
    1C        C  267   4.396   4.016   4.963
    1C        C  268   4.268   2.772   2.066
    1C        C  269   4.202   2.733   2.183
    1C        C  270   4.350   2.890   2.302
    1C        C  271   4.255   2.784   2.303
    1C        C  272   4.391   2.952   2.422
    1C        C  273   4.347   2.893   2.542
    1C        C  274   4.450   3.081   2.663
    1C        C  275   4.383   2.956   2.664
    1C        C  276   4.465   3.153   2.783
    1C        C  277   4.440   3.088   2.906
    1C        C  278   4.498   3.294   3.027
    1C        C  279   4.465   3.157   3.026
    1C        C  280   4.511   3.365   3.149
    1C        C  281   4.494   3.298   3.272
    1C        C  282   4.517   3.512   3.389
    1C        C  283   4.507   3.371   3.392
    1C        C  284   4.525   3.582   3.511
    1C        C  285   4.524   3.516   3.636
    1C        C  286   4.494   3.726   3.754
    1C        C  287   4.522   3.587   3.758
    1C        C  288   4.476   3.795   3.876
    1C        C  289   4.494   3.730   3.999
    1C        C  290   4.437   3.934   4.117
    1C        C  291   4.481   3.799   4.121
    1C        C  292   4.405   3.998   4.239
    1C        C  293   4.432   3.937   4.364
    1C        C  294   4.326   4.123   4.482
    1C        C  295   4.401   4.003   4.485
    1C        C  296   4.286   4.186   4.601
    1C        C  297   4.330   4.133   4.725
    1C        C  298   4.197   4.310   4.840
    1C        C  299   4.287   4.199   4.844
    1C        C  300   4.170   4.403   4.946
    1C        C  301   4.357   2.879   2.061
    1C        C  302   4.472   3.065   2.177
    1C        C  303   4.397   2.944   2.179
    1C        C  304   4.479   3.143   2.297
    1C        C  305   4.453   3.079   2.420
    1C        C  306   4.505   3.286   2.537
    1C        C  307   4.478   3.147   2.541
    1C        C  308   4.514   3.358   2.658
    1C        C  309   4.500   3.290   2.782
    1C        C  310   4.521   3.502   2.903
    1C        C  311   4.514   3.361   2.903
    1C        C  312   4.516   3.577   3.023
    1C        C  313   4.519   3.506   3.145
    1C        C  314   4.495   3.720   3.265
    1C        C  315   4.514   3.580   3.265
    1C        C  316   4.479   3.789   3.388
    1C        C  317   4.499   3.721   3.510
    1C        C  318   4.429   3.925   3.629
    1C        C  319   4.479   3.792   3.630
    1C        C  320   4.402   3.990   3.751
    1C        C  321   4.430   3.929   3.875
    1C        C  322   4.322   4.113   3.992
    1C        C  323   4.401   3.996   3.996
    1C        C  324   4.282   4.172   4.114
    1C        C  325   4.330   4.118   4.235
    1C        C  326   4.186   4.275   4.356
    1C        C  327   4.285   4.174   4.357
    1C        C  328   4.133   4.330   4.474
    1C        C  329   4.187   4.287   4.598
    1C        C  330   4.024   4.432   4.713
    1C        C  331   4.138   4.347   4.716
    1C        C  332   3.970   4.490   4.830
    1C        C  333   4.050   4.475   4.944
    1C        C  334   4.550   3.265   2.063
    1C        C  335   4.537   3.126   2.065
    1C        C  336   4.533   3.350   2.174
    1C        C  337   4.509   3.282   2.295
    1C        C  338   4.521   3.497   2.414
    1C        C  339   4.520   3.355   2.415
    1C        C  340   4.516   3.568   2.536
    1C        C  341   4.521   3.499   2.659
    1C        C  342   4.491   3.710   2.775
    1C        C  343   4.514   3.571   2.780
    1C        C  344   4.476   3.782   2.895
    1C        C  345   4.493   3.716   3.019
    1C        C  346   4.426   3.917   3.140
    1C        C  347   4.480   3.786   3.141
    1C        C  348   4.390   3.981   3.261
    1C        C  349   4.428   3.921   3.383
    1C        C  350   4.318   4.101   3.503
    1C        C  351   4.398   3.985   3.505
    1C        C  352   4.277   4.161   3.624
    1C        C  353   4.322   4.107   3.747
    1C        C  354   4.178   4.265   3.869
    1C        C  355   4.277   4.164   3.868
    1C        C  356   4.124   4.314   3.989
    1C        C  357   4.179   4.268   4.111
    1C        C  358   4.013   4.399   4.234
    1C        C  359   4.130   4.319   4.234
    1C        C  360   3.950   4.443   4.352
    1C        C  361   4.019   4.413   4.472
    1C        C  362   3.827   4.511   4.597
    1C        C  363   3.957   4.456   4.591
    1C        C  364   3.761   4.546   4.718
    1C        C  365   3.841   4.547   4.834
    1C        C  366   3.629   4.596   4.950
    1C        C  367   3.767   4.577   4.949
    1C        C  368   4.511   3.566   2.055
    1C        C  369   4.522   3.490   2.172
    1C        C  370   4.508   3.707   2.290
    1C        C  371   4.520   3.567   2.291
    1C        C  372   4.486   3.778   2.410
    1C        C  373   4.497   3.708   2.532
    1C        C  374   4.425   3.911   2.649
    1C        C  375   4.474   3.778   2.652
    1C        C  376   4.397   3.976   2.771
    1C        C  377   4.426   3.914   2.895
    1C        C  378   4.321   4.098   3.015
    1C        C  379   4.397   3.978   3.017
    1C        C  380   4.275   4.156   3.135
    1C        C  381   4.317   4.101   3.259
    1C        C  382   4.171   4.254   3.380
    1C        C  383   4.273   4.156   3.381
    1C        C  384   4.117   4.301   3.502
    1C        C  385   4.178   4.262   3.623
    1C        C  386   4.002   4.380   3.745
    1C        C  387   4.121   4.304   3.746
    1C        C  388   3.941   4.420   3.866
    1C        C  389   4.005   4.390   3.989
    1C        C  390   3.817   4.483   4.108
    1C        C  391   3.947   4.428   4.112
    1C        C  392   3.752   4.515   4.230
    1C        C  393   3.821   4.499   4.352
    1C        C  394   3.617   4.549   4.476
    1C        C  395   3.756   4.522   4.475
    1C        C  396   3.547   4.568   4.597
    1C        C  397   3.621   4.564   4.717
    1C        C  398   3.409   4.552   4.841
    1C        C  399   3.548   4.576   4.838
    1C        C  400   3.341   4.522   4.959
    1C        C  401   4.495   3.704   2.051
    1C        C  402   4.454   3.915   2.167
    1C        C  403   4.493   3.780   2.170
    1C        C  404   4.404   3.975   2.285
    1C        C  405   4.433   3.909   2.406
    1C        C  406   4.329   4.099   2.525
    1C        C  407   4.398   3.976   2.526
    1C        C  408   4.280   4.152   2.646
    1C        C  409   4.320   4.094   2.768
    1C        C  410   4.173   4.246   2.889
    1C        C  411   4.277   4.149   2.891
    1C        C  412   4.118   4.294   3.010
    1C        C  413   4.169   4.249   3.134
    1C        C  414   4.000   4.378   3.256
    1C        C  415   4.117   4.297   3.257
    1C        C  416   3.940   4.414   3.378
    1C        C  417   4.000   4.380   3.501
    1C        C  418   3.813   4.479   3.623
    1C        C  419   3.940   4.417   3.624
    1C        C  420   3.746   4.506   3.745
    1C        C  421   3.813   4.480   3.866
    1C        C  422   3.609   4.539   3.987
    1C        C  423   3.746   4.504   3.988
    1C        C  424   3.543   4.552   4.111
    1C        C  425   3.614   4.546   4.232
    1C        C  426   3.403   4.557   4.359
    1C        C  427   3.545   4.555   4.355
    1C        C  428   3.332   4.555   4.480
    1C        C  429   3.406   4.565   4.600
    1C        C  430   3.195   4.523   4.723
    1C        C  431   3.335   4.552   4.721
    1C        C  432   3.127   4.494   4.844
    1C        C  433   3.204   4.497   4.961
    1C        C  434   4.387   4.122   2.052
    1C        C  435   4.448   3.996   2.053
    1C        C  436   4.303   4.164   2.161
    1C        C  437   4.331   4.097   2.283
    1C        C  438   4.187   4.256   2.403
    1C        C  439   4.288   4.158   2.403
    1C        C  440   4.127   4.299   2.523
    1C        C  441   4.172   4.244   2.645
    1C        C  442   4.001   4.369   2.766
    1C        C  443   4.118   4.289   2.767
    1C        C  444   3.939   4.405   2.888
    1C        C  445   4.000   4.372   3.011
    1C        C  446   3.812   4.470   3.132
    1C        C  447   3.940   4.411   3.132
    1C        C  448   3.746   4.491   3.255
    1C        C  449   3.811   4.472   3.379
    1C        C  450   3.608   4.530   3.497
    1C        C  451   3.746   4.501   3.501
    1C        C  452   3.540   4.546   3.620
    1C        C  453   3.609   4.542   3.743
    1C        C  454   3.398   4.555   3.867
    1C        C  455   3.539   4.554   3.865
    1C        C  456   3.330   4.542   3.990
    1C        C  457   3.402   4.545   4.112
    1C        C  458   3.198   4.509   4.236
    1C        C  459   3.334   4.544   4.236
    1C        C  460   3.129   4.491   4.358
    1C        C  461   3.196   4.517   4.479
    1C        C  462   2.999   4.438   4.603
    1C        C  463   3.127   4.499   4.601
    1C        C  464   2.932   4.403   4.722
    1C        C  465   2.995   4.438   4.844
    1C        C  466   2.804   4.335   4.961
    1C        C  467   2.916   4.420   4.962
    1C        C  468   4.125   4.290   2.042
    1C        C  469   4.189   4.250   2.160
    1C        C  470   4.011   4.375   2.281
    1C        C  471   4.130   4.297   2.281
    1C        C  472   3.941   4.409   2.399
    1C        C  473   4.005   4.371   2.519
    1C        C  474   3.814   4.461   2.644
    1C        C  475   3.942   4.402   2.642
    1C        C  476   3.746   4.490   2.765
    1C        C  477   3.814   4.470   2.887
    1C        C  478   3.609   4.522   3.010
    1C        C  479   3.748   4.495   3.009
    1C        C  480   3.535   4.532   3.130
    1C        C  481   3.608   4.524   3.250
    1C        C  482   3.399   4.544   3.380
    1C        C  483   3.540   4.537   3.373
    1C        C  484   3.327   4.536   3.501
    1C        C  485   3.398   4.544   3.622
    1C        C  486   3.191   4.507   3.746
    1C        C  487   3.328   4.542   3.745
    1C        C  488   3.127   4.481   3.869
    1C        C  489   3.194   4.504   3.991
    1C        C  490   3.001   4.425   4.116
    1C        C  491   3.128   4.488   4.115
    1C        C  492   2.941   4.392   4.239
    1C        C  493   3.002   4.429   4.361
    1C        C  494   2.830   4.304   4.485
    1C        C  495   2.939   4.395   4.483
    1C        C  496   2.777   4.256   4.607
    1C        C  497   2.817   4.320   4.726
    1C        C  498   2.665   4.166   4.845
    1C        C  499   2.755   4.275   4.845
    1C        C  500   2.601   4.116   4.959
    1C        C  501   4.003   4.355   2.043
    1C        C  502   3.817   4.467   2.160
    1C        C  503   3.943   4.404   2.160
    1C        C  504   3.744   4.487   2.279
    1C        C  505   3.809   4.460   2.401
    1C        C  506   3.609   4.525   2.524
    1C        C  507   3.745   4.486   2.524
    1C        C  508   3.535   4.523   2.645
    1C        C  509   3.607   4.515   2.767
    1C        C  510   3.395   4.527   2.890
    1C        C  511   3.537   4.529   2.888
    1C        C  512   3.323   4.528   3.011
    1C        C  513   3.394   4.543   3.133
    1C        C  514   3.192   4.501   3.258
    1C        C  515   3.328   4.539   3.258
    1C        C  516   3.125   4.472   3.379
    1C        C  517   3.190   4.503   3.501
    1C        C  518   2.999   4.417   3.627
    1C        C  519   3.124   4.483   3.624
    1C        C  520   2.941   4.376   3.749
    1C        C  521   3.003   4.413   3.871
    1C        C  522   2.841   4.283   3.997
    1C        C  523   2.947   4.377   3.995
    1C        C  524   2.796   4.235   4.122
    1C        C  525   2.836   4.298   4.242
    1C        C  526   2.700   4.134   4.364
    1C        C  527   2.784   4.248   4.364
    1C        C  528   2.657   4.079   4.486
    1C        C  529   2.689   4.145   4.607
    1C        C  530   2.588   3.959   4.730
    1C        C  531   2.642   4.090   4.728
    1C        C  532   2.542   3.901   4.851
    1C        C  533   2.529   3.996   4.959
    1C        C  534   3.618   4.556   2.039
    1C        C  535   3.752   4.513   2.045
    1C        C  536   3.537   4.536   2.155
    1C        C  537   3.605   4.517   2.279
    1C        C  538   3.397   4.527   2.403
    1C        C  539   3.538   4.532   2.402
    1C        C  540   3.326   4.510   2.524
    1C        C  541   3.394   4.521   2.647
    1C        C  542   3.184   4.495   2.766
    1C        C  543   3.323   4.519   2.769
    1C        C  544   3.122   4.470   2.891
    1C        C  545   3.188   4.489   3.014
    1C        C  546   2.997   4.410   3.136
    1C        C  547   3.121   4.476   3.138
    1C        C  548   2.939   4.369   3.258
    1C        C  549   2.999   4.408   3.380
    1C        C  550   2.835   4.282   3.508
    1C        C  551   2.940   4.376   3.505
    1C        C  552   2.788   4.227   3.629
    1C        C  553   2.838   4.279   3.751
    1C        C  554   2.707   4.119   3.879
    1C        C  555   2.791   4.232   3.875
    1C        C  556   2.670   4.058   4.002
    1C        C  557   2.710   4.123   4.121
    1C        C  558   2.607   3.940   4.246
    1C        C  559   2.671   4.066   4.244
    1C        C  560   2.575   3.878   4.369
    1C        C  561   2.598   3.951   4.488
    1C        C  562   2.531   3.750   4.616
    1C        C  563   2.570   3.886   4.610
    1C        C  564   2.519   3.680   4.738
    1C        C  565   2.524   3.760   4.856
    1C        C  566   2.528   3.545   4.977
    1C        C  567   2.527   3.684   4.974
    1C        C  568   3.330   4.481   2.044
    1C        C  569   3.397   4.513   2.163
    1C        C  570   3.186   4.476   2.283
    1C        C  571   3.322   4.515   2.284
    1C        C  572   3.117   4.460   2.406
    1C        C  573   3.187   4.483   2.526
    1C        C  574   2.986   4.411   2.648
    1C        C  575   3.114   4.470   2.646
    1C        C  576   2.932   4.369   2.772
    1C        C  577   2.995   4.407   2.892
    1C        C  578   2.832   4.274   3.019
    1C        C  579   2.937   4.369   3.015
    1C        C  580   2.787   4.219   3.141
    1C        C  581   2.837   4.271   3.262
    1C        C  582   2.705   4.112   3.387
    1C        C  583   2.786   4.228   3.387
    1C        C  584   2.663   4.057   3.510
    1C        C  585   2.701   4.116   3.633
    1C        C  586   2.605   3.932   3.757
    1C        C  587   2.667   4.059   3.758
    1C        C  588   2.577   3.870   3.881
    1C        C  589   2.602   3.934   4.004
    1C        C  590   2.541   3.734   4.128
    1C        C  591   2.577   3.870   4.127
    1C        C  592   2.525   3.668   4.252
    1C        C  593   2.541   3.741   4.372
    1C        C  594   2.516   3.534   4.499
    1C        C  595   2.523   3.675   4.496
    1C        C  596   2.518   3.463   4.620
    1C        C  597   2.516   3.538   4.740
    1C        C  598   2.532   3.326   4.864
    1C        C  599   2.522   3.467   4.861
    1C        C  600   2.536   3.251   4.983
    1C        C  601   3.197   4.445   2.045
    1C        C  602   2.986   4.394   2.159
    1C        C  603   3.118   4.449   2.161
    1C        C  604   2.932   4.356   2.285
    1C        C  605   2.988   4.402   2.406
    1C        C  606   2.821   4.273   2.529
    1C        C  607   2.926   4.368   2.528
    1C        C  608   2.774   4.224   2.653
    1C        C  609   2.827   4.274   2.774
    1C        C  610   2.695   4.111   2.896
    1C        C  611   2.781   4.223   2.897
    1C        C  612   2.659   4.051   3.019
    1C        C  613   2.696   4.112   3.141
    1C        C  614   2.599   3.927   3.265
    1C        C  615   2.660   4.054   3.266
    1C        C  616   2.573   3.865   3.389
    1C        C  617   2.604   3.928   3.511
    1C        C  618   2.541   3.729   3.638
    1C        C  619   2.584   3.864   3.635
    1C        C  620   2.519   3.664   3.762
    1C        C  621   2.536   3.735   3.882
    1C        C  622   2.516   3.524   4.009
    1C        C  623   2.531   3.665   4.005
    1C        C  624   2.514   3.456   4.132
    1C        C  625   2.513   3.527   4.254
    1C        C  626   2.543   3.321   4.379
    1C        C  627   2.521   3.461   4.378
    1C        C  628   2.559   3.253   4.502
    1C        C  629   2.539   3.323   4.623
    1C        C  630   2.591   3.116   4.745
    1C        C  631   2.548   3.252   4.745
    1C        C  632   2.618   3.050   4.868
    1C        C  633   2.565   3.114   4.984
    1C        C  634   2.782   4.309   2.056
    1C        C  635   2.892   4.396   2.051
    1C        C  636   2.752   4.230   2.167
    1C        C  637   2.817   4.272   2.286
    1C        C  638   2.680   4.112   2.410
    1C        C  639   2.766   4.224   2.408
    1C        C  640   2.651   4.048   2.533
    1C        C  641   2.690   4.110   2.654
    1C        C  642   2.594   3.922   2.776
    1C        C  643   2.650   4.052   2.776
    1C        C  644   2.567   3.858   2.899
    1C        C  645   2.595   3.925   3.020
    1C        C  646   2.542   3.722   3.148
    1C        C  647   2.575   3.859   3.143
    1C        C  648   2.528   3.655   3.272
    1C        C  649   2.533   3.730   3.392
    1C        C  650   2.511   3.521   3.522
    1C        C  651   2.524   3.661   3.516
    1C        C  652   2.514   3.449   3.643
    1C        C  653   2.513   3.522   3.764
    1C        C  654   2.533   3.313   3.889
    1C        C  655   2.516   3.453   3.887
    1C        C  656   2.550   3.247   4.013
    1C        C  657   2.531   3.315   4.135
    1C        C  658   2.600   3.116   4.258
    1C        C  659   2.554   3.249   4.258
    1C        C  660   2.632   3.055   4.382
    1C        C  661   2.599   3.118   4.504
    1C        C  662   2.712   2.938   4.627
    1C        C  663   2.626   3.051   4.625
    1C        C  664   2.756   2.881   4.748
    1C        C  665   2.703   2.935   4.869
    1C        C  666   2.744   2.870   4.985
    1C        C  667   2.694   4.024   2.056
    1C        C  668   2.693   4.102   2.172
    1C        C  669   2.590   3.913   2.290
    1C        C  670   2.644   4.045   2.291
    1C        C  671   2.562   3.851   2.414
    1C        C  672   2.592   3.920   2.533
    1C        C  673   2.524   3.719   2.660
    1C        C  674   2.565   3.854   2.655
    1C        C  675   2.509   3.650   2.783
    1C        C  676   2.526   3.723   2.903
    1C        C  677   2.507   3.514   3.031
    1C        C  678   2.522   3.654   3.026
    1C        C  679   2.507   3.444   3.154
    1C        C  680   2.512   3.515   3.277
    1C        C  681   2.534   3.308   3.400
    1C        C  682   2.513   3.447   3.401
    1C        C  683   2.552   3.240   3.523
    1C        C  684   2.531   3.309   3.645
    1C        C  685   2.595   3.109   3.771
    1C        C  686   2.543   3.241   3.768
    1C        C  687   2.634   3.049   3.893
    1C        C  688   2.601   3.115   4.014
    1C        C  689   2.709   2.934   4.137
    1C        C  690   2.632   3.052   4.136
    1C        C  691   2.753   2.882   4.261
    1C        C  692   2.710   2.937   4.383
    1C        C  693   2.757   2.883   4.505
    1C        C  694   2.639   3.895   2.058
    1C        C  695   2.522   3.709   2.178
    1C        C  696   2.577   3.839   2.171
    1C        C  697   2.504   3.639   2.300
    1C        C  698   2.521   3.716   2.417
    1C        C  699   2.487   3.508   2.545
    1C        C  700   2.506   3.647   2.540
    1C        C  701   2.504   3.436   2.666
    1C        C  702   2.500   3.509   2.787
    1C        C  703   2.526   3.301   2.912
    1C        C  704   2.501   3.440   2.911
    1C        C  705   2.550   3.237   3.036
    1C        C  706   2.532   3.305   3.158
    1C        C  707   2.592   3.101   3.277
    1C        C  708   2.545   3.235   3.279
    1C        C  709   2.623   3.041   3.401
    1C        C  710   2.599   3.107   3.524
    1C        C  711   2.714   2.936   3.650
    1C        C  712   2.625   3.046   3.648
    1C        C  713   2.755   2.876   3.772
    1C        C  714   2.710   2.930   3.894
    1C        C  715   2.754   2.875   4.016
    1C        C  716   2.460   3.500   2.064
    1C        C  717   2.492   3.636   2.062
    1C        C  718   2.476   3.422   2.183
    1C        C  719   2.487   3.498   2.303
    1C        C  720   2.513   3.291   2.426
    1C        C  721   2.487   3.430   2.427
    1C        C  722   2.537   3.225   2.549
    1C        C  723   2.520   3.296   2.670
    1C        C  724   2.578   3.092   2.790
    1C        C  725   2.540   3.228   2.792
    1C        C  726   2.622   3.035   2.912
    1C        C  727   2.596   3.103   3.033
    1C        C  728   2.702   2.920   3.160
    1C        C  729   2.624   3.038   3.155
    1C        C  730   2.753   2.874   3.283
    1C        C  731   2.709   2.929   3.405
    1C        C  732   2.750   2.874   3.529
    1C        C  733   2.486   3.197   2.074
    1C        C  734   2.491   3.279   2.187
    1C        C  735   2.579   3.083   2.307
    1C        C  736   2.522   3.213   2.309
    1C        C  737   2.618   3.023   2.429
    1C        C  738   2.587   3.093   2.547
    1C        C  739   2.695   2.912   2.672
    1C        C  740   2.613   3.027   2.669
    1C        C  741   2.743   2.859   2.794
    1C        C  742   2.701   2.918   2.915
    1C        C  743   2.748   2.865   3.038
    1C        C  744   2.553   3.075   2.072
    1C        C  745   2.686   2.898   2.186
    1C        C  746   2.613   3.019   2.186
    1C        C  747   2.734   2.844   2.307
    1C        C  748   2.695   2.904   2.429
    1C        C  749   2.739   2.851   2.552
    1C        C  750   2.742   2.840   2.072
    1C        C  751   3.662   2.324   1.977
    1C        O  752   3.634   2.201   1.980
    1C        O  753   3.684   2.374   1.848
    1C        C  754   4.633   3.036   1.997
    1C        O  755   4.654   3.024   1.873
    1C        O  756   4.717   2.950   2.069
    1C        C  757   4.436   4.227   1.960
    1C        O  758   4.509   4.317   2.009
    1C        O  759   4.428   4.219   1.820
    1C        C  760   3.590   4.649   1.928
    1C        O  761   3.626   4.770   1.925
    1C        O  762   3.570   4.606   1.796
    1C        C  763   2.859   4.512   1.965
    1C        O  764   2.903   4.521   1.847
    1C        O  765   2.796   4.627   2.015
    1C        C  766   2.366   3.465   1.955
    1C        O  767   2.410   3.475   1.838
    1C        O  768   2.229   3.483   1.976
    1C        C  769   4.689   3.588   5.066
    1C        O  770   4.655   3.548   5.180
    1C        O  771   4.825   3.580   5.036
    1C        C  772   4.281   4.468   5.019
    1C        O  773   4.282   4.474   5.144
    1C        O  774   4.331   4.592   4.977
    1C        C  775   4.142   2.524   5.076
    1C        O  776   4.231   2.441   5.048
    1C        O  777   4.176   2.580   5.200
    1C        C  778   2.906   4.533   5.057
    1C        O  779   2.902   4.655   5.028
    1C        O  780   2.951   4.498   5.185
    1C        C  781   2.474   3.054   5.085
    1C        O  782   2.405   2.958   5.042
    1C        O  783   2.525   3.001   5.203
    1C        C  784   2.419   3.994   5.058
    1C        O  785   2.300   3.997   5.015
    1C        O  786   2.435   3.958   5.192
    1C        C  787   2.943   2.412   2.030
    1C        O  788   2.904   2.424   1.911
    1C        O  789   2.896   2.306   2.107
    1C        C  790   3.172   2.364   5.053
    1C        O  791   3.158   2.255   4.991
    1C        O  792   3.174   2.357   5.193
    1C        H  793   4.310   2.996   5.076
    1C        H  794   4.122   2.849   5.046
    1C        H  795   4.481   3.133   5.070
    1C        H  796   4.568   3.355   5.064
    1C        H  797   4.565   3.814   5.053
    1C        H  798   4.435   3.984   5.057
    1C        H  799   4.251   4.148   5.043
    1C        H  800   4.046   4.558   5.011
    1C        H  801   3.822   4.623   5.028
    1C        H  802   3.583   4.650   5.031
    1C        H  803   3.392   4.517   5.054
    1C        H  804   3.163   4.481   5.058
    1C        H  805   3.919   2.437   5.034
    1C        H  806   3.678   2.476   5.074
    1C        H  807   2.991   2.524   5.045
    1C        H  808   3.443   2.437   5.073
    1C        H  809   2.831   2.707   5.072
    1C        H  810   2.714   2.909   5.080
    1C        H  811   2.468   3.284   5.059
    1C        H  812   2.562   3.504   5.070
    1C        H  813   2.488   3.739   5.058
    1C        H  814   2.616   4.159   5.056
    1C        H  815   2.747   4.326   5.052
    1C        H  816   2.733   2.886   1.976
    1C        H  817   2.870   2.698   1.981
    1C        H  818   3.199   2.402   2.003
    1C        H  819   3.435   2.467   1.983
    1C        H  820   3.877   2.492   1.976
    1C        H  821   4.036   2.659   1.972
    1C        H  822   4.232   2.731   1.974
    1C        H  823   4.405   2.896   1.967
    1C        H  824   4.600   3.308   1.979
    1C        H  825   4.573   3.529   1.976
    1C        H  826   4.440   3.736   1.965
    1C        H  827   3.815   4.559   1.971
    1C        H  828   3.963   4.381   1.947
    1C        H  829   4.166   4.256   1.949
    1C        H  830   4.502   3.967   1.965
    1C        H  831   2.688   3.828   1.991
    1C        H  832   2.671   4.072   1.963
    1C        H  833   2.706   4.314   1.981
    1C        H  834   3.367   4.513   1.949
    1C        H  835   3.174   4.370   1.972
    1C        H  836   2.587   3.054   1.973
    1C        H  837   2.409   3.208   2.000
    1C        H  838   2.468   3.693   1.975
    2V3OU   H29  839   2.806   3.548   2.282
    2V3OU   C27  840   2.785   3.502   2.382
    2V3OU   H27  841   2.733   3.574   2.451
    2V3OU   H28  842   2.736   3.402   2.373
    2V3OU   O11  843   2.916   3.478   2.435
    2V3OU   C15  844   2.932   3.400   2.548
    2V3OU   C13  845   3.059   3.374   2.602
    2V3OU   C14  846   3.083   3.267   2.689
    2V3OU   C16  847   2.981   3.177   2.718
    2V3OU    H6  848   2.995   3.097   2.792
    2V3OU   C12  849   3.216   3.233   2.745
    2V3OU    O2  850   3.239   3.119   2.790
    2V3OU   C10  851   3.329   3.311   2.694
    2V3OU    C8  852   3.459   3.269   2.723
    2V3OU   O10  853   3.492   3.154   2.789
    2V3OU   H26  854   3.403   3.116   2.799
    2V3OU    C6  855   3.565   3.351   2.674
    2V3OU    C5  856   3.541   3.472   2.609
    2V3OU    C4  857   3.703   3.297   2.675
    2V3OU    H4  858   3.725   3.232   2.764
    2V3OU    H5  859   3.714   3.231   2.584
    2V3OU    C2  860   3.817   3.399   2.670
    2V3OU    O6  861   3.815   3.477   2.790
    2V3OU   H21  862   3.770   3.559   2.764
    2V3OU    C3  863   3.784   3.496   2.556
    2V3OU    H2  864   3.867   3.571   2.549
    2V3OU    H3  865   3.782   3.434   2.463
    2V3OU   C25  866   3.951   3.326   2.658
    2V3OU    O7  867   3.999   3.302   2.547
    2V3OU   C26  868   4.031   3.288   2.781
    2V3OU   H22  869   4.073   3.383   2.824
    2V3OU   H23  870   4.111   3.215   2.752
    2V3OU    O8  871   3.956   3.207   2.869
    2V3OU   H24  872   3.923   3.260   2.944
    2V3OU    C1  873   3.651   3.567   2.572
    2V3OU    H1  874   3.626   3.620   2.475
    2V3OU    O3  875   3.659   3.657   2.683
    2V3OU   C19  876   3.616   3.792   2.666
    2V3OU    H9  877   3.523   3.803   2.603
    2V3OU    O4  878   3.716   3.849   2.584
    2V3OU   C20  879   3.850   3.876   2.628
    2V3OU   H10  880   3.900   3.775   2.639
    2V3OU   C24  881   3.610   3.856   2.805
    2V3OU   H16  882   3.551   3.791   2.875
    2V3OU   H17  883   3.567   3.960   2.803
    2V3OU   C23  884   3.752   3.880   2.855
    2V3OU   H15  885   3.796   3.778   2.885
    2V3OU    N1  886   3.735   3.954   2.978
    2V3OU   H19  887   3.808   3.932   3.043
    2V3OU   H20  888   3.643   3.934   3.014
    2V3OU   C21  889   3.852   3.952   2.760
    2V3OU   H11  890   3.954   3.924   2.801
    2V3OU    O5  891   3.833   4.093   2.765
    2V3OU   H18  892   3.790   4.111   2.850
    2V3OU   C22  893   3.916   3.947   2.511
    2V3OU   H12  894   3.868   4.045   2.489
    2V3OU   H13  895   3.907   3.885   2.418
    2V3OU   H14  896   4.025   3.963   2.535
    2V3OU   C11  897   3.164   3.476   2.588
    2V3OU    O1  898   3.139   3.587   2.537
    2V3OU    C9  899   3.301   3.429   2.620
    2V3OU    C7  900   3.406   3.509   2.578
    2V3OU    O9  901   3.391   3.628   2.509
    2V3OU   H25  902   3.294   3.632   2.518
    2V3OU   C17  903   2.828   3.317   2.595
    2V3OU    H7  904   2.728   3.355   2.575
    2V3OU   C18  905   2.851   3.211   2.682
    2V3OU    H8  906   2.778   3.171   2.755
    3SOL     OW  907   2.979   5.010   0.539
    3SOL    HW1  908   2.971   5.077   0.465
    3SOL    HW2  909   3.019   5.054   0.620
    4SOL     OW  910   0.165   6.345   2.222
    4SOL    HW1  911   0.238   6.366   2.157
    4SOL    HW2  912   0.170   6.410   2.299
    5SOL     OW  913   4.189   1.125   2.803
    5SOL    HW1  914   4.094   1.157   2.796
    5SOL    HW2  915   4.225   1.145   2.894
    6SOL     OW  916   4.031   0.738   1.507
    6SOL    HW1  917   4.072   0.826   1.529
    6SOL    HW2  918   3.961   0.750   1.436
    7SOL     OW  919   6.779   3.345   2.243
    7SOL    HW1  920   6.858   3.305   2.290
    7SOL    HW2  921   6.785   3.445   2.247
    8SOL     OW  922   3.194   0.662   0.205
    8SOL    HW1  923   3.136   0.638   0.127
    8SOL    HW2  924   3.176   0.599   0.280
    9SOL     OW  925   5.531   0.006   6.326
    9SOL    HW1  926   5.597   0.004   6.251
    9SOL    HW2  927   5.449   6.982   6.300
   10SOL     OW  928   1.466   4.994   6.403
   10SOL    HW1  929   1.556   5.002   6.446
   10SOL    HW2  930   1.407   4.936   6.460
   11SOL     OW  931   2.865   0.095   6.094
   11SOL    HW1  932   2.787   0.154   6.115
   11SOL    HW2  933   2.856   0.060   6.001
   12SOL     OW  934   3.690   5.917   3.283
   12SOL    HW1  935   3.744   5.958   3.209
   12SOL    HW2  936   3.693   5.817   3.275
   13SOL     OW  937   4.248   6.291   4.141
   13SOL    HW1  938   4.246   6.386   4.110
   13SOL    HW2  939   4.169   6.242   4.106
   14SOL     OW  940   3.359   6.201   5.684
   14SOL    HW1  941   3.297   6.230   5.611
   14SOL    HW2  942   3.450   6.187   5.647
   15SOL     OW  943   1.362   6.232   1.766
   15SOL    HW1  944   1.363   6.301   1.839
   15SOL    HW2  945   1.372   6.277   1.677
   16SOL     OW  946   4.916   2.685   5.884
   16SOL    HW1  947   4.957   2.771   5.852
   16SOL    HW2  948   4.819   2.699   5.902
   17SOL     OW  949   5.208   6.221   5.942
   17SOL    HW1  950   5.153   6.158   5.886
   17SOL    HW2  951   5.220   6.181   6.033
   18SOL     OW  952   3.338   1.189   5.883
   18SOL    HW1  953   3.273   1.262   5.864
   18SOL    HW2  954   3.431   1.225   5.882
   19SOL     OW  955   0.297   1.512   3.002
   19SOL    HW1  956   0.243   1.489   2.921
   19SOL    HW2  957   0.341   1.429   3.037
   20SOL     OW  958   5.501   2.058   4.191
   20SOL    HW1  959   5.584   2.107   4.216
   20SOL    HW2  960   5.499   1.969   4.237
   21SOL     OW  961   3.715   1.660   2.329
   21SOL    HW1  962   3.708   1.723   2.405
   21SOL    HW2  963   3.623   1.632   2.299
   22SOL     OW  964   2.289   6.632   0.581
   22SOL    HW1  965   2.333   6.542   0.589
   22SOL    HW2  966   2.355   6.698   0.544
   23SOL     OW  967   5.320   5.868   3.204
   23SOL    HW1  968   5.285   5.871   3.110
   23SOL    HW2  969   5.417   5.895   3.203
   24SOL     OW  970   4.471   0.496   3.406
   24SOL    HW1  971   4.550   0.556   3.417
   24SOL    HW2  972   4.449   0.452   3.493
   25SOL     OW  973   3.110   0.458   4.663
   25SOL    HW1  974   3.162   0.539   4.637
   25SOL    HW2  975   3.147   0.377   4.617
   26SOL     OW  976   0.515   0.892   0.305
   26SOL    HW1  977   0.508   0.953   0.383
   26SOL    HW2  978   0.550   0.942   0.226
   27SOL     OW  979   0.939   2.408   2.348
   27SOL    HW1  980   0.944   2.475   2.274
   27SOL    HW2  981   0.978   2.448   2.431
   28SOL     OW  982   3.077   2.076   5.579
   28SOL    HW1  983   3.060   2.101   5.484
   28SOL    HW2  984   3.088   2.158   5.634
   29SOL     OW  985   5.877   1.612   1.959
   29SOL    HW1  986   5.885   1.513   1.960
   29SOL    HW2  987   5.865   1.644   1.865
   30SOL     OW  988   4.291   0.699   4.210
   30SOL    HW1  989   4.378   0.740   4.181
   30SOL    HW2  990   4.271   0.730   4.304
   31SOL     OW  991   0.892   2.607   6.615
   31SOL    HW1  992   0.863   2.612   6.711
   31SOL    HW2  993   0.984   2.645   6.606
   32SOL     OW  994   0.522   1.786   2.443
   32SOL    HW1  995   0.536   1.739   2.356
   32SOL    HW2  996   0.599   1.847   2.461
   33SOL     OW  997   1.826   4.362   6.088
   33SOL    HW1  998   1.775   4.276   6.084
   33SOL    HW2  999   1.834   4.401   5.996
   34SOL     OW 1000   2.744   0.263   4.560
   34SOL    HW1 1001   2.815   0.262   4.630
   34SOL    HW2 1002   2.784   0.289   4.472
   35SOL     OW 1003   3.515   4.040   6.994
   35SOL    HW1 1004   3.497   4.127   6.948
   35SOL    HW2 1005   3.606   4.008   6.969
   36SOL     OW 1006   6.005   1.129   4.720
   36SOL    HW1 1007   6.018   1.058   4.651
   36SOL    HW2 1008   5.915   1.119   4.763
   37SOL     OW 1009   1.147   1.760   0.390
   37SOL    HW1 1010   1.130   1.812   0.474
   37SOL    HW2 1011   1.108   1.668   0.399
   38SOL     OW 1012   6.783   4.519   2.446
   38SOL    HW1 1013   6.727   4.439   2.467
   38SOL    HW2 1014   6.828   4.506   2.357
   39SOL     OW 1015   0.066   4.817   6.703
   39SOL    HW1 1016   0.047   4.911   6.734
   39SOL    HW2 1017   0.096   4.762   6.781
   40SOL     OW 1018   5.072   1.637   0.285
   40SOL    HW1 1019   5.091   1.671   0.377
   40SOL    HW2 1020   5.127   1.556   0.267
   41SOL     OW 1021   6.855   5.526   3.332
   41SOL    HW1 1022   6.844   5.529   3.431
   41SOL    HW2 1023   6.792   5.590   3.289
   42SOL     OW 1024   2.676   5.380   5.297
   42SOL    HW1 1025   2.589   5.425   5.317
   42SOL    HW2 1026   2.734   5.383   5.379
   43SOL     OW 1027   6.143   6.877   5.493
   43SOL    HW1 1028   6.242   6.894   5.495
   43SOL    HW2 1029   6.123   6.791   5.539
   44SOL     OW 1030   4.339   1.577   6.076
   44SOL    HW1 1031   4.318   1.645   6.147
   44SOL    HW2 1032   4.416   1.521   6.106
   45SOL     OW 1033   4.208   6.041   2.670
   45SOL    HW1 1034   4.218   5.943   2.687
   45SOL    HW2 1035   4.169   6.085   2.751
   46SOL     OW 1036   0.604   2.948   3.004
   46SOL    HW1 1037   0.605   2.986   2.912
   46SOL    HW2 1038   0.539   3.000   3.061
   47SOL     OW 1039   4.968   4.346   0.810
   47SOL    HW1 1040   5.031   4.409   0.765
   47SOL    HW2 1041   4.994   4.252   0.789
   48SOL     OW 1042   0.089   3.140   5.818
   48SOL    HW1 1043   0.155   3.146   5.743
   48SOL    HW2 1044   0.134   3.102   5.899
   49SOL     OW 1045   4.967   3.928   1.618
   49SOL    HW1 1046   4.953   3.830   1.631
   49SOL    HW2 1047   5.060   3.944   1.584
   50SOL     OW 1048   5.414   0.871   4.891
   50SOL    HW1 1049   5.460   0.850   4.977
   50SOL    HW2 1050   5.478   0.861   4.815
   51SOL     OW 1051   2.408   6.883   2.981
   51SOL    HW1 1052   2.435   6.953   2.916
   51SOL    HW2 1053   2.342   6.921   3.046
   52SOL     OW 1054   5.945   2.783   2.499
   52SOL    HW1 1055   5.983   2.834   2.576
   52SOL    HW2 1056   5.927   2.846   2.423
   53SOL     OW 1057   3.674   6.503   4.122
   53SOL    HW1 1058   3.645   6.421   4.074
   53SOL    HW2 1059   3.740   6.553   4.065
   54SOL     OW 1060   3.345   5.210   1.039
   54SOL    HW1 1061   3.369   5.114   1.042
   54SOL    HW2 1062   3.380   5.257   1.120
   55SOL     OW 1063   2.535   2.466   6.237
   55SOL    HW1 1064   2.480   2.403   6.182
   55SOL    HW2 1065   2.528   2.442   6.333
   56SOL     OW 1066   0.097   0.007   0.923
   56SOL    HW1 1067   0.179   6.977   0.919
   56SOL    HW2 1068   0.086   0.057   0.837
   57SOL     OW 1069   4.823   0.965   1.250
   57SOL    HW1 1070   4.848   1.002   1.160
   57SOL    HW2 1071   4.875   0.881   1.267
   58SOL     OW 1072   0.311   6.328   5.747
   58SOL    HW1 1073   0.255   6.280   5.814
   58SOL    HW2 1074   0.252   6.367   5.676
   59SOL     OW 1075   1.106   2.215   5.285
   59SOL    HW1 1076   1.086   2.155   5.363
   59SOL    HW2 1077   1.020   2.249   5.247
   60SOL     OW 1078   5.195   2.587   5.219
   60SOL    HW1 1079   5.167   2.614   5.127
   60SOL    HW2 1080   5.291   2.559   5.217
   61SOL     OW 1081   5.904   2.182   4.543
   61SOL    HW1 1082   5.832   2.183   4.474
   61SOL    HW2 1083   5.975   2.249   4.519
   62SOL     OW 1084   1.102   1.111   1.833
   62SOL    HW1 1085   1.010   1.097   1.797
   62SOL    HW2 1086   1.149   1.180   1.778
   63SOL     OW 1087   5.291   1.242   3.404
   63SOL    HW1 1088   5.199   1.283   3.410
   63SOL    HW2 1089   5.286   1.157   3.351
   64SOL     OW 1090   0.225   3.623   5.714
   64SOL    HW1 1091   0.250   3.584   5.625
   64SOL    HW2 1092   0.213   3.549   5.780
   65SOL     OW 1093   0.546   5.031   6.170
   65SOL    HW1 1094   0.637   5.047   6.129
   65SOL    HW2 1095   0.485   5.106   6.144
   66SOL     OW 1096   4.168   1.209   5.297
   66SOL    HW1 1097   4.089   1.218   5.236
   66SOL    HW2 1098   4.217   1.296   5.301
   67SOL     OW 1099   5.339   3.975   5.892
   67SOL    HW1 1100   5.339   3.886   5.847
   67SOL    HW2 1101   5.348   3.962   5.991
   68SOL     OW 1102   6.153   1.017   6.656
   68SOL    HW1 1103   6.200   1.105   6.661
   68SOL    HW2 1104   6.103   1.011   6.570
   69SOL     OW 1105   0.716   3.296   5.954
   69SOL    HW1 1106   0.742   3.234   5.880
   69SOL    HW2 1107   0.744   3.389   5.932
   70SOL     OW 1108   5.509   4.119   5.248
   70SOL    HW1 1109   5.436   4.185   5.265
   70SOL    HW2 1110   5.538   4.125   5.153
   71SOL     OW 1111   4.405   1.638   3.066
   71SOL    HW1 1112   4.421   1.607   3.159
   71SOL    HW2 1113   4.370   1.562   3.011
   72SOL     OW 1114   1.851   6.805   4.211
   72SOL    HW1 1115   1.810   6.896   4.212
   72SOL    HW2 1116   1.859   6.771   4.305
   73SOL     OW 1117   3.664   0.284   1.434
   73SOL    HW1 1118   3.753   0.282   1.388
   73SOL    HW2 1119   3.669   0.345   1.514
   74SOL     OW 1120   4.428   6.756   0.222
   74SOL    HW1 1121   4.475   6.820   0.162
   74SOL    HW2 1122   4.496   6.708   0.279
   75SOL     OW 1123   4.781   0.317   1.051
   75SOL    HW1 1124   4.838   0.274   1.120
   75SOL    HW2 1125   4.690   0.276   1.053
   76SOL     OW 1126   3.423   3.658   1.351
   76SOL    HW1 1127   3.482   3.614   1.418
   76SOL    HW2 1128   3.327   3.639   1.373
   77SOL     OW 1129   0.322   6.900   3.185
   77SOL    HW1 1130   0.391   6.829   3.177
   77SOL    HW2 1131   0.328   6.961   3.106
   78SOL     OW 1132   6.215   1.756   7.004
   78SOL    HW1 1133   6.125   1.719   6.981
   78SOL    HW2 1134   6.227   1.757   0.076
   79SOL     OW 1135   3.066   5.879   0.881
   79SOL    HW1 1136   3.077   5.816   0.957
   79SOL    HW2 1137   2.978   5.926   0.889
   80SOL     OW 1138   5.332   1.381   4.479
   80SOL    HW1 1139   5.278   1.363   4.397
   80SOL    HW2 1140   5.360   1.295   4.521
   81SOL     OW 1141   1.891   0.345   2.489
   81SOL    HW1 1142   1.929   0.257   2.461
   81SOL    HW2 1143   1.829   0.379   2.419
   82SOL     OW 1144   6.042   4.562   0.770
   82SOL    HW1 1145   6.069   4.473   0.735
   82SOL    HW2 1146   6.114   4.629   0.751
   83SOL     OW 1147   0.448   0.528   0.464
   83SOL    HW1 1148   0.489   0.438   0.471
   83SOL    HW2 1149   0.445   0.556   0.368
   84SOL     OW 1150   5.920   3.170   3.273
   84SOL    HW1 1151   5.836   3.220   3.290
   84SOL    HW2 1152   5.911   3.116   3.189
   85SOL     OW 1153   1.775   0.857   3.805
   85SOL    HW1 1154   1.738   0.818   3.720
   85SOL    HW2 1155   1.724   0.821   3.883
   86SOL     OW 1156   0.224   1.248   5.604
   86SOL    HW1 1157   0.140   1.260   5.656
   86SOL    HW2 1158   0.210   1.280   5.510
   87SOL     OW 1159   4.673   3.916   1.052
   87SOL    HW1 1160   4.714   3.984   0.991
   87SOL    HW2 1161   4.725   3.831   1.048
   88SOL     OW 1162   3.462   1.854   5.579
   88SOL    HW1 1163   3.380   1.867   5.634
   88SOL    HW2 1164   3.454   1.770   5.526
   89SOL     OW 1165   1.781   2.890   5.856
   89SOL    HW1 1166   1.831   2.863   5.938
   89SOL    HW2 1167   1.778   2.813   5.792
   90SOL     OW 1168   3.342   5.018   2.333
   90SOL    HW1 1169   3.409   5.085   2.365
   90SOL    HW2 1170   3.382   4.962   2.261
   91SOL     OW 1171   5.565   3.884   5.722
   91SOL    HW1 1172   5.639   3.942   5.690
   91SOL    HW2 1173   5.541   3.908   5.816
   92SOL     OW 1174   4.430   4.639   0.814
   92SOL    HW1 1175   4.461   4.554   0.772
   92SOL    HW2 1176   4.465   4.645   0.907
   93SOL     OW 1177   3.143   4.161   0.435
   93SOL    HW1 1178   3.169   4.066   0.418
   93SOL    HW2 1179   3.171   4.218   0.358
   94SOL     OW 1180   2.015   5.927   6.242
   94SOL    HW1 1181   1.921   5.918   6.210
   94SOL    HW2 1182   2.020   6.000   6.310
   95SOL     OW 1183   0.783   0.663   3.819
   95SOL    HW1 1184   0.870   0.672   3.772
   95SOL    HW2 1185   0.728   0.745   3.803
   96SOL     OW 1186   2.831   0.879   4.916
   96SOL    HW1 1187   2.808   0.862   5.012
   96SOL    HW2 1188   2.831   0.792   4.866
   97SOL     OW 1189   2.327   3.336   6.084
   97SOL    HW1 1190   2.274   3.256   6.054
   97SOL    HW2 1191   2.421   3.327   6.051
   98SOL     OW 1192   0.394   3.405   0.961
   98SOL    HW1 1193   0.423   3.329   1.019
   98SOL    HW2 1194   0.453   3.408   0.879
   99SOL     OW 1195   3.752   2.913   1.394
   99SOL    HW1 1196   3.851   2.923   1.381
   99SOL    HW2 1197   3.734   2.832   1.449
  100SOL     OW 1198   0.259   6.918   4.842
  100SOL    HW1 1199   0.319   6.840   4.860
  100SOL    HW2 1200   0.242   6.968   4.926
  101SOL     OW 1201   1.417   5.243   2.279
  101SOL    HW1 1202   1.350   5.284   2.342
  101SOL    HW2 1203   1.508   5.279   2.300
  102SOL     OW 1204   4.338   5.706   1.801
  102SOL    HW1 1205   4.305   5.630   1.746
  102SOL    HW2 1206   4.329   5.791   1.748
  103SOL     OW 1207   2.190   1.973   1.714
  103SOL    HW1 1208   2.288   1.971   1.730
  103SOL    HW2 1209   2.172   1.964   1.616
  104SOL     OW 1210   1.165   5.459   2.635
  104SOL    HW1 1211   1.177   5.431   2.540
  104SOL    HW2 1212   1.092   5.405   2.677
  105SOL     OW 1213   6.762   1.748   6.436
  105SOL    HW1 1214   6.698   1.682   6.396
  105SOL    HW2 1215   6.764   1.737   6.535
  106SOL     OW 1216   3.652   5.892   4.768
  106SOL    HW1 1217   3.647   5.826   4.694
  106SOL    HW2 1218   3.565   5.895   4.817
  107SOL     OW 1219   1.269   1.066   1.263
  107SOL    HW1 1220   1.365   1.037   1.254
  107SOL    HW2 1221   1.229   1.074   1.172
  108SOL     OW 1222   2.378   6.530   5.549
  108SOL    HW1 1223   2.359   6.441   5.509
  108SOL    HW2 1224   2.321   6.544   5.630
  109SOL     OW 1225   0.682   0.452   2.012
  109SOL    HW1 1226   0.681   0.352   2.003
  109SOL    HW2 1227   0.672   0.477   2.108
  110SOL     OW 1228   2.905   5.866   4.244
  110SOL    HW1 1229   2.828   5.929   4.252
  110SOL    HW2 1230   2.872   5.772   4.253
  111SOL     OW 1231   1.444   1.052   4.396
  111SOL    HW1 1232   1.411   1.121   4.460
  111SOL    HW2 1233   1.540   1.031   4.415
  112SOL     OW 1234   3.443   6.475   6.478
  112SOL    HW1 1235   3.453   6.575   6.470
  112SOL    HW2 1236   3.533   6.434   6.493
  113SOL     OW 1237   0.535   5.095   3.180
  113SOL    HW1 1238   0.506   5.001   3.201
  113SOL    HW2 1239   0.575   5.136   3.262
  114SOL     OW 1240   1.213   6.918   2.246
  114SOL    HW1 1241   1.261   6.894   2.330
  114SOL    HW2 1242   1.278   6.948   2.177
  115SOL     OW 1243   4.705   1.544   3.068
  115SOL    HW1 1244   4.684   1.637   3.036
  115SOL    HW2 1245   4.736   1.489   2.990
  116SOL     OW 1246   6.072   5.395   2.376
  116SOL    HW1 1247   6.037   5.306   2.406
  116SOL    HW2 1248   5.998   5.461   2.376
  117SOL     OW 1249   1.565   2.091   0.322
  117SOL    HW1 1250   1.584   2.129   0.232
  117SOL    HW2 1251   1.508   2.009   0.312
  118SOL     OW 1252   1.837   0.888   2.474
  118SOL    HW1 1253   1.864   0.984   2.477
  118SOL    HW2 1254   1.918   0.831   2.489
  119SOL     OW 1255   0.632   0.327   0.143
  119SOL    HW1 1256   0.584   0.245   0.109
  119SOL    HW2 1257   0.665   0.309   0.236
  120SOL     OW 1258   5.428   0.356   6.682
  120SOL    HW1 1259   5.487   0.435   6.700
  120SOL    HW2 1260   5.467   0.303   6.607
  121SOL     OW 1261   0.979   3.044   5.957
  121SOL    HW1 1262   1.038   3.112   5.913
  121SOL    HW2 1263   1.019   2.953   5.947
  122SOL     OW 1264   1.818   3.727   6.100
  122SOL    HW1 1265   1.802   3.673   6.018
  122SOL    HW2 1266   1.909   3.768   6.096
  123SOL     OW 1267   0.492   1.258   2.399
  123SOL    HW1 1268   0.482   1.301   2.309
  123SOL    HW2 1269   0.467   1.324   2.471
  124SOL     OW 1270   3.754   2.851   0.375
  124SOL    HW1 1271   3.691   2.790   0.328
  124SOL    HW2 1272   3.736   2.850   0.473
  125SOL     OW 1273   3.600   1.913   0.498
  125SOL    HW1 1274   3.680   1.973   0.506
  125SOL    HW2 1275   3.583   1.870   0.586
  126SOL     OW 1276   2.235   4.250   0.691
  126SOL    HW1 1277   2.139   4.227   0.706
  126SOL    HW2 1278   2.266   4.210   0.605
  127SOL     OW 1279   0.687   4.967   6.815
  127SOL    HW1 1280   0.773   5.011   6.839
  127SOL    HW2 1281   0.614   5.035   6.815
  128SOL     OW 1282   5.352   2.191   1.289
  128SOL    HW1 1283   5.326   2.095   1.275
  128SOL    HW2 1284   5.434   2.195   1.347
  129SOL     OW 1285   2.803   3.411   6.145
  129SOL    HW1 1286   2.816   3.503   6.108
  129SOL    HW2 1287   2.826   3.343   6.076
  130SOL     OW 1288   1.350   1.741   4.526
  130SOL    HW1 1289   1.380   1.760   4.432
  130SOL    HW2 1290   1.377   1.818   4.585
  131SOL     OW 1291   4.643   0.930   3.079
  131SOL    HW1 1292   4.662   0.981   3.162
  131SOL    HW2 1293   4.700   0.848   3.076
  132SOL     OW 1294   2.875   3.053   1.760
  132SOL    HW1 1295   2.846   2.957   1.764
  132SOL    HW2 1296   2.930   3.068   1.679
  133SOL     OW 1297   5.503   0.713   4.152
  133SOL    HW1 1298   5.414   0.736   4.191
  133SOL    HW2 1299   5.534   0.626   4.190
  134SOL     OW 1300   6.647   0.855   2.728
  134SOL    HW1 1301   6.599   0.943   2.732
  134SOL    HW2 1302   6.746   0.871   2.728
  135SOL     OW 1303   5.750   3.507   3.582
  135SOL    HW1 1304   5.838   3.511   3.534
  135SOL    HW2 1305   5.724   3.599   3.611
  136SOL     OW 1306   1.883   4.869   6.035
  136SOL    HW1 1307   1.912   4.951   5.985
  136SOL    HW2 1308   1.960   4.807   6.047
  137SOL     OW 1309   5.759   2.211   3.141
  137SOL    HW1 1310   5.723   2.119   3.158
  137SOL    HW2 1311   5.683   2.273   3.123
  138SOL     OW 1312   1.376   4.551   2.523
  138SOL    HW1 1313   1.418   4.534   2.433
  138SOL    HW2 1314   1.437   4.608   2.578
  139SOL     OW 1315   1.552   0.163   5.485
  139SOL    HW1 1316   1.479   0.099   5.461
  139SOL    HW2 1317   1.559   0.234   5.415
  140SOL     OW 1318   1.247   6.476   3.955
  140SOL    HW1 1319   1.241   6.569   3.991
  140SOL    HW2 1320   1.326   6.469   3.894
  141SOL     OW 1321   0.340   2.856   5.245
  141SOL    HW1 1322   0.346   2.813   5.335
  141SOL    HW2 1323   0.427   2.901   5.224
  142SOL     OW 1324   1.269   3.682   1.123
  142SOL    HW1 1325   1.351   3.695   1.066
  142SOL    HW2 1326   1.268   3.588   1.158
  143SOL     OW 1327   5.532   4.208   0.430
  143SOL    HW1 1328   5.601   4.250   0.490
  143SOL    HW2 1329   5.574   4.183   0.343
  144SOL     OW 1330   1.631   4.822   5.946
  144SOL    HW1 1331   1.654   4.765   5.867
  144SOL    HW2 1332   1.714   4.864   5.983
  145SOL     OW 1333   0.699   5.479   0.805
  145SOL    HW1 1334   0.773   5.415   0.784
  145SOL    HW2 1335   0.690   5.488   0.905
  146SOL     OW 1336   4.587   0.559   6.118
  146SOL    HW1 1337   4.641   0.626   6.169
  146SOL    HW2 1338   4.496   0.553   6.157
  147SOL     OW 1339   5.740   3.165   6.653
  147SOL    HW1 1340   5.837   3.191   6.654
  147SOL    HW2 1341   5.708   3.154   6.747
  148SOL     OW 1342   6.644   5.533   1.029
  148SOL    HW1 1343   6.623   5.622   1.070
  148SOL    HW2 1344   6.625   5.460   1.095
  149SOL     OW 1345   4.255   2.134   4.217
  149SOL    HW1 1346   4.340   2.082   4.209
  149SOL    HW2 1347   4.205   2.128   4.130
  150SOL     OW 1348   6.117   6.834   0.973
  150SOL    HW1 1349   6.093   6.859   1.067
  150SOL    HW2 1350   6.196   6.888   0.943
  151SOL     OW 1351   3.026   2.330   1.230
  151SOL    HW1 1352   3.103   2.346   1.168
  151SOL    HW2 1353   3.059   2.317   1.323
  152SOL     OW 1354   0.027   0.464   1.645
  152SOL    HW1 1355   0.100   0.513   1.693
  152SOL    HW2 1356   6.997   0.530   1.594
  153SOL     OW 1357   2.725   1.063   3.305
  153SOL    HW1 1358   2.699   1.137   3.243
  153SOL    HW2 1359   2.647   1.041   3.365
  154SOL     OW 1360   0.683   3.386   2.001
  154SOL    HW1 1361   0.689   3.286   2.008
  154SOL    HW2 1362   0.712   3.415   1.910
  155SOL     OW 1363   0.467   1.491   4.307
  155SOL    HW1 1364   0.544   1.457   4.360
  155SOL    HW2 1365   0.476   1.590   4.295
  156SOL     OW 1366   0.236   0.865   0.609
  156SOL    HW1 1367   0.155   0.908   0.649
  156SOL    HW2 1368   0.259   0.783   0.662
  157SOL     OW 1369   5.326   3.073   1.803
  157SOL    HW1 1370   5.231   3.098   1.821
  157SOL    HW2 1371   5.379   3.079   1.888
  158SOL     OW 1372   1.958   4.127   2.612
  158SOL    HW1 1373   2.051   4.113   2.646
  158SOL    HW2 1374   1.946   4.222   2.586
  159SOL     OW 1375   4.865   3.766   2.866
  159SOL    HW1 1376   4.858   3.667   2.853
  159SOL    HW2 1377   4.863   3.811   2.777
  160SOL     OW 1378   5.286   5.874   0.806
  160SOL    HW1 1379   5.269   5.804   0.875
  160SOL    HW2 1380   5.369   5.924   0.830
  161SOL     OW 1381   1.824   6.060   3.846
  161SOL    HW1 1382   1.814   5.970   3.804
  161SOL    HW2 1383   1.740   6.083   3.896
  162SOL     OW 1384   3.427   6.284   0.500
  162SOL    HW1 1385   3.378   6.371   0.503
  162SOL    HW2 1386   3.428   6.243   0.591
  163SOL     OW 1387   5.926   5.850   1.104
  163SOL    HW1 1388   5.916   5.782   1.031
  163SOL    HW2 1389   5.957   5.805   1.188
  164SOL     OW 1390   6.877   3.924   2.234
  164SOL    HW1 1391   6.800   3.951   2.176
  164SOL    HW2 1392   6.951   3.989   2.223
  165SOL     OW 1393   5.222   3.033   1.325
  165SOL    HW1 1394   5.128   3.007   1.305
  165SOL    HW2 1395   5.246   3.115   1.272
  166SOL     OW 1396   0.922   4.055   2.674
  166SOL    HW1 1397   0.856   4.071   2.600
  166SOL    HW2 1398   1.010   4.029   2.636
  167SOL     OW 1399   5.093   3.131   0.039
  167SOL    HW1 1400   5.109   3.037   0.007
  167SOL    HW2 1401   5.008   3.165   0.000
  168SOL     OW 1402   3.001   3.323   1.342
  168SOL    HW1 1403   3.032   3.229   1.358
  168SOL    HW2 1404   2.937   3.325   1.266
  169SOL     OW 1405   5.392   2.167   1.625
  169SOL    HW1 1406   5.297   2.153   1.595
  169SOL    HW2 1407   5.408   2.114   1.708
  170SOL     OW 1408   0.792   0.223   2.969
  170SOL    HW1 1409   0.739   0.287   2.912
  170SOL    HW2 1410   0.840   0.159   2.910
  171SOL     OW 1411   2.980   4.621   6.730
  171SOL    HW1 1412   2.972   4.608   6.829
  171SOL    HW2 1413   2.929   4.549   6.683
  172SOL     OW 1414   6.461   1.413   2.949
  172SOL    HW1 1415   6.403   1.392   2.870
  172SOL    HW2 1416   6.402   1.435   3.028
  173SOL     OW 1417   6.519   1.240   3.903
  173SOL    HW1 1418   6.465   1.303   3.848
  173SOL    HW2 1419   6.542   1.283   3.991
  174SOL     OW 1420   4.009   5.534   3.587
  174SOL    HW1 1421   3.946   5.604   3.621
  174SOL    HW2 1422   4.056   5.568   3.505
  175SOL     OW 1423   3.273   0.256   1.783
  175SOL    HW1 1424   3.302   0.337   1.834
  175SOL    HW2 1425   3.345   0.229   1.718
  176SOL     OW 1426   6.820   4.226   0.936
  176SOL    HW1 1427   6.869   4.174   0.866
  176SOL    HW2 1428   6.830   4.181   1.024
  177SOL     OW 1429   5.403   2.648   2.507
  177SOL    HW1 1430   5.349   2.714   2.560
  177SOL    HW2 1431   5.500   2.664   2.523
  178SOL     OW 1432   2.429   3.629   6.460
  178SOL    HW1 1433   2.403   3.694   6.388
  178SOL    HW2 1434   2.479   3.552   6.419
  179SOL     OW 1435   4.111   1.591   5.463
  179SOL    HW1 1436   4.039   1.635   5.409
  179SOL    HW2 1437   4.173   1.542   5.401
  180SOL     OW 1438   2.157   6.729   0.246
  180SOL    HW1 1439   2.063   6.761   0.253
  180SOL    HW2 1440   2.219   6.808   0.251
  181SOL     OW 1441   3.398   3.403   6.162
  181SOL    HW1 1442   3.300   3.408   6.144
  181SOL    HW2 1443   3.418   3.324   6.219
  182SOL     OW 1444   3.522   1.923   5.240
  182SOL    HW1 1445   3.477   1.888   5.321
  182SOL    HW2 1446   3.454   1.946   5.171
  183SOL     OW 1447   3.763   2.085   3.182
  183SOL    HW1 1448   3.764   1.986   3.163
  183SOL    HW2 1449   3.846   2.127   3.146
  184SOL     OW 1450   0.713   6.647   4.650
  184SOL    HW1 1451   0.681   6.660   4.744
  184SOL    HW2 1452   0.639   6.608   4.595
  185SOL     OW 1453   0.882   1.477   6.084
  185SOL    HW1 1454   0.823   1.398   6.066
  185SOL    HW2 1455   0.965   1.469   6.030
  186SOL     OW 1456   5.678   0.706   4.444
  186SOL    HW1 1457   5.742   0.755   4.385
  186SOL    HW2 1458   5.717   0.618   4.470
  187SOL     OW 1459   4.856   0.042   2.342
  187SOL    HW1 1460   4.912   0.059   2.261
  187SOL    HW2 1461   4.875   6.977   2.377
  188SOL     OW 1462   0.790   2.604   3.243
  188SOL    HW1 1463   0.795   2.507   3.268
  188SOL    HW2 1464   0.729   2.652   3.306
  189SOL     OW 1465   2.270   5.113   1.428
  189SOL    HW1 1466   2.216   5.192   1.397
  189SOL    HW2 1467   2.301   5.129   1.522
  190SOL     OW 1468   4.911   2.644   5.043
  190SOL    HW1 1469   4.969   2.606   4.971
  190SOL    HW2 1470   4.889   2.740   5.022
  191SOL     OW 1471   5.736   0.238   6.887
  191SOL    HW1 1472   5.689   0.313   6.840
  191SOL    HW2 1473   5.705   0.151   6.850
  192SOL     OW 1474   1.001   5.546   1.968
  192SOL    HW1 1475   0.921   5.605   1.978
  192SOL    HW2 1476   1.084   5.600   1.985
  193SOL     OW 1477   4.475   3.654   5.417
  193SOL    HW1 1478   4.406   3.699   5.360
  193SOL    HW2 1479   4.549   3.620   5.358
  194SOL     OW 1480   4.303   1.174   3.041
  194SOL    HW1 1481   4.384   1.227   3.066
  194SOL    HW2 1482   4.281   1.109   3.114
  195SOL     OW 1483   1.676   0.291   4.486
  195SOL    HW1 1484   1.592   0.342   4.465
  195SOL    HW2 1485   1.741   0.352   4.533
  196SOL     OW 1486   2.517   0.595   0.837
  196SOL    HW1 1487   2.452   0.663   0.868
  196SOL    HW2 1488   2.578   0.569   0.912
  197SOL     OW 1489   2.741   0.045   1.535
  197SOL    HW1 1490   2.663   0.034   1.598
  197SOL    HW2 1491   2.735   0.133   1.489
  198SOL     OW 1492   5.327   0.264   1.526
  198SOL    HW1 1493   5.375   0.306   1.603
  198SOL    HW2 1494   5.236   0.236   1.555
  199SOL     OW 1495   0.248   1.413   3.979
  199SOL    HW1 1496   0.336   1.444   3.943
  199SOL    HW2 1497   0.260   1.376   4.071
  200SOL     OW 1498   0.628   4.214   1.598
  200SOL    HW1 1499   0.704   4.274   1.621
  200SOL    HW2 1500   0.633   4.190   1.501
  201SOL     OW 1501   6.572   6.917   5.879
  201SOL    HW1 1502   6.528   7.006   5.887
  201SOL    HW2 1503   6.515   6.856   5.823
  202SOL     OW 1504   4.553   1.045   6.667
  202SOL    HW1 1505   4.572   1.059   6.765
  202SOL    HW2 1506   4.510   1.127   6.630
  203SOL     OW 1507   5.073   2.403   4.413
  203SOL    HW1 1508   5.037   2.496   4.424
  203SOL    HW2 1509   5.144   2.403   4.343
  204SOL     OW 1510   0.869   1.004   5.780
  204SOL    HW1 1511   0.809   1.059   5.838
  204SOL    HW2 1512   0.907   0.929   5.834
  205SOL     OW 1513   0.663   1.428   2.767
  205SOL    HW1 1514   0.750   1.421   2.720
  205SOL    HW2 1515   0.668   1.498   2.838
  206SOL     OW 1516   6.954   4.448   1.090
  206SOL    HW1 1517   6.965   4.385   1.013
  206SOL    HW2 1518   6.876   4.419   1.146
  207SOL     OW 1519   5.568   1.689   3.216
  207SOL    HW1 1520   5.482   1.680   3.267
  207SOL    HW2 1521   5.576   1.613   3.151
  208SOL     OW 1522   5.698   2.685   5.103
  208SOL    HW1 1523   5.689   2.591   5.071
  208SOL    HW2 1524   5.758   2.736   5.041
  209SOL     OW 1525   0.431   4.558   3.821
  209SOL    HW1 1526   0.452   4.646   3.779
  209SOL    HW2 1527   0.514   4.503   3.824
  210SOL     OW 1528   4.091   1.976   1.204
  210SOL    HW1 1529   4.097   1.878   1.189
  210SOL    HW2 1530   4.088   2.023   1.116
  211SOL     OW 1531   2.289   6.175   2.741
  211SOL    HW1 1532   2.299   6.159   2.643
  211SOL    HW2 1533   2.263   6.270   2.756
  212SOL     OW 1534   1.260   4.122   1.602
  212SOL    HW1 1535   1.280   4.108   1.699
  212SOL    HW2 1536   1.346   4.128   1.551
  213SOL     OW 1537   3.485   0.583   0.659
  213SOL    HW1 1538   3.400   0.605   0.611
  213SOL    HW2 1539   3.563   0.620   0.608
  214SOL     OW 1540   4.957   5.103   1.427
  214SOL    HW1 1541   4.983   5.007   1.415
  214SOL    HW2 1542   4.932   5.142   1.338
  215SOL     OW 1543   2.507   3.721   0.648
  215SOL    HW1 1544   2.491   3.705   0.745
  215SOL    HW2 1545   2.431   3.684   0.594
  216SOL     OW 1546   2.242   5.853   3.744
  216SOL    HW1 1547   2.250   5.756   3.722
  216SOL    HW2 1548   2.315   5.879   3.808
  217SOL     OW 1549   1.071   2.115   3.898
  217SOL    HW1 1550   1.071   2.053   3.976
  217SOL    HW2 1551   0.978   2.126   3.864
  218SOL     OW 1552   0.341   4.117   4.297
  218SOL    HW1 1553   0.288   4.192   4.257
  218SOL    HW2 1554   0.388   4.067   4.224
  219SOL     OW 1555   4.607   0.097   6.497
  219SOL    HW1 1556   4.651   0.021   6.449
  219SOL    HW2 1557   4.527   0.063   6.546
  220SOL     OW 1558   2.597   0.126   1.154
  220SOL    HW1 1559   2.614   0.046   1.212
  220SOL    HW2 1560   2.536   0.102   1.080
  221SOL     OW 1561   6.460   3.070   1.161
  221SOL    HW1 1562   6.496   2.978   1.151
  221SOL    HW2 1563   6.536   3.135   1.169
  222SOL     OW 1564   2.287   5.422   5.743
  222SOL    HW1 1565   2.195   5.384   5.732
  222SOL    HW2 1566   2.335   5.419   5.655
  223SOL     OW 1567   6.102   2.814   6.749
  223SOL    HW1 1568   6.027   2.855   6.698
  223SOL    HW2 1569   6.069   2.786   6.839
  224SOL     OW 1570   1.765   1.677   4.821
  224SOL    HW1 1571   1.714   1.640   4.744
  224SOL    HW2 1572   1.863   1.660   4.809
  225SOL     OW 1573   4.512   3.612   6.277
  225SOL    HW1 1574   4.608   3.604   6.305
  225SOL    HW2 1575   4.482   3.707   6.289
  226SOL     OW 1576   1.569   0.862   5.996
  226SOL    HW1 1577   1.472   0.887   5.990
  226SOL    HW2 1578   1.623   0.926   5.942
  227SOL     OW 1579   1.853   3.520   2.454
  227SOL    HW1 1580   1.872   3.452   2.383
  227SOL    HW2 1581   1.891   3.608   2.426
  228SOL     OW 1582   3.126   6.222   4.059
  228SOL    HW1 1583   3.205   6.255   4.007
  228SOL    HW2 1584   3.132   6.123   4.069
  229SOL     OW 1585   5.676   6.032   6.665
  229SOL    HW1 1586   5.599   6.082   6.624
  229SOL    HW2 1587   5.643   5.978   6.743
  230SOL     OW 1588   3.248   5.103   3.675
  230SOL    HW1 1589   3.242   5.190   3.626
  230SOL    HW2 1590   3.257   5.121   3.773
  231SOL     OW 1591   6.380   1.776   6.115
  231SOL    HW1 1592   6.385   1.855   6.054
  231SOL    HW2 1593   6.381   1.692   6.060
  232SOL     OW 1594   1.162   2.967   6.570
  232SOL    HW1 1595   1.139   3.026   6.647
  232SOL    HW2 1596   1.170   3.022   6.487
  233SOL     OW 1597   2.870   1.594   3.736
  233SOL    HW1 1598   2.938   1.593   3.663
  233SOL    HW2 1599   2.810   1.674   3.724
  234SOL     OW 1600   5.211   0.303   5.422
  234SOL    HW1 1601   5.204   0.362   5.501
  234SOL    HW2 1602   5.164   0.344   5.344
  235SOL     OW 1603   3.463   2.748   1.622
  235SOL    HW1 1604   3.455   2.832   1.676
  235SOL    HW2 1605   3.552   2.706   1.638
  236SOL     OW 1606   4.969   3.407   6.628
  236SOL    HW1 1607   4.932   3.412   6.535
  236SOL    HW2 1608   5.016   3.320   6.641
  237SOL     OW 1609   5.647   4.237   2.103
  237SOL    HW1 1610   5.557   4.199   2.086
  237SOL    HW2 1611   5.697   4.179   2.167
  238SOL     OW 1612   4.880   2.416   0.477
  238SOL    HW1 1613   4.899   2.321   0.455
  238SOL    HW2 1614   4.874   2.427   0.576
  239SOL     OW 1615   0.994   5.761   6.377
  239SOL    HW1 1616   0.926   5.822   6.337
  239SOL    HW2 1617   1.085   5.785   6.344
  240SOL     OW 1618   0.325   2.601   3.178
  240SOL    HW1 1619   0.401   2.537   3.171
  240SOL    HW2 1620   0.255   2.577   3.110
  241SOL     OW 1621   2.131   0.730   4.855
  241SOL    HW1 1622   2.160   0.797   4.787
  241SOL    HW2 1623   2.208   0.667   4.873
  242SOL     OW 1624   3.398   3.000   4.849
  242SOL    HW1 1625   3.447   2.976   4.765
  242SOL    HW2 1626   3.429   2.940   4.923
  243SOL     OW 1627   4.025   0.744   5.813
  243SOL    HW1 1628   3.953   0.786   5.868
  243SOL    HW2 1629   4.093   0.813   5.788
  244SOL     OW 1630   5.600   2.777   4.789
  244SOL    HW1 1631   5.631   2.749   4.698
  244SOL    HW2 1632   5.678   2.808   4.843
  245SOL     OW 1633   6.401   4.299   3.550
  245SOL    HW1 1634   6.480   4.339   3.503
  245SOL    HW2 1635   6.423   4.285   3.647
  246SOL     OW 1636   4.603   2.637   3.485
  246SOL    HW1 1637   4.587   2.548   3.528
  246SOL    HW2 1638   4.564   2.709   3.543
  247SOL     OW 1639   3.078   1.939   1.389
  247SOL    HW1 1640   3.020   1.933   1.308
  247SOL    HW2 1641   3.053   2.019   1.443
  248SOL     OW 1642   3.550   1.691   2.726
  248SOL    HW1 1643   3.607   1.687   2.808
  248SOL    HW2 1644   3.454   1.697   2.753
  249SOL     OW 1645   4.344   7.010   5.307
  249SOL    HW1 1646   4.342   0.083   5.308
  249SOL    HW2 1647   4.382   6.978   5.220
  250SOL     OW 1648   5.179   2.665   0.924
  250SOL    HW1 1649   5.266   2.702   0.956
  250SOL    HW2 1650   5.172   2.568   0.950
  251SOL     OW 1651   4.624   4.307   5.947
  251SOL    HW1 1652   4.693   4.239   5.921
  251SOL    HW2 1653   4.547   4.302   5.883
  252SOL     OW 1654   6.419   6.168   0.343
  252SOL    HW1 1655   6.499   6.220   0.313
  252SOL    HW2 1656   6.395   6.101   0.274
  253SOL     OW 1657   3.027   5.427   0.146
  253SOL    HW1 1658   3.112   5.423   0.199
  253SOL    HW2 1659   2.963   5.489   0.190
  254SOL     OW 1660   5.166   3.036   3.406
  254SOL    HW1 1661   5.068   3.038   3.427
  254SOL    HW2 1662   5.186   2.955   3.351
  255SOL     OW 1663   1.908   3.330   4.575
  255SOL    HW1 1664   1.950   3.338   4.665
  255SOL    HW2 1665   1.847   3.250   4.573
  256SOL     OW 1666   6.575   3.963   6.041
  256SOL    HW1 1667   6.672   3.986   6.032
  256SOL    HW2 1668   6.560   3.916   6.128
  257SOL     OW 1669   5.045   6.624   3.599
  257SOL    HW1 1670   5.017   6.594   3.507
  257SOL    HW2 1671   5.133   6.671   3.594
  258SOL     OW 1672   1.904   4.836   4.589
  258SOL    HW1 1673   1.938   4.865   4.500
  258SOL    HW2 1674   1.840   4.905   4.624
  259SOL     OW 1675   0.766   1.873   1.791
  259SOL    HW1 1676   0.770   1.870   1.691
  259SOL    HW2 1677   0.852   1.909   1.827
  260SOL     OW 1678   4.453   1.236   1.353
  260SOL    HW1 1679   4.437   1.175   1.431
  260SOL    HW2 1680   4.494   1.321   1.386
  261SOL     OW 1681   6.530   3.737   0.649
  261SOL    HW1 1682   6.536   3.652   0.596
  261SOL    HW2 1683   6.483   3.807   0.595
  262SOL     OW 1684   6.616   4.196   0.770
  262SOL    HW1 1685   6.665   4.215   0.855
  262SOL    HW2 1686   6.616   4.278   0.713
  263SOL     OW 1687   0.959   0.907   3.779
  263SOL    HW1 1688   0.971   0.869   3.688
  263SOL    HW2 1689   1.039   0.962   3.804
  264SOL     OW 1690   5.315   3.512   6.728
  264SOL    HW1 1691   5.253   3.571   6.678
  264SOL    HW2 1692   5.289   3.510   6.825
  265SOL     OW 1693   4.858   5.285   2.544
  265SOL    HW1 1694   4.783   5.244   2.493
  265SOL    HW2 1695   4.918   5.212   2.579
  266SOL     OW 1696   2.815   2.879   5.734
  266SOL    HW1 1697   2.912   2.884   5.756
  266SOL    HW2 1698   2.765   2.949   5.784
  267SOL     OW 1699   0.398   1.869   6.604
  267SOL    HW1 1700   0.330   1.916   6.547
  267SOL    HW2 1701   0.432   1.788   6.555
  268SOL     OW 1702   3.647   0.728   5.582
  268SOL    HW1 1703   3.726   0.770   5.536
  268SOL    HW2 1704   3.567   0.788   5.570
  269SOL     OW 1705   0.987   3.771   1.733
  269SOL    HW1 1706   0.985   3.865   1.698
  269SOL    HW2 1707   0.898   3.728   1.714
  270SOL     OW 1708   6.981   0.284   6.993
  270SOL    HW1 1709   6.979   0.381   7.016
  270SOL    HW2 1710   6.978   0.230   0.051
  271SOL     OW 1711   1.154   1.646   0.045
  271SOL    HW1 1712   1.231   1.674   7.014
  271SOL    HW2 1713   1.186   1.584   0.117
  272SOL     OW 1714   3.208   5.144   3.951
  272SOL    HW1 1715   3.136   5.214   3.946
  272SOL    HW2 1716   3.174   5.066   4.004
  273SOL     OW 1717   1.898   4.077   5.032
  273SOL    HW1 1718   1.958   4.067   5.111
  273SOL    HW2 1719   1.914   4.166   4.989
  274SOL     OW 1720   4.520   1.537   2.632
  274SOL    HW1 1721   4.579   1.480   2.689
  274SOL    HW2 1722   4.504   1.624   2.678
  275SOL     OW 1723   5.992   4.979   5.319
  275SOL    HW1 1724   5.933   5.056   5.295
  275SOL    HW2 1725   6.031   4.995   5.410
  276SOL     OW 1726   0.044   5.820   2.242
  276SOL    HW1 1727   6.974   5.819   2.216
  276SOL    HW2 1728   0.087   5.734   2.215
  277SOL     OW 1729   1.389   3.737   0.855
  277SOL    HW1 1730   1.448   3.798   0.803
  277SOL    HW2 1731   1.333   3.683   0.792
  278SOL     OW 1732   6.333   5.188   1.664
  278SOL    HW1 1733   6.311   5.090   1.658
  278SOL    HW2 1734   6.249   5.241   1.652
  279SOL     OW 1735   6.097   2.834   4.853
  279SOL    HW1 1736   6.171   2.773   4.824
  279SOL    HW2 1737   6.016   2.818   4.796
  280SOL     OW 1738   2.868   0.252   3.110
  280SOL    HW1 1739   2.957   0.294   3.097
  280SOL    HW2 1740   2.856   0.228   3.206
  281SOL     OW 1741   3.031   4.788   2.395
  281SOL    HW1 1742   3.041   4.883   2.363
  281SOL    HW2 1743   2.941   4.754   2.367
  282SOL     OW 1744   3.404   1.581   5.462
  282SOL    HW1 1745   3.305   1.594   5.456
  282SOL    HW2 1746   3.434   1.523   5.386
  283SOL     OW 1747   6.631   1.399   5.721
  283SOL    HW1 1748   6.647   1.316   5.668
  283SOL    HW2 1749   6.612   1.375   5.816
  284SOL     OW 1750   1.267   4.080   4.552
  284SOL    HW1 1751   1.193   4.050   4.492
  284SOL    HW2 1752   1.233   4.084   4.646
  285SOL     OW 1753   6.177   4.645   5.723
  285SOL    HW1 1754   6.187   4.669   5.627
  285SOL    HW2 1755   6.084   4.612   5.741
  286SOL     OW 1756   3.240   5.826   5.418
  286SOL    HW1 1757   3.339   5.834   5.405
  286SOL    HW2 1758   3.215   5.865   5.507
  287SOL     OW 1759   0.353   4.632   0.010
  287SOL    HW1 1760   0.371   4.536   7.014
  287SOL    HW2 1761   0.385   4.650   0.103
  288SOL     OW 1762   3.408   2.052   5.858
  288SOL    HW1 1763   3.437   2.127   5.798
  288SOL    HW2 1764   3.334   2.001   5.815
  289SOL     OW 1765   0.156   4.872   4.549
  289SOL    HW1 1766   0.135   4.794   4.608
  289SOL    HW2 1767   0.216   4.935   4.599
  290SOL     OW 1768   5.655   2.440   4.358
  290SOL    HW1 1769   5.616   2.490   4.281
  290SOL    HW2 1770   5.685   2.350   4.328
  291SOL     OW 1771   1.685   2.030   4.614
  291SOL    HW1 1772   1.682   2.026   4.514
  291SOL    HW2 1773   1.604   1.986   4.652
  292SOL     OW 1774   1.400   1.852   2.956
  292SOL    HW1 1775   1.356   1.915   3.021
  292SOL    HW2 1776   1.337   1.834   2.880
  293SOL     OW 1777   4.306   4.847   1.777
  293SOL    HW1 1778   4.263   4.759   1.798
  293SOL    HW2 1779   4.318   4.899   1.862
  294SOL     OW 1780   6.025   5.222   6.459
  294SOL    HW1 1781   5.967   5.286   6.409
  294SOL    HW2 1782   6.037   5.255   6.553
  295SOL     OW 1783   3.014   1.784   4.329
  295SOL    HW1 1784   2.935   1.832   4.293
  295SOL    HW2 1785   3.017   1.794   4.428
  296SOL     OW 1786   4.828   1.720   2.629
  296SOL    HW1 1787   4.896   1.763   2.570
  296SOL    HW2 1788   4.738   1.762   2.614
  297SOL     OW 1789   2.328   4.268   2.873
  297SOL    HW1 1790   2.292   4.278   2.780
  297SOL    HW2 1791   2.384   4.347   2.897
  298SOL     OW 1792   3.540   6.247   0.752
  298SOL    HW1 1793   3.537   6.284   0.845
  298SOL    HW2 1794   3.625   6.197   0.739
  299SOL     OW 1795   4.173   3.491   6.472
  299SOL    HW1 1796   4.164   3.408   6.527
  299SOL    HW2 1797   4.103   3.557   6.500
  300SOL     OW 1798   5.871   0.916   1.323
  300SOL    HW1 1799   5.880   0.825   1.363
  300SOL    HW2 1800   5.937   0.978   1.366
  301SOL     OW 1801   5.194   3.009   0.993
  301SOL    HW1 1802   5.263   2.937   1.002
  301SOL    HW2 1803   5.222   3.090   1.045
  302SOL     OW 1804   0.548   0.902   3.456
  302SOL    HW1 1805   0.637   0.947   3.465
  302SOL    HW2 1806   0.487   0.959   3.401
  303SOL     OW 1807   6.226   6.952   1.225
  303SOL    HW1 1808   6.230   0.002   1.161
  303SOL    HW2 1809   6.282   6.972   1.305
  304SOL     OW 1810   2.511   0.356   4.462
  304SOL    HW1 1811   2.591   0.315   4.507
  304SOL    HW2 1812   2.541   0.430   4.402
  305SOL     OW 1813   0.597   3.066   0.483
  305SOL    HW1 1814   0.644   3.013   0.412
  305SOL    HW2 1815   0.501   3.079   0.458
  306SOL     OW 1816   2.109   0.493   3.842
  306SOL    HW1 1817   2.084   0.589   3.859
  306SOL    HW2 1818   2.028   0.444   3.809
  307SOL     OW 1819   5.190   6.494   0.460
  307SOL    HW1 1820   5.109   6.533   0.415
  307SOL    HW2 1821   5.194   6.396   0.442
  308SOL     OW 1822   6.079   3.389   5.388
  308SOL    HW1 1823   6.011   3.446   5.434
  308SOL    HW2 1824   6.121   3.441   5.313
  309SOL     OW 1825   3.484   5.723   6.625
  309SOL    HW1 1826   3.450   5.808   6.584
  309SOL    HW2 1827   3.433   5.645   6.588
  310SOL     OW 1828   6.227   0.096   4.929
  310SOL    HW1 1829   6.218   0.153   5.011
  310SOL    HW2 1830   6.257   0.004   4.955
  311SOL     OW 1831   4.990   4.738   2.648
  311SOL    HW1 1832   4.925   4.798   2.694
  311SOL    HW2 1833   5.079   4.744   2.693
  312SOL     OW 1834   4.072   1.141   5.539
  312SOL    HW1 1835   3.976   1.166   5.541
  312SOL    HW2 1836   4.106   1.148   5.445
  313SOL     OW 1837   3.256   3.716   2.199
  313SOL    HW1 1838   3.212   3.806   2.197
  313SOL    HW2 1839   3.349   3.727   2.235
  314SOL     OW 1840   3.619   5.339   6.655
  314SOL    HW1 1841   3.599   5.372   6.747
  314SOL    HW2 1842   3.570   5.395   6.588
  315SOL     OW 1843   1.439   2.861   3.534
  315SOL    HW1 1844   1.526   2.817   3.511
  315SOL    HW2 1845   1.412   2.922   3.459
  316SOL     OW 1846   3.056   1.533   3.931
  316SOL    HW1 1847   2.989   1.594   3.889
  316SOL    HW2 1848   3.059   1.447   3.881
  317SOL     OW 1849   0.418   0.811   1.085
  317SOL    HW1 1850   0.415   0.769   1.175
  317SOL    HW2 1851   0.485   0.764   1.028
  318SOL     OW 1852   0.859   5.757   6.645
  318SOL    HW1 1853   0.826   5.670   6.680
  318SOL    HW2 1854   0.924   5.741   6.571
  319SOL     OW 1855   6.646   0.542   3.967
  319SOL    HW1 1856   6.550   0.519   3.984
  319SOL    HW2 1857   6.654   0.640   3.947
  320SOL     OW 1858   6.404   2.328   0.523
  320SOL    HW1 1859   6.305   2.316   0.526
  320SOL    HW2 1860   6.444   2.268   0.454
  321SOL     OW 1861   3.871   1.495   0.454
  321SOL    HW1 1862   3.776   1.474   0.430
  321SOL    HW2 1863   3.893   1.456   0.543
  322SOL     OW 1864   4.114   3.336   4.480
  322SOL    HW1 1865   4.082   3.418   4.529
  322SOL    HW2 1866   4.189   3.295   4.531
  323SOL     OW 1867   0.888   2.634   6.315
  323SOL    HW1 1868   0.895   2.628   6.414
  323SOL    HW2 1869   0.979   2.634   6.275
  324SOL     OW 1870   2.343   2.096   4.482
  324SOL    HW1 1871   2.327   2.193   4.467
  324SOL    HW2 1872   2.440   2.076   4.476
  325SOL     OW 1873   0.948   3.118   1.694
  325SOL    HW1 1874   0.998   3.077   1.770
  325SOL    HW2 1875   0.851   3.120   1.715
  326SOL     OW 1876   0.906   5.090   6.907
  326SOL    HW1 1877   0.958   5.162   6.861
  326SOL    HW2 1878   0.890   5.116   7.002
  327SOL     OW 1879   1.647   5.056   3.749
  327SOL    HW1 1880   1.562   5.074   3.700
  327SOL    HW2 1881   1.626   5.027   3.843
  328SOL     OW 1882   1.130   5.095   1.854
  328SOL    HW1 1883   1.173   5.138   1.933
  328SOL    HW2 1884   1.066   5.024   1.885
  329SOL     OW 1885   4.103   3.621   4.584
  329SOL    HW1 1886   4.040   3.570   4.643
  329SOL    HW2 1887   4.075   3.611   4.489
  330SOL     OW 1888   2.905   0.017   1.125
  330SOL    HW1 1889   2.907   0.116   1.136
  330SOL    HW2 1890   2.959   7.001   1.197
  331SOL     OW 1891   4.049   5.730   1.187
  331SOL    HW1 1892   3.980   5.658   1.195
  331SOL    HW2 1893   4.115   5.705   1.115
  332SOL     OW 1894   3.672   1.768   4.531
  332SOL    HW1 1895   3.658   1.765   4.630
  332SOL    HW2 1896   3.750   1.710   4.506
  333SOL     OW 1897   3.300   6.997   6.173
  333SOL    HW1 1898   3.374   6.936   6.143
  333SOL    HW2 1899   3.335   0.035   6.241
  334SOL     OW 1900   2.488   0.934   1.392
  334SOL    HW1 1901   2.437   0.976   1.317
  334SOL    HW2 1902   2.424   0.906   1.464
  335SOL     OW 1903   3.988   6.601   4.721
  335SOL    HW1 1904   4.004   6.667   4.647
  335SOL    HW2 1905   3.991   6.649   4.808
  336SOL     OW 1906   2.035   0.755   3.836
  336SOL    HW1 1907   2.103   0.826   3.816
  336SOL    HW2 1908   1.944   0.788   3.813
  337SOL     OW 1909   0.447   3.045   0.062
  337SOL    HW1 1910   0.542   3.069   0.046
  337SOL    HW2 1911   0.388   3.117   0.026
  338SOL     OW 1912   2.813   2.793   1.736
  338SOL    HW1 1913   2.874   2.734   1.682
  338SOL    HW2 1914   2.793   2.748   1.823
  339SOL     OW 1915   3.194   6.839   4.400
  339SOL    HW1 1916   3.145   6.764   4.355
  339SOL    HW2 1917   3.280   6.856   4.351
  340SOL     OW 1918   5.014   4.744   5.613
  340SOL    HW1 1919   4.932   4.800   5.600
  340SOL    HW2 1920   5.076   4.756   5.536
  341SOL     OW 1921   6.462   1.680   4.584
  341SOL    HW1 1922   6.550   1.649   4.548
  341SOL    HW2 1923   6.413   1.730   4.512
  342SOL     OW 1924   6.290   4.117   6.840
  342SOL    HW1 1925   6.367   4.118   6.776
  342SOL    HW2 1926   6.317   4.164   6.924
  343SOL     OW 1927   1.981   4.495   0.737
  343SOL    HW1 1928   2.018   4.528   0.651
  343SOL    HW2 1929   1.988   4.567   0.806
  344SOL     OW 1930   0.764   5.179   2.169
  344SOL    HW1 1931   0.781   5.081   2.181
  344SOL    HW2 1932   0.679   5.192   2.118
  345SOL     OW 1933   5.422   1.677   3.765
  345SOL    HW1 1934   5.491   1.743   3.794
  345SOL    HW2 1935   5.333   1.706   3.800
  346SOL     OW 1936   1.659   0.777   2.670
  346SOL    HW1 1937   1.614   0.862   2.697
  346SOL    HW2 1938   1.742   0.799   2.618
  347SOL     OW 1939   3.272   5.856   6.104
  347SOL    HW1 1940   3.319   5.777   6.066
  347SOL    HW2 1941   3.285   5.935   6.045
  348SOL     OW 1942   5.272   4.170   1.590
  348SOL    HW1 1943   5.237   4.214   1.672
  348SOL    HW2 1944   5.371   4.186   1.584
  349SOL     OW 1945   6.776   4.649   0.714
  349SOL    HW1 1946   6.789   4.737   0.759
  349SOL    HW2 1947   6.863   4.616   0.678
  350SOL     OW 1948   3.627   3.091   0.708
  350SOL    HW1 1949   3.619   2.991   0.704
  350SOL    HW2 1950   3.552   3.128   0.763
  351SOL     OW 1951   1.921   2.632   0.027
  351SOL    HW1 1952   1.994   2.638   0.095
  351SOL    HW2 1953   1.961   2.621   6.963
  352SOL     OW 1954   3.304   1.007   4.641
  352SOL    HW1 1955   3.212   1.036   4.616
  352SOL    HW2 1956   3.367   1.028   4.567
  353SOL     OW 1957   2.425   6.178   0.951
  353SOL    HW1 1958   2.449   6.133   0.865
  353SOL    HW2 1959   2.328   6.200   0.952
  354SOL     OW 1960   3.377   2.805   0.490
  354SOL    HW1 1961   3.362   2.900   0.515
  354SOL    HW2 1962   3.307   2.747   0.532
  355SOL     OW 1963   0.369   3.552   2.994
  355SOL    HW1 1964   0.358   3.466   2.943
  355SOL    HW2 1965   0.399   3.624   2.931
  356SOL     OW 1966   3.196   6.270   5.011
  356SOL    HW1 1967   3.223   6.366   4.999
  356SOL    HW2 1968   3.277   6.212   5.010
  357SOL     OW 1969   6.511   6.937   5.564
  357SOL    HW1 1970   6.493   6.840   5.547
  357SOL    HW2 1971   6.600   6.961   5.527
  358SOL     OW 1972   5.071   0.276   1.640
  358SOL    HW1 1973   5.048   0.278   1.738
  358SOL    HW2 1974   4.991   0.244   1.589
  359SOL     OW 1975   1.289   2.074   2.151
  359SOL    HW1 1976   1.297   2.160   2.201
  359SOL    HW2 1977   1.349   2.076   2.071
  360SOL     OW 1978   1.144   5.553   6.533
  360SOL    HW1 1979   1.164   5.567   6.630
  360SOL    HW2 1980   1.082   5.624   6.501
  361SOL     OW 1981   5.806   5.797   3.577
  361SOL    HW1 1982   5.706   5.794   3.583
  361SOL    HW2 1983   5.834   5.878   3.525
  362SOL     OW 1984   3.788   3.851   1.340
  362SOL    HW1 1985   3.729   3.869   1.418
  362SOL    HW2 1986   3.758   3.905   1.262
  363SOL     OW 1987   5.096   4.704   3.876
  363SOL    HW1 1988   5.000   4.675   3.879
  363SOL    HW2 1989   5.102   4.795   3.836
  364SOL     OW 1990   6.399   5.833   6.144
  364SOL    HW1 1991   6.356   5.810   6.057
  364SOL    HW2 1992   6.481   5.887   6.126
  365SOL     OW 1993   5.876   5.588   2.318
  365SOL    HW1 1994   5.925   5.673   2.339
  365SOL    HW2 1995   5.799   5.608   2.257
  366SOL     OW 1996   6.108   0.341   6.621
  366SOL    HW1 1997   6.200   0.300   6.620
  366SOL    HW2 1998   6.054   0.299   6.694
  367SOL     OW 1999   4.963   2.974   1.221
  367SOL    HW1 2000   4.903   2.917   1.277
  367SOL    HW2 2001   4.964   2.939   1.127
  368SOL     OW 2002   0.166   3.663   5.117
  368SOL    HW1 2003   0.109   3.698   5.042
  368SOL    HW2 2004   0.157   3.564   5.122
  369SOL     OW 2005   6.191   5.509   1.780
  369SOL    HW1 2006   6.184   5.524   1.879
  369SOL    HW2 2007   6.121   5.563   1.733
  370SOL     OW 2008   2.555   2.038   5.453
  370SOL    HW1 2009   2.538   2.048   5.355
  370SOL    HW2 2010   2.513   2.115   5.502
  371SOL     OW 2011   2.779   3.357   0.073
  371SOL    HW1 2012   2.697   3.348   0.128
  371SOL    HW2 2013   2.793   3.453   0.047
  372SOL     OW 2014   0.719   0.039   5.615
  372SOL    HW1 2015   0.774   0.042   5.699
  372SOL    HW2 2016   0.624   0.019   5.639
  373SOL     OW 2017   6.348   5.948   5.058
  373SOL    HW1 2018   6.321   5.996   5.142
  373SOL    HW2 2019   6.283   5.970   4.985
  374SOL     OW 2020   3.057   1.896   2.778
  374SOL    HW1 2021   3.012   1.919   2.692
  374SOL    HW2 2022   2.992   1.847   2.837
  375SOL     OW 2023   0.888   4.455   3.885
  375SOL    HW1 2024   0.895   4.393   3.963
  375SOL    HW2 2025   0.980   4.481   3.855
  376SOL     OW 2026   2.013   1.604   4.743
  376SOL    HW1 2027   2.053   1.634   4.657
  376SOL    HW2 2028   2.044   1.512   4.765
  377SOL     OW 2029   0.526   2.499   1.622
  377SOL    HW1 2030   0.575   2.413   1.634
  377SOL    HW2 2031   0.429   2.485   1.643
  378SOL     OW 2032   3.062   2.649   5.789
  378SOL    HW1 2033   3.009   2.621   5.709
  378SOL    HW2 2034   3.112   2.733   5.767
  379SOL     OW 2035   5.968   3.949   1.256
  379SOL    HW1 2036   5.987   3.931   1.159
  379SOL    HW2 2037   6.015   4.033   1.284
  380SOL     OW 2038   3.079   1.251   1.393
  380SOL    HW1 2039   3.018   1.321   1.356
  380SOL    HW2 2040   3.038   1.211   1.475
  381SOL     OW 2041   1.425   4.450   2.997
  381SOL    HW1 2042   1.331   4.460   2.963
  381SOL    HW2 2043   1.438   4.509   3.076
  382SOL     OW 2044   5.364   6.527   5.650
  382SOL    HW1 2045   5.459   6.531   5.619
  382SOL    HW2 2046   5.359   6.476   5.736
  383SOL     OW 2047   5.092   3.076   5.962
  383SOL    HW1 2048   5.079   3.154   5.901
  383SOL    HW2 2049   5.092   2.992   5.909
  384SOL     OW 2050   6.106   5.305   4.362
  384SOL    HW1 2051   6.056   5.222   4.388
  384SOL    HW2 2052   6.132   5.355   4.445
  385SOL     OW 2053   4.558   5.931   5.740
  385SOL    HW1 2054   4.542   6.024   5.773
  385SOL    HW2 2055   4.548   5.929   5.640
  386SOL     OW 2056   2.692   5.948   5.175
  386SOL    HW1 2057   2.687   6.042   5.209
  386SOL    HW2 2058   2.730   5.889   5.246
  387SOL     OW 2059   0.681   6.558   3.109
  387SOL    HW1 2060   0.614   6.605   3.166
  387SOL    HW2 2061   0.757   6.621   3.088
  388SOL     OW 2062   1.695   2.026   3.633
  388SOL    HW1 2063   1.746   2.045   3.716
  388SOL    HW2 2064   1.597   2.022   3.654
  389SOL     OW 2065   4.267   4.169   1.534
  389SOL    HW1 2066   4.225   4.091   1.488
  389SOL    HW2 2067   4.353   4.141   1.576
  390SOL     OW 2068   3.645   1.046   7.020
  390SOL    HW1 2069   3.568   1.104   6.992
  390SOL    HW2 2070   3.723   1.103   0.017
  391SOL     OW 2071   1.794   4.155   5.381
  391SOL    HW1 2072   1.866   4.224   5.390
  391SOL    HW2 2073   1.797   4.116   5.288
  392SOL     OW 2074   1.845   3.810   1.468
  392SOL    HW1 2075   1.868   3.887   1.408
  392SOL    HW2 2076   1.806   3.845   1.553
  393SOL     OW 2077   0.938   4.848   0.009
  393SOL    HW1 2078   0.856   4.801   7.004
  393SOL    HW2 2079   0.937   4.943   7.003
  394SOL     OW 2080   0.434   2.599   0.079
  394SOL    HW1 2081   0.398   2.526   0.019
  394SOL    HW2 2082   0.392   2.686   0.054
  395SOL     OW 2083   4.834   4.776   3.251
  395SOL    HW1 2084   4.835   4.762   3.152
  395SOL    HW2 2085   4.919   4.740   3.291
  396SOL     OW 2086   2.820   3.299   1.882
  396SOL    HW1 2087   2.845   3.202   1.871
  396SOL    HW2 2088   2.736   3.317   1.830
  397SOL     OW 2089   5.331   1.956   5.909
  397SOL    HW1 2090   5.263   1.897   5.951
  397SOL    HW2 2091   5.391   1.901   5.850
  398SOL     OW 2092   1.717   6.902   3.381
  398SOL    HW1 2093   1.677   6.812   3.365
  398SOL    HW2 2094   1.785   6.920   3.310
  399SOL     OW 2095   5.715   6.460   4.391
  399SOL    HW1 2096   5.783   6.437   4.321
  399SOL    HW2 2097   5.687   6.555   4.380
  400SOL     OW 2098   6.005   6.325   6.074
  400SOL    HW1 2099   6.039   6.361   5.987
  400SOL    HW2 2100   5.907   6.343   6.082
  401SOL     OW 2101   4.799   7.008   6.051
  401SOL    HW1 2102   4.768   6.963   6.135
  401SOL    HW2 2103   4.752   0.070   6.042
  402SOL     OW 2104   6.531   1.029   3.054
  402SOL    HW1 2105   6.562   1.113   3.010
  402SOL    HW2 2106   6.482   1.051   3.138
  403SOL     OW 2107   3.895   0.787   5.461
  403SOL    HW1 2108   3.970   0.819   5.518
  403SOL    HW2 2109   3.915   0.807   5.365
  404SOL     OW 2110   1.814   4.957   4.937
  404SOL    HW1 2111   1.816   5.022   4.861
  404SOL    HW2 2112   1.741   4.981   5.000
  405SOL     OW 2113   2.162   3.351   2.809
  405SOL    HW1 2114   2.105   3.365   2.729
  405SOL    HW2 2115   2.160   3.433   2.867
  406SOL     OW 2116   0.328   4.624   4.779
  406SOL    HW1 2117   0.356   4.714   4.815
  406SOL    HW2 2118   0.408   4.563   4.778
  407SOL     OW 2119   1.771   2.308   4.993
  407SOL    HW1 2120   1.719   2.304   5.078
  407SOL    HW2 2121   1.812   2.398   4.983
  408SOL     OW 2122   3.364   1.929   3.035
  408SOL    HW1 2123   3.436   1.992   3.007
  408SOL    HW2 2124   3.337   1.871   2.958
  409SOL     OW 2125   6.501   3.381   1.418
  409SOL    HW1 2126   6.579   3.413   1.472
  409SOL    HW2 2127   6.420   3.433   1.444
  410SOL     OW 2128   1.180   1.785   1.304
  410SOL    HW1 2129   1.154   1.781   1.208
  410SOL    HW2 2130   1.273   1.752   1.316
  411SOL     OW 2131   6.264   0.711   1.398
  411SOL    HW1 2132   6.176   0.665   1.394
  411SOL    HW2 2133   6.282   0.740   1.492
  412SOL     OW 2134   3.349   5.040   3.224
  412SOL    HW1 2135   3.424   4.977   3.242
  412SOL    HW2 2136   3.344   5.059   3.126
  413SOL     OW 2137   4.532   4.365   1.465
  413SOL    HW1 2138   4.438   4.346   1.437
  413SOL    HW2 2139   4.557   4.456   1.432
  414SOL     OW 2140   3.043   6.666   4.267
  414SOL    HW1 2141   2.952   6.700   4.244
  414SOL    HW2 2142   3.040   6.566   4.276
  415SOL     OW 2143   0.717   0.480   6.916
  415SOL    HW1 2144   0.805   0.498   6.960
  415SOL    HW2 2145   0.658   0.430   6.979
  416SOL     OW 2146   5.162   5.038   4.820
  416SOL    HW1 2147   5.193   5.030   4.915
  416SOL    HW2 2148   5.122   4.952   4.790
  417SOL     OW 2149   2.297   0.638   6.121
  417SOL    HW1 2150   2.318   0.724   6.074
  417SOL    HW2 2151   2.333   0.561   6.068
  418SOL     OW 2152   2.728   6.823   6.038
  418SOL    HW1 2153   2.791   6.755   6.002
  418SOL    HW2 2154   2.755   6.848   6.131
  419SOL     OW 2155   0.728   6.938   2.945
  419SOL    HW1 2156   0.730   6.924   2.846
  419SOL    HW2 2157   0.738   0.009   2.965
  420SOL     OW 2158   5.698   1.437   6.337
  420SOL    HW1 2159   5.685   1.450   6.239
  420SOL    HW2 2160   5.647   1.507   6.387
  421SOL     OW 2161   5.910   3.487   4.882
  421SOL    HW1 2162   5.858   3.521   4.804
  421SOL    HW2 2163   5.947   3.565   4.934
  422SOL     OW 2164   4.844   3.223   0.473
  422SOL    HW1 2165   4.763   3.263   0.515
  422SOL    HW2 2166   4.842   3.123   0.485
  423SOL     OW 2167   2.507   1.431   6.682
  423SOL    HW1 2168   2.572   1.497   6.643
  423SOL    HW2 2169   2.548   1.388   6.762
  424SOL     OW 2170   1.517   4.771   2.733
  424SOL    HW1 2171   1.471   4.814   2.656
  424SOL    HW2 2172   1.459   4.775   2.814
  425SOL     OW 2173   5.181   1.716   4.518
  425SOL    HW1 2174   5.127   1.645   4.472
  425SOL    HW2 2175   5.176   1.801   4.466
  426SOL     OW 2176   2.369   2.711   4.639
  426SOL    HW1 2177   2.453   2.662   4.616
  426SOL    HW2 2178   2.366   2.727   4.738
  427SOL     OW 2179   6.166   0.248   3.987
  427SOL    HW1 2180   6.067   0.240   3.979
  427SOL    HW2 2181   6.209   0.161   3.964
  428SOL     OW 2182   3.803   0.521   2.789
  428SOL    HW1 2183   3.885   0.463   2.791
  428SOL    HW2 2184   3.764   0.520   2.697
  429SOL     OW 2185   1.156   5.137   3.723
  429SOL    HW1 2186   1.200   5.226   3.717
  429SOL    HW2 2187   1.062   5.143   3.688
  430SOL     OW 2188   1.085   6.892   4.357
  430SOL    HW1 2189   1.076   6.944   4.272
  430SOL    HW2 2190   1.056   6.797   4.341
  431SOL     OW 2191   2.716   1.938   0.823
  431SOL    HW1 2192   2.734   1.937   0.725
  431SOL    HW2 2193   2.739   1.849   0.862
  432SOL     OW 2194   6.147   1.977   0.477
  432SOL    HW1 2195   6.216   1.967   0.548
  432SOL    HW2 2196   6.147   2.071   0.443
  433SOL     OW 2197   2.432   6.207   6.272
  433SOL    HW1 2198   2.343   6.161   6.268
  433SOL    HW2 2199   2.443   6.265   6.191
  434SOL     OW 2200   4.176   5.838   3.446
  434SOL    HW1 2201   4.083   5.875   3.442
  434SOL    HW2 2202   4.242   5.912   3.449
  435SOL     OW 2203   3.738   2.388   5.289
  435SOL    HW1 2204   3.726   2.346   5.199
  435SOL    HW2 2205   3.836   2.399   5.308
  436SOL     OW 2206   3.394   5.423   2.510
  436SOL    HW1 2207   3.303   5.412   2.470
  436SOL    HW2 2208   3.386   5.471   2.597
  437SOL     OW 2209   0.478   1.144   5.703
  437SOL    HW1 2210   0.459   1.083   5.780
  437SOL    HW2 2211   0.391   1.173   5.662
  438SOL     OW 2212   1.475   3.499   3.875
  438SOL    HW1 2213   1.529   3.583   3.868
  438SOL    HW2 2214   1.503   3.435   3.803
  439SOL     OW 2215   6.047   6.585   2.239
  439SOL    HW1 2216   6.059   6.637   2.324
  439SOL    HW2 2217   5.995   6.501   2.258
  440SOL     OW 2218   3.538   1.369   6.419
  440SOL    HW1 2219   3.512   1.317   6.501
  440SOL    HW2 2220   3.627   1.412   6.435
  441SOL     OW 2221   6.015   4.156   3.596
  441SOL    HW1 2222   6.068   4.166   3.681
  441SOL    HW2 2223   6.052   4.217   3.526
  442SOL     OW 2224   4.851   5.420   5.471
  442SOL    HW1 2225   4.774   5.484   5.465
  442SOL    HW2 2226   4.865   5.377   5.382
  443SOL     OW 2227   5.981   4.069   4.163
  443SOL    HW1 2228   5.977   4.062   4.064
  443SOL    HW2 2229   6.041   4.146   4.188
  444SOL     OW 2230   4.360   0.857   6.620
  444SOL    HW1 2231   4.430   0.926   6.638
  444SOL    HW2 2232   4.403   0.772   6.590
  445SOL     OW 2233   2.257   6.080   3.247
  445SOL    HW1 2234   2.310   6.094   3.163
  445SOL    HW2 2235   2.318   6.049   3.320
  446SOL     OW 2236   4.016   5.845   2.824
  446SOL    HW1 2237   4.031   5.941   2.850
  446SOL    HW2 2238   3.951   5.803   2.887
  447SOL     OW 2239   6.586   3.307   4.820
  447SOL    HW1 2240   6.614   3.403   4.812
  447SOL    HW2 2241   6.600   3.275   4.914
  448SOL     OW 2242   2.534   0.911   2.861
  448SOL    HW1 2243   2.520   0.900   2.959
  448SOL    HW2 2244   2.448   0.894   2.813
  449SOL     OW 2245   2.731   1.842   3.700
  449SOL    HW1 2246   2.636   1.874   3.696
  449SOL    HW2 2247   2.775   1.880   3.782
  450SOL     OW 2248   1.999   4.742   3.593
  450SOL    HW1 2249   1.927   4.673   3.593
  450SOL    HW2 2250   1.971   4.820   3.648
  451SOL     OW 2251   1.704   2.486   4.126
  451SOL    HW1 2252   1.752   2.496   4.213
  451SOL    HW2 2253   1.612   2.451   4.142
  452SOL     OW 2254   4.310   6.952   1.610
  452SOL    HW1 2255   4.215   6.954   1.580
  452SOL    HW2 2256   4.368   6.921   1.535
  453SOL     OW 2257   3.310   6.516   6.243
  453SOL    HW1 2258   3.356   6.487   6.327
  453SOL    HW2 2259   3.287   6.436   6.188
  454SOL     OW 2260   6.759   3.945   6.598
  454SOL    HW1 2261   6.771   3.856   6.554
  454SOL    HW2 2262   6.834   3.962   6.662
  455SOL     OW 2263   6.266   2.996   5.293
  455SOL    HW1 2264   6.178   3.042   5.308
  455SOL    HW2 2265   6.288   2.998   5.195
  456SOL     OW 2266   1.975   0.670   4.089
  456SOL    HW1 2267   2.016   0.705   4.004
  456SOL    HW2 2268   2.048   0.641   4.151
  457SOL     OW 2269   1.625   4.634   4.138
  457SOL    HW1 2270   1.586   4.562   4.197
  457SOL    HW2 2271   1.604   4.614   4.043
  458SOL     OW 2272   3.682   0.387   3.018
  458SOL    HW1 2273   3.712   0.430   2.933
  458SOL    HW2 2274   3.691   0.453   3.094
  459SOL     OW 2275   1.873   0.391   5.381
  459SOL    HW1 2276   1.972   0.406   5.382
  459SOL    HW2 2277   1.828   0.471   5.342
  460SOL     OW 2278   1.391   0.927   5.224
  460SOL    HW1 2279   1.432   0.881   5.145
  460SOL    HW2 2280   1.320   0.990   5.193
  461SOL     OW 2281   6.344   5.047   5.789
  461SOL    HW1 2282   6.365   4.950   5.806
  461SOL    HW2 2283   6.418   5.103   5.825
  462SOL     OW 2284   4.004   3.708   5.160
  462SOL    HW1 2285   4.044   3.694   5.070
  462SOL    HW2 2286   3.957   3.797   5.163
  463SOL     OW 2287   0.034   0.457   3.272
  463SOL    HW1 2288   0.127   0.488   3.293
  463SOL    HW2 2289   6.994   0.518   3.316
  464SOL     OW 2290   2.672   0.472   5.739
  464SOL    HW1 2291   2.744   0.509   5.797
  464SOL    HW2 2292   2.680   0.372   5.735
  465SOL     OW 2293   0.728   2.595   0.067
  465SOL    HW1 2294   0.632   2.619   0.054
  465SOL    HW2 2295   0.780   2.616   7.011
  466SOL     OW 2296   2.810   6.340   4.328
  466SOL    HW1 2297   2.767   6.422   4.291
  466SOL    HW2 2298   2.909   6.353   4.332
  467SOL     OW 2299   1.229   1.800   2.753
  467SOL    HW1 2300   1.188   1.884   2.788
  467SOL    HW2 2301   1.163   1.725   2.760
  468SOL     OW 2302   4.283   5.808   5.768
  468SOL    HW1 2303   4.258   5.868   5.843
  468SOL    HW2 2304   4.323   5.863   5.694
  469SOL     OW 2305   3.202   4.481   5.563
  469SOL    HW1 2306   3.160   4.401   5.604
  469SOL    HW2 2307   3.295   4.492   5.600
  470SOL     OW 2308   4.057   5.608   2.386
  470SOL    HW1 2309   3.962   5.634   2.401
  470SOL    HW2 2310   4.117   5.684   2.413
  471SOL     OW 2311   2.766   2.223   4.291
  471SOL    HW1 2312   2.725   2.177   4.213
  471SOL    HW2 2313   2.709   2.300   4.318
  472SOL     OW 2314   5.585   4.986   0.011
  472SOL    HW1 2315   5.530   4.903   7.021
  472SOL    HW2 2316   5.628   5.015   6.952
  473SOL     OW 2317   0.213   2.225   2.807
  473SOL    HW1 2318   0.204   2.242   2.709
  473SOL    HW2 2319   0.174   2.136   2.829
  474SOL     OW 2320   6.008   5.209   5.996
  474SOL    HW1 2321   6.095   5.223   5.949
  474SOL    HW2 2322   5.951   5.145   5.945
  475SOL     OW 2323   6.013   3.469   6.906
  475SOL    HW1 2324   6.045   3.556   6.868
  475SOL    HW2 2325   6.027   3.470   7.005
  476SOL     OW 2326   6.944   3.984   1.895
  476SOL    HW1 2327   6.901   3.897   1.917
  476SOL    HW2 2328   6.900   4.023   1.813
  477SOL     OW 2329   2.334   5.601   3.722
  477SOL    HW1 2330   2.266   5.533   3.695
  477SOL    HW2 2331   2.420   5.555   3.747
  478SOL     OW 2332   4.020   6.162   3.302
  478SOL    HW1 2333   4.045   6.127   3.392
  478SOL    HW2 2334   4.098   6.153   3.240
  479SOL     OW 2335   3.667   3.200   5.103
  479SOL    HW1 2336   3.718   3.282   5.076
  479SOL    HW2 2337   3.689   3.125   5.041
  480SOL     OW 2338   2.451   0.376   2.066
  480SOL    HW1 2339   2.367   0.414   2.029
  480SOL    HW2 2340   2.530   0.416   2.019
  481SOL     OW 2341   0.826   0.024   1.718
  481SOL    HW1 2342   0.847   0.117   1.749
  481SOL    HW2 2343   0.728   0.017   1.697
  482SOL     OW 2344   4.656   4.857   2.646
  482SOL    HW1 2345   4.745   4.898   2.626
  482SOL    HW2 2346   4.614   4.824   2.561
  483SOL     OW 2347   6.496   2.127   2.319
  483SOL    HW1 2348   6.554   2.166   2.390
  483SOL    HW2 2349   6.532   2.152   2.229
  484SOL     OW 2350   1.414   4.618   4.962
  484SOL    HW1 2351   1.315   4.610   4.969
  484SOL    HW2 2352   1.455   4.615   5.054
  485SOL     OW 2353   5.170   4.014   2.616
  485SOL    HW1 2354   5.140   3.932   2.666
  485SOL    HW2 2355   5.167   4.093   2.676
  486SOL     OW 2356   5.699   1.252   6.653
  486SOL    HW1 2357   5.645   1.336   6.654
  486SOL    HW2 2358   5.765   1.256   6.577
  487SOL     OW 2359   0.897   0.406   3.159
  487SOL    HW1 2360   0.959   0.334   3.191
  487SOL    HW2 2361   0.839   0.369   3.086
  488SOL     OW 2362   1.615   6.848   2.690
  488SOL    HW1 2363   1.636   6.829   2.786
  488SOL    HW2 2364   1.537   6.792   2.661
  489SOL     OW 2365   5.792   5.441   5.200
  489SOL    HW1 2366   5.712   5.484   5.160
  489SOL    HW2 2367   5.860   5.511   5.223
  490SOL     OW 2368   1.626   6.192   4.382
  490SOL    HW1 2369   1.582   6.116   4.335
  490SOL    HW2 2370   1.575   6.276   4.364
  491SOL     OW 2371   0.679   3.534   0.528
  491SOL    HW1 2372   0.636   3.481   0.601
  491SOL    HW2 2373   0.766   3.492   0.502
  492SOL     OW 2374   1.459   0.916   5.497
  492SOL    HW1 2375   1.528   0.971   5.452
  492SOL    HW2 2376   1.370   0.932   5.455
  493SOL     OW 2377   2.619   6.920   5.374
  493SOL    HW1 2378   2.552   6.871   5.430
  493SOL    HW2 2379   2.671   6.854   5.319
  494SOL     OW 2380   2.020   1.604   6.274
  494SOL    HW1 2381   2.023   1.633   6.369
  494SOL    HW2 2382   2.074   1.667   6.218
  495SOL     OW 2383   3.472   6.191   5.046
  495SOL    HW1 2384   3.553   6.224   4.998
  495SOL    HW2 2385   3.449   6.256   5.119
  496SOL     OW 2386   6.147   1.569   2.083
  496SOL    HW1 2387   6.141   1.568   1.983
  496SOL    HW2 2388   6.188   1.484   2.115
  497SOL     OW 2389   3.694   0.883   4.748
  497SOL    HW1 2390   3.627   0.912   4.816
  497SOL    HW2 2391   3.663   0.912   4.657
  498SOL     OW 2392   0.487   4.459   2.052
  498SOL    HW1 2393   0.540   4.414   1.979
  498SOL    HW2 2394   0.391   4.461   2.026
  499SOL     OW 2395   1.995   5.818   5.072
  499SOL    HW1 2396   2.027   5.836   4.979
  499SOL    HW2 2397   1.937   5.894   5.102
  500SOL     OW 2398   5.350   3.263   5.579
  500SOL    HW1 2399   5.439   3.308   5.586
  500SOL    HW2 2400   5.363   3.164   5.577
  501SOL     OW 2401   3.399   0.145   1.504
  501SOL    HW1 2402   3.459   0.169   1.427
  501SOL    HW2 2403   3.304   0.152   1.476
  502SOL     OW 2404   0.790   4.749   6.361
  502SOL    HW1 2405   0.729   4.825   6.382
  502SOL    HW2 2406   0.744   4.662   6.381
  503SOL     OW 2407   1.777   5.054   6.224
  503SOL    HW1 2408   1.749   5.134   6.169
  503SOL    HW2 2409   1.812   4.983   6.164
  504SOL     OW 2410   0.315   6.065   1.712
  504SOL    HW1 2411   0.365   6.057   1.799
  504SOL    HW2 2412   0.332   5.984   1.656
  505SOL     OW 2413   4.226   0.249   5.217
  505SOL    HW1 2414   4.134   0.213   5.230
  505SOL    HW2 2415   4.245   0.259   5.119
  506SOL     OW 2416   2.902   5.981   2.124
  506SOL    HW1 2417   2.824   6.044   2.114
  506SOL    HW2 2418   2.985   6.026   2.092
  507SOL     OW 2419   3.840   0.253   2.447
  507SOL    HW1 2420   3.790   0.300   2.519
  507SOL    HW2 2421   3.905   0.316   2.405
  508SOL     OW 2422   6.938   2.384   2.856
  508SOL    HW1 2423   6.879   2.310   2.823
  508SOL    HW2 2424   6.948   2.376   2.955
  509SOL     OW 2425   4.371   1.078   0.246
  509SOL    HW1 2426   4.464   1.045   0.260
  509SOL    HW2 2427   4.316   1.006   0.203
  510SOL     OW 2428   6.740   5.032   5.798
  510SOL    HW1 2429   6.737   4.947   5.851
  510SOL    HW2 2430   6.832   5.071   5.803
  511SOL     OW 2431   1.161   2.168   6.764
  511SOL    HW1 2432   1.143   2.249   6.819
  511SOL    HW2 2433   1.147   2.086   6.820
  512SOL     OW 2434   6.367   2.925   6.573
  512SOL    HW1 2435   6.287   2.905   6.630
  512SOL    HW2 2436   6.349   2.898   6.479
  513SOL     OW 2437   5.309   6.612   2.614
  513SOL    HW1 2438   5.278   6.545   2.546
  513SOL    HW2 2439   5.261   6.596   2.700
  514SOL     OW 2440   0.526   0.345   4.550
  514SOL    HW1 2441   0.443   0.377   4.596
  514SOL    HW2 2442   0.502   0.275   4.483
  515SOL     OW 2443   2.112   0.340   6.827
  515SOL    HW1 2444   2.044   0.278   6.866
  515SOL    HW2 2445   2.115   0.425   6.880
  516SOL     OW 2446   2.552   4.656   2.062
  516SOL    HW1 2447   2.546   4.627   2.158
  516SOL    HW2 2448   2.646   4.649   2.030
  517SOL     OW 2449   3.454   4.905   2.115
  517SOL    HW1 2450   3.499   4.825   2.076
  517SOL    HW2 2451   3.445   4.976   2.045
  518SOL     OW 2452   2.613   2.104   4.046
  518SOL    HW1 2453   2.577   2.197   4.038
  518SOL    HW2 2454   2.537   2.041   4.064
  519SOL     OW 2455   0.450   6.230   3.114
  519SOL    HW1 2456   0.540   6.215   3.073
  519SOL    HW2 2457   0.412   6.316   3.082
  520SOL     OW 2458   0.885   3.945   6.702
  520SOL    HW1 2459   0.825   3.913   6.628
  520SOL    HW2 2460   0.959   4.001   6.663
  521SOL     OW 2461   4.612   5.796   4.916
  521SOL    HW1 2462   4.706   5.821   4.895
  521SOL    HW2 2463   4.603   5.697   4.916
  522SOL     OW 2464   3.893   3.643   2.187
  522SOL    HW1 2465   3.964   3.593   2.236
  522SOL    HW2 2466   3.804   3.624   2.229
  523SOL     OW 2467   6.851   6.082   2.155
  523SOL    HW1 2468   6.755   6.088   2.181
  523SOL    HW2 2469   6.891   6.173   2.154
  524SOL     OW 2470   1.140   3.026   2.476
  524SOL    HW1 2471   1.195   3.054   2.554
  524SOL    HW2 2472   1.199   3.011   2.397
  525SOL     OW 2473   2.152   4.090   6.291
  525SOL    HW1 2474   2.155   4.009   6.350
  525SOL    HW2 2475   2.113   4.064   6.202
  526SOL     OW 2476   3.086   6.583   3.840
  526SOL    HW1 2477   3.003   6.599   3.787
  526SOL    HW2 2478   3.074   6.617   3.933
  527SOL     OW 2479   0.428   2.371   6.919
  527SOL    HW1 2480   0.525   2.385   6.939
  527SOL    HW2 2481   0.415   2.361   6.821
  528SOL     OW 2482   1.517   2.709   3.936
  528SOL    HW1 2483   1.465   2.730   3.854
  528SOL    HW2 2484   1.567   2.790   3.967
  529SOL     OW 2485   1.897   0.165   5.194
  529SOL    HW1 2486   1.884   0.243   5.254
  529SOL    HW2 2487   1.905   0.082   5.248
  530SOL     OW 2488   3.903   2.973   2.356
  530SOL    HW1 2489   3.973   2.996   2.423
  530SOL    HW2 2490   3.825   2.932   2.402
  531SOL     OW 2491   1.314   1.257   2.641
  531SOL    HW1 2492   1.280   1.350   2.657
  531SOL    HW2 2493   1.275   1.195   2.708
  532SOL     OW 2494   1.584   3.577   0.507
  532SOL    HW1 2495   1.499   3.525   0.517
  532SOL    HW2 2496   1.642   3.561   0.586
  533SOL     OW 2497   4.676   6.985   4.099
  533SOL    HW1 2498   4.722   6.897   4.110
  533SOL    HW2 2499   4.623   7.005   4.181
  534SOL     OW 2500   6.453   6.023   2.313
  534SOL    HW1 2501   6.480   5.927   2.309
  534SOL    HW2 2502   6.525   6.080   2.275
  535SOL     OW 2503   0.113   4.397   2.703
  535SOL    HW1 2504   0.173   4.474   2.723
  535SOL    HW2 2505   0.030   4.430   2.658
  536SOL     OW 2506   6.738   5.032   2.604
  536SOL    HW1 2507   6.742   4.950   2.547
  536SOL    HW2 2508   6.809   5.096   2.576
  537SOL     OW 2509   3.708   6.868   4.528
  537SOL    HW1 2510   3.758   6.789   4.492
  537SOL    HW2 2511   3.771   6.944   4.540
  538SOL     OW 2512   1.158   4.396   4.688
  538SOL    HW1 2513   1.211   4.480   4.698
  538SOL    HW2 2514   1.197   4.325   4.746
  539SOL     OW 2515   1.614   5.261   2.001
  539SOL    HW1 2516   1.678   5.209   1.945
  539SOL    HW2 2517   1.535   5.287   1.946
  540SOL     OW 2518   1.567   0.577   3.782
  540SOL    HW1 2519   1.521   0.658   3.818
  540SOL    HW2 2520   1.547   0.498   3.841
  541SOL     OW 2521   4.622   5.579   3.870
  541SOL    HW1 2522   4.549   5.550   3.932
  541SOL    HW2 2523   4.676   5.651   3.915
  542SOL     OW 2524   4.119   6.423   6.606
  542SOL    HW1 2525   4.048   6.400   6.672
  542SOL    HW2 2526   4.193   6.356   6.611
  543SOL     OW 2527   5.968   3.419   3.198
  543SOL    HW1 2528   5.990   3.328   3.233
  543SOL    HW2 2529   5.872   3.421   3.168
  544SOL     OW 2530   0.543   5.290   0.259
  544SOL    HW1 2531   0.452   5.256   0.278
  544SOL    HW2 2532   0.592   5.308   0.345
  545SOL     OW 2533   4.165   1.135   1.014
  545SOL    HW1 2534   4.218   1.064   0.967
  545SOL    HW2 2535   4.130   1.098   1.100
  546SOL     OW 2536   1.604   3.697   2.251
  546SOL    HW1 2537   1.686   3.646   2.223
  546SOL    HW2 2538   1.529   3.675   2.189
  547SOL     OW 2539   3.349   2.886   1.163
  547SOL    HW1 2540   3.446   2.910   1.170
  547SOL    HW2 2541   3.339   2.787   1.166
  548SOL     OW 2542   3.550   3.517   1.543
  548SOL    HW1 2543   3.572   3.537   1.638
  548SOL    HW2 2544   3.487   3.439   1.538
  549SOL     OW 2545   5.181   2.427   1.518
  549SOL    HW1 2546   5.212   2.516   1.552
  549SOL    HW2 2547   5.258   2.378   1.479
  550SOL     OW 2548   1.100   5.529   3.221
  550SOL    HW1 2549   1.045   5.601   3.264
  550SOL    HW2 2550   1.080   5.525   3.124
  551SOL     OW 2551   6.717   0.113   1.658
  551SOL    HW1 2552   6.667   0.199   1.662
  551SOL    HW2 2553   6.815   0.130   1.669
  552SOL     OW 2554   5.813   3.996   5.668
  552SOL    HW1 2555   5.870   3.928   5.623
  552SOL    HW2 2556   5.861   4.084   5.669
  553SOL     OW 2557   2.819   6.629   3.718
  553SOL    HW1 2558   2.724   6.635   3.687
  553SOL    HW2 2559   2.838   6.702   3.784
  554SOL     OW 2560   5.471   6.849   0.259
  554SOL    HW1 2561   5.448   6.751   0.265
  554SOL    HW2 2562   5.505   6.880   0.348
  555SOL     OW 2563   2.887   5.038   5.083
  555SOL    HW1 2564   2.848   4.966   5.141
  555SOL    HW2 2565   2.814   5.091   5.040
  556SOL     OW 2566   4.995   1.587   4.333
  556SOL    HW1 2567   5.047   1.579   4.248
  556SOL    HW2 2568   4.916   1.526   4.329
  557SOL     OW 2569   6.766   4.938   6.361
  557SOL    HW1 2570   6.853   4.970   6.324
  557SOL    HW2 2571   6.692   4.998   6.330
  558SOL     OW 2572   3.023   3.196   4.062
  558SOL    HW1 2573   3.027   3.119   4.125
  558SOL    HW2 2574   3.068   3.172   3.976
  559SOL     OW 2575   6.971   5.550   5.243
  559SOL    HW1 2576   6.892   5.542   5.304
  559SOL    HW2 2577   6.987   5.463   5.196
  560SOL     OW 2578   6.596   4.152   3.090
  560SOL    HW1 2579   6.626   4.076   3.031
  560SOL    HW2 2580   6.503   4.135   3.121
  561SOL     OW 2581   0.098   2.274   0.464
  561SOL    HW1 2582   0.073   2.244   0.371
  561SOL    HW2 2583   0.024   2.327   0.503
  562SOL     OW 2584   3.821   0.796   5.988
  562SOL    HW1 2585   3.747   0.788   6.055
  562SOL    HW2 2586   3.851   0.891   5.983
  563SOL     OW 2587   2.211   1.568   3.615
  563SOL    HW1 2588   2.144   1.499   3.640
  563SOL    HW2 2589   2.176   1.659   3.637
  564SOL     OW 2590   0.946   2.928   0.382
  564SOL    HW1 2591   0.938   2.872   0.465
  564SOL    HW2 2592   0.872   2.904   0.319
  565SOL     OW 2593   3.270   3.594   3.844
  565SOL    HW1 2594   3.279   3.630   3.751
  565SOL    HW2 2595   3.311   3.658   3.908
  566SOL     OW 2596   1.197   3.499   3.918
  566SOL    HW1 2597   1.156   3.567   3.979
  566SOL    HW2 2598   1.297   3.499   3.930
  567SOL     OW 2599   2.932   2.510   1.486
  567SOL    HW1 2600   3.016   2.540   1.441
  567SOL    HW2 2601   2.946   2.505   1.584
  568SOL     OW 2602   4.489   6.551   0.411
  568SOL    HW1 2603   4.400   6.521   0.444
  568SOL    HW2 2604   4.544   6.472   0.385
  569SOL     OW 2605   0.946   3.204   0.736
  569SOL    HW1 2606   0.965   3.165   0.646
  569SOL    HW2 2607   1.001   3.287   0.748
  570SOL     OW 2608   3.256   0.212   6.831
  570SOL    HW1 2609   3.280   0.298   6.876
  570SOL    HW2 2610   3.265   0.223   6.732
  571SOL     OW 2611   2.979   5.248   4.067
  571SOL    HW1 2612   3.003   5.218   4.160
  571SOL    HW2 2613   2.902   5.192   4.033
  572SOL     OW 2614   2.127   5.136   5.398
  572SOL    HW1 2615   2.081   5.219   5.366
  572SOL    HW2 2616   2.226   5.151   5.397
  573SOL     OW 2617   5.779   1.184   6.204
  573SOL    HW1 2618   5.687   1.147   6.216
  573SOL    HW2 2619   5.817   1.210   6.293
  574SOL     OW 2620   3.830   0.638   4.735
  574SOL    HW1 2621   3.847   0.643   4.636
  574SOL    HW2 2622   3.772   0.714   4.763
  575SOL     OW 2623   4.445   2.988   1.699
  575SOL    HW1 2624   4.505   2.990   1.779
  575SOL    HW2 2625   4.384   3.067   1.702
  576SOL     OW 2626   1.152   3.232   3.544
  576SOL    HW1 2627   1.087   3.159   3.527
  576SOL    HW2 2628   1.164   3.244   3.643
  577SOL     OW 2629   1.617   1.129   2.428
  577SOL    HW1 2630   1.565   1.126   2.343
  577SOL    HW2 2631   1.673   1.047   2.436
  578SOL     OW 2632   0.312   5.073   4.657
  578SOL    HW1 2633   0.368   5.113   4.729
  578SOL    HW2 2634   0.227   5.124   4.648
  579SOL     OW 2635   1.784   4.085   3.124
  579SOL    HW1 2636   1.816   3.991   3.140
  579SOL    HW2 2637   1.804   4.111   3.030
  580SOL     OW 2638   4.350   5.093   5.538
  580SOL    HW1 2639   4.410   5.014   5.549
  580SOL    HW2 2640   4.275   5.069   5.476
  581SOL     OW 2641   2.142   2.902   1.965
  581SOL    HW1 2642   2.233   2.862   1.960
  581SOL    HW2 2643   2.107   2.918   1.873
  582SOL     OW 2644   4.349   5.320   2.316
  582SOL    HW1 2645   4.310   5.249   2.375
  582SOL    HW2 2646   4.425   5.365   2.364
  583SOL     OW 2647   2.416   6.342   5.066
  583SOL    HW1 2648   2.455   6.268   5.011
  583SOL    HW2 2649   2.325   6.365   5.032
  584SOL     OW 2650   3.209   6.513   6.780
  584SOL    HW1 2651   3.234   6.445   6.712
  584SOL    HW2 2652   3.214   6.604   6.740
  585SOL     OW 2653   4.175   0.955   0.097
  585SOL    HW1 2654   4.115   0.875   0.100
  585SOL    HW2 2655   4.251   0.936   0.035
  586SOL     OW 2656   3.564   0.476   0.310
  586SOL    HW1 2657   3.606   0.540   0.374
  586SOL    HW2 2658   3.533   0.525   0.228
  587SOL     OW 2659   4.307   2.353   3.287
  587SOL    HW1 2660   4.349   2.276   3.334
  587SOL    HW2 2661   4.298   2.333   3.190
  588SOL     OW 2662   2.008   4.819   1.627
  588SOL    HW1 2663   2.033   4.822   1.530
  588SOL    HW2 2664   2.067   4.754   1.675
  589SOL     OW 2665   3.455   5.656   1.975
  589SOL    HW1 2666   3.389   5.731   1.982
  589SOL    HW2 2667   3.521   5.677   1.904
  590SOL     OW 2668   5.518   1.610   1.302
  590SOL    HW1 2669   5.426   1.631   1.271
  590SOL    HW2 2670   5.517   1.595   1.401
  591SOL     OW 2671   3.557   6.484   3.412
  591SOL    HW1 2672   3.600   6.572   3.432
  591SOL    HW2 2673   3.622   6.410   3.427
  592SOL     OW 2674   4.378   0.566   2.302
  592SOL    HW1 2675   4.297   0.570   2.360
  592SOL    HW2 2676   4.456   0.533   2.356
  593SOL     OW 2677   4.881   2.635   3.687
  593SOL    HW1 2678   4.976   2.604   3.681
  593SOL    HW2 2679   4.825   2.564   3.730
  594SOL     OW 2680   5.928   0.469   1.020
  594SOL    HW1 2681   5.832   0.493   1.036
  594SOL    HW2 2682   5.949   0.383   1.067
  595SOL     OW 2683   5.498   6.694   3.248
  595SOL    HW1 2684   5.492   6.634   3.168
  595SOL    HW2 2685   5.433   6.770   3.237
  596SOL     OW 2686   0.025   5.187   2.788
  596SOL    HW1 2687   0.021   5.105   2.731
  596SOL    HW2 2688   0.096   5.176   2.857
  597SOL     OW 2689   2.518   0.202   6.623
  597SOL    HW1 2690   2.486   0.128   6.682
  597SOL    HW2 2691   2.606   0.236   6.656
  598SOL     OW 2692   3.852   3.904   4.540
  598SOL    HW1 2693   3.894   3.918   4.450
  598SOL    HW2 2694   3.921   3.871   4.605
  599SOL     OW 2695   2.475   5.726   2.604
  599SOL    HW1 2696   2.506   5.819   2.625
  599SOL    HW2 2697   2.398   5.703   2.663
  600SOL     OW 2698   6.126   1.879   6.574
  600SOL    HW1 2699   6.195   1.854   6.642
  600SOL    HW2 2700   6.168   1.886   6.484
  601SOL     OW 2701   1.554   0.778   3.999
  601SOL    HW1 2702   1.498   0.834   3.937
  601SOL    HW2 2703   1.511   0.776   4.089
  602SOL     OW 2704   1.851   0.315   6.370
  602SOL    HW1 2705   1.827   0.390   6.431
  602SOL    HW2 2706   1.920   0.257   6.414
  603SOL     OW 2707   2.912   2.687   5.372
  603SOL    HW1 2708   3.005   2.719   5.353
  603SOL    HW2 2709   2.855   2.766   5.396
  604SOL     OW 2710   0.873   1.532   1.421
  604SOL    HW1 2711   0.931   1.450   1.427
  604SOL    HW2 2712   0.789   1.509   1.371
  605SOL     OW 2713   6.459   4.892   0.821
  605SOL    HW1 2714   6.542   4.858   0.864
  605SOL    HW2 2715   6.481   4.968   0.760
  606SOL     OW 2716   4.876   6.470   5.232
  606SOL    HW1 2717   4.894   6.501   5.325
  606SOL    HW2 2718   4.952   6.496   5.173
  607SOL     OW 2719   6.339   4.723   5.099
  607SOL    HW1 2720   6.312   4.813   5.132
  607SOL    HW2 2721   6.262   4.660   5.109
  608SOL     OW 2722   4.023   6.277   6.849
  608SOL    HW1 2723   3.946   6.243   6.902
  608SOL    HW2 2724   4.076   6.200   6.815
  609SOL     OW 2725   3.564   2.995   2.181
  609SOL    HW1 2726   3.519   3.067   2.235
  609SOL    HW2 2727   3.618   2.937   2.242
  610SOL     OW 2728   5.648   3.070   0.235
  610SOL    HW1 2729   5.729   3.012   0.243
  610SOL    HW2 2730   5.578   3.021   0.182
  611SOL     OW 2731   4.589   0.137   1.904
  611SOL    HW1 2732   4.515   0.108   1.964
  611SOL    HW2 2733   4.667   0.075   1.915
  612SOL     OW 2734   3.451   5.462   3.988
  612SOL    HW1 2735   3.430   5.480   4.084
  612SOL    HW2 2736   3.370   5.479   3.932
  613SOL     OW 2737   4.565   5.296   5.226
  613SOL    HW1 2738   4.517   5.352   5.158
  613SOL    HW2 2739   4.523   5.309   5.316
  614SOL     OW 2740   4.628   5.099   5.792
  614SOL    HW1 2741   4.713   5.145   5.767
  614SOL    HW2 2742   4.566   5.165   5.835
  615SOL     OW 2743   6.710   1.793   0.896
  615SOL    HW1 2744   6.692   1.738   0.977
  615SOL    HW2 2745   6.686   1.889   0.914
  616SOL     OW 2746   0.111   2.207   2.229
  616SOL    HW1 2747   0.104   2.135   2.297
  616SOL    HW2 2748   0.188   2.187   2.168
  617SOL     OW 2749   0.267   4.769   5.657
  617SOL    HW1 2750   0.359   4.801   5.638
  617SOL    HW2 2751   0.222   4.744   5.571
  618SOL     OW 2752   0.814   2.429   0.756
  618SOL    HW1 2753   0.748   2.437   0.831
  618SOL    HW2 2754   0.766   2.434   0.668
  619SOL     OW 2755   3.606   1.544   0.812
  619SOL    HW1 2756   3.580   1.487   0.890
  619SOL    HW2 2757   3.698   1.580   0.827
  620SOL     OW 2758   4.724   1.958   1.010
  620SOL    HW1 2759   4.735   1.867   0.971
  620SOL    HW2 2760   4.773   2.025   0.954
  621SOL     OW 2761   2.964   6.306   6.812
  621SOL    HW1 2762   2.926   6.214   6.815
  621SOL    HW2 2763   3.028   6.313   6.735
  622SOL     OW 2764   0.916   1.169   6.228
  622SOL    HW1 2765   0.839   1.203   6.173
  622SOL    HW2 2766   0.999   1.219   6.204
  623SOL     OW 2767   1.094   5.440   5.727
  623SOL    HW1 2768   1.118   5.367   5.792
  623SOL    HW2 2769   1.030   5.503   5.770
  624SOL     OW 2770   0.071   2.140   1.119
  624SOL    HW1 2771   0.058   2.157   1.022
  624SOL    HW2 2772   0.157   2.182   1.149
  625SOL     OW 2773   2.621   1.866   1.242
  625SOL    HW1 2774   2.573   1.814   1.171
  625SOL    HW2 2775   2.628   1.811   1.325
  626SOL     OW 2776   2.820   5.517   3.841
  626SOL    HW1 2777   2.896   5.452   3.844
  626SOL    HW2 2778   2.746   5.484   3.900
  627SOL     OW 2779   5.208   6.902   0.302
  627SOL    HW1 2780   5.295   6.912   0.254
  627SOL    HW2 2781   5.222   6.911   0.400
  628SOL     OW 2782   5.681   5.435   5.834
  628SOL    HW1 2783   5.601   5.472   5.787
  628SOL    HW2 2784   5.655   5.351   5.883
  629SOL     OW 2785   0.029   6.566   0.280
  629SOL    HW1 2786   0.018   6.643   0.343
  629SOL    HW2 2787   0.122   6.566   0.243
  630SOL     OW 2788   6.526   1.415   2.259
  630SOL    HW1 2789   6.536   1.316   2.262
  630SOL    HW2 2790   6.614   1.457   2.237
  631SOL     OW 2791   3.335   6.609   5.193
  631SOL    HW1 2792   3.326   6.568   5.103
  631SOL    HW2 2793   3.423   6.656   5.200
  632SOL     OW 2794   2.785   1.812   0.231
  632SOL    HW1 2795   2.879   1.799   0.200
  632SOL    HW2 2796   2.766   1.910   0.238
  633SOL     OW 2797   4.988   4.280   0.314
  633SOL    HW1 2798   5.050   4.352   0.344
  633SOL    HW2 2799   4.895   4.301   0.344
  634SOL     OW 2800   4.833   4.370   1.971
  634SOL    HW1 2801   4.746   4.322   1.959
  634SOL    HW2 2802   4.908   4.309   1.944
  635SOL     OW 2803   4.866   5.196   1.156
  635SOL    HW1 2804   4.800   5.233   1.091
  635SOL    HW2 2805   4.851   5.097   1.166
  636SOL     OW 2806   4.650   6.141   7.001
  636SOL    HW1 2807   4.749   6.131   7.011
  636SOL    HW2 2808   4.614   6.065   6.945
  637SOL     OW 2809   6.533   3.509   1.737
  637SOL    HW1 2810   6.457   3.551   1.687
  637SOL    HW2 2811   6.619   3.532   1.692
  638SOL     OW 2812   5.567   2.379   2.193
  638SOL    HW1 2813   5.510   2.303   2.225
  638SOL    HW2 2814   5.509   2.450   2.154
  639SOL     OW 2815   5.424   4.430   2.699
  639SOL    HW1 2816   5.436   4.331   2.711
  639SOL    HW2 2817   5.448   4.455   2.605
  640SOL     OW 2818   0.582   5.017   4.547
  640SOL    HW1 2819   0.574   4.964   4.463
  640SOL    HW2 2820   0.498   5.071   4.560
  641SOL     OW 2821   0.006   5.786   4.263
  641SOL    HW1 2822   6.986   5.803   4.176
  641SOL    HW2 2823   0.053   5.869   4.292
  642SOL     OW 2824   6.855   4.064   4.237
  642SOL    HW1 2825   6.916   3.989   4.209
  642SOL    HW2 2826   6.818   4.044   4.327
  643SOL     OW 2827   5.553   4.558   5.221
  643SOL    HW1 2828   5.568   4.610   5.305
  643SOL    HW2 2829   5.631   4.497   5.205
  644SOL     OW 2830   1.275   6.529   4.298
  644SOL    HW1 2831   1.192   6.578   4.273
  644SOL    HW2 2832   1.353   6.591   4.298
  645SOL     OW 2833   5.312   2.379   4.249
  645SOL    HW1 2834   5.341   2.362   4.155
  645SOL    HW2 2835   5.332   2.299   4.305
  646SOL     OW 2836   2.375   1.259   3.806
  646SOL    HW1 2837   2.330   1.295   3.887
  646SOL    HW2 2838   2.429   1.332   3.763
  647SOL     OW 2839   5.751   2.008   5.656
  647SOL    HW1 2840   5.809   2.020   5.736
  647SOL    HW2 2841   5.803   1.962   5.584
  648SOL     OW 2842   7.019   4.191   3.501
  648SOL    HW1 2843   7.026   4.216   3.404
  648SOL    HW2 2844   7.008   4.273   3.556
  649SOL     OW 2845   4.128   4.235   0.833
  649SOL    HW1 2846   4.050   4.294   0.853
  649SOL    HW2 2847   4.103   4.172   0.759
  650SOL     OW 2848   5.462   4.109   1.141
  650SOL    HW1 2849   5.449   4.053   1.059
  650SOL    HW2 2850   5.516   4.058   1.208
  651SOL     OW 2851   6.807   6.545   6.394
  651SOL    HW1 2852   6.805   6.638   6.432
  651SOL    HW2 2853   6.762   6.482   6.457
  652SOL     OW 2854   5.671   6.295   3.704
  652SOL    HW1 2855   5.664   6.395   3.696
  652SOL    HW2 2856   5.768   6.269   3.707
  653SOL     OW 2857   3.442   5.912   4.971
  653SOL    HW1 2858   3.451   6.007   4.999
  653SOL    HW2 2859   3.345   5.888   4.963
  654SOL     OW 2860   0.008   3.808   5.830
  654SOL    HW1 2861   6.965   3.789   5.762
  654SOL    HW2 2862   0.083   3.742   5.821
  655SOL     OW 2863   0.742   6.634   2.249
  655SOL    HW1 2864   0.823   6.668   2.297
  655SOL    HW2 2865   0.755   6.644   2.150
  656SOL     OW 2866   1.744   5.419   1.640
  656SOL    HW1 2867   1.812   5.447   1.707
  656SOL    HW2 2868   1.718   5.498   1.584
  657SOL     OW 2869   1.699   1.973   1.720
  657SOL    HW1 2870   1.636   1.919   1.664
  657SOL    HW2 2871   1.689   1.947   1.816
  658SOL     OW 2872   2.926   4.068   6.140
  658SOL    HW1 2873   3.022   4.090   6.155
  658SOL    HW2 2874   2.898   4.101   6.050
  659SOL     OW 2875   2.171   6.232   6.160
  659SOL    HW1 2876   2.157   6.143   6.115
  659SOL    HW2 2877   2.098   6.295   6.132
  660SOL     OW 2878   4.932   4.103   1.894
  660SOL    HW1 2879   4.922   4.100   1.993
  660SOL    HW2 2880   4.949   4.010   1.860
  661SOL     OW 2881   4.420   6.650   3.501
  661SOL    HW1 2882   4.448   6.746   3.515
  661SOL    HW2 2883   4.330   6.647   3.460
  662SOL     OW 2884   4.265   1.124   5.707
  662SOL    HW1 2885   4.260   1.215   5.749
  662SOL    HW2 2886   4.193   1.115   5.639
  663SOL     OW 2887   2.700   4.244   6.213
  663SOL    HW1 2888   2.632   4.227   6.141
  663SOL    HW2 2889   2.759   4.164   6.223
  664SOL     OW 2890   0.181   6.033   6.060
  664SOL    HW1 2891   0.124   6.111   6.084
  664SOL    HW2 2892   0.151   5.953   6.113
  665SOL     OW 2893   4.558   5.084   1.895
  665SOL    HW1 2894   4.582   5.130   1.809
  665SOL    HW2 2895   4.525   5.152   1.961
  666SOL     OW 2896   5.276   1.568   2.051
  666SOL    HW1 2897   5.314   1.503   1.985
  666SOL    HW2 2898   5.317   1.551   2.141
  667SOL     OW 2899   0.753   4.933   2.985
  667SOL    HW1 2900   0.694   5.006   2.950
  667SOL    HW2 2901   0.721   4.845   2.952
  668SOL     OW 2902   4.764   6.162   5.970
  668SOL    HW1 2903   4.855   6.193   5.941
  668SOL    HW2 2904   4.695   6.198   5.908
  669SOL     OW 2905   5.163   0.010   2.950
  669SOL    HW1 2906   5.166   0.034   3.047
  669SOL    HW2 2907   5.148   6.938   2.942
  670SOL     OW 2908   3.024   2.598   1.744
  670SOL    HW1 2909   3.103   2.539   1.728
  670SOL    HW2 2910   2.988   2.582   1.836
  671SOL     OW 2911   2.965   6.551   0.990
  671SOL    HW1 2912   3.042   6.607   0.960
  671SOL    HW2 2913   2.891   6.559   0.923
  672SOL     OW 2914   6.790   5.786   1.677
  672SOL    HW1 2915   6.876   5.751   1.714
  672SOL    HW2 2916   6.714   5.733   1.714
  673SOL     OW 2917   6.797   0.488   1.994
  673SOL    HW1 2918   6.820   0.478   1.897
  673SOL    HW2 2919   6.772   0.399   2.031
  674SOL     OW 2920   0.303   1.142   4.908
  674SOL    HW1 2921   0.368   1.104   4.842
  674SOL    HW2 2922   0.241   1.205   4.861
  675SOL     OW 2923   6.766   1.961   2.122
  675SOL    HW1 2924   6.726   1.914   2.201
  675SOL    HW2 2925   6.806   2.047   2.152
  676SOL     OW 2926   3.140   5.408   3.262
  676SOL    HW1 2927   3.140   5.312   3.233
  676SOL    HW2 2928   3.234   5.443   3.261
  677SOL     OW 2929   5.355   1.603   0.406
  677SOL    HW1 2930   5.370   1.620   0.308
  677SOL    HW2 2931   5.400   1.675   0.459
  678SOL     OW 2932   2.444   6.656   4.888
  678SOL    HW1 2933   2.454   6.565   4.848
  678SOL    HW2 2934   2.535   6.693   4.910
  679SOL     OW 2935   4.574   2.195   3.981
  679SOL    HW1 2936   4.566   2.147   4.068
  679SOL    HW2 2937   4.493   2.251   3.966
  680SOL     OW 2938   5.263   5.477   4.791
  680SOL    HW1 2939   5.362   5.477   4.783
  680SOL    HW2 2940   5.237   5.442   4.882
  681SOL     OW 2941   4.602   5.093   1.425
  681SOL    HW1 2942   4.521   5.056   1.470
  681SOL    HW2 2943   4.664   5.131   1.493
  682SOL     OW 2944   6.681   0.623   1.288
  682SOL    HW1 2945   6.616   0.608   1.214
  682SOL    HW2 2946   6.749   0.691   1.260
  683SOL     OW 2947   5.565   2.754   0.785
  683SOL    HW1 2948   5.563   2.691   0.863
  683SOL    HW2 2949   5.525   2.709   0.705
  684SOL     OW 2950   6.561   0.984   0.361
  684SOL    HW1 2951   6.542   1.081   0.352
  684SOL    HW2 2952   6.595   0.965   0.453
  685SOL     OW 2953   4.115   1.787   4.030
  685SOL    HW1 2954   4.031   1.734   4.039
  685SOL    HW2 2955   4.093   1.877   3.991
  686SOL     OW 2956   4.912   2.888   4.040
  686SOL    HW1 2957   4.876   2.949   4.111
  686SOL    HW2 2958   4.997   2.927   4.003
  687SOL     OW 2959   0.707   2.467   4.071
  687SOL    HW1 2960   0.784   2.478   4.008
  687SOL    HW2 2961   0.733   2.404   4.144
  688SOL     OW 2962   0.396   2.054   6.809
  688SOL    HW1 2963   0.309   2.090   6.840
  688SOL    HW2 2964   0.381   1.984   6.739
  689SOL     OW 2965   1.084   4.905   6.502
  689SOL    HW1 2966   1.003   4.877   6.449
  689SOL    HW2 2967   1.087   5.004   6.509
  690SOL     OW 2968   0.417   2.748   2.908
  690SOL    HW1 2969   0.493   2.808   2.934
  690SOL    HW2 2970   0.348   2.750   2.981
  691SOL     OW 2971   2.935   1.127   0.276
  691SOL    HW1 2972   3.007   1.101   0.211
  691SOL    HW2 2973   2.902   1.219   0.254
  692SOL     OW 2974   3.980   1.052   3.699
  692SOL    HW1 2975   3.897   1.105   3.718
  692SOL    HW2 2976   4.025   1.088   3.617
  693SOL     OW 2977   5.908   0.148   3.990
  693SOL    HW1 2978   5.824   0.096   4.000
  693SOL    HW2 2979   5.893   0.225   3.929
  694SOL     OW 2980   4.493   0.025   4.310
  694SOL    HW1 2981   4.445   6.964   4.308
  694SOL    HW2 2982   4.433   0.096   4.345
  695SOL     OW 2983   4.551   6.900   3.826
  695SOL    HW1 2984   4.481   6.832   3.849
  695SOL    HW2 2985   4.585   6.943   3.910
  696SOL     OW 2986   4.618   5.076   3.471
  696SOL    HW1 2987   4.527   5.090   3.510
  696SOL    HW2 2988   4.665   5.004   3.521
  697SOL     OW 2989   1.518   4.185   3.045
  697SOL    HW1 2990   1.615   4.183   3.067
  697SOL    HW2 2991   1.487   4.279   3.037
  698SOL     OW 2992   5.005   6.124   1.089
  698SOL    HW1 2993   5.024   6.149   0.994
  698SOL    HW2 2994   4.907   6.125   1.105
  699SOL     OW 2995   1.988   3.864   6.829
  699SOL    HW1 2996   2.050   3.802   6.781
  699SOL    HW2 2997   2.002   3.856   6.927
  700SOL     OW 2998   3.208   1.272   2.386
  700SOL    HW1 2999   3.150   1.265   2.467
  700SOL    HW2 3000   3.195   1.361   2.343
  701SOL     OW 3001   6.400   3.626   6.842
  701SOL    HW1 3002   6.405   3.599   6.938
  701SOL    HW2 3003   6.309   3.662   6.822
  702SOL     OW 3004   1.465   6.610   5.043
  702SOL    HW1 3005   1.518   6.668   4.982
  702SOL    HW2 3006   1.518   6.593   5.126
  703SOL     OW 3007   3.401   3.148   6.287
  703SOL    HW1 3008   3.410   3.087   6.208
  703SOL    HW2 3009   3.349   3.103   6.359
  704SOL     OW 3010   1.754   2.891   6.566
  704SOL    HW1 3011   1.748   2.982   6.607
  704SOL    HW2 3012   1.696   2.886   6.485
  705SOL     OW 3013   5.948   4.583   2.931
  705SOL    HW1 3014   6.021   4.515   2.942
  705SOL    HW2 3015   5.954   4.650   3.005
  706SOL     OW 3016   3.846   1.884   5.107
  706SOL    HW1 3017   3.894   1.877   5.194
  706SOL    HW2 3018   3.912   1.875   5.032
  707SOL     OW 3019   4.333   4.889   3.296
  707SOL    HW1 3020   4.264   4.960   3.304
  707SOL    HW2 3021   4.316   4.818   3.364
  708SOL     OW 3022   2.912   0.747   2.648
  708SOL    HW1 3023   2.857   0.682   2.700
  708SOL    HW2 3024   2.950   0.816   2.711
  709SOL     OW 3025   0.671   5.896   0.363
  709SOL    HW1 3026   0.646   5.808   0.403
  709SOL    HW2 3027   0.761   5.923   0.398
  710SOL     OW 3028   4.033   2.467   1.165
  710SOL    HW1 3029   4.128   2.443   1.185
  710SOL    HW2 3030   3.996   2.404   1.097
  711SOL     OW 3031   0.202   3.084   6.058
  711SOL    HW1 3032   0.266   3.156   6.086
  711SOL    HW2 3033   0.191   3.019   6.133
  712SOL     OW 3034   4.455   1.999   1.358
  712SOL    HW1 3035   4.365   1.976   1.321
  712SOL    HW2 3036   4.503   2.060   1.294
  713SOL     OW 3037   3.726   3.616   6.290
  713SOL    HW1 3038   3.634   3.639   6.321
  713SOL    HW2 3039   3.722   3.579   6.198
  714SOL     OW 3040   0.353   5.008   3.475
  714SOL    HW1 3041   0.376   5.045   3.385
  714SOL    HW2 3042   0.429   4.954   3.510
  715SOL     OW 3043   5.316   6.153   6.819
  715SOL    HW1 3044   5.341   6.057   6.808
  715SOL    HW2 3045   5.217   6.164   6.810
  716SOL     OW 3046   0.552   1.083   1.992
  716SOL    HW1 3047   0.621   1.063   2.061
  716SOL    HW2 3048   0.565   1.022   1.913
  717SOL     OW 3049   6.606   4.898   4.058
  717SOL    HW1 3050   6.565   4.826   4.114
  717SOL    HW2 3051   6.592   4.986   4.102
  718SOL     OW 3052   4.805   3.836   5.984
  718SOL    HW1 3053   4.904   3.842   5.979
  718SOL    HW2 3054   4.777   3.818   6.078
  719SOL     OW 3055   6.197   0.055   2.965
  719SOL    HW1 3056   6.223   0.080   3.058
  719SOL    HW2 3057   6.118   0.109   2.936
  720SOL     OW 3058   2.348   0.036   6.224
  720SOL    HW1 3059   2.415   0.052   6.295
  720SOL    HW2 3060   2.298   0.121   6.205
  721SOL     OW 3061   2.555   1.900   2.270
  721SOL    HW1 3062   2.647   1.930   2.245
  721SOL    HW2 3063   2.532   1.817   2.219
  722SOL     OW 3064   2.366   0.918   5.126
  722SOL    HW1 3065   2.292   0.916   5.193
  722SOL    HW2 3066   2.344   0.984   5.054
  723SOL     OW 3067   2.011   4.489   3.367
  723SOL    HW1 3068   1.975   4.422   3.302
  723SOL    HW2 3069   2.005   4.581   3.328
  724SOL     OW 3070   0.553   1.579   3.930
  724SOL    HW1 3071   0.634   1.610   3.980
  724SOL    HW2 3072   0.581   1.529   3.849
  725SOL     OW 3073   1.561   5.555   2.098
  725SOL    HW1 3074   1.482   5.576   2.155
  725SOL    HW2 3075   1.578   5.631   2.035
  726SOL     OW 3076   2.954   4.968   1.561
  726SOL    HW1 3077   2.871   5.007   1.602
  726SOL    HW2 3078   3.027   5.036   1.560
  727SOL     OW 3079   6.368   4.434   5.648
  727SOL    HW1 3080   6.293   4.499   5.660
  727SOL    HW2 3081   6.455   4.480   5.666
  728SOL     OW 3082   6.554   3.280   3.630
  728SOL    HW1 3083   6.471   3.270   3.684
  728SOL    HW2 3084   6.632   3.299   3.690
  729SOL     OW 3085   0.418   2.010   0.960
  729SOL    HW1 3086   0.496   1.952   0.986
  729SOL    HW2 3087   0.334   1.970   0.996
  730SOL     OW 3088   6.755   0.129   4.405
  730SOL    HW1 3089   6.816   0.206   4.388
  730SOL    HW2 3090   6.806   0.055   4.450
  731SOL     OW 3091   4.288   5.470   6.531
  731SOL    HW1 3092   4.189   5.458   6.540
  731SOL    HW2 3093   4.328   5.488   6.621
  732SOL     OW 3094   6.227   2.784   1.622
  732SOL    HW1 3095   6.165   2.727   1.677
  732SOL    HW2 3096   6.316   2.790   1.668
  733SOL     OW 3097   5.753   0.360   4.684
  733SOL    HW1 3098   5.828   0.302   4.651
  733SOL    HW2 3099   5.666   0.326   4.646
  734SOL     OW 3100   5.930   4.764   3.123
  734SOL    HW1 3101   6.005   4.782   3.186
  734SOL    HW2 3102   5.844   4.762   3.174
  735SOL     OW 3103   4.039   1.701   0.442
  735SOL    HW1 3104   4.116   1.669   0.498
  735SOL    HW2 3105   3.963   1.637   0.450
  736SOL     OW 3106   0.823   1.609   3.536
  736SOL    HW1 3107   0.900   1.555   3.501
  736SOL    HW2 3108   0.760   1.628   3.461
  737SOL     OW 3109   4.970   1.969   5.566
  737SOL    HW1 3110   4.944   2.041   5.630
  737SOL    HW2 3111   5.015   1.894   5.615
  738SOL     OW 3112   3.035   3.811   1.529
  738SOL    HW1 3113   3.100   3.735   1.523
  738SOL    HW2 3114   2.952   3.788   1.478
  739SOL     OW 3115   5.082   0.808   4.667
  739SOL    HW1 3116   5.062   0.862   4.749
  739SOL    HW2 3117   5.063   0.712   4.685
  740SOL     OW 3118   5.801   1.242   2.338
  740SOL    HW1 3119   5.821   1.151   2.302
  740SOL    HW2 3120   5.719   1.240   2.394
  741SOL     OW 3121   1.670   0.239   3.158
  741SOL    HW1 3122   1.624   0.288   3.084
  741SOL    HW2 3123   1.621   0.154   3.176
  742SOL     OW 3124   2.321   6.936   2.050
  742SOL    HW1 3125   2.413   6.973   2.064
  742SOL    HW2 3126   2.271   6.939   2.137
  743SOL     OW 3127   0.704   5.294   3.045
  743SOL    HW1 3128   0.651   5.217   3.080
  743SOL    HW2 3129   0.790   5.302   3.096
  744SOL     OW 3130   6.015   0.850   0.897
  744SOL    HW1 3131   6.045   0.770   0.949
  744SOL    HW2 3132   6.025   0.932   0.952
  745SOL     OW 3133   1.546   5.884   4.892
  745SOL    HW1 3134   1.533   5.982   4.909
  745SOL    HW2 3135   1.596   5.844   4.969
  746SOL     OW 3136   6.399   3.779   5.905
  746SOL    HW1 3137   6.458   3.839   5.959
  746SOL    HW2 3138   6.308   3.776   5.945
  747SOL     OW 3139   3.915   5.965   4.925
  747SOL    HW1 3140   3.997   5.923   4.887
  747SOL    HW2 3141   3.836   5.941   4.867
  748SOL     OW 3142   4.198   5.301   2.764
  748SOL    HW1 3143   4.218   5.341   2.854
  748SOL    HW2 3144   4.180   5.204   2.773
  749SOL     OW 3145   6.371   4.133   4.509
  749SOL    HW1 3146   6.338   4.060   4.450
  749SOL    HW2 3147   6.350   4.222   4.466
  750SOL     OW 3148   3.028   1.183   0.990
  750SOL    HW1 3149   3.105   1.127   0.957
  750SOL    HW2 3150   2.958   1.123   1.029
  751SOL     OW 3151   4.591   1.905   0.176
  751SOL    HW1 3152   4.537   1.989   0.181
  751SOL    HW2 3153   4.550   1.836   0.235
  752SOL     OW 3154   2.588   2.916   0.693
  752SOL    HW1 3155   2.578   2.943   0.789
  752SOL    HW2 3156   2.634   2.828   0.688
  753SOL     OW 3157   1.009   3.595   6.107
  753SOL    HW1 3158   1.018   3.660   6.183
  753SOL    HW2 3159   0.984   3.505   6.143
  754SOL     OW 3160   4.539   1.186   6.281
  754SOL    HW1 3161   4.481   1.157   6.357
  754SOL    HW2 3162   4.635   1.184   6.310
  755SOL     OW 3163   1.585   4.594   5.163
  755SOL    HW1 3164   1.560   4.647   5.244
  755SOL    HW2 3165   1.675   4.625   5.130
  756SOL     OW 3166   2.469   5.831   0.207
  756SOL    HW1 3167   2.404   5.889   0.255
  756SOL    HW2 3168   2.427   5.742   0.189
  757SOL     OW 3169   0.348   6.335   4.201
  757SOL    HW1 3170   0.328   6.246   4.240
  757SOL    HW2 3171   0.332   6.333   4.102
  758SOL     OW 3172   4.455   0.390   3.655
  758SOL    HW1 3173   4.368   0.392   3.704
  758SOL    HW2 3174   4.502   0.304   3.675
  759SOL     OW 3175   0.418   3.050   2.301
  759SOL    HW1 3176   0.399   3.126   2.240
  759SOL    HW2 3177   0.471   2.981   2.252
  760SOL     OW 3178   6.004   0.077   3.560
  760SOL    HW1 3179   6.103   0.086   3.550
  760SOL    HW2 3180   5.970   0.015   3.489
  761SOL     OW 3181   5.375   4.051   6.365
  761SOL    HW1 3182   5.277   4.063   6.355
  761SOL    HW2 3183   5.395   4.009   6.454
  762SOL     OW 3184   3.016   0.060   5.532
  762SOL    HW1 3185   2.989   0.109   5.615
  762SOL    HW2 3186   3.095   0.106   5.491
  763SOL     OW 3187   3.930   5.793   6.428
  763SOL    HW1 3188   3.878   5.866   6.474
  763SOL    HW2 3189   4.022   5.825   6.408
  764SOL     OW 3190   5.542   0.880   5.694
  764SOL    HW1 3191   5.454   0.835   5.710
  764SOL    HW2 3192   5.607   0.815   5.654
  765SOL     OW 3193   1.451   5.832   0.782
  765SOL    HW1 3194   1.376   5.868   0.838
  765SOL    HW2 3195   1.440   5.734   0.771
  766SOL     OW 3196   2.773   2.226   5.232
  766SOL    HW1 3197   2.785   2.325   5.228
  766SOL    HW2 3198   2.676   2.205   5.242
  767SOL     OW 3199   6.477   6.304   3.690
  767SOL    HW1 3200   6.556   6.345   3.645
  767SOL    HW2 3201   6.492   6.205   3.698
  768SOL     OW 3202   1.847   5.225   3.028
  768SOL    HW1 3203   1.935   5.206   3.071
  768SOL    HW2 3204   1.782   5.153   3.052
  769SOL     OW 3205   2.218   1.070   4.953
  769SOL    HW1 3206   2.126   1.109   4.953
  769SOL    HW2 3207   2.220   0.991   4.891
  770SOL     OW 3208   1.553   5.438   3.987
  770SOL    HW1 3209   1.645   5.449   4.027
  770SOL    HW2 3210   1.526   5.342   3.993
  771SOL     OW 3211   1.025   4.989   2.930
  771SOL    HW1 3212   0.938   4.952   2.962
  771SOL    HW2 3213   1.100   4.929   2.960
  772SOL     OW 3214   6.039   4.477   0.135
  772SOL    HW1 3215   6.041   4.383   0.101
  772SOL    HW2 3216   5.994   4.535   0.068
  773SOL     OW 3217   0.583   4.220   3.398
  773SOL    HW1 3218   0.650   4.238   3.327
  773SOL    HW2 3219   0.621   4.243   3.488
  774SOL     OW 3220   1.650   1.513   1.637
  774SOL    HW1 3221   1.596   1.429   1.635
  774SOL    HW2 3222   1.747   1.490   1.629
  775SOL     OW 3223   2.133   1.782   4.077
  775SOL    HW1 3224   2.175   1.784   3.986
  775SOL    HW2 3225   2.161   1.863   4.128
  776SOL     OW 3226   0.007   0.441   6.300
  776SOL    HW1 3227   6.969   0.411   6.230
  776SOL    HW2 3228   7.000   0.524   6.343
  777SOL     OW 3229   2.016   4.210   1.135
  777SOL    HW1 3230   2.096   4.261   1.105
  777SOL    HW2 3231   1.959   4.189   1.055
  778SOL     OW 3232   2.305   0.603   1.448
  778SOL    HW1 3233   2.215   0.605   1.404
  778SOL    HW2 3234   2.375   0.579   1.381
  779SOL     OW 3235   6.962   2.288   2.421
  779SOL    HW1 3236   6.968   2.362   2.487
  779SOL    HW2 3237   0.009   2.297   2.353
  780SOL     OW 3238   0.558   2.687   4.115
  780SOL    HW1 3239   0.586   2.750   4.042
  780SOL    HW2 3240   0.620   2.608   4.116
  781SOL     OW 3241   5.605   6.395   0.813
  781SOL    HW1 3242   5.526   6.455   0.824
  781SOL    HW2 3243   5.582   6.321   0.750
  782SOL     OW 3244   1.499   3.418   6.201
  782SOL    HW1 3245   1.497   3.513   6.230
  782SOL    HW2 3246   1.442   3.363   6.262
  783SOL     OW 3247   4.903   4.798   1.763
  783SOL    HW1 3248   4.921   4.700   1.761
  783SOL    HW2 3249   4.840   4.822   1.689
  784SOL     OW 3250   4.196   5.172   1.390
  784SOL    HW1 3251   4.154   5.211   1.472
  784SOL    HW2 3252   4.227   5.079   1.409
  785SOL     OW 3253   0.718   1.954   3.462
  785SOL    HW1 3254   0.810   1.924   3.435
  785SOL    HW2 3255   0.687   2.028   3.402
  786SOL     OW 3256   0.217   0.321   2.646
  786SOL    HW1 3257   0.180   0.321   2.740
  786SOL    HW2 3258   0.240   0.415   2.621
  787SOL     OW 3259   1.408   0.844   6.964
  787SOL    HW1 3260   1.477   0.787   7.009
  787SOL    HW2 3261   1.318   0.823   7.003
  788SOL     OW 3262   4.442   1.688   1.305
  788SOL    HW1 3263   4.524   1.729   1.343
  788SOL    HW2 3264   4.399   1.753   1.242
  789SOL     OW 3265   4.237   4.604   1.906
  789SOL    HW1 3266   4.330   4.578   1.933
  789SOL    HW2 3267   4.191   4.647   1.983
  790SOL     OW 3268   2.711   1.667   3.129
  790SOL    HW1 3269   2.658   1.591   3.166
  790SOL    HW2 3270   2.770   1.706   3.200
  791SOL     OW 3271   1.794   6.512   4.743
  791SOL    HW1 3272   1.846   6.595   4.762
  791SOL    HW2 3273   1.697   6.535   4.735
  792SOL     OW 3274   0.919   0.893   1.924
  792SOL    HW1 3275   0.999   0.852   1.970
  792SOL    HW2 3276   0.853   0.922   1.994
  793SOL     OW 3277   4.856   5.785   4.539
  793SOL    HW1 3278   4.841   5.739   4.451
  793SOL    HW2 3279   4.917   5.729   4.596
  794SOL     OW 3280   2.993   3.952   5.759
  794SOL    HW1 3281   2.923   3.989   5.697
  794SOL    HW2 3282   3.083   3.987   5.732
  795SOL     OW 3283   4.020   0.338   5.441
  795SOL    HW1 3284   4.022   0.394   5.524
  795SOL    HW2 3285   4.105   0.287   5.433
  796SOL     OW 3286   0.940   2.877   6.939
  796SOL    HW1 3287   0.957   2.879   0.011
  796SOL    HW2 3288   0.933   2.971   6.905
  797SOL     OW 3289   4.898   0.407   0.819
  797SOL    HW1 3290   4.845   0.373   0.742
  797SOL    HW2 3291   4.854   0.380   0.904
  798SOL     OW 3292   3.553   6.644   2.138
  798SOL    HW1 3293   3.574   6.708   2.064
  798SOL    HW2 3294   3.456   6.653   2.162
  799SOL     OW 3295   0.363   0.133   6.454
  799SOL    HW1 3296   0.282   0.092   6.412
  799SOL    HW2 3297   0.334   0.205   6.518
  800SOL     OW 3298   6.082   0.956   2.183
  800SOL    HW1 3299   6.156   0.926   2.122
  800SOL    HW2 3300   6.099   1.051   2.212
  801SOL     OW 3301   2.274   4.846   5.127
  801SOL    HW1 3302   2.188   4.897   5.137
  801SOL    HW2 3303   2.265   4.782   5.050
  802SOL     OW 3304   2.897   2.568   0.570
  802SOL    HW1 3305   2.960   2.513   0.625
  802SOL    HW2 3306   2.941   2.654   0.545
  803SOL     OW 3307   1.401   0.438   5.977
  803SOL    HW1 3308   1.330   0.369   5.990
  803SOL    HW2 3309   1.410   0.493   6.059
  804SOL     OW 3310   6.286   6.464   1.063
  804SOL    HW1 3311   6.192   6.446   1.092
  804SOL    HW2 3312   6.310   6.559   1.085
  805SOL     OW 3313   1.922   1.238   4.502
  805SOL    HW1 3314   1.903   1.145   4.470
  805SOL    HW2 3315   1.970   1.234   4.590
  806SOL     OW 3316   5.428   0.595   5.539
  806SOL    HW1 3317   5.357   0.665   5.540
  806SOL    HW2 3318   5.432   0.550   5.628
  807SOL     OW 3319   0.659   0.383   4.894
  807SOL    HW1 3320   0.654   0.384   4.794
  807SOL    HW2 3321   0.583   0.329   4.931
  808SOL     OW 3322   4.377   3.509   0.102
  808SOL    HW1 3323   4.438   3.537   0.176
  808SOL    HW2 3324   4.410   3.546   0.015
  809SOL     OW 3325   0.472   5.004   1.011
  809SOL    HW1 3326   0.552   5.035   1.063
  809SOL    HW2 3327   0.463   5.059   0.928
  810SOL     OW 3328   3.263   4.750   0.247
  810SOL    HW1 3329   3.278   4.678   0.315
  810SOL    HW2 3330   3.346   4.806   0.239
  811SOL     OW 3331   5.307   5.934   4.411
  811SOL    HW1 3332   5.328   5.884   4.495
  811SOL    HW2 3333   5.377   6.004   4.395
  812SOL     OW 3334   0.188   1.468   2.419
  812SOL    HW1 3335   0.262   1.474   2.353
  812SOL    HW2 3336   0.137   1.554   2.420
  813SOL     OW 3337   3.867   0.047   4.408
  813SOL    HW1 3338   3.964   0.032   4.390
  813SOL    HW2 3339   3.813   0.021   4.328
  814SOL     OW 3340   6.460   5.361   2.377
  814SOL    HW1 3341   6.549   5.364   2.332
  814SOL    HW2 3342   6.390   5.338   2.310
  815SOL     OW 3343   6.495   2.997   3.331
  815SOL    HW1 3344   6.459   3.083   3.297
  815SOL    HW2 3345   6.557   3.014   3.408
  816SOL     OW 3346   5.686   5.261   0.502
  816SOL    HW1 3347   5.721   5.167   0.500
  816SOL    HW2 3348   5.615   5.271   0.432
  817SOL     OW 3349   0.899   5.236   1.261
  817SOL    HW1 3350   0.854   5.254   1.349
  817SOL    HW2 3351   0.959   5.157   1.270
  818SOL     OW 3352   6.282   3.627   3.522
  818SOL    HW1 3353   6.348   3.581   3.463
  818SOL    HW2 3354   6.328   3.661   3.604
  819SOL     OW 3355   6.402   3.136   1.406
  819SOL    HW1 3356   6.446   3.226   1.409
  819SOL    HW2 3357   6.420   3.094   1.318
  820SOL     OW 3358   2.703   2.386   4.970
  820SOL    HW1 3359   2.755   2.409   5.052
  820SOL    HW2 3360   2.651   2.466   4.940
  821SOL     OW 3361   6.332   4.681   6.337
  821SOL    HW1 3362   6.316   4.585   6.313
  821SOL    HW2 3363   6.412   4.688   6.397
  822SOL     OW 3364   7.020   3.102   3.212
  822SOL    HW1 3365   7.021   3.156   3.128
  822SOL    HW2 3366   6.938   3.045   3.213
  823SOL     OW 3367   6.417   4.480   5.988
  823SOL    HW1 3368   6.468   4.564   6.009
  823SOL    HW2 3369   6.340   4.501   5.928
  824SOL     OW 3370   4.193   0.867   6.389
  824SOL    HW1 3371   4.261   0.855   6.462
  824SOL    HW2 3372   4.140   0.783   6.380
  825SOL     OW 3373   6.362   5.547   1.374
  825SOL    HW1 3374   6.398   5.634   1.341
  825SOL    HW2 3375   6.342   5.555   1.472
  826SOL     OW 3376   4.159   2.362   5.600
  826SOL    HW1 3377   4.074   2.348   5.650
  826SOL    HW2 3378   4.216   2.428   5.649
  827SOL     OW 3379   2.485   4.358   5.248
  827SOL    HW1 3380   2.442   4.289   5.306
  827SOL    HW2 3381   2.451   4.448   5.272
  828SOL     OW 3382   5.771   6.666   6.736
  828SOL    HW1 3383   5.748   6.735   6.667
  828SOL    HW2 3384   5.861   6.686   6.774
  829SOL     OW 3385   3.948   3.571   1.927
  829SOL    HW1 3386   3.917   3.476   1.915
  829SOL    HW2 3387   3.926   3.602   2.019
  830SOL     OW 3388   5.288   4.790   6.545
  830SOL    HW1 3389   5.356   4.717   6.545
  830SOL    HW2 3390   5.199   4.753   6.570
  831SOL     OW 3391   5.885   6.902   0.532
  831SOL    HW1 3392   5.919   6.827   0.474
  831SOL    HW2 3393   5.949   6.979   0.528
  832SOL     OW 3394   4.136   2.160   3.916
  832SOL    HW1 3395   4.043   2.122   3.915
  832SOL    HW2 3396   4.162   2.186   3.823
  833SOL     OW 3397   2.188   3.787   6.541
  833SOL    HW1 3398   2.151   3.696   6.525
  833SOL    HW2 3399   2.235   3.819   6.459
  834SOL     OW 3400   4.999   3.370   1.269
  834SOL    HW1 3401   4.942   3.363   1.187
  834SOL    HW2 3402   4.977   3.295   1.331
  835SOL     OW 3403   3.021   6.730   4.851
  835SOL    HW1 3404   2.974   6.667   4.790
  835SOL    HW2 3405   3.056   6.680   4.931
  836SOL     OW 3406   4.034   6.727   4.969
  836SOL    HW1 3407   3.995   6.789   4.901
  836SOL    HW2 3408   4.062   6.780   5.049
  837SOL     OW 3409   6.889   0.821   1.220
  837SOL    HW1 3410   6.854   0.909   1.252
  837SOL    HW2 3411   6.988   0.827   1.207
  838SOL     OW 3412   2.667   6.525   4.542
  838SOL    HW1 3413   2.644   6.532   4.445
  838SOL    HW2 3414   2.686   6.617   4.577
  839SOL     OW 3415   2.294   1.438   1.941
  839SOL    HW1 3416   2.384   1.401   1.917
  839SOL    HW2 3417   2.276   1.520   1.887
  840SOL     OW 3418   6.199   5.835   0.048
  840SOL    HW1 3419   6.246   5.887   7.003
  840SOL    HW2 3420   6.162   5.751   0.009
  841SOL     OW 3421   3.354   5.608   6.034
  841SOL    HW1 3422   3.344   5.585   5.937
  841SOL    HW2 3423   3.431   5.557   6.073
  842SOL     OW 3424   3.764   0.549   5.819
  842SOL    HW1 3425   3.789   0.617   5.887
  842SOL    HW2 3426   3.695   0.587   5.756
  843SOL     OW 3427   1.125   1.765   1.600
  843SOL    HW1 3428   1.191   1.822   1.649
  843SOL    HW2 3429   1.156   1.753   1.505
  844SOL     OW 3430   6.711   0.018   0.349
  844SOL    HW1 3431   6.674   0.054   0.264
  844SOL    HW2 3432   6.756   0.091   0.400
  845SOL     OW 3433   5.022   4.222   3.415
  845SOL    HW1 3434   5.063   4.205   3.325
  845SOL    HW2 3435   4.966   4.144   3.442
  846SOL     OW 3436   1.967   0.812   5.964
  846SOL    HW1 3437   2.000   0.904   5.947
  846SOL    HW2 3438   1.947   0.767   5.876
  847SOL     OW 3439   1.245   3.431   1.312
  847SOL    HW1 3440   1.189   3.496   1.365
  847SOL    HW2 3441   1.198   3.409   1.227
  848SOL     OW 3442   6.902   6.886   5.900
  848SOL    HW1 3443   6.813   6.844   5.883
  848SOL    HW2 3444   6.893   6.985   5.903
  849SOL     OW 3445   6.130   4.179   6.489
  849SOL    HW1 3446   6.100   4.206   6.398
  849SOL    HW2 3447   6.172   4.258   6.535
  850SOL     OW 3448   6.116   0.509   4.936
  850SOL    HW1 3449   6.019   0.486   4.946
  850SOL    HW2 3450   6.164   0.487   5.020
  851SOL     OW 3451   6.820   2.722   0.674
  851SOL    HW1 3452   6.768   2.652   0.723
  851SOL    HW2 3453   6.916   2.715   0.699
  852SOL     OW 3454   0.932   4.184   0.517
  852SOL    HW1 3455   0.927   4.282   0.538
  852SOL    HW2 3456   0.980   4.172   0.430
  853SOL     OW 3457   1.007   4.760   0.552
  853SOL    HW1 3458   0.973   4.825   0.620
  853SOL    HW2 3459   1.017   4.670   0.594
  854SOL     OW 3460   4.958   5.577   0.591
  854SOL    HW1 3461   4.885   5.602   0.655
  854SOL    HW2 3462   5.043   5.562   0.642
  855SOL     OW 3463   6.453   6.923   0.811
  855SOL    HW1 3464   6.456   6.826   0.836
  855SOL    HW2 3465   6.378   6.939   0.747
  856SOL     OW 3466   1.493   1.387   6.810
  856SOL    HW1 3467   1.490   1.332   6.726
  856SOL    HW2 3468   1.465   1.331   6.888
  857SOL     OW 3469   6.211   5.061   2.107
  857SOL    HW1 3470   6.199   4.981   2.048
  857SOL    HW2 3471   6.306   5.066   2.138
  858SOL     OW 3472   2.881   4.002   1.121
  858SOL    HW1 3473   2.827   4.031   1.201
  858SOL    HW2 3474   2.820   3.981   1.045
  859SOL     OW 3475   5.888   6.606   5.256
  859SOL    HW1 3476   5.914   6.522   5.305
  859SOL    HW2 3477   5.822   6.657   5.311
  860SOL     OW 3478   6.726   2.831   0.060
  860SOL    HW1 3479   6.716   2.732   0.052
  860SOL    HW2 3480   6.684   2.862   0.144
  861SOL     OW 3481   2.262   4.661   3.689
  861SOL    HW1 3482   2.162   4.657   3.686
  861SOL    HW2 3483   2.296   4.588   3.748
  862SOL     OW 3484   1.810   3.818   3.079
  862SOL    HW1 3485   1.718   3.847   3.052
  862SOL    HW2 3486   1.826   3.725   3.045
  863SOL     OW 3487   5.733   0.913   6.373
  863SOL    HW1 3488   5.656   0.971   6.348
  863SOL    HW2 3489   5.699   0.832   6.422
  864SOL     OW 3490   3.892   5.888   3.857
  864SOL    HW1 3491   3.944   5.973   3.862
  864SOL    HW2 3492   3.940   5.816   3.908
  865SOL     OW 3493   1.674   7.020   6.115
  865SOL    HW1 3494   1.627   6.994   6.030
  865SOL    HW2 3495   1.763   0.033   6.092
  866SOL     OW 3496   2.802   0.801   0.614
  866SOL    HW1 3497   2.707   0.816   0.588
  866SOL    HW2 3498   2.853   0.887   0.607
  867SOL     OW 3499   5.255   3.510   0.233
  867SOL    HW1 3500   5.267   3.419   0.272
  867SOL    HW2 3501   5.275   3.579   0.303
  868SOL     OW 3502   6.525   0.885   1.483
  868SOL    HW1 3503   6.518   0.791   1.449
  868SOL    HW2 3504   6.440   0.934   1.463
  869SOL     OW 3505   0.393   4.417   2.895
  869SOL    HW1 3506   0.433   4.445   2.982
  869SOL    HW2 3507   0.412   4.487   2.825
  870SOL     OW 3508   4.122   3.960   0.525
  870SOL    HW1 3509   4.133   3.861   0.527
  870SOL    HW2 3510   4.212   4.003   0.517
  871SOL     OW 3511   5.300   2.209   3.332
  871SOL    HW1 3512   5.377   2.248   3.282
  871SOL    HW2 3513   5.238   2.165   3.267
  872SOL     OW 3514   5.871   3.390   3.891
  872SOL    HW1 3515   5.887   3.470   3.833
  872SOL    HW2 3516   5.956   3.366   3.938
  873SOL     OW 3517   5.122   5.442   5.109
  873SOL    HW1 3518   5.028   5.407   5.118
  873SOL    HW2 3519   5.136   5.516   5.174
  874SOL     OW 3520   6.318   3.565   6.263
  874SOL    HW1 3521   6.258   3.515   6.327
  874SOL    HW2 3522   6.383   3.620   6.315
  875SOL     OW 3523   5.151   4.965   1.066
  875SOL    HW1 3524   5.211   5.008   1.134
  875SOL    HW2 3525   5.166   5.007   0.977
  876SOL     OW 3526   0.232   4.925   2.318
  876SOL    HW1 3527   0.148   4.979   2.314
  876SOL    HW2 3528   0.283   4.950   2.400
  877SOL     OW 3529   3.624   5.024   5.536
  877SOL    HW1 3530   3.722   5.039   5.521
  877SOL    HW2 3531   3.583   4.986   5.453
  878SOL     OW 3532   4.986   6.640   4.781
  878SOL    HW1 3533   4.965   6.705   4.853
  878SOL    HW2 3534   5.022   6.688   4.702
  879SOL     OW 3535   4.168   0.946   1.685
  879SOL    HW1 3536   4.139   0.921   1.777
  879SOL    HW2 3537   4.152   1.044   1.671
  880SOL     OW 3538   3.024   3.959   4.114
  880SOL    HW1 3539   3.068   3.873   4.142
  880SOL    HW2 3540   2.940   3.971   4.166
  881SOL     OW 3541   5.368   3.666   5.605
  881SOL    HW1 3542   5.451   3.702   5.647
  881SOL    HW2 3543   5.359   3.568   5.626
  882SOL     OW 3544   1.240   2.262   3.690
  882SOL    HW1 3545   1.194   2.211   3.763
  882SOL    HW2 3546   1.175   2.324   3.647
  883SOL     OW 3547   3.495   0.320   0.759
  883SOL    HW1 3548   3.425   0.294   0.826
  883SOL    HW2 3549   3.468   0.404   0.714
  884SOL     OW 3550   0.110   4.182   6.869
  884SOL    HW1 3551   0.117   4.278   6.839
  884SOL    HW2 3552   0.039   4.136   6.816
  885SOL     OW 3553   4.864   0.137   4.896
  885SOL    HW1 3554   4.959   0.121   4.924
  885SOL    HW2 3555   4.808   0.059   4.924
  886SOL     OW 3556   3.756   0.238   0.370
  886SOL    HW1 3557   3.683   0.285   0.321
  886SOL    HW2 3558   3.729   0.225   0.465
  887SOL     OW 3559   3.834   6.238   3.706
  887SOL    HW1 3560   3.763   6.178   3.745
  887SOL    HW2 3561   3.806   6.267   3.615
  888SOL     OW 3562   0.600   6.189   3.429
  888SOL    HW1 3563   0.694   6.219   3.411
  888SOL    HW2 3564   0.548   6.188   3.344
  889SOL     OW 3565   0.192   1.672   6.528
  889SOL    HW1 3566   0.236   1.695   6.614
  889SOL    HW2 3567   0.094   1.690   6.534
  890SOL     OW 3568   2.581   4.847   2.758
  890SOL    HW1 3569   2.634   4.873   2.678
  890SOL    HW2 3570   2.483   4.860   2.739
  891SOL     OW 3571   6.738   3.813   1.007
  891SOL    HW1 3572   6.648   3.801   1.049
  891SOL    HW2 3573   6.728   3.859   0.919
  892SOL     OW 3574   3.412   3.886   4.952
  892SOL    HW1 3575   3.424   3.820   4.877
  892SOL    HW2 3576   3.319   3.879   4.988
  893SOL     OW 3577   2.158   6.787   3.433
  893SOL    HW1 3578   2.086   6.755   3.372
  893SOL    HW2 3579   2.142   6.751   3.525
  894SOL     OW 3580   1.319   2.841   2.758
  894SOL    HW1 3581   1.367   2.766   2.712
  894SOL    HW2 3582   1.385   2.913   2.782
  895SOL     OW 3583   1.195   5.269   4.253
  895SOL    HW1 3584   1.224   5.253   4.347
  895SOL    HW2 3585   1.230   5.357   4.221
  896SOL     OW 3586   5.646   4.862   1.602
  896SOL    HW1 3587   5.717   4.899   1.663
  896SOL    HW2 3588   5.689   4.811   1.528
  897SOL     OW 3589   4.149   1.134   6.539
  897SOL    HW1 3590   4.181   1.105   6.629
  897SOL    HW2 3591   4.191   1.077   6.469
  898SOL     OW 3592   4.087   6.746   2.675
  898SOL    HW1 3593   4.181   6.773   2.656
  898SOL    HW2 3594   4.077   6.721   2.771
  899SOL     OW 3595   0.595   6.352   0.013
  899SOL    HW1 3596   0.547   6.351   0.100
  899SOL    HW2 3597   0.654   6.271   0.006
  900SOL     OW 3598   5.294   6.913   6.872
  900SOL    HW1 3599   5.363   6.905   6.944
  900SOL    HW2 3600   5.300   7.004   6.830
  901SOL     OW 3601   1.364   0.850   3.806
  901SOL    HW1 3602   1.305   0.791   3.751
  901SOL    HW2 3603   1.380   0.936   3.758
  902SOL     OW 3604   1.170   3.208   1.544
  902SOL    HW1 3605   1.179   3.202   1.445
  902SOL    HW2 3606   1.081   3.173   1.572
  903SOL     OW 3607   1.003   3.357   6.999
  903SOL    HW1 3608   1.070   3.313   0.032
  903SOL    HW2 3609   0.961   3.435   0.021
  904SOL     OW 3610   1.923   2.609   2.344
  904SOL    HW1 3611   1.905   2.586   2.440
  904SOL    HW2 3612   1.988   2.685   2.339
  905SOL     OW 3613   4.825   3.727   6.642
  905SOL    HW1 3614   4.794   3.822   6.644
  905SOL    HW2 3615   4.827   3.690   6.735
  906SOL     OW 3616   0.611   2.254   6.703
  906SOL    HW1 3617   0.560   2.265   6.618
  906SOL    HW2 3618   0.551   2.218   6.774
  907SOL     OW 3619   4.916   2.660   0.781
  907SOL    HW1 3620   4.980   2.725   0.741
  907SOL    HW2 3621   4.894   2.688   0.875
  908SOL     OW 3622   2.452   4.353   3.447
  908SOL    HW1 3623   2.550   4.370   3.456
  908SOL    HW2 3624   2.403   4.440   3.439
  909SOL     OW 3625   4.155   6.217   2.027
  909SOL    HW1 3626   4.083   6.159   1.990
  909SOL    HW2 3627   4.141   6.311   1.995
  910SOL     OW 3628   3.326   1.845   1.421
  910SOL    HW1 3629   3.228   1.861   1.409
  910SOL    HW2 3630   3.359   1.899   1.499
  911SOL     OW 3631   1.415   6.428   6.842
  911SOL    HW1 3632   1.380   6.339   6.874
  911SOL    HW2 3633   1.379   6.447   6.751
  912SOL     OW 3634   5.888   1.011   2.917
  912SOL    HW1 3635   5.886   1.020   2.817
  912SOL    HW2 3636   5.910   1.100   2.958
  913SOL     OW 3637   3.210   0.847   4.357
  913SOL    HW1 3638   3.202   0.751   4.333
  913SOL    HW2 3639   3.301   0.880   4.333
  914SOL     OW 3640   2.177   6.858   5.347
  914SOL    HW1 3641   2.237   6.827   5.272
  914SOL    HW2 3642   2.233   6.901   5.418
  915SOL     OW 3643   0.067   3.140   0.443
  915SOL    HW1 3644   0.035   3.060   0.494
  915SOL    HW2 3645   0.001   3.215   0.455
  916SOL     OW 3646   1.873   3.206   2.517
  916SOL    HW1 3647   1.828   3.203   2.607
  916SOL    HW2 3648   1.963   3.249   2.526
  917SOL     OW 3649   0.800   6.749   2.004
  917SOL    HW1 3650   0.873   6.805   2.044
  917SOL    HW2 3651   0.729   6.808   1.968
  918SOL     OW 3652   3.742   0.280   0.645
  918SOL    HW1 3653   3.651   0.297   0.684
  918SOL    HW2 3654   3.807   0.347   0.683
  919SOL     OW 3655   6.845   6.555   3.062
  919SOL    HW1 3656   6.912   6.517   2.999
  919SOL    HW2 3657   6.781   6.614   3.013
  920SOL     OW 3658   2.340   4.422   2.613
  920SOL    HW1 3659   2.434   4.421   2.579
  920SOL    HW2 3660   2.280   4.378   2.546
  921SOL     OW 3661   4.145   5.380   4.049
  921SOL    HW1 3662   4.046   5.387   4.040
  921SOL    HW2 3663   4.169   5.353   4.142
  922SOL     OW 3664   3.200   4.099   4.508
  922SOL    HW1 3665   3.219   4.171   4.441
  922SOL    HW2 3666   3.253   4.116   4.591
  923SOL     OW 3667   2.775   3.888   6.251
  923SOL    HW1 3668   2.768   3.903   6.350
  923SOL    HW2 3669   2.824   3.964   6.209
  924SOL     OW 3670   6.253   3.361   2.167
  924SOL    HW1 3671   6.184   3.291   2.148
  924SOL    HW2 3672   6.309   3.333   2.244
  925SOL     OW 3673   0.030   2.278   6.799
  925SOL    HW1 3674   0.080   2.322   6.873
  925SOL    HW2 3675   6.972   2.328   6.781
  926SOL     OW 3676   6.395   0.490   1.323
  926SOL    HW1 3677   6.484   0.494   1.276
  926SOL    HW2 3678   6.366   0.583   1.346
  927SOL     OW 3679   5.508   4.234   3.105
  927SOL    HW1 3680   5.544   4.321   3.073
  927SOL    HW2 3681   5.542   4.214   3.197
  928SOL     OW 3682   1.667   6.627   0.170
  928SOL    HW1 3683   1.676   6.584   0.080
  928SOL    HW2 3684   1.635   6.560   0.237
  929SOL     OW 3685   0.713   0.647   6.697
  929SOL    HW1 3686   0.646   0.611   6.632
  929SOL    HW2 3687   0.721   0.584   6.774
  930SOL     OW 3688   5.423   6.342   5.840
  930SOL    HW1 3689   5.332   6.307   5.861
  930SOL    HW2 3690   5.487   6.265   5.834
  931SOL     OW 3691   6.350   1.606   5.126
  931SOL    HW1 3692   6.369   1.521   5.077
  931SOL    HW2 3693   6.267   1.648   5.090
  932SOL     OW 3694   3.450   0.440   3.388
  932SOL    HW1 3695   3.461   0.346   3.420
  932SOL    HW2 3696   3.353   0.464   3.388
  933SOL     OW 3697   1.620   6.367   3.442
  933SOL    HW1 3698   1.645   6.324   3.529
  933SOL    HW2 3699   1.550   6.312   3.396
  934SOL     OW 3700   2.420   6.358   0.228
  934SOL    HW1 3701   2.482   6.422   0.185
  934SOL    HW2 3702   2.327   6.372   0.192
  935SOL     OW 3703   5.202   3.970   4.517
  935SOL    HW1 3704   5.163   4.024   4.591
  935SOL    HW2 3705   5.221   3.877   4.550
  936SOL     OW 3706   6.852   0.308   6.107
  936SOL    HW1 3707   6.753   0.296   6.095
  936SOL    HW2 3708   6.900   0.255   6.037
  937SOL     OW 3709   5.276   2.005   6.212
  937SOL    HW1 3710   5.376   1.998   6.211
  937SOL    HW2 3711   5.238   1.922   6.253
  938SOL     OW 3712   5.632   4.801   6.637
  938SOL    HW1 3713   5.564   4.791   6.710
  938SOL    HW2 3714   5.673   4.892   6.641
  939SOL     OW 3715   0.330   0.050   4.182
  939SOL    HW1 3716   0.350   0.144   4.158
  939SOL    HW2 3717   0.236   0.042   4.215
  940SOL     OW 3718   0.367   4.110   1.639
  940SOL    HW1 3719   0.381   4.058   1.723
  940SOL    HW2 3720   0.456   4.137   1.601
  941SOL     OW 3721   5.925   1.834   6.928
  941SOL    HW1 3722   5.969   1.920   6.955
  941SOL    HW2 3723   5.910   1.836   6.829
  942SOL     OW 3724   5.888   6.819   2.863
  942SOL    HW1 3725   5.922   6.766   2.941
  942SOL    HW2 3726   5.949   6.808   2.785
  943SOL     OW 3727   1.558   3.798   3.276
  943SOL    HW1 3728   1.477   3.754   3.316
  943SOL    HW2 3729   1.542   3.816   3.179
  944SOL     OW 3730   0.119   5.011   5.622
  944SOL    HW1 3731   0.102   5.089   5.682
  944SOL    HW2 3732   0.149   4.933   5.677
  945SOL     OW 3733   0.365   3.969   6.142
  945SOL    HW1 3734   0.373   3.915   6.226
  945SOL    HW2 3735   0.391   3.912   6.064
  946SOL     OW 3736   4.918   4.225   5.342
  946SOL    HW1 3737   4.984   4.151   5.335
  946SOL    HW2 3738   4.962   4.311   5.316
  947SOL     OW 3739   3.735   2.929   3.587
  947SOL    HW1 3740   3.659   2.921   3.523
  947SOL    HW2 3741   3.821   2.918   3.538
  948SOL     OW 3742   5.048   0.859   2.754
  948SOL    HW1 3743   5.132   0.881   2.804
  948SOL    HW2 3744   5.019   0.766   2.775
  949SOL     OW 3745   1.917   5.797   0.880
  949SOL    HW1 3746   1.832   5.817   0.929
  949SOL    HW2 3747   1.942   5.702   0.896
  950SOL     OW 3748   5.206   5.868   2.232
  950SOL    HW1 3749   5.116   5.827   2.247
  950SOL    HW2 3750   5.273   5.824   2.291
  951SOL     OW 3751   1.471   0.370   3.949
  951SOL    HW1 3752   1.519   0.286   3.975
  951SOL    HW2 3753   1.442   0.419   4.032
  952SOL     OW 3754   4.260   2.342   3.579
  952SOL    HW1 3755   4.241   2.374   3.486
  952SOL    HW2 3756   4.260   2.242   3.581
  953SOL     OW 3757   5.570   5.503   4.809
  953SOL    HW1 3758   5.627   5.430   4.771
  953SOL    HW2 3759   5.581   5.506   4.908
  954SOL     OW 3760   3.847   5.671   1.978
  954SOL    HW1 3761   3.947   5.678   1.978
  954SOL    HW2 3762   3.819   5.589   1.929
  955SOL     OW 3763   0.545   3.918   1.120
  955SOL    HW1 3764   0.512   3.916   1.026
  955SOL    HW2 3765   0.475   3.955   1.180
  956SOL     OW 3766   6.426   0.497   1.745
  956SOL    HW1 3767   6.454   0.529   1.835
  956SOL    HW2 3768   6.355   0.427   1.754
  957SOL     OW 3769   5.814   2.999   3.097
  957SOL    HW1 3770   5.851   3.025   3.008
  957SOL    HW2 3771   5.766   2.912   3.089
  958SOL     OW 3772   4.302   0.977   1.456
  958SOL    HW1 3773   4.266   0.946   1.544
  958SOL    HW2 3774   4.361   0.906   1.417
  959SOL     OW 3775   3.733   6.054   4.379
  959SOL    HW1 3776   3.751   5.983   4.311
  959SOL    HW2 3777   3.635   6.068   4.387
  960SOL     OW 3778   0.554   0.428   2.522
  960SOL    HW1 3779   0.624   0.361   2.547
  960SOL    HW2 3780   0.517   0.405   2.432
  961SOL     OW 3781   4.258   6.455   3.205
  961SOL    HW1 3782   4.194   6.455   3.128
  961SOL    HW2 3783   4.286   6.361   3.225
  962SOL     OW 3784   6.924   1.366   4.978
  962SOL    HW1 3785   7.006   1.424   4.976
  962SOL    HW2 3786   6.894   1.348   4.885
  963SOL     OW 3787   5.103   1.475   6.142
  963SOL    HW1 3788   5.199   1.503   6.147
  963SOL    HW2 3789   5.074   1.470   6.047
  964SOL     OW 3790   5.395   5.050   0.199
  964SOL    HW1 3791   5.450   5.025   0.119
  964SOL    HW2 3792   5.369   4.967   0.248
  965SOL     OW 3793   5.696   1.833   2.130
  965SOL    HW1 3794   5.715   1.759   2.065
  965SOL    HW2 3795   5.696   1.920   2.082
  966SOL     OW 3796   5.744   2.944   2.145
  966SOL    HW1 3797   5.813   2.874   2.167
  966SOL    HW2 3798   5.776   2.999   2.068
  967SOL     OW 3799   2.793   4.077   1.405
  967SOL    HW1 3800   2.792   3.986   1.448
  967SOL    HW2 3801   2.829   4.144   1.470
  968SOL     OW 3802   4.153   0.670   2.054
  968SOL    HW1 3803   4.202   0.733   2.113
  968SOL    HW2 3804   4.212   0.593   2.029
  969SOL     OW 3805   2.757   4.575   5.481
  969SOL    HW1 3806   2.767   4.488   5.433
  969SOL    HW2 3807   2.847   4.620   5.487
  970SOL     OW 3808   5.594   1.004   6.783
  970SOL    HW1 3809   5.506   1.041   6.813
  970SOL    HW2 3810   5.647   1.075   6.738
  971SOL     OW 3811   0.318   2.943   2.018
  971SOL    HW1 3812   0.231   2.905   1.988
  971SOL    HW2 3813   0.303   2.994   2.104
  972SOL     OW 3814   6.007   1.834   1.344
  972SOL    HW1 3815   6.014   1.794   1.253
  972SOL    HW2 3816   6.025   1.932   1.339
  973SOL     OW 3817   0.716   5.521   6.717
  973SOL    HW1 3818   0.745   5.453   6.649
  973SOL    HW2 3819   0.758   5.501   6.805
  974SOL     OW 3820   5.656   6.524   2.218
  974SOL    HW1 3821   5.636   6.521   2.121
  974SOL    HW2 3822   5.736   6.467   2.238
  975SOL     OW 3823   1.840   0.526   0.144
  975SOL    HW1 3824   1.748   0.492   0.129
  975SOL    HW2 3825   1.877   0.562   0.058
  976SOL     OW 3826   0.135   3.513   1.777
  976SOL    HW1 3827   0.167   3.607   1.762
  976SOL    HW2 3828   0.093   3.506   1.867
  977SOL     OW 3829   0.233   0.383   2.136
  977SOL    HW1 3830   0.137   0.356   2.143
  977SOL    HW2 3831   0.274   0.339   2.055
  978SOL     OW 3832   5.638   2.716   6.483
  978SOL    HW1 3833   5.543   2.686   6.480
  978SOL    HW2 3834   5.659   2.770   6.401
  979SOL     OW 3835   0.716   3.074   7.017
  979SOL    HW1 3836   0.776   3.104   0.064
  979SOL    HW2 3837   0.763   3.084   6.929
  980SOL     OW 3838   5.183   2.284   3.599
  980SOL    HW1 3839   5.120   2.211   3.628
  980SOL    HW2 3840   5.218   2.263   3.508
  981SOL     OW 3841   0.000   1.711   4.899
  981SOL    HW1 3842   0.073   1.647   4.872
  981SOL    HW2 3843   0.010   1.796   4.848
  982SOL     OW 3844   1.031   1.093   4.879
  982SOL    HW1 3845   1.073   1.056   4.796
  982SOL    HW2 3846   0.933   1.108   4.864
  983SOL     OW 3847   6.234   2.589   3.296
  983SOL    HW1 3848   6.272   2.664   3.350
  983SOL    HW2 3849   6.305   2.521   3.278
  984SOL     OW 3850   2.337   2.352   4.368
  984SOL    HW1 3851   2.329   2.321   4.273
  984SOL    HW2 3852   2.282   2.434   4.381
  985SOL     OW 3853   6.641   3.205   5.097
  985SOL    HW1 3854   6.636   3.282   5.160
  985SOL    HW2 3855   6.725   3.154   5.113
  986SOL     OW 3856   4.879   4.937   1.085
  986SOL    HW1 3857   4.839   4.963   0.997
  986SOL    HW2 3858   4.976   4.962   1.086
  987SOL     OW 3859   4.973   6.626   2.602
  987SOL    HW1 3860   4.998   6.529   2.591
  987SOL    HW2 3861   4.895   6.633   2.664
  988SOL     OW 3862   3.247   4.449   1.221
  988SOL    HW1 3863   3.311   4.458   1.297
  988SOL    HW2 3864   3.159   4.415   1.256
  989SOL     OW 3865   6.630   2.301   6.688
  989SOL    HW1 3866   6.553   2.363   6.676
  989SOL    HW2 3867   6.599   2.216   6.732
  990SOL     OW 3868   3.468   1.230   2.289
  990SOL    HW1 3869   3.520   1.171   2.228
  990SOL    HW2 3870   3.371   1.205   2.285
  991SOL     OW 3871   1.037   3.539   4.344
  991SOL    HW1 3872   1.025   3.470   4.415
  991SOL    HW2 3873   0.948   3.561   4.303
  992SOL     OW 3874   0.763   3.475   1.772
  992SOL    HW1 3875   0.842   3.451   1.715
  992SOL    HW2 3876   0.699   3.530   1.719
  993SOL     OW 3877   6.796   4.851   0.865
  993SOL    HW1 3878   6.858   4.926   0.888
  993SOL    HW2 3879   6.809   4.776   0.931
  994SOL     OW 3880   4.142   5.147   1.857
  994SOL    HW1 3881   4.114   5.228   1.909
  994SOL    HW2 3882   4.203   5.091   1.913
  995SOL     OW 3883   3.762   3.216   5.829
  995SOL    HW1 3884   3.682   3.249   5.779
  995SOL    HW2 3885   3.813   3.151   5.773
  996SOL     OW 3886   3.381   5.498   4.713
  996SOL    HW1 3887   3.412   5.403   4.721
  996SOL    HW2 3888   3.401   5.547   4.797
  997SOL     OW 3889   0.887   6.743   3.047
  997SOL    HW1 3890   0.816   6.793   2.998
  997SOL    HW2 3891   0.875   6.755   3.146
  998SOL     OW 3892   5.450   0.529   5.832
  998SOL    HW1 3893   5.519   0.503   5.899
  998SOL    HW2 3894   5.418   0.622   5.850
  999SOL     OW 3895   5.390   4.144   2.086
  999SOL    HW1 3896   5.312   4.161   2.026
  999SOL    HW2 3897   5.357   4.102   2.171
 1000SOL     OW 3898   3.744   1.837   1.574
 1000SOL    HW1 3899   3.807   1.760   1.579
 1000SOL    HW2 3900   3.795   1.923   1.572
 1001SOL     OW 3901   4.727   5.773   1.119
 1001SOL    HW1 3902   4.715   5.793   1.216
 1001SOL    HW2 3903   4.824   5.782   1.094
 1002SOL     OW 3904   5.768   1.876   0.873
 1002SOL    HW1 3905   5.835   1.856   0.802
 1002SOL    HW2 3906   5.786   1.819   0.953
 1003SOL     OW 3907   1.919   6.073   2.934
 1003SOL    HW1 3908   1.968   6.114   3.010
 1003SOL    HW2 3909   1.829   6.041   2.964
 1004SOL     OW 3910   0.394   0.811   1.933
 1004SOL    HW1 3911   0.373   0.905   1.962
 1004SOL    HW2 3912   0.310   0.756   1.935
 1005SOL     OW 3913   1.937   2.662   4.061
 1005SOL    HW1 3914   1.894   2.751   4.051
 1005SOL    HW2 3915   1.867   2.591   4.067
 1006SOL     OW 3916   1.218   4.445   0.359
 1006SOL    HW1 3917   1.284   4.375   0.331
 1006SOL    HW2 3918   1.241   4.478   0.451
 1007SOL     OW 3919   4.441   0.782   5.200
 1007SOL    HW1 3920   4.484   0.800   5.112
 1007SOL    HW2 3921   4.438   0.866   5.254
 1008SOL     OW 3922   0.637   2.334   6.186
 1008SOL    HW1 3923   0.721   2.334   6.132
 1008SOL    HW2 3924   0.558   2.336   6.124
 1009SOL     OW 3925   0.045   5.344   5.456
 1009SOL    HW1 3926   0.066   5.411   5.384
 1009SOL    HW2 3927   0.102   5.263   5.443
 1010SOL     OW 3928   2.541   2.331   0.761
 1010SOL    HW1 3929   2.640   2.324   0.763
 1010SOL    HW2 3930   2.509   2.372   0.847
 1011SOL     OW 3931   1.359   5.597   3.179
 1011SOL    HW1 3932   1.422   5.526   3.148
 1011SOL    HW2 3933   1.265   5.563   3.175
 1012SOL     OW 3934   0.424   6.708   2.368
 1012SOL    HW1 3935   0.475   6.793   2.350
 1012SOL    HW2 3936   0.327   6.723   2.351
 1013SOL     OW 3937   0.903   1.524   6.373
 1013SOL    HW1 3938   0.969   1.458   6.409
 1013SOL    HW2 3939   0.909   1.526   6.273
 1014SOL     OW 3940   0.430   4.290   5.858
 1014SOL    HW1 3941   0.369   4.212   5.866
 1014SOL    HW2 3942   0.385   4.363   5.805
 1015SOL     OW 3943   2.464   6.933   5.881
 1015SOL    HW1 3944   2.517   6.909   5.962
 1015SOL    HW2 3945   2.523   6.976   5.813
 1016SOL     OW 3946   4.194   3.690   0.526
 1016SOL    HW1 3947   4.237   3.637   0.600
 1016SOL    HW2 3948   4.260   3.704   0.453
 1017SOL     OW 3949   4.314   2.143   0.890
 1017SOL    HW1 3950   4.307   2.239   0.863
 1017SOL    HW2 3951   4.360   2.137   0.978
 1018SOL     OW 3952   1.255   3.944   4.233
 1018SOL    HW1 3953   1.184   3.881   4.264
 1018SOL    HW2 3954   1.223   4.038   4.246
 1019SOL     OW 3955   0.207   5.872   1.130
 1019SOL    HW1 3956   0.146   5.814   1.076
 1019SOL    HW2 3957   0.169   5.884   1.222
 1020SOL     OW 3958   6.313   1.016   1.361
 1020SOL    HW1 3959   6.236   1.080   1.372
 1020SOL    HW2 3960   6.295   0.955   1.285
 1021SOL     OW 3961   5.574   6.880   2.008
 1021SOL    HW1 3962   5.477   6.862   1.995
 1021SOL    HW2 3963   5.598   6.967   1.964
 1022SOL     OW 3964   3.050   4.623   5.386
 1022SOL    HW1 3965   3.009   4.578   5.307
 1022SOL    HW2 3966   3.091   4.554   5.446
 1023SOL     OW 3967   0.452   0.576   2.884
 1023SOL    HW1 3968   0.429   0.605   2.791
 1023SOL    HW2 3969   0.368   0.556   2.934
 1024SOL     OW 3970   0.079   2.583   3.859
 1024SOL    HW1 3971   0.093   2.543   3.768
 1024SOL    HW2 3972   7.014   2.562   3.891
 1025SOL     OW 3973   3.688   3.358   1.087
 1025SOL    HW1 3974   3.756   3.311   1.031
 1025SOL    HW2 3975   3.698   3.331   1.183
 1026SOL     OW 3976   2.530   2.834   1.699
 1026SOL    HW1 3977   2.520   2.926   1.661
 1026SOL    HW2 3978   2.627   2.812   1.708
 1027SOL     OW 3979   3.387   0.408   2.167
 1027SOL    HW1 3980   3.403   0.432   2.263
 1027SOL    HW2 3981   3.291   0.383   2.154
 1028SOL     OW 3982   1.721   6.972   2.434
 1028SOL    HW1 3983   1.818   6.993   2.447
 1028SOL    HW2 3984   1.690   6.914   2.509
 1029SOL     OW 3985   1.445   1.630   6.204
 1029SOL    HW1 3986   1.356   1.648   6.163
 1029SOL    HW2 3987   1.438   1.633   6.303
 1030SOL     OW 3988   3.549   3.496   2.003
 1030SOL    HW1 3989   3.570   3.477   2.099
 1030SOL    HW2 3990   3.453   3.521   1.994
 1031SOL     OW 3991   4.761   3.524   1.551
 1031SOL    HW1 3992   4.737   3.593   1.482
 1031SOL    HW2 3993   4.861   3.522   1.563
 1032SOL     OW 3994   0.812   0.983   5.266
 1032SOL    HW1 3995   0.823   0.906   5.203
 1032SOL    HW2 3996   0.804   0.948   5.360
 1033SOL     OW 3997   1.314   5.525   1.173
 1033SOL    HW1 3998   1.240   5.580   1.137
 1033SOL    HW2 3999   1.310   5.433   1.134
 1034SOL     OW 4000   1.597   4.914   4.588
 1034SOL    HW1 4001   1.546   4.876   4.665
 1034SOL    HW2 4002   1.625   5.007   4.609
 1035SOL     OW 4003   0.096   1.503   6.104
 1035SOL    HW1 4004   0.176   1.465   6.059
 1035SOL    HW2 4005   0.014   1.477   6.054
 1036SOL     OW 4006   4.339   0.854   2.163
 1036SOL    HW1 4007   4.412   0.923   2.167
 1036SOL    HW2 4008   4.352   0.787   2.236
 1037SOL     OW 4009   1.810   1.456   2.598
 1037SOL    HW1 4010   1.748   1.526   2.633
 1037SOL    HW2 4011   1.832   1.390   2.670
 1038SOL     OW 4012   1.654   1.087   5.399
 1038SOL    HW1 4013   1.622   1.154   5.331
 1038SOL    HW2 4014   1.693   1.136   5.477
 1039SOL     OW 4015   3.953   3.638   4.333
 1039SOL    HW1 4016   3.938   3.735   4.313
 1039SOL    HW2 4017   3.880   3.584   4.291
 1040SOL     OW 4018   4.665   0.824   2.536
 1040SOL    HW1 4019   4.732   0.898   2.538
 1040SOL    HW2 4020   4.582   0.853   2.584
 1041SOL     OW 4021   0.047   6.300   3.001
 1041SOL    HW1 4022   0.084   6.244   3.075
 1041SOL    HW2 4023   0.069   6.396   3.020
 1042SOL     OW 4024   4.011   5.481   2.650
 1042SOL    HW1 4025   4.085   5.443   2.705
 1042SOL    HW2 4026   4.050   5.534   2.574
 1043SOL     OW 4027   3.383   2.014   3.783
 1043SOL    HW1 4028   3.344   2.003   3.875
 1043SOL    HW2 4029   3.477   2.047   3.791
 1044SOL     OW 4030   5.822   4.938   2.660
 1044SOL    HW1 4031   5.740   4.989   2.685
 1044SOL    HW2 4032   5.886   4.938   2.737
 1045SOL     OW 4033   4.348   0.810   2.566
 1045SOL    HW1 4034   4.307   0.900   2.583
 1045SOL    HW2 4035   4.280   0.750   2.525
 1046SOL     OW 4036   1.682   1.222   0.289
 1046SOL    HW1 4037   1.725   1.204   0.201
 1046SOL    HW2 4038   1.753   1.233   0.359
 1047SOL     OW 4039   2.407   6.929   3.625
 1047SOL    HW1 4040   2.321   6.981   3.629
 1047SOL    HW2 4041   2.387   6.831   3.621
 1048SOL     OW 4042   3.406   6.501   2.870
 1048SOL    HW1 4043   3.487   6.541   2.912
 1048SOL    HW2 4044   3.337   6.484   2.940
 1049SOL     OW 4045   6.415   6.714   3.862
 1049SOL    HW1 4046   6.362   6.737   3.943
 1049SOL    HW2 4047   6.379   6.630   3.821
 1050SOL     OW 4048   3.687   4.872   2.628
 1050SOL    HW1 4049   3.719   4.847   2.537
 1050SOL    HW2 4050   3.611   4.937   2.621
 1051SOL     OW 4051   0.376   5.120   0.758
 1051SOL    HW1 4052   0.290   5.105   0.709
 1051SOL    HW2 4053   0.377   5.213   0.795
 1052SOL     OW 4054   4.339   1.002   5.377
 1052SOL    HW1 4055   4.370   1.038   5.465
 1052SOL    HW2 4056   4.261   1.056   5.344
 1053SOL     OW 4057   6.171   3.828   3.044
 1053SOL    HW1 4058   6.225   3.825   2.960
 1053SOL    HW2 4059   6.224   3.875   3.115
 1054SOL     OW 4060   3.098   3.312   0.901
 1054SOL    HW1 4061   3.113   3.376   0.825
 1054SOL    HW2 4062   3.139   3.349   0.984
 1055SOL     OW 4063   4.115   6.848   5.194
 1055SOL    HW1 4064   4.092   6.845   5.291
 1055SOL    HW2 4065   4.202   6.895   5.181
 1056SOL     OW 4066   2.028   3.454   0.015
 1056SOL    HW1 4067   2.097   3.470   0.086
 1056SOL    HW2 4068   2.039   3.362   7.005
 1057SOL     OW 4069   3.377   3.305   1.566
 1057SOL    HW1 4070   3.305   3.263   1.510
 1057SOL    HW2 4071   3.456   3.245   1.570
 1058SOL     OW 4072   5.461   2.786   3.401
 1058SOL    HW1 4073   5.496   2.877   3.425
 1058SOL    HW2 4074   5.397   2.756   3.472
 1059SOL     OW 4075   1.922   0.723   2.221
 1059SOL    HW1 4076   1.908   0.717   2.320
 1059SOL    HW2 4077   1.926   0.631   2.182
 1060SOL     OW 4078   0.373   4.983   4.031
 1060SOL    HW1 4079   0.333   5.028   4.111
 1060SOL    HW2 4080   0.335   4.892   4.021
 1061SOL     OW 4081   6.627   3.290   6.483
 1061SOL    HW1 4082   6.594   3.350   6.556
 1061SOL    HW2 4083   6.553   3.230   6.453
 1062SOL     OW 4084   5.529   5.214   5.904
 1062SOL    HW1 4085   5.517   5.126   5.858
 1062SOL    HW2 4086   5.442   5.263   5.907
 1063SOL     OW 4087   1.003   5.531   0.713
 1063SOL    HW1 4088   1.014   5.630   0.705
 1063SOL    HW2 4089   0.990   5.506   0.809
 1064SOL     OW 4090   1.565   4.630   3.306
 1064SOL    HW1 4091   1.601   4.703   3.363
 1064SOL    HW2 4092   1.532   4.555   3.365
 1065SOL     OW 4093   4.566   0.958   2.774
 1065SOL    HW1 4094   4.483   1.002   2.738
 1065SOL    HW2 4095   4.589   0.999   2.863
 1066SOL     OW 4096   4.723   6.563   2.774
 1066SOL    HW1 4097   4.735   6.546   2.871
 1066SOL    HW2 4098   4.628   6.546   2.748
 1067SOL     OW 4099   1.062   2.826   0.152
 1067SOL    HW1 4100   1.125   2.749   0.167
 1067SOL    HW2 4101   1.057   2.881   0.235
 1068SOL     OW 4102   6.784   4.988   1.959
 1068SOL    HW1 4103   6.869   4.946   1.992
 1068SOL    HW2 4104   6.724   5.008   2.036
 1069SOL     OW 4105   4.984   5.726   0.374
 1069SOL    HW1 4106   4.952   5.673   0.452
 1069SOL    HW2 4107   5.080   5.753   0.390
 1070SOL     OW 4108   0.968   0.191   1.522
 1070SOL    HW1 4109   1.018   0.126   1.579
 1070SOL    HW2 4110   0.973   0.282   1.562
 1071SOL     OW 4111   1.434   1.069   3.660
 1071SOL    HW1 4112   1.533   1.068   3.650
 1071SOL    HW2 4113   1.392   1.109   3.578
 1072SOL     OW 4114   2.333   1.073   1.199
 1072SOL    HW1 4115   2.250   1.036   1.156
 1072SOL    HW2 4116   2.350   1.165   1.164
 1073SOL     OW 4117   4.959   0.756   3.541
 1073SOL    HW1 4118   4.974   0.722   3.448
 1073SOL    HW2 4119   4.878   0.814   3.543
 1074SOL     OW 4120   2.429   5.174   1.687
 1074SOL    HW1 4121   2.412   5.107   1.760
 1074SOL    HW2 4122   2.416   5.266   1.723
 1075SOL     OW 4123   5.657   0.162   3.063
 1075SOL    HW1 4124   5.626   0.252   3.033
 1075SOL    HW2 4125   5.673   0.105   2.983
 1076SOL     OW 4126   0.872   2.355   5.611
 1076SOL    HW1 4127   0.967   2.358   5.581
 1076SOL    HW2 4128   0.852   2.436   5.667
 1077SOL     OW 4129   6.259   0.258   0.737
 1077SOL    HW1 4130   6.229   0.334   0.793
 1077SOL    HW2 4131   6.350   0.229   0.766
 1078SOL     OW 4132   6.847   0.797   2.373
 1078SOL    HW1 4133   6.750   0.801   2.395
 1078SOL    HW2 4134   6.887   0.888   2.383
 1079SOL     OW 4135   1.620   6.236   2.234
 1079SOL    HW1 4136   1.678   6.280   2.301
 1079SOL    HW2 4137   1.657   6.146   2.210
 1080SOL     OW 4138   2.368   5.321   3.383
 1080SOL    HW1 4139   2.305   5.347   3.310
 1080SOL    HW2 4140   2.321   5.326   3.472
 1081SOL     OW 4141   6.471   5.392   5.331
 1081SOL    HW1 4142   6.554   5.364   5.282
 1081SOL    HW2 4143   6.488   5.477   5.380
 1082SOL     OW 4144   5.553   2.185   5.586
 1082SOL    HW1 4145   5.639   2.140   5.609
 1082SOL    HW2 4146   5.537   2.260   5.651
 1083SOL     OW 4147   4.423   4.111   0.233
 1083SOL    HW1 4148   4.437   4.036   0.168
 1083SOL    HW2 4149   4.408   4.196   0.183
 1084SOL     OW 4150   6.388   6.570   6.316
 1084SOL    HW1 4151   6.439   6.564   6.401
 1084SOL    HW2 4152   6.337   6.486   6.301
 1085SOL     OW 4153   1.148   3.873   4.763
 1085SOL    HW1 4154   1.226   3.913   4.811
 1085SOL    HW2 4155   1.082   3.839   4.831
 1086SOL     OW 4156   0.257   4.180   0.230
 1086SOL    HW1 4157   0.340   4.129   0.211
 1086SOL    HW2 4158   0.241   4.246   0.156
 1087SOL     OW 4159   0.221   2.332   4.846
 1087SOL    HW1 4160   0.149   2.269   4.876
 1087SOL    HW2 4161   0.183   2.424   4.839
 1088SOL     OW 4162   6.988   3.214   2.674
 1088SOL    HW1 4163   6.994   3.214   2.574
 1088SOL    HW2 4164   6.934   3.293   2.704
 1089SOL     OW 4165   0.006   6.205   4.206
 1089SOL    HW1 4166   0.031   6.158   4.290
 1089SOL    HW2 4167   0.074   6.183   4.135
 1090SOL     OW 4168   3.109   1.765   3.168
 1090SOL    HW1 4169   3.052   1.802   3.241
 1090SOL    HW2 4170   3.179   1.833   3.143
 1091SOL     OW 4171   2.512   2.285   4.682
 1091SOL    HW1 4172   2.500   2.197   4.636
 1091SOL    HW2 4173   2.445   2.295   4.755
 1092SOL     OW 4174   1.014   4.629   0.303
 1092SOL    HW1 4175   1.015   4.687   0.384
 1092SOL    HW2 4176   1.076   4.552   0.317
 1093SOL     OW 4177   2.467   0.072   1.639
 1093SOL    HW1 4178   2.427   0.040   1.553
 1093SOL    HW2 4179   2.416   0.033   1.716
 1094SOL     OW 4180   1.079   6.811   3.316
 1094SOL    HW1 4181   0.993   6.762   3.333
 1094SOL    HW2 4182   1.106   6.860   3.399
 1095SOL     OW 4183   0.698   2.786   5.973
 1095SOL    HW1 4184   0.741   2.702   6.004
 1095SOL    HW2 4185   0.752   2.865   6.003
 1096SOL     OW 4186   3.404   4.454   1.460
 1096SOL    HW1 4187   3.477   4.386   1.454
 1096SOL    HW2 4188   3.338   4.426   1.530
 1097SOL     OW 4189   2.735   4.666   3.966
 1097SOL    HW1 4190   2.679   4.603   4.020
 1097SOL    HW2 4191   2.710   4.659   3.869
 1098SOL     OW 4192   4.569   3.327   6.913
 1098SOL    HW1 4193   4.531   3.418   6.930
 1098SOL    HW2 4194   4.538   3.294   6.824
 1099SOL     OW 4195   3.665   0.972   5.792
 1099SOL    HW1 4196   3.737   0.919   5.747
 1099SOL    HW2 4197   3.577   0.927   5.778
 1100SOL     OW 4198   3.965   2.182   4.845
 1100SOL    HW1 4199   3.897   2.143   4.783
 1100SOL    HW2 4200   3.951   2.147   4.937
 1101SOL     OW 4201   5.580   2.939   6.014
 1101SOL    HW1 4202   5.662   2.955   5.959
 1101SOL    HW2 4203   5.502   2.985   5.972
 1102SOL     OW 4204   1.114   0.721   4.853
 1102SOL    HW1 4205   1.054   0.646   4.823
 1102SOL    HW2 4206   1.125   0.716   4.952
 1103SOL     OW 4207   3.765   0.992   0.294
 1103SOL    HW1 4208   3.852   0.942   0.298
 1103SOL    HW2 4209   3.774   1.068   0.230
 1104SOL     OW 4210   2.076   3.356   4.835
 1104SOL    HW1 4211   2.043   3.315   4.920
 1104SOL    HW2 4212   2.104   3.451   4.853
 1105SOL     OW 4213   6.174   3.588   5.210
 1105SOL    HW1 4214   6.229   3.553   5.134
 1105SOL    HW2 4215   6.093   3.636   5.175
 1106SOL     OW 4216   0.421   2.746   0.563
 1106SOL    HW1 4217   0.517   2.769   0.583
 1106SOL    HW2 4218   0.418   2.683   0.485
 1107SOL     OW 4219   1.229   0.274   0.062
 1107SOL    HW1 4220   1.284   0.271   0.145
 1107SOL    HW2 4221   1.230   0.367   0.025
 1108SOL     OW 4222   3.776   6.825   5.694
 1108SOL    HW1 4223   3.816   6.747   5.742
 1108SOL    HW2 4224   3.693   6.855   5.741
 1109SOL     OW 4225   5.743   0.883   4.189
 1109SOL    HW1 4226   5.820   0.843   4.139
 1109SOL    HW2 4227   5.665   0.820   4.186
 1110SOL     OW 4228   3.991   2.202   3.112
 1110SOL    HW1 4229   4.040   2.287   3.089
 1110SOL    HW2 4230   4.053   2.124   3.101
 1111SOL     OW 4231   5.357   5.442   6.644
 1111SOL    HW1 4232   5.260   5.465   6.645
 1111SOL    HW2 4233   5.410   5.523   6.618
 1112SOL     OW 4234   5.550   1.175   2.495
 1112SOL    HW1 4235   5.521   1.117   2.419
 1112SOL    HW2 4236   5.508   1.142   2.580
 1113SOL     OW 4237   5.884   4.478   1.324
 1113SOL    HW1 4238   5.895   4.430   1.237
 1113SOL    HW2 4239   5.958   4.451   1.386
 1114SOL     OW 4240   2.665   1.236   5.813
 1114SOL    HW1 4241   2.763   1.225   5.828
 1114SOL    HW2 4242   2.629   1.158   5.762
 1115SOL     OW 4243   3.702   3.663   5.969
 1115SOL    HW1 4244   3.735   3.677   5.876
 1115SOL    HW2 4245   3.682   3.566   5.983
 1116SOL     OW 4246   4.653   6.549   6.179
 1116SOL    HW1 4247   4.561   6.540   6.218
 1116SOL    HW2 4248   4.649   6.602   6.095
 1117SOL     OW 4249   1.444   2.177   1.908
 1117SOL    HW1 4250   1.495   2.256   1.873
 1117SOL    HW2 4251   1.505   2.117   1.959
 1118SOL     OW 4252   2.277   4.643   0.654
 1118SOL    HW1 4253   2.328   4.720   0.692
 1118SOL    HW2 4254   2.317   4.557   0.688
 1119SOL     OW 4255   4.048   4.641   1.668
 1119SOL    HW1 4256   3.961   4.690   1.671
 1119SOL    HW2 4257   4.052   4.575   1.743
 1120SOL     OW 4258   5.904   6.060   0.726
 1120SOL    HW1 4259   5.974   6.090   0.791
 1120SOL    HW2 4260   5.858   6.140   0.687
 1121SOL     OW 4261   0.026   4.644   4.759
 1121SOL    HW1 4262   7.021   4.612   4.669
 1121SOL    HW2 4263   0.122   4.618   4.772
 1122SOL     OW 4264   4.928   2.423   1.706
 1122SOL    HW1 4265   4.888   2.502   1.660
 1122SOL    HW2 4266   4.872   2.342   1.687
 1123SOL     OW 4267   5.184   2.241   3.027
 1123SOL    HW1 4268   5.134   2.326   3.014
 1123SOL    HW2 4269   5.282   2.257   3.013
 1124SOL     OW 4270   6.966   3.589   5.489
 1124SOL    HW1 4271   6.945   3.533   5.570
 1124SOL    HW2 4272   6.895   3.659   5.479
 1125SOL     OW 4273   2.487   1.536   3.642
 1125SOL    HW1 4274   2.530   1.604   3.582
 1125SOL    HW2 4275   2.387   1.542   3.633
 1126SOL     OW 4276   5.732   5.801   6.503
 1126SOL    HW1 4277   5.716   5.882   6.560
 1126SOL    HW2 4278   5.669   5.728   6.531
 1127SOL     OW 4279   5.326   6.380   4.556
 1127SOL    HW1 4280   5.377   6.436   4.620
 1127SOL    HW2 4281   5.387   6.348   4.483
 1128SOL     OW 4282   6.123   1.569   3.979
 1128SOL    HW1 4283   6.137   1.490   4.039
 1128SOL    HW2 4284   6.026   1.582   3.963
 1129SOL     OW 4285   1.798   6.850   0.799
 1129SOL    HW1 4286   1.775   6.947   0.789
 1129SOL    HW2 4287   1.871   6.840   0.866
 1130SOL     OW 4288   2.259   5.142   0.850
 1130SOL    HW1 4289   2.258   5.204   0.771
 1130SOL    HW2 4290   2.171   5.145   0.896
 1131SOL     OW 4291   1.185   6.691   5.739
 1131SOL    HW1 4292   1.258   6.628   5.714
 1131SOL    HW2 4293   1.164   6.681   5.837
 1132SOL     OW 4294   5.032   0.113   2.653
 1132SOL    HW1 4295   5.052   0.114   2.555
 1132SOL    HW2 4296   5.110   0.076   2.703
 1133SOL     OW 4297   1.039   1.153   0.500
 1133SOL    HW1 4298   1.017   1.092   0.424
 1133SOL    HW2 4299   1.125   1.200   0.482
 1134SOL     OW 4300   5.046   6.531   2.157
 1134SOL    HW1 4301   5.139   6.552   2.187
 1134SOL    HW2 4302   5.012   6.452   2.208
 1135SOL     OW 4303   2.824   6.811   4.197
 1135SOL    HW1 4304   2.857   6.902   4.221
 1135SOL    HW2 4305   2.838   6.795   4.100
 1136SOL     OW 4306   4.511   4.661   3.230
 1136SOL    HW1 4307   4.568   4.581   3.249
 1136SOL    HW2 4308   4.559   4.744   3.258
 1137SOL     OW 4309   1.459   6.870   0.494
 1137SOL    HW1 4310   1.396   6.944   0.516
 1137SOL    HW2 4311   1.462   6.858   0.394
 1138SOL     OW 4312   0.363   1.013   6.257
 1138SOL    HW1 4313   0.336   1.002   6.353
 1138SOL    HW2 4314   0.333   0.933   6.205
 1139SOL     OW 4315   2.785   4.692   2.917
 1139SOL    HW1 4316   2.703   4.718   2.867
 1139SOL    HW2 4317   2.861   4.750   2.889
 1140SOL     OW 4318   2.708   1.351   2.662
 1140SOL    HW1 4319   2.672   1.318   2.749
 1140SOL    HW2 4320   2.677   1.444   2.645
 1141SOL     OW 4321   0.757   6.139   7.012
 1141SOL    HW1 4322   0.723   6.054   0.025
 1141SOL    HW2 4323   0.802   6.120   6.925
 1142SOL     OW 4324   3.290   0.327   3.786
 1142SOL    HW1 4325   3.387   0.317   3.810
 1142SOL    HW2 4326   3.273   0.420   3.754
 1143SOL     OW 4327   2.202   2.529   3.443
 1143SOL    HW1 4328   2.194   2.507   3.346
 1143SOL    HW2 4329   2.206   2.628   3.455
 1144SOL     OW 4330   6.453   4.442   3.953
 1144SOL    HW1 4331   6.510   4.367   3.918
 1144SOL    HW2 4332   6.473   4.525   3.901
 1145SOL     OW 4333   6.297   3.139   0.947
 1145SOL    HW1 4334   6.356   3.116   1.025
 1145SOL    HW2 4335   6.217   3.188   0.980
 1146SOL     OW 4336   0.031   0.825   1.993
 1146SOL    HW1 4337   6.958   0.831   2.000
 1146SOL    HW2 4338   0.061   0.734   2.020
 1147SOL     OW 4339   3.282   5.859   2.023
 1147SOL    HW1 4340   3.286   5.924   1.948
 1147SOL    HW2 4341   3.209   5.885   2.087
 1148SOL     OW 4342   4.486   6.031   0.633
 1148SOL    HW1 4343   4.473   6.130   0.638
 1148SOL    HW2 4344   4.571   6.011   0.585
 1149SOL     OW 4345   5.781   2.460   2.690
 1149SOL    HW1 4346   5.808   2.482   2.783
 1149SOL    HW2 4347   5.731   2.537   2.650
 1150SOL     OW 4348   0.819   4.181   0.197
 1150SOL    HW1 4349   0.908   4.216   0.165
 1150SOL    HW2 4350   0.782   4.118   0.129
 1151SOL     OW 4351   5.887   4.521   5.734
 1151SOL    HW1 4352   5.868   4.619   5.732
 1151SOL    HW2 4353   5.811   4.471   5.692
 1152SOL     OW 4354   4.379   5.681   6.352
 1152SOL    HW1 4355   4.312   5.753   6.370
 1152SOL    HW2 4356   4.351   5.597   6.399
 1153SOL     OW 4357   0.131   6.808   2.338
 1153SOL    HW1 4358   0.083   6.880   2.388
 1153SOL    HW2 4359   0.195   6.849   2.273
 1154SOL     OW 4360   0.150   4.270   1.207
 1154SOL    HW1 4361   0.080   4.302   1.271
 1154SOL    HW2 4362   0.226   4.335   1.205
 1155SOL     OW 4363   2.606   4.869   6.270
 1155SOL    HW1 4364   2.561   4.861   6.181
 1155SOL    HW2 4365   2.544   4.914   6.334
 1156SOL     OW 4366   4.664   1.954   5.016
 1156SOL    HW1 4367   4.661   2.050   5.044
 1156SOL    HW2 4368   4.626   1.945   4.924
 1157SOL     OW 4369   5.109   1.063   6.210
 1157SOL    HW1 4370   5.082   1.137   6.271
 1157SOL    HW2 4371   5.169   1.099   6.139
 1158SOL     OW 4372   6.755   5.308   5.205
 1158SOL    HW1 4373   6.771   5.314   5.107
 1158SOL    HW2 4374   6.718   5.218   5.228
 1159SOL     OW 4375   6.595   0.065   3.927
 1159SOL    HW1 4376   6.514   0.036   3.876
 1159SOL    HW2 4377   6.592   0.025   4.019
 1160SOL     OW 4378   5.095   4.531   1.218
 1160SOL    HW1 4379   5.176   4.473   1.211
 1160SOL    HW2 4380   5.071   4.543   1.314
 1161SOL     OW 4381   6.671   5.435   5.896
 1161SOL    HW1 4382   6.745   5.407   5.957
 1161SOL    HW2 4383   6.707   5.498   5.827
 1162SOL     OW 4384   2.408   1.799   6.569
 1162SOL    HW1 4385   2.500   1.830   6.592
 1162SOL    HW2 4386   2.350   1.803   6.651
 1163SOL     OW 4387   6.365   4.154   1.883
 1163SOL    HW1 4388   6.271   4.185   1.874
 1163SOL    HW2 4389   6.419   4.224   1.930
 1164SOL     OW 4390   5.309   2.770   3.637
 1164SOL    HW1 4391   5.232   2.706   3.633
 1164SOL    HW2 4392   5.329   2.792   3.733
 1165SOL     OW 4393   4.296   5.706   3.664
 1165SOL    HW1 4394   4.364   5.635   3.650
 1165SOL    HW2 4395   4.270   5.746   3.576
 1166SOL     OW 4396   3.136   6.422   0.627
 1166SOL    HW1 4397   3.044   6.385   0.614
 1166SOL    HW2 4398   3.181   6.432   0.538
 1167SOL     OW 4399   3.884   6.815   0.981
 1167SOL    HW1 4400   3.865   6.893   0.921
 1167SOL    HW2 4401   3.831   6.824   1.065
 1168SOL     OW 4402   5.262   2.660   1.579
 1168SOL    HW1 4403   5.331   2.729   1.557
 1168SOL    HW2 4404   5.194   2.700   1.640
 1169SOL     OW 4405   4.462   2.242   5.921
 1169SOL    HW1 4406   4.409   2.170   5.878
 1169SOL    HW2 4407   4.401   2.307   5.966
 1170SOL     OW 4408   5.165   6.870   2.640
 1170SOL    HW1 4409   5.144   6.850   2.735
 1170SOL    HW2 4410   5.154   6.788   2.585
 1171SOL     OW 4411   3.043   6.550   0.070
 1171SOL    HW1 4412   2.971   6.598   0.019
 1171SOL    HW2 4413   3.089   6.486   0.010
 1172SOL     OW 4414   3.661   4.097   0.836
 1172SOL    HW1 4415   3.690   4.144   0.920
 1172SOL    HW2 4416   3.739   4.046   0.798
 1173SOL     OW 4417   3.898   1.097   0.897
 1173SOL    HW1 4418   3.852   1.132   0.815
 1173SOL    HW2 4419   3.977   1.155   0.918
 1174SOL     OW 4420   2.574   4.389   1.607
 1174SOL    HW1 4421   2.544   4.470   1.658
 1174SOL    HW2 4422   2.620   4.418   1.523
 1175SOL     OW 4423   4.057   4.414   6.135
 1175SOL    HW1 4424   4.081   4.440   6.042
 1175SOL    HW2 4425   3.998   4.333   6.134
 1176SOL     OW 4426   5.303   3.728   0.370
 1176SOL    HW1 4427   5.401   3.719   0.392
 1176SOL    HW2 4428   5.290   3.807   0.310
 1177SOL     OW 4429   6.817   3.862   4.827
 1177SOL    HW1 4430   6.841   3.957   4.807
 1177SOL    HW2 4431   6.718   3.854   4.834
 1178SOL     OW 4432   3.354   4.056   0.871
 1178SOL    HW1 4433   3.303   3.990   0.926
 1178SOL    HW2 4434   3.451   4.049   0.894
 1179SOL     OW 4435   2.832   6.048   0.894
 1179SOL    HW1 4436   2.864   6.108   0.967
 1179SOL    HW2 4437   2.740   6.015   0.916
 1180SOL     OW 4438   2.448   5.597   4.010
 1180SOL    HW1 4439   2.483   5.543   3.934
 1180SOL    HW2 4440   2.358   5.562   4.037
 1181SOL     OW 4441   0.074   5.222   4.657
 1181SOL    HW1 4442   0.026   5.172   4.728
 1181SOL    HW2 4443   0.079   5.319   4.682
 1182SOL     OW 4444   4.901   6.152   3.986
 1182SOL    HW1 4445   4.938   6.074   4.036
 1182SOL    HW2 4446   4.902   6.233   4.045
 1183SOL     OW 4447   2.737   4.807   0.889
 1183SOL    HW1 4448   2.711   4.714   0.916
 1183SOL    HW2 4449   2.824   4.831   0.933
 1184SOL     OW 4450   6.840   1.241   5.190
 1184SOL    HW1 4451   6.883   1.277   5.107
 1184SOL    HW2 4452   6.781   1.312   5.230
 1185SOL     OW 4453   1.189   1.050   0.988
 1185SOL    HW1 4454   1.195   1.094   0.899
 1185SOL    HW2 4455   1.093   1.027   1.007
 1186SOL     OW 4456   4.708   6.210   5.533
 1186SOL    HW1 4457   4.746   6.300   5.555
 1186SOL    HW2 4458   4.714   6.195   5.434
 1187SOL     OW 4459   4.885   0.358   5.575
 1187SOL    HW1 4460   4.894   0.272   5.526
 1187SOL    HW2 4461   4.918   0.346   5.669
 1188SOL     OW 4462   3.235   6.053   6.301
 1188SOL    HW1 4463   3.213   6.144   6.266
 1188SOL    HW2 4464   3.222   5.985   6.229
 1189SOL     OW 4465   6.112   1.816   1.733
 1189SOL    HW1 4466   6.021   1.780   1.712
 1189SOL    HW2 4467   6.164   1.748   1.784
 1190SOL     OW 4468   3.435   6.095   3.664
 1190SOL    HW1 4469   3.413   6.192   3.666
 1190SOL    HW2 4470   3.475   6.072   3.575
 1191SOL     OW 4471   4.032   5.394   4.778
 1191SOL    HW1 4472   3.945   5.441   4.774
 1191SOL    HW2 4473   4.086   5.415   4.696
 1192SOL     OW 4474   5.269   4.657   2.766
 1192SOL    HW1 4475   5.340   4.589   2.748
 1192SOL    HW2 4476   5.213   4.627   2.843
 1193SOL     OW 4477   7.020   2.295   5.226
 1193SOL    HW1 4478   6.942   2.249   5.269
 1193SOL    HW2 4479   0.066   2.228   5.208
 1194SOL     OW 4480   5.980   0.207   1.205
 1194SOL    HW1 4481   5.933   0.247   1.283
 1194SOL    HW2 4482   6.067   0.254   1.190
 1195SOL     OW 4483   6.821   4.020   1.167
 1195SOL    HW1 4484   6.783   3.942   1.117
 1195SOL    HW2 4485   6.915   4.036   1.136
 1196SOL     OW 4486   6.708   4.965   3.538
 1196SOL    HW1 4487   6.802   4.952   3.569
 1196SOL    HW2 4488   6.706   4.978   3.439
 1197SOL     OW 4489   4.995   6.817   4.996
 1197SOL    HW1 4490   5.036   6.907   4.987
 1197SOL    HW2 4491   4.918   6.822   5.059
 1198SOL     OW 4492   1.684   3.181   2.779
 1198SOL    HW1 4493   1.766   3.189   2.837
 1198SOL    HW2 4494   1.653   3.272   2.753
 1199SOL     OW 4495   3.426   3.919   1.313
 1199SOL    HW1 4496   3.422   3.822   1.338
 1199SOL    HW2 4497   3.336   3.960   1.323
 1200SOL     OW 4498   3.725   4.137   4.276
 1200SOL    HW1 4499   3.791   4.189   4.331
 1200SOL    HW2 4500   3.647   4.112   4.332
 1201SOL     OW 4501   1.258   1.562   3.979
 1201SOL    HW1 4502   1.344   1.548   4.027
 1201SOL    HW2 4503   1.268   1.639   3.915
 1202SOL     OW 4504   0.470   5.437   5.006
 1202SOL    HW1 4505   0.390   5.464   5.059
 1202SOL    HW2 4506   0.525   5.517   4.985
 1203SOL     OW 4507   0.188   5.751   6.943
 1203SOL    HW1 4508   0.195   5.680   6.873
 1203SOL    HW2 4509   0.124   5.720   7.014
 1204SOL     OW 4510   4.629   1.429   1.417
 1204SOL    HW1 4511   4.727   1.423   1.438
 1204SOL    HW2 4512   4.581   1.466   1.497
 1205SOL     OW 4513   3.796   3.201   0.888
 1205SOL    HW1 4514   3.736   3.173   0.813
 1205SOL    HW2 4515   3.857   3.126   0.912
 1206SOL     OW 4516   2.769   2.494   5.221
 1206SOL    HW1 4517   2.821   2.567   5.267
 1206SOL    HW2 4518   2.672   2.516   5.225
 1207SOL     OW 4519   2.118   6.559   1.456
 1207SOL    HW1 4520   2.070   6.471   1.458
 1207SOL    HW2 4521   2.213   6.545   1.430
 1208SOL     OW 4522   3.791   3.543   1.337
 1208SOL    HW1 4523   3.808   3.641   1.329
 1208SOL    HW2 4524   3.729   3.527   1.414
 1209SOL     OW 4525   4.624   0.603   3.650
 1209SOL    HW1 4526   4.562   0.525   3.640
 1209SOL    HW2 4527   4.571   0.688   3.647
 1210SOL     OW 4528   3.756   6.835   3.295
 1210SOL    HW1 4529   3.691   6.911   3.280
 1210SOL    HW2 4530   3.742   6.798   3.386
 1211SOL     OW 4531   0.876   3.792   3.120
 1211SOL    HW1 4532   0.880   3.815   3.023
 1211SOL    HW2 4533   0.784   3.761   3.143
 1212SOL     OW 4534   5.942   0.557   6.889
 1212SOL    HW1 4535   5.960   0.653   6.866
 1212SOL    HW2 4536   5.889   0.515   6.815
 1213SOL     OW 4537   6.004   2.444   0.969
 1213SOL    HW1 4538   6.057   2.371   0.927
 1213SOL    HW2 4539   6.066   2.512   1.008
 1214SOL     OW 4540   0.880   3.559   0.108
 1214SOL    HW1 4541   0.794   3.510   0.125
 1214SOL    HW2 4542   0.860   3.644   0.058
 1215SOL     OW 4543   1.240   4.614   3.701
 1215SOL    HW1 4544   1.249   4.656   3.610
 1215SOL    HW2 4545   1.238   4.685   3.770
 1216SOL     OW 4546   5.010   7.016   0.907
 1216SOL    HW1 4547   5.079   0.045   0.860
 1216SOL    HW2 4548   4.919   0.011   0.870
 1217SOL     OW 4549   2.738   4.431   1.359
 1217SOL    HW1 4550   2.741   4.342   1.314
 1217SOL    HW2 4551   2.660   4.483   1.326
 1218SOL     OW 4552   1.232   3.382   5.099
 1218SOL    HW1 4553   1.319   3.361   5.145
 1218SOL    HW2 4554   1.177   3.440   5.159
 1219SOL     OW 4555   5.171   6.091   2.074
 1219SOL    HW1 4556   5.181   6.021   2.145
 1219SOL    HW2 4557   5.261   6.126   2.049
 1220SOL     OW 4558   0.711   4.594   3.580
 1220SOL    HW1 4559   0.721   4.631   3.672
 1220SOL    HW2 4560   0.759   4.506   3.573
 1221SOL     OW 4561   4.472   4.387   6.171
 1221SOL    HW1 4562   4.424   4.473   6.153
 1221SOL    HW2 4563   4.496   4.343   6.085
 1222SOL     OW 4564   6.754   0.660   0.209
 1222SOL    HW1 4565   6.753   0.750   0.165
 1222SOL    HW2 4566   6.830   0.606   0.173
 1223SOL     OW 4567   4.288   2.051   0.116
 1223SOL    HW1 4568   4.259   2.133   0.166
 1223SOL    HW2 4569   4.217   1.981   0.122
 1224SOL     OW 4570   3.780   5.463   0.864
 1224SOL    HW1 4571   3.789   5.423   0.955
 1224SOL    HW2 4572   3.763   5.390   0.798
 1225SOL     OW 4573   3.115   3.488   6.362
 1225SOL    HW1 4574   3.190   3.544   6.398
 1225SOL    HW2 4575   3.028   3.535   6.374
 1226SOL     OW 4576   2.188   6.150   2.057
 1226SOL    HW1 4577   2.122   6.139   1.982
 1226SOL    HW2 4578   2.140   6.149   2.144
 1227SOL     OW 4579   6.601   4.586   5.685
 1227SOL    HW1 4580   6.701   4.590   5.691
 1227SOL    HW2 4581   6.572   4.626   5.598
 1228SOL     OW 4582   3.082   2.044   6.265
 1228SOL    HW1 4583   3.170   2.052   6.219
 1228SOL    HW2 4584   3.090   1.982   6.343
 1229SOL     OW 4585   3.626   5.412   5.795
 1229SOL    HW1 4586   3.688   5.442   5.723
 1229SOL    HW2 4587   3.666   5.332   5.842
 1230SOL     OW 4588   4.711   6.535   2.423
 1230SOL    HW1 4589   4.695   6.564   2.328
 1230SOL    HW2 4590   4.809   6.532   2.442
 1231SOL     OW 4591   1.798   2.533   4.710
 1231SOL    HW1 4592   1.766   2.438   4.703
 1231SOL    HW2 4593   1.838   2.561   4.623
 1232SOL     OW 4594   0.406   1.755   5.657
 1232SOL    HW1 4595   0.347   1.676   5.640
 1232SOL    HW2 4596   0.358   1.839   5.634
 1233SOL     OW 4597   0.832   4.658   5.225
 1233SOL    HW1 4598   0.821   4.577   5.167
 1233SOL    HW2 4599   0.767   4.729   5.196
 1234SOL     OW 4600   6.431   3.353   5.799
 1234SOL    HW1 4601   6.347   3.378   5.750
 1234SOL    HW2 4602   6.440   3.410   5.881
 1235SOL     OW 4603   6.730   5.592   2.651
 1235SOL    HW1 4604   6.730   5.632   2.560
 1235SOL    HW2 4605   6.796   5.640   2.709
 1236SOL     OW 4606   4.357   1.774   0.008
 1236SOL    HW1 4607   4.396   1.861   7.002
 1236SOL    HW2 4608   4.423   1.700   7.018
 1237SOL     OW 4609   2.469   5.056   6.063
 1237SOL    HW1 4610   2.456   5.137   6.005
 1237SOL    HW2 4611   2.522   5.082   6.143
 1238SOL     OW 4612   2.307   1.121   0.476
 1238SOL    HW1 4613   2.231   1.090   0.419
 1238SOL    HW2 4614   2.377   1.050   0.480
 1239SOL     OW 4615   0.099   6.965   6.274
 1239SOL    HW1 4616   0.069   0.032   6.294
 1239SOL    HW2 4617   0.021   6.910   6.244
 1240SOL     OW 4618   5.425   6.696   1.482
 1240SOL    HW1 4619   5.365   6.764   1.440
 1240SOL    HW2 4620   5.467   6.640   1.411
 1241SOL     OW 4621   5.290   3.448   4.539
 1241SOL    HW1 4622   5.273   3.544   4.563
 1241SOL    HW2 4623   5.231   3.389   4.593
 1242SOL     OW 4624   0.297   3.679   1.587
 1242SOL    HW1 4625   0.369   3.683   1.656
 1242SOL    HW2 4626   0.276   3.583   1.567
 1243SOL     OW 4627   0.021   6.859   4.675
 1243SOL    HW1 4628   7.011   6.942   4.633
 1243SOL    HW2 4629   0.090   6.883   4.742
 1244SOL     OW 4630   6.249   0.162   4.300
 1244SOL    HW1 4631   6.335   0.195   4.260
 1244SOL    HW2 4632   6.250   0.180   4.399
 1245SOL     OW 4633   5.264   5.124   0.497
 1245SOL    HW1 4634   5.199   5.072   0.553
 1245SOL    HW2 4635   5.223   5.211   0.472
 1246SOL     OW 4636   2.414   6.250   1.595
 1246SOL    HW1 4637   2.413   6.198   1.681
 1246SOL    HW2 4638   2.402   6.347   1.615
 1247SOL     OW 4639   1.910   0.153   6.865
 1247SOL    HW1 4640   1.884   0.119   6.774
 1247SOL    HW2 4641   1.840   0.216   6.898
 1248SOL     OW 4642   2.359   0.038   4.995
 1248SOL    HW1 4643   2.412   0.065   5.076
 1248SOL    HW2 4644   2.383   0.098   4.918
 1249SOL     OW 4645   6.343   1.950   2.850
 1249SOL    HW1 4646   6.356   1.851   2.847
 1249SOL    HW2 4647   6.271   1.976   2.786
 1250SOL     OW 4648   5.868   4.958   4.316
 1250SOL    HW1 4649   5.855   5.022   4.241
 1250SOL    HW2 4650   5.925   5.000   4.386
 1251SOL     OW 4651   3.624   0.938   4.494
 1251SOL    HW1 4652   3.660   0.890   4.414
 1251SOL    HW2 4653   3.582   1.024   4.464
 1252SOL     OW 4654   4.121   3.753   5.557
 1252SOL    HW1 4655   4.129   3.659   5.524
 1252SOL    HW2 4656   4.149   3.757   5.653
 1253SOL     OW 4657   3.038   5.804   2.271
 1253SOL    HW1 4658   2.979   5.819   2.350
 1253SOL    HW2 4659   3.009   5.863   2.195
 1254SOL     OW 4660   1.301   2.119   2.529
 1254SOL    HW1 4661   1.233   2.095   2.598
 1254SOL    HW2 4662   1.268   2.197   2.476
 1255SOL     OW 4663   6.526   2.201   4.901
 1255SOL    HW1 4664   6.520   2.180   4.803
 1255SOL    HW2 4665   6.448   2.162   4.949
 1256SOL     OW 4666   6.569   6.289   3.338
 1256SOL    HW1 4667   6.489   6.330   3.294
 1256SOL    HW2 4668   6.650   6.344   3.315
 1257SOL     OW 4669   0.223   6.483   4.930
 1257SOL    HW1 4670   0.212   6.433   4.844
 1257SOL    HW2 4671   0.152   6.553   4.936
 1258SOL     OW 4672   1.570   5.539   3.422
 1258SOL    HW1 4673   1.500   5.488   3.472
 1258SOL    HW2 4674   1.549   5.637   3.425
 1259SOL     OW 4675   4.080   1.254   4.383
 1259SOL    HW1 4676   4.078   1.229   4.480
 1259SOL    HW2 4677   4.010   1.202   4.333
 1260SOL     OW 4678   1.706   1.585   0.398
 1260SOL    HW1 4679   1.684   1.680   0.374
 1260SOL    HW2 4680   1.743   1.539   0.317
 1261SOL     OW 4681   0.330   5.603   6.542
 1261SOL    HW1 4682   0.348   5.509   6.512
 1261SOL    HW2 4683   0.309   5.660   6.462
 1262SOL     OW 4684   4.858   4.416   1.491
 1262SOL    HW1 4685   4.810   4.356   1.554
 1262SOL    HW2 4686   4.804   4.499   1.475
 1263SOL     OW 4687   0.314   1.981   2.318
 1263SOL    HW1 4688   0.392   1.926   2.348
 1263SOL    HW2 4689   0.239   1.970   2.382
 1264SOL     OW 4690   6.353   4.466   0.228
 1264SOL    HW1 4691   6.420   4.435   0.295
 1264SOL    HW2 4692   6.264   4.477   0.273
 1265SOL     OW 4693   5.882   4.975   4.700
 1265SOL    HW1 4694   5.814   5.005   4.767
 1265SOL    HW2 4695   5.845   4.899   4.647
 1266SOL     OW 4696   0.740   1.209   4.339
 1266SOL    HW1 4697   0.732   1.280   4.408
 1266SOL    HW2 4698   0.734   1.250   4.248
 1267SOL     OW 4699   5.511   1.151   1.034
 1267SOL    HW1 4700   5.561   1.237   1.032
 1267SOL    HW2 4701   5.559   1.086   1.093
 1268SOL     OW 4702   2.920   2.652   6.487
 1268SOL    HW1 4703   2.926   2.733   6.429
 1268SOL    HW2 4704   2.998   2.592   6.467
 1269SOL     OW 4705   6.193   3.603   4.379
 1269SOL    HW1 4706   6.151   3.512   4.369
 1269SOL    HW2 4707   6.183   3.654   4.294
 1270SOL     OW 4708   1.539   3.910   3.002
 1270SOL    HW1 4709   1.559   4.007   2.989
 1270SOL    HW2 4710   1.468   3.882   2.937
 1271SOL     OW 4711   3.927   1.490   2.387
 1271SOL    HW1 4712   4.007   1.549   2.376
 1271SOL    HW2 4713   3.847   1.545   2.410
 1272SOL     OW 4714   5.719   4.474   6.856
 1272SOL    HW1 4715   5.777   4.402   6.816
 1272SOL    HW2 4716   5.632   4.434   6.884
 1273SOL     OW 4717   1.035   3.580   6.472
 1273SOL    HW1 4718   0.937   3.585   6.486
 1273SOL    HW2 4719   1.065   3.656   6.415
 1274SOL     OW 4720   6.538   4.379   1.663
 1274SOL    HW1 4721   6.607   4.347   1.728
 1274SOL    HW2 4722   6.581   4.438   1.595
 1275SOL     OW 4723   4.107   1.507   3.675
 1275SOL    HW1 4724   4.174   1.527   3.746
 1275SOL    HW2 4725   4.040   1.581   3.670
 1276SOL     OW 4726   6.234   5.142   4.976
 1276SOL    HW1 4727   6.220   5.211   5.046
 1276SOL    HW2 4728   6.305   5.173   4.912
 1277SOL     OW 4729   1.830   5.726   6.404
 1277SOL    HW1 4730   1.906   5.754   6.463
 1277SOL    HW2 4731   1.866   5.669   6.330
 1278SOL     OW 4732   1.067   6.894   5.352
 1278SOL    HW1 4733   1.083   6.983   5.310
 1278SOL    HW2 4734   1.110   6.823   5.297
 1279SOL     OW 4735   1.691   5.043   6.765
 1279SOL    HW1 4736   1.766   5.054   6.830
 1279SOL    HW2 4737   1.727   5.033   6.672
 1280SOL     OW 4738   4.725   0.383   4.410
 1280SOL    HW1 4739   4.790   0.355   4.340
 1280SOL    HW2 4740   4.660   0.448   4.371
 1281SOL     OW 4741   2.423   6.114   3.002
 1281SOL    HW1 4742   2.357   6.152   2.938
 1281SOL    HW2 4743   2.449   6.022   2.973
 1282SOL     OW 4744   6.456   2.152   6.451
 1282SOL    HW1 4745   6.531   2.207   6.414
 1282SOL    HW2 4746   6.479   2.121   6.543
 1283SOL     OW 4747   6.387   3.496   5.045
 1283SOL    HW1 4748   6.420   3.480   4.952
 1283SOL    HW2 4749   6.464   3.495   5.109
 1284SOL     OW 4750   4.834   1.554   1.683
 1284SOL    HW1 4751   4.853   1.486   1.613
 1284SOL    HW2 4752   4.917   1.571   1.736
 1285SOL     OW 4753   4.370   1.536   5.716
 1285SOL    HW1 4754   4.391   1.632   5.733
 1285SOL    HW2 4755   4.437   1.497   5.653
 1286SOL     OW 4756   4.115   3.505   0.933
 1286SOL    HW1 4757   4.017   3.498   0.915
 1286SOL    HW2 4758   4.137   3.459   1.019
 1287SOL     OW 4759   5.409   4.021   5.520
 1287SOL    HW1 4760   5.455   3.951   5.575
 1287SOL    HW2 4761   5.460   4.036   5.436
 1288SOL     OW 4762   3.936   3.634   6.535
 1288SOL    HW1 4763   3.859   3.627   6.473
 1288SOL    HW2 4764   3.919   3.706   6.602
 1289SOL     OW 4765   0.661   6.978   1.362
 1289SOL    HW1 4766   0.748   6.931   1.371
 1289SOL    HW2 4767   0.674   0.050   1.376
 1290SOL     OW 4768   1.076   6.626   0.659
 1290SOL    HW1 4769   1.074   6.684   0.741
 1290SOL    HW2 4770   1.083   6.684   0.578
 1291SOL     OW 4771   0.641   4.384   3.804
 1291SOL    HW1 4772   0.729   4.418   3.836
 1291SOL    HW2 4773   0.652   4.343   3.713
 1292SOL     OW 4774   0.759   5.579   2.574
 1292SOL    HW1 4775   0.687   5.648   2.568
 1292SOL    HW2 4776   0.786   5.551   2.482
 1293SOL     OW 4777   2.150   2.330   7.021
 1293SOL    HW1 4778   2.165   2.261   6.951
 1293SOL    HW2 4779   2.143   2.286   0.084
 1294SOL     OW 4780   0.460   3.357   5.747
 1294SOL    HW1 4781   0.396   3.280   5.747
 1294SOL    HW2 4782   0.509   3.360   5.834
 1295SOL     OW 4783   0.090   3.713   1.058
 1295SOL    HW1 4784   7.023   3.729   1.089
 1295SOL    HW2 4785   0.119   3.789   0.999
 1296SOL     OW 4786   3.862   6.347   5.218
 1296SOL    HW1 4787   3.920   6.429   5.219
 1296SOL    HW2 4788   3.766   6.374   5.209
 1297SOL     OW 4789   0.981   7.000   1.323
 1297SOL    HW1 4790   1.026   6.916   1.355
 1297SOL    HW2 4791   1.002   0.048   1.386
 1298SOL     OW 4792   5.192   5.465   3.356
 1298SOL    HW1 4793   5.186   5.441   3.453
 1298SOL    HW2 4794   5.099   5.476   3.319
 1299SOL     OW 4795   2.555   2.458   3.756
 1299SOL    HW1 4796   2.648   2.424   3.739
 1299SOL    HW2 4797   2.523   2.508   3.676
 1300SOL     OW 4798   1.846   2.604   0.318
 1300SOL    HW1 4799   1.809   2.636   0.230
 1300SOL    HW2 4800   1.899   2.677   0.360
 1301SOL     OW 4801   0.655   6.417   1.829
 1301SOL    HW1 4802   0.573   6.472   1.812
 1301SOL    HW2 4803   0.735   6.476   1.830
 1302SOL     OW 4804   4.775   6.751   5.167
 1302SOL    HW1 4805   4.706   6.822   5.179
 1302SOL    HW2 4806   4.735   6.662   5.188
 1303SOL     OW 4807   4.127   1.687   1.395
 1303SOL    HW1 4808   4.059   1.621   1.426
 1303SOL    HW2 4809   4.132   1.762   1.461
 1304SOL     OW 4810   1.573   0.115   0.432
 1304SOL    HW1 4811   1.665   0.154   0.439
 1304SOL    HW2 4812   1.571   0.026   0.478
 1305SOL     OW 4813   5.589   3.540   0.552
 1305SOL    HW1 4814   5.631   3.497   0.472
 1305SOL    HW2 4815   5.542   3.470   0.606
 1306SOL     OW 4816   1.375   5.957   3.960
 1306SOL    HW1 4817   1.435   5.914   4.027
 1306SOL    HW2 4818   1.362   6.053   3.984
 1307SOL     OW 4819   2.329   4.292   4.107
 1307SOL    HW1 4820   2.276   4.350   4.168
 1307SOL    HW2 4821   2.275   4.212   4.082
 1308SOL     OW 4822   6.320   0.144   6.002
 1308SOL    HW1 4823   6.273   0.088   6.070
 1308SOL    HW2 4824   6.258   0.214   5.968
 1309SOL     OW 4825   5.877   4.785   5.714
 1309SOL    HW1 4826   5.961   4.827   5.747
 1309SOL    HW2 4827   5.799   4.821   5.766
 1310SOL     OW 4828   0.175   3.636   3.434
 1310SOL    HW1 4829   0.184   3.547   3.479
 1310SOL    HW2 4830   0.108   3.692   3.483
 1311SOL     OW 4831   6.640   5.797   5.995
 1311SOL    HW1 4832   6.645   5.736   6.074
 1311SOL    HW2 4833   6.598   5.748   5.919
 1312SOL     OW 4834   1.433   6.837   0.206
 1312SOL    HW1 4835   1.515   6.784   0.186
 1312SOL    HW2 4836   1.371   6.781   0.262
 1313SOL     OW 4837   0.107   4.860   2.983
 1313SOL    HW1 4838   0.201   4.863   2.951
 1313SOL    HW2 4839   0.099   4.909   3.070
 1314SOL     OW 4840   4.049   1.595   4.773
 1314SOL    HW1 4841   4.096   1.507   4.766
 1314SOL    HW2 4842   4.071   1.651   4.692
 1315SOL     OW 4843   7.011   2.244   3.117
 1315SOL    HW1 4844   0.028   2.308   3.181
 1315SOL    HW2 4845   0.055   2.190   3.071
 1316SOL     OW 4846   3.232   0.133   5.885
 1316SOL    HW1 4847   3.238   0.160   5.981
 1316SOL    HW2 4848   3.324   0.133   5.844
 1317SOL     OW 4849   2.598   4.055   5.795
 1317SOL    HW1 4850   2.661   4.108   5.737
 1317SOL    HW2 4851   2.505   4.067   5.762
 1318SOL     OW 4852   1.000   2.637   0.993
 1318SOL    HW1 4853   1.068   2.625   1.065
 1318SOL    HW2 4854   0.929   2.566   1.001
 1319SOL     OW 4855   0.019   5.965   1.354
 1319SOL    HW1 4856   0.078   5.998   1.427
 1319SOL    HW2 4857   6.992   6.041   1.317
 1320SOL     OW 4858   3.726   4.440   6.838
 1320SOL    HW1 4859   3.750   4.518   6.780
 1320SOL    HW2 4860   3.738   4.465   6.934
 1321SOL     OW 4861   5.187   2.904   6.694
 1321SOL    HW1 4862   5.227   2.900   6.786
 1321SOL    HW2 4863   5.255   2.872   6.627
 1322SOL     OW 4864   3.797   1.867   4.097
 1322SOL    HW1 4865   3.702   1.877   4.069
 1322SOL    HW2 4866   3.822   1.770   4.097
 1323SOL     OW 4867   3.814   6.717   6.230
 1323SOL    HW1 4868   3.779   6.628   6.202
 1323SOL    HW2 4869   3.832   6.773   6.149
 1324SOL     OW 4870   0.752   3.376   6.669
 1324SOL    HW1 4871   0.806   3.292   6.660
 1324SOL    HW2 4872   0.691   3.367   6.748
 1325SOL     OW 4873   3.327   6.127   4.718
 1325SOL    HW1 4874   3.257   6.146   4.787
 1325SOL    HW2 4875   3.412   6.173   4.744
 1326SOL     OW 4876   5.120   3.550   5.103
 1326SOL    HW1 4877   5.025   3.537   5.129
 1326SOL    HW2 4878   5.175   3.566   5.186
 1327SOL     OW 4879   1.146   6.099   1.226
 1327SOL    HW1 4880   1.201   6.065   1.150
 1327SOL    HW2 4881   1.080   6.165   1.191
 1328SOL     OW 4882   2.634   3.211   0.371
 1328SOL    HW1 4883   2.666   3.117   0.366
 1328SOL    HW2 4884   2.644   3.245   0.465
 1329SOL     OW 4885   0.932   2.136   2.418
 1329SOL    HW1 4886   0.944   2.114   2.321
 1329SOL    HW2 4887   0.932   2.236   2.429
 1330SOL     OW 4888   1.546   1.063   1.299
 1330SOL    HW1 4889   1.628   1.044   1.353
 1330SOL    HW2 4890   1.572   1.100   1.210
 1331SOL     OW 4891   4.736   2.869   3.059
 1331SOL    HW1 4892   4.659   2.816   3.025
 1331SOL    HW2 4893   4.778   2.919   2.984
 1332SOL     OW 4894   2.292   6.957   0.600
 1332SOL    HW1 4895   2.311   6.905   0.683
 1332SOL    HW2 4896   2.234   0.008   0.622
 1333SOL     OW 4897   3.059   3.436   3.338
 1333SOL    HW1 4898   2.982   3.476   3.386
 1333SOL    HW2 4899   3.081   3.491   3.257
 1334SOL     OW 4900   6.466   1.617   3.575
 1334SOL    HW1 4901   6.431   1.528   3.603
 1334SOL    HW2 4902   6.458   1.682   3.650
 1335SOL     OW 4903   2.812   1.962   2.204
 1335SOL    HW1 4904   2.875   1.884   2.207
 1335SOL    HW2 4905   2.788   1.982   2.109
 1336SOL     OW 4906   2.329   1.811   5.129
 1336SOL    HW1 4907   2.247   1.783   5.079
 1336SOL    HW2 4908   2.409   1.802   5.071
 1337SOL     OW 4909   0.976   1.727   3.062
 1337SOL    HW1 4910   0.895   1.778   3.033
 1337SOL    HW2 4911   1.023   1.778   3.134
 1338SOL     OW 4912   6.921   2.956   4.648
 1338SOL    HW1 4913   6.971   2.952   4.735
 1338SOL    HW2 4914   6.903   3.052   4.624
 1339SOL     OW 4915   6.592   1.930   6.974
 1339SOL    HW1 4916   6.650   1.881   6.909
 1339SOL    HW2 4917   6.644   1.949   0.031
 1340SOL     OW 4918   5.220   1.701   2.681
 1340SOL    HW1 4919   5.232   1.720   2.778
 1340SOL    HW2 4920   5.148   1.760   2.644
 1341SOL     OW 4921   4.235   6.721   6.837
 1341SOL    HW1 4922   4.232   6.637   6.891
 1341SOL    HW2 4923   4.149   6.771   6.848
 1342SOL     OW 4924   3.289   5.760   6.372
 1342SOL    HW1 4925   3.273   5.786   6.277
 1342SOL    HW2 4926   3.285   5.842   6.430
 1343SOL     OW 4927   5.012   5.341   3.007
 1343SOL    HW1 4928   4.933   5.354   2.947
 1343SOL    HW2 4929   4.989   5.374   3.099
 1344SOL     OW 4930   0.443   6.245   4.628
 1344SOL    HW1 4931   0.469   6.172   4.691
 1344SOL    HW2 4932   0.459   6.215   4.534
 1345SOL     OW 4933   0.809   6.014   2.792
 1345SOL    HW1 4934   0.722   5.968   2.777
 1345SOL    HW2 4935   0.840   6.056   2.706
 1346SOL     OW 4936   1.872   6.357   4.532
 1346SOL    HW1 4937   1.862   6.406   4.619
 1346SOL    HW2 4938   1.781   6.328   4.501
 1347SOL     OW 4939   6.958   0.174   5.884
 1347SOL    HW1 4940   6.919   0.143   5.797
 1347SOL    HW2 4941   0.023   0.137   5.895
 1348SOL     OW 4942   6.040   6.701   4.271
 1348SOL    HW1 4943   6.002   6.789   4.300
 1348SOL    HW2 4944   6.125   6.717   4.221
 1349SOL     OW 4945   5.119   3.205   5.284
 1349SOL    HW1 4946   5.155   3.121   5.325
 1349SOL    HW2 4947   5.195   3.262   5.253
 1350SOL     OW 4948   5.005   5.136   5.531
 1350SOL    HW1 4949   4.908   5.160   5.536
 1350SOL    HW2 4950   5.048   5.152   5.620
 1351SOL     OW 4951   6.117   1.879   3.020
 1351SOL    HW1 4952   6.094   1.929   3.104
 1351SOL    HW2 4953   6.192   1.927   2.973
 1352SOL     OW 4954   6.617   5.706   4.027
 1352SOL    HW1 4955   6.621   5.636   3.956
 1352SOL    HW2 4956   6.534   5.693   4.082
 1353SOL     OW 4957   0.985   2.478   0.385
 1353SOL    HW1 4958   0.935   2.403   0.428
 1353SOL    HW2 4959   0.920   2.541   0.343
 1354SOL     OW 4960   0.319   4.536   1.544
 1354SOL    HW1 4961   0.327   4.508   1.448
 1354SOL    HW2 4962   0.287   4.459   1.599
 1355SOL     OW 4963   5.770   3.446   4.346
 1355SOL    HW1 4964   5.717   3.362   4.348
 1355SOL    HW2 4965   5.725   3.513   4.286
 1356SOL     OW 4966   3.005   3.231   2.100
 1356SOL    HW1 4967   2.937   3.282   2.046
 1356SOL    HW2 4968   3.022   3.280   2.185
 1357SOL     OW 4969   0.253   4.404   6.449
 1357SOL    HW1 4970   0.295   4.355   6.525
 1357SOL    HW2 4971   0.154   4.406   6.461
 1358SOL     OW 4972   5.224   6.682   6.232
 1358SOL    HW1 4973   5.264   6.608   6.178
 1358SOL    HW2 4974   5.248   6.670   6.328
 1359SOL     OW 4975   5.586   4.981   3.004
 1359SOL    HW1 4976   5.631   5.067   2.982
 1359SOL    HW2 4977   5.647   4.905   2.981
 1360SOL     OW 4978   2.599   4.068   0.450
 1360SOL    HW1 4979   2.680   4.112   0.489
 1360SOL    HW2 4980   2.620   4.034   0.359
 1361SOL     OW 4981   6.306   4.961   5.203
 1361SOL    HW1 4982   6.320   4.994   5.296
 1361SOL    HW2 4983   6.288   5.038   5.142
 1362SOL     OW 4984   3.885   3.938   3.589
 1362SOL    HW1 4985   3.888   3.874   3.512
 1362SOL    HW2 4986   3.800   3.990   3.586
 1363SOL     OW 4987   6.806   5.185   3.856
 1363SOL    HW1 4988   6.825   5.098   3.901
 1363SOL    HW2 4989   6.833   5.260   3.917
 1364SOL     OW 4990   5.575   4.377   1.057
 1364SOL    HW1 4991   5.624   4.331   1.131
 1364SOL    HW2 4992   5.532   4.309   0.997
 1365SOL     OW 4993   0.334   4.148   6.584
 1365SOL    HW1 4994   0.434   4.138   6.586
 1365SOL    HW2 4995   0.293   4.059   6.564
 1366SOL     OW 4996   1.524   5.726   0.227
 1366SOL    HW1 4997   1.514   5.815   0.182
 1366SOL    HW2 4998   1.616   5.690   0.211
 1367SOL     OW 4999   2.279   0.372   3.422
 1367SOL    HW1 5000   2.292   0.273   3.425
 1367SOL    HW2 5001   2.355   0.417   3.470
 1368SOL     OW 5002   5.940   0.414   3.872
 1368SOL    HW1 5003   5.906   0.401   3.779
 1368SOL    HW2 5004   6.026   0.466   3.870
 1369SOL     OW 5005   1.885   6.391   2.215
 1369SOL    HW1 5006   1.969   6.440   2.237
 1369SOL    HW2 5007   1.893   6.296   2.245
 1370SOL     OW 5008   3.544   1.256   0.732
 1370SOL    HW1 5009   3.453   1.281   0.697
 1370SOL    HW2 5010   3.544   1.266   0.832
 1371SOL     OW 5011   5.356   1.345   4.078
 1371SOL    HW1 5012   5.307   1.417   4.028
 1371SOL    HW2 5013   5.363   1.264   4.021
 1372SOL     OW 5014   0.849   3.217   1.022
 1372SOL    HW1 5015   0.792   3.298   1.032
 1372SOL    HW2 5016   0.894   3.218   0.933
 1373SOL     OW 5017   6.040   4.084   6.730
 1373SOL    HW1 5018   6.110   4.092   6.801
 1373SOL    HW2 5019   6.082   4.091   6.640
 1374SOL     OW 5020   4.638   2.548   0.376
 1374SOL    HW1 5021   4.692   2.465   0.390
 1374SOL    HW2 5022   4.543   2.531   0.401
 1375SOL     OW 5023   0.037   4.765   6.190
 1375SOL    HW1 5024   0.014   4.676   6.151
 1375SOL    HW2 5025   0.114   4.756   6.253
 1376SOL     OW 5026   4.974   3.557   3.659
 1376SOL    HW1 5027   5.042   3.504   3.708
 1376SOL    HW2 5028   4.978   3.534   3.562
 1377SOL     OW 5029   6.705   4.022   5.115
 1377SOL    HW1 5030   6.720   4.084   5.038
 1377SOL    HW2 5031   6.791   3.979   5.141
 1378SOL     OW 5032   6.409   1.592   4.837
 1378SOL    HW1 5033   6.427   1.633   4.748
 1378SOL    HW2 5034   6.494   1.585   4.889
 1379SOL     OW 5035   3.650   0.265   2.173
 1379SOL    HW1 5036   3.618   0.174   2.202
 1379SOL    HW2 5037   3.572   0.327   2.167
 1380SOL     OW 5038   0.365   7.000   2.276
 1380SOL    HW1 5039   0.389   0.062   2.316
 1380SOL    HW2 5040   0.448   6.953   2.245
 1381SOL     OW 5041   5.608   2.731   0.126
 1381SOL    HW1 5042   5.580   2.656   0.065
 1381SOL    HW2 5043   5.527   2.785   0.150
 1382SOL     OW 5044   5.393   4.380   0.285
 1382SOL    HW1 5045   5.457   4.310   0.316
 1382SOL    HW2 5046   5.353   4.426   0.364
 1383SOL     OW 5047   0.547   0.726   0.686
 1383SOL    HW1 5048   0.460   0.748   0.730
 1383SOL    HW2 5049   0.537   0.642   0.632
 1384SOL     OW 5050   3.745   1.025   2.640
 1384SOL    HW1 5051   3.841   1.007   2.661
 1384SOL    HW2 5052   3.738   1.066   2.549
 1385SOL     OW 5053   0.602   3.043   2.762
 1385SOL    HW1 5054   0.509   3.060   2.730
 1385SOL    HW2 5055   0.665   3.043   2.684
 1386SOL     OW 5056   2.547   1.763   4.580
 1386SOL    HW1 5057   2.623   1.779   4.643
 1386SOL    HW2 5058   2.466   1.813   4.612
 1387SOL     OW 5059   3.826   0.180   3.524
 1387SOL    HW1 5060   3.800   0.254   3.463
 1387SOL    HW2 5061   3.746   0.124   3.545
 1388SOL     OW 5062   0.090   6.667   3.979
 1388SOL    HW1 5063   0.076   6.699   4.073
 1388SOL    HW2 5064   0.186   6.678   3.954
 1389SOL     OW 5065   0.755   1.101   3.432
 1389SOL    HW1 5066   0.738   1.126   3.336
 1389SOL    HW2 5067   0.844   1.137   3.460
 1390SOL     OW 5068   4.705   1.368   6.778
 1390SOL    HW1 5069   4.706   1.383   6.679
 1390SOL    HW2 5070   4.766   1.292   6.801
 1391SOL     OW 5071   6.096   1.318   5.551
 1391SOL    HW1 5072   6.024   1.283   5.492
 1391SOL    HW2 5073   6.129   1.406   5.516
 1392SOL     OW 5074   5.418   5.095   5.247
 1392SOL    HW1 5075   5.437   5.165   5.316
 1392SOL    HW2 5076   5.483   5.020   5.256
 1393SOL     OW 5077   5.798   3.043   6.419
 1393SOL    HW1 5078   5.752   3.131   6.434
 1393SOL    HW2 5079   5.830   3.007   6.506
 1394SOL     OW 5080   4.158   6.833   3.596
 1394SOL    HW1 5081   4.242   6.885   3.586
 1394SOL    HW2 5082   4.151   6.765   3.523
 1395SOL     OW 5083   0.609   4.233   2.732
 1395SOL    HW1 5084   0.654   4.243   2.821
 1395SOL    HW2 5085   0.510   4.231   2.744
 1396SOL     OW 5086   1.589   0.031   3.842
 1396SOL    HW1 5087   1.687   0.043   3.859
 1396SOL    HW2 5088   1.573   0.032   3.744
 1397SOL     OW 5089   0.414   6.429   5.093
 1397SOL    HW1 5090   0.409   6.330   5.098
 1397SOL    HW2 5091   0.341   6.464   5.035
 1398SOL     OW 5092   1.329   1.486   0.868
 1398SOL    HW1 5093   1.419   1.530   0.872
 1398SOL    HW2 5094   1.277   1.526   0.792
 1399SOL     OW 5095   4.104   0.795   0.555
 1399SOL    HW1 5096   4.061   0.709   0.527
 1399SOL    HW2 5097   4.064   0.825   0.641
 1400SOL     OW 5098   6.561   0.824   4.344
 1400SOL    HW1 5099   6.607   0.738   4.325
 1400SOL    HW2 5100   6.463   0.815   4.323
 1401SOL     OW 5101   5.925   6.929   4.352
 1401SOL    HW1 5102   5.941   7.004   4.416
 1401SOL    HW2 5103   5.976   6.947   4.268
 1402SOL     OW 5104   6.393   4.260   0.032
 1402SOL    HW1 5105   6.488   4.234   0.015
 1402SOL    HW2 5106   6.387   4.360   0.040
 1403SOL     OW 5107   2.257   3.108   0.216
 1403SOL    HW1 5108   2.274   3.091   0.119
 1403SOL    HW2 5109   2.306   3.190   0.244
 1404SOL     OW 5110   4.528   0.161   1.187
 1404SOL    HW1 5111   4.531   0.142   1.089
 1404SOL    HW2 5112   4.438   0.199   1.210
 1405SOL     OW 5113   1.819   3.475   0.977
 1405SOL    HW1 5114   1.756   3.512   0.909
 1405SOL    HW2 5115   1.850   3.385   0.947
 1406SOL     OW 5116   1.750   4.316   1.856
 1406SOL    HW1 5117   1.653   4.311   1.878
 1406SOL    HW2 5118   1.790   4.225   1.856
 1407SOL     OW 5119   1.320   3.291   2.611
 1407SOL    HW1 5120   1.368   3.224   2.554
 1407SOL    HW2 5121   1.257   3.344   2.555
 1408SOL     OW 5122   6.197   6.569   6.829
 1408SOL    HW1 5123   6.201   6.641   6.761
 1408SOL    HW2 5124   6.137   6.596   6.904
 1409SOL     OW 5125   0.024   0.569   5.967
 1409SOL    HW1 5126   0.073   0.537   5.885
 1409SOL    HW2 5127   7.009   0.492   6.013
 1410SOL     OW 5128   2.635   3.453   6.363
 1410SOL    HW1 5129   2.684   3.427   6.280
 1410SOL    HW2 5130   2.684   3.528   6.409
 1411SOL     OW 5131   3.442   6.206   6.783
 1411SOL    HW1 5132   3.394   6.211   6.870
 1411SOL    HW2 5133   3.378   6.228   6.709
 1412SOL     OW 5134   0.636   3.669   0.922
 1412SOL    HW1 5135   0.690   3.728   0.983
 1412SOL    HW2 5136   0.640   3.705   0.829
 1413SOL     OW 5137   1.654   1.689   4.574
 1413SOL    HW1 5138   1.599   1.768   4.601
 1413SOL    HW2 5139   1.727   1.719   4.512
 1414SOL     OW 5140   1.410   3.019   1.777
 1414SOL    HW1 5141   1.402   3.111   1.737
 1414SOL    HW2 5142   1.382   2.951   1.709
 1415SOL     OW 5143   2.615   2.078   4.468
 1415SOL    HW1 5144   2.674   2.015   4.518
 1415SOL    HW2 5145   2.671   2.146   4.422
 1416SOL     OW 5146   4.676   1.211   5.043
 1416SOL    HW1 5147   4.671   1.111   5.036
 1416SOL    HW2 5148   4.761   1.237   5.089
 1417SOL     OW 5149   3.636   3.390   5.987
 1417SOL    HW1 5150   3.684   3.315   5.942
 1417SOL    HW2 5151   3.540   3.366   5.999
 1418SOL     OW 5152   3.491   3.931   0.668
 1418SOL    HW1 5153   3.576   3.980   0.687
 1418SOL    HW2 5154   3.416   3.970   0.722
 1419SOL     OW 5155   1.744   4.974   4.349
 1419SOL    HW1 5156   1.681   4.935   4.416
 1419SOL    HW2 5157   1.781   4.901   4.292
 1420SOL     OW 5158   4.052   4.865   3.150
 1420SOL    HW1 5159   3.993   4.877   3.230
 1420SOL    HW2 5160   4.102   4.780   3.159
 1421SOL     OW 5161   1.178   4.198   4.278
 1421SOL    HW1 5162   1.227   4.246   4.351
 1421SOL    HW2 5163   1.140   4.265   4.214
 1422SOL     OW 5164   2.582   4.900   5.859
 1422SOL    HW1 5165   2.544   4.947   5.938
 1422SOL    HW2 5166   2.535   4.813   5.846
 1423SOL     OW 5167   4.158   2.214   4.656
 1423SOL    HW1 5168   4.125   2.236   4.565
 1423SOL    HW2 5169   4.081   2.194   4.716
 1424SOL     OW 5170   6.259   3.816   6.592
 1424SOL    HW1 5171   6.315   3.746   6.547
 1424SOL    HW2 5172   6.313   3.899   6.606
 1425SOL     OW 5173   2.513   6.139   4.854
 1425SOL    HW1 5174   2.524   6.223   4.802
 1425SOL    HW2 5175   2.602   6.108   4.888
 1426SOL     OW 5176   1.786   1.242   6.384
 1426SOL    HW1 5177   1.867   1.256   6.442
 1426SOL    HW2 5178   1.788   1.308   6.309
 1427SOL     OW 5179   0.948   0.266   3.457
 1427SOL    HW1 5180   0.937   0.189   3.520
 1427SOL    HW2 5181   1.045   0.284   3.442
 1428SOL     OW 5182   0.329   2.233   1.140
 1428SOL    HW1 5183   0.382   2.184   1.071
 1428SOL    HW2 5184   0.378   2.316   1.168
 1429SOL     OW 5185   6.313   1.207   6.721
 1429SOL    HW1 5186   6.266   1.166   6.799
 1429SOL    HW2 5187   6.368   1.285   6.752
 1430SOL     OW 5188   2.263   4.526   4.517
 1430SOL    HW1 5189   2.220   4.547   4.605
 1430SOL    HW2 5190   2.257   4.427   4.499
 1431SOL     OW 5191   2.547   2.502   5.574
 1431SOL    HW1 5192   2.481   2.574   5.596
 1431SOL    HW2 5193   2.529   2.422   5.632
 1432SOL     OW 5194   2.052   1.499   0.543
 1432SOL    HW1 5195   2.002   1.585   0.536
 1432SOL    HW2 5196   2.104   1.497   0.628
 1433SOL     OW 5197   4.058   0.053   3.510
 1433SOL    HW1 5198   3.963   0.078   3.525
 1433SOL    HW2 5199   4.074   6.987   3.544
 1434SOL     OW 5200   6.952   1.937   6.354
 1434SOL    HW1 5201   6.877   1.880   6.390
 1434SOL    HW2 5202   6.931   1.964   6.260
 1435SOL     OW 5203   0.239   0.490   4.028
 1435SOL    HW1 5204   0.212   0.487   3.932
 1435SOL    HW2 5205   0.162   0.522   4.084
 1436SOL     OW 5206   6.208   3.718   0.333
 1436SOL    HW1 5207   6.275   3.645   0.318
 1436SOL    HW2 5208   6.226   3.762   0.421
 1437SOL     OW 5209   3.170   1.288   5.575
 1437SOL    HW1 5210   3.167   1.369   5.634
 1437SOL    HW2 5211   3.083   1.239   5.582
 1438SOL     OW 5212   3.418   1.115   1.494
 1438SOL    HW1 5213   3.375   1.041   1.443
 1438SOL    HW2 5214   3.372   1.202   1.471
 1439SOL     OW 5215   0.852   5.666   0.325
 1439SOL    HW1 5216   0.898   5.754   0.338
 1439SOL    HW2 5217   0.809   5.638   0.411
 1440SOL     OW 5218   3.452   3.679   4.353
 1440SOL    HW1 5219   3.387   3.748   4.321
 1440SOL    HW2 5220   3.511   3.719   4.424
 1441SOL     OW 5221   0.001   3.960   3.238
 1441SOL    HW1 5222   7.000   3.999   3.150
 1441SOL    HW2 5223   6.950   3.912   3.279
 1442SOL     OW 5224   5.450   5.167   0.691
 1442SOL    HW1 5225   5.542   5.127   0.690
 1442SOL    HW2 5226   5.415   5.170   0.597
 1443SOL     OW 5227   0.613   0.410   3.667
 1443SOL    HW1 5228   0.634   0.332   3.726
 1443SOL    HW2 5229   0.549   0.470   3.713
 1444SOL     OW 5230   3.882   5.594   3.076
 1444SOL    HW1 5231   3.843   5.578   2.985
 1444SOL    HW2 5232   3.813   5.639   3.133
 1445SOL     OW 5233   0.351   2.741   1.796
 1445SOL    HW1 5234   0.334   2.648   1.761
 1445SOL    HW2 5235   0.265   2.783   1.822
 1446SOL     OW 5236   5.337   2.786   0.213
 1446SOL    HW1 5237   5.245   2.820   0.193
 1446SOL    HW2 5238   5.333   2.719   0.286
 1447SOL     OW 5239   6.873   0.543   4.970
 1447SOL    HW1 5240   6.820   0.571   4.889
 1447SOL    HW2 5241   6.835   0.587   5.051
 1448SOL     OW 5242   6.167   1.778   0.274
 1448SOL    HW1 5243   6.169   1.858   0.333
 1448SOL    HW2 5244   6.091   1.786   0.209
 1449SOL     OW 5245   5.990   6.790   0.151
 1449SOL    HW1 5246   5.911   6.834   0.108
 1449SOL    HW2 5247   6.069   6.796   0.091
 1450SOL     OW 5248   6.890   2.200   2.102
 1450SOL    HW1 5249   6.893   2.237   2.009
 1450SOL    HW2 5250   6.977   2.217   2.147
 1451SOL     OW 5251   3.022   0.862   3.204
 1451SOL    HW1 5252   2.946   0.797   3.205
 1451SOL    HW2 5253   3.102   0.819   3.164
 1452SOL     OW 5254   4.934   1.716   4.758
 1452SOL    HW1 5255   5.025   1.732   4.718
 1452SOL    HW2 5256   4.892   1.803   4.781
 1453SOL     OW 5257   5.793   3.519   4.631
 1453SOL    HW1 5258   5.700   3.530   4.665
 1453SOL    HW2 5259   5.790   3.498   4.533
 1454SOL     OW 5260   5.659   2.705   2.587
 1454SOL    HW1 5261   5.733   2.718   2.522
 1454SOL    HW2 5262   5.658   2.782   2.652
 1455SOL     OW 5263   0.885   0.539   1.846
 1455SOL    HW1 5264   0.957   0.598   1.881
 1455SOL    HW2 5265   0.808   0.537   1.910
 1456SOL     OW 5266   6.858   6.813   5.285
 1456SOL    HW1 5267   6.870   6.725   5.240
 1456SOL    HW2 5268   6.905   6.813   5.373
 1457SOL     OW 5269   1.239   0.145   2.381
 1457SOL    HW1 5270   1.210   0.049   2.387
 1457SOL    HW2 5271   1.175   0.202   2.432
 1458SOL     OW 5272   5.306   6.768   4.948
 1458SOL    HW1 5273   5.226   6.711   4.930
 1458SOL    HW2 5274   5.308   6.845   4.884
 1459SOL     OW 5275   2.627   4.550   0.071
 1459SOL    HW1 5276   2.697   4.478   0.069
 1459SOL    HW2 5277   2.593   4.565   7.005
 1460SOL     OW 5278   6.692   5.589   6.219
 1460SOL    HW1 5279   6.618   5.525   6.238
 1460SOL    HW2 5280   6.778   5.554   6.256
 1461SOL     OW 5281   6.570   4.752   3.324
 1461SOL    HW1 5282   6.601   4.823   3.261
 1461SOL    HW2 5283   6.649   4.714   3.374
 1462SOL     OW 5284   6.371   2.021   0.128
 1462SOL    HW1 5285   6.425   2.000   0.046
 1462SOL    HW2 5286   6.371   2.120   0.142
 1463SOL     OW 5287   0.497   6.706   6.012
 1463SOL    HW1 5288   0.419   6.763   6.038
 1463SOL    HW2 5289   0.494   6.688   5.914
 1464SOL     OW 5290   0.381   6.537   0.681
 1464SOL    HW1 5291   0.293   6.538   0.728
 1464SOL    HW2 5292   0.431   6.622   0.701
 1465SOL     OW 5293   1.346   1.351   3.076
 1465SOL    HW1 5294   1.342   1.343   3.176
 1465SOL    HW2 5295   1.383   1.441   3.052
 1466SOL     OW 5296   0.354   6.457   3.024
 1466SOL    HW1 5297   0.273   6.515   3.012
 1466SOL    HW2 5298   0.431   6.496   2.974
 1467SOL     OW 5299   1.735   0.320   2.239
 1467SOL    HW1 5300   1.677   0.293   2.317
 1467SOL    HW2 5301   1.678   0.328   2.157
 1468SOL     OW 5302   5.573   5.873   2.910
 1468SOL    HW1 5303   5.616   5.882   3.000
 1468SOL    HW2 5304   5.608   5.791   2.865
 1469SOL     OW 5305   0.758   0.959   3.084
 1469SOL    HW1 5306   0.666   0.938   3.053
 1469SOL    HW2 5307   0.765   1.058   3.102
 1470SOL     OW 5308   0.647   0.745   2.291
 1470SOL    HW1 5309   0.645   0.765   2.193
 1470SOL    HW2 5310   0.738   0.764   2.327
 1471SOL     OW 5311   0.931   0.474   0.043
 1471SOL    HW1 5312   0.933   0.490   0.142
 1471SOL    HW2 5313   1.023   0.481   0.006
 1472SOL     OW 5314   4.445   5.780   4.221
 1472SOL    HW1 5315   4.446   5.784   4.321
 1472SOL    HW2 5316   4.477   5.867   4.184
 1473SOL     OW 5317   6.167   6.154   3.799
 1473SOL    HW1 5318   6.112   6.073   3.816
 1473SOL    HW2 5319   6.260   6.127   3.776
 1474SOL     OW 5320   6.587   6.035   3.477
 1474SOL    HW1 5321   6.607   6.111   3.415
 1474SOL    HW2 5322   6.488   6.026   3.490
 1475SOL     OW 5323   0.358   0.290   1.915
 1475SOL    HW1 5324   0.338   0.218   1.849
 1475SOL    HW2 5325   0.436   0.345   1.883
 1476SOL     OW 5326   1.657   0.899   1.011
 1476SOL    HW1 5327   1.558   0.912   1.003
 1476SOL    HW2 5328   1.701   0.931   0.927
 1477SOL     OW 5329   2.891   0.189   6.638
 1477SOL    HW1 5330   2.846   0.255   6.698
 1477SOL    HW2 5331   2.952   0.131   6.692
 1478SOL     OW 5332   5.818   4.537   0.632
 1478SOL    HW1 5333   5.899   4.554   0.688
 1478SOL    HW2 5334   5.826   4.587   0.546
 1479SOL     OW 5335   1.341   4.676   0.202
 1479SOL    HW1 5336   1.381   4.618   0.131
 1479SOL    HW2 5337   1.375   4.649   0.291
 1480SOL     OW 5338   2.550   0.945   0.389
 1480SOL    HW1 5339   2.493   0.864   0.372
 1480SOL    HW2 5340   2.643   0.927   0.358
 1481SOL     OW 5341   5.832   1.986   4.729
 1481SOL    HW1 5342   5.822   1.911   4.663
 1481SOL    HW2 5343   5.876   2.064   4.684
 1482SOL     OW 5344   5.630   1.523   0.753
 1482SOL    HW1 5345   5.694   1.536   0.678
 1482SOL    HW2 5346   5.553   1.586   0.742
 1483SOL     OW 5347   0.165   3.259   6.337
 1483SOL    HW1 5348   0.111   3.181   6.367
 1483SOL    HW2 5349   0.260   3.248   6.369
 1484SOL     OW 5350   6.690   4.405   3.536
 1484SOL    HW1 5351   6.697   4.309   3.511
 1484SOL    HW2 5352   6.710   4.416   3.633
 1485SOL     OW 5353   4.609   2.528   2.546
 1485SOL    HW1 5354   4.542   2.469   2.500
 1485SOL    HW2 5355   4.693   2.532   2.492
 1486SOL     OW 5356   4.529   2.524   3.243
 1486SOL    HW1 5357   4.438   2.482   3.254
 1486SOL    HW2 5358   4.552   2.574   3.327
 1487SOL     OW 5359   6.531   1.616   6.337
 1487SOL    HW1 5360   6.507   1.678   6.263
 1487SOL    HW2 5361   6.531   1.522   6.304
 1488SOL     OW 5362   6.097   2.294   2.784
 1488SOL    HW1 5363   6.063   2.331   2.697
 1488SOL    HW2 5364   6.189   2.257   2.771
 1489SOL     OW 5365   3.878   4.863   4.587
 1489SOL    HW1 5366   3.932   4.782   4.611
 1489SOL    HW2 5367   3.856   4.914   4.670
 1490SOL     OW 5368   1.433   2.678   1.093
 1490SOL    HW1 5369   1.505   2.608   1.093
 1490SOL    HW2 5370   1.400   2.692   0.999
 1491SOL     OW 5371   0.053   3.491   2.866
 1491SOL    HW1 5372   7.026   3.504   2.782
 1491SOL    HW2 5373   0.104   3.574   2.887
 1492SOL     OW 5374   5.974   1.982   1.921
 1492SOL    HW1 5375   6.023   2.069   1.913
 1492SOL    HW2 5376   6.016   1.914   1.861
 1493SOL     OW 5377   5.011   0.954   4.895
 1493SOL    HW1 5378   5.041   0.946   4.990
 1493SOL    HW2 5379   5.022   1.048   4.864
 1494SOL     OW 5380   4.286   2.670   5.941
 1494SOL    HW1 5381   4.251   2.738   5.876
 1494SOL    HW2 5382   4.286   2.711   6.033
 1495SOL     OW 5383   0.744   3.337   3.746
 1495SOL    HW1 5384   0.766   3.427   3.783
 1495SOL    HW2 5385   0.774   3.331   3.651
 1496SOL     OW 5386   0.643   0.735   1.987
 1496SOL    HW1 5387   0.545   0.747   1.971
 1496SOL    HW2 5388   0.668   0.640   1.972
 1497SOL     OW 5389   0.281   3.942   3.245
 1497SOL    HW1 5390   0.188   3.935   3.279
 1497SOL    HW2 5391   0.326   3.853   3.251
 1498SOL     OW 5392   1.748   5.029   6.502
 1498SOL    HW1 5393   1.810   4.952   6.521
 1498SOL    HW2 5394   1.753   5.052   6.405
 1499SOL     OW 5395   1.082   3.519   5.272
 1499SOL    HW1 5396   1.144   3.545   5.346
 1499SOL    HW2 5397   1.007   3.585   5.266
 1500SOL     OW 5398   5.984   0.124   0.279
 1500SOL    HW1 5399   5.922   0.193   0.242
 1500SOL    HW2 5400   5.958   0.104   0.374
 1501SOL     OW 5401   4.441   0.849   5.990
 1501SOL    HW1 5402   4.410   0.848   5.895
 1501SOL    HW2 5403   4.464   0.943   6.016
 1502SOL     OW 5404   6.327   6.717   0.445
 1502SOL    HW1 5405   6.424   6.711   0.422
 1502SOL    HW2 5406   6.279   6.638   0.407
 1503SOL     OW 5407   2.340   2.811   1.050
 1503SOL    HW1 5408   2.314   2.717   1.073
 1503SOL    HW2 5409   2.387   2.852   1.128
 1504SOL     OW 5410   2.683   0.376   4.901
 1504SOL    HW1 5411   2.701   0.464   4.944
 1504SOL    HW2 5412   2.685   0.304   4.971
 1505SOL     OW 5413   5.082   0.651   6.723
 1505SOL    HW1 5414   5.158   0.615   6.778
 1505SOL    HW2 5415   5.013   0.580   6.712
 1506SOL     OW 5416   1.239   5.286   3.319
 1506SOL    HW1 5417   1.185   5.367   3.299
 1506SOL    HW2 5418   1.308   5.308   3.388
 1507SOL     OW 5419   1.537   1.868   4.780
 1507SOL    HW1 5420   1.611   1.813   4.819
 1507SOL    HW2 5421   1.528   1.953   4.831
 1508SOL     OW 5422   4.739   0.052   0.816
 1508SOL    HW1 5423   4.663   0.108   0.849
 1508SOL    HW2 5424   4.725   6.984   0.844
 1509SOL     OW 5425   3.980   3.014   5.837
 1509SOL    HW1 5426   3.939   2.959   5.764
 1509SOL    HW2 5427   3.915   3.022   5.913
 1510SOL     OW 5428   5.575   1.844   3.947
 1510SOL    HW1 5429   5.674   1.849   3.961
 1510SOL    HW2 5430   5.530   1.909   4.008
 1511SOL     OW 5431   2.158   2.150   6.809
 1511SOL    HW1 5432   2.092   2.163   6.735
 1511SOL    HW2 5433   2.247   2.127   6.770
 1512SOL     OW 5434   6.867   6.536   1.751
 1512SOL    HW1 5435   6.937   6.466   1.767
 1512SOL    HW2 5436   6.853   6.588   1.835
 1513SOL     OW 5437   4.492   0.873   3.626
 1513SOL    HW1 5438   4.409   0.888   3.572
 1513SOL    HW2 5439   4.489   0.930   3.708
 1514SOL     OW 5440   5.322   2.170   4.443
 1514SOL    HW1 5441   5.250   2.166   4.513
 1514SOL    HW2 5442   5.410   2.146   4.485
 1515SOL     OW 5443   0.082   2.716   6.052
 1515SOL    HW1 5444   0.128   2.802   6.031
 1515SOL    HW2 5445   0.030   2.686   5.972
 1516SOL     OW 5446   0.570   0.637   0.940
 1516SOL    HW1 5447   0.648   0.645   1.002
 1516SOL    HW2 5448   0.597   0.667   0.848
 1517SOL     OW 5449   4.883   5.530   3.733
 1517SOL    HW1 5450   4.805   5.585   3.766
 1517SOL    HW2 5451   4.926   5.483   3.810
 1518SOL     OW 5452   0.214   2.932   6.757
 1518SOL    HW1 5453   0.290   2.992   6.731
 1518SOL    HW2 5454   0.127   2.977   6.735
 1519SOL     OW 5455   0.123   4.413   2.252
 1519SOL    HW1 5456   0.168   4.433   2.165
 1519SOL    HW2 5457   0.069   4.329   2.243
 1520SOL     OW 5458   1.835   3.381   2.180
 1520SOL    HW1 5459   1.839   3.464   2.124
 1520SOL    HW2 5460   1.815   3.302   2.123
 1521SOL     OW 5461   2.310   3.530   6.700
 1521SOL    HW1 5462   2.336   3.589   6.624
 1521SOL    HW2 5463   2.217   3.552   6.730
 1522SOL     OW 5464   6.991   1.548   5.324
 1522SOL    HW1 5465   6.963   1.587   5.237
 1522SOL    HW2 5466   6.913   1.502   5.367
 1523SOL     OW 5467   5.100   4.115   6.660
 1523SOL    HW1 5468   5.115   4.038   6.722
 1523SOL    HW2 5469   5.025   4.172   6.695
 1524SOL     OW 5470   0.965   2.192   1.698
 1524SOL    HW1 5471   1.060   2.215   1.721
 1524SOL    HW2 5472   0.947   2.212   1.602
 1525SOL     OW 5473   5.157   2.555   5.880
 1525SOL    HW1 5474   5.063   2.588   5.876
 1525SOL    HW2 5475   5.219   2.633   5.888
 1526SOL     OW 5476   0.821   1.332   0.962
 1526SOL    HW1 5477   0.920   1.347   0.963
 1526SOL    HW2 5478   0.780   1.386   0.888
 1527SOL     OW 5479   4.081   1.334   4.691
 1527SOL    HW1 5480   4.154   1.272   4.720
 1527SOL    HW2 5481   4.000   1.281   4.666
 1528SOL     OW 5482   4.942   5.817   2.922
 1528SOL    HW1 5483   4.878   5.830   2.846
 1528SOL    HW2 5484   4.994   5.733   2.907
 1529SOL     OW 5485   4.116   1.493   5.721
 1529SOL    HW1 5486   4.216   1.492   5.726
 1529SOL    HW2 5487   4.087   1.528   5.632
 1530SOL     OW 5488   2.996   0.719   1.093
 1530SOL    HW1 5489   2.987   0.641   1.155
 1530SOL    HW2 5490   2.971   0.691   1.001
 1531SOL     OW 5491   5.901   1.313   5.015
 1531SOL    HW1 5492   5.891   1.217   4.989
 1531SOL    HW2 5493   5.894   1.371   4.933
 1532SOL     OW 5494   2.569   2.520   4.556
 1532SOL    HW1 5495   2.560   2.436   4.609
 1532SOL    HW2 5496   2.573   2.498   4.459
 1533SOL     OW 5497   6.997   3.494   6.486
 1533SOL    HW1 5498   0.068   3.471   6.484
 1533SOL    HW2 5499   6.951   3.435   6.553
 1534SOL     OW 5500   1.486   5.022   0.165
 1534SOL    HW1 5501   1.453   4.970   0.087
 1534SOL    HW2 5502   1.586   5.033   0.159
 1535SOL     OW 5503   6.110   5.983   4.410
 1535SOL    HW1 5504   6.127   6.012   4.505
 1535SOL    HW2 5505   6.082   6.062   4.356
 1536SOL     OW 5506   3.339   5.194   4.476
 1536SOL    HW1 5507   3.344   5.229   4.570
 1536SOL    HW2 5508   3.425   5.212   4.429
 1537SOL     OW 5509   3.641   5.655   3.244
 1537SOL    HW1 5510   3.684   5.565   3.250
 1537SOL    HW2 5511   3.544   5.644   3.223
 1538SOL     OW 5512   3.414   5.183   5.598
 1538SOL    HW1 5513   3.384   5.217   5.687
 1538SOL    HW2 5514   3.510   5.154   5.604
 1539SOL     OW 5515   4.202   4.385   1.382
 1539SOL    HW1 5516   4.130   4.346   1.324
 1539SOL    HW2 5517   4.237   4.315   1.444
 1540SOL     OW 5518   0.465   6.866   5.228
 1540SOL    HW1 5519   0.517   6.948   5.203
 1540SOL    HW2 5520   0.456   6.807   5.148
 1541SOL     OW 5521   4.008   2.717   1.091
 1541SOL    HW1 5522   4.007   2.776   1.171
 1541SOL    HW2 5523   4.025   2.623   1.119
 1542SOL     OW 5524   6.638   6.165   1.877
 1542SOL    HW1 5525   6.666   6.250   1.833
 1542SOL    HW2 5526   6.567   6.121   1.823
 1543SOL     OW 5527   2.870   3.497   3.508
 1543SOL    HW1 5528   2.920   3.473   3.591
 1543SOL    HW2 5529   2.799   3.429   3.491
 1544SOL     OW 5530   3.086   4.057   2.426
 1544SOL    HW1 5531   3.084   3.957   2.428
 1544SOL    HW2 5532   2.995   4.092   2.448
 1545SOL     OW 5533   5.565   1.109   5.518
 1545SOL    HW1 5534   5.494   1.081   5.454
 1545SOL    HW2 5535   5.576   1.039   5.588
 1546SOL     OW 5536   4.923   6.827   5.860
 1546SOL    HW1 5537   4.886   6.901   5.917
 1546SOL    HW2 5538   4.962   6.756   5.919
 1547SOL     OW 5539   1.683   3.856   2.482
 1547SOL    HW1 5540   1.633   3.820   2.404
 1547SOL    HW2 5541   1.781   3.838   2.471
 1548SOL     OW 5542   4.288   4.047   5.303
 1548SOL    HW1 5543   4.285   3.963   5.250
 1548SOL    HW2 5544   4.226   4.040   5.381
 1549SOL     OW 5545   6.064   1.291   2.208
 1549SOL    HW1 5546   5.981   1.276   2.263
 1549SOL    HW2 5547   6.060   1.382   2.166
 1550SOL     OW 5548   2.889   6.387   5.810
 1550SOL    HW1 5549   2.901   6.422   5.903
 1550SOL    HW2 5550   2.792   6.394   5.784
 1551SOL     OW 5551   1.593   3.279   1.069
 1551SOL    HW1 5552   1.636   3.368   1.087
 1551SOL    HW2 5553   1.637   3.208   1.124
 1552SOL     OW 5554   0.918   6.789   1.611
 1552SOL    HW1 5555   0.885   6.878   1.642
 1552SOL    HW2 5556   0.987   6.803   1.540
 1553SOL     OW 5557   6.275   1.908   6.351
 1553SOL    HW1 5558   6.297   1.888   6.256
 1553SOL    HW2 5559   6.331   1.984   6.383
 1554SOL     OW 5560   3.565   2.095   2.964
 1554SOL    HW1 5561   3.639   2.091   2.897
 1554SOL    HW2 5562   3.595   2.146   3.044
 1555SOL     OW 5563   4.949   2.424   5.629
 1555SOL    HW1 5564   4.886   2.363   5.581
 1555SOL    HW2 5565   4.920   2.519   5.615
 1556SOL     OW 5566   3.970   0.529   0.536
 1556SOL    HW1 5567   3.881   0.553   0.499
 1556SOL    HW2 5568   4.018   0.470   0.471
 1557SOL     OW 5569   2.748   2.505   1.022
 1557SOL    HW1 5570   2.679   2.434   1.033
 1557SOL    HW2 5571   2.836   2.472   1.058
 1558SOL     OW 5572   5.399   2.540   4.879
 1558SOL    HW1 5573   5.485   2.572   4.840
 1558SOL    HW2 5574   5.409   2.444   4.907
 1559SOL     OW 5575   0.471   3.039   1.396
 1559SOL    HW1 5576   0.501   2.980   1.471
 1559SOL    HW2 5577   0.538   3.113   1.384
 1560SOL     OW 5578   2.906   1.486   6.843
 1560SOL    HW1 5579   2.944   1.541   6.769
 1560SOL    HW2 5580   2.975   1.476   6.915
 1561SOL     OW 5581   4.534   5.331   3.154
 1561SOL    HW1 5582   4.454   5.348   3.212
 1561SOL    HW2 5583   4.552   5.412   3.099
 1562SOL     OW 5584   3.595   6.140   2.474
 1562SOL    HW1 5585   3.591   6.141   2.574
 1562SOL    HW2 5586   3.526   6.077   2.439
 1563SOL     OW 5587   2.614   1.830   5.073
 1563SOL    HW1 5588   2.655   1.805   5.160
 1563SOL    HW2 5589   2.626   1.756   5.007
 1564SOL     OW 5590   1.281   1.564   2.192
 1564SOL    HW1 5591   1.344   1.642   2.182
 1564SOL    HW2 5592   1.327   1.489   2.238
 1565SOL     OW 5593   4.632   5.278   4.861
 1565SOL    HW1 5594   4.663   5.357   4.807
 1565SOL    HW2 5595   4.689   5.268   4.942
 1566SOL     OW 5596   6.182   4.910   4.196
 1566SOL    HW1 5597   6.216   4.959   4.115
 1566SOL    HW2 5598   6.113   4.966   4.241
 1567SOL     OW 5599   5.879   5.465   0.105
 1567SOL    HW1 5600   5.878   5.368   0.127
 1567SOL    HW2 5601   5.863   5.518   0.188
 1568SOL     OW 5602   2.676   6.199   3.371
 1568SOL    HW1 5603   2.596   6.206   3.430
 1568SOL    HW2 5604   2.697   6.103   3.354
 1569SOL     OW 5605   3.819   0.061   2.894
 1569SOL    HW1 5606   3.741   0.050   2.833
 1569SOL    HW2 5607   3.797   0.024   2.984
 1570SOL     OW 5608   2.541   6.375   6.465
 1570SOL    HW1 5609   2.640   6.360   6.466
 1570SOL    HW2 5610   2.500   6.323   6.390
 1571SOL     OW 5611   1.047   2.762   2.999
 1571SOL    HW1 5612   0.999   2.799   3.079
 1571SOL    HW2 5613   1.039   2.826   2.923
 1572SOL     OW 5614   1.805   5.169   2.211
 1572SOL    HW1 5615   1.884   5.175   2.150
 1572SOL    HW2 5616   1.727   5.218   2.171
 1573SOL     OW 5617   5.509   4.886   2.485
 1573SOL    HW1 5618   5.551   4.965   2.441
 1573SOL    HW2 5619   5.579   4.833   2.533
 1574SOL     OW 5620   6.537   3.129   2.082
 1574SOL    HW1 5621   6.453   3.080   2.059
 1574SOL    HW2 5622   6.532   3.222   2.045
 1575SOL     OW 5623   2.298   0.470   1.689
 1575SOL    HW1 5624   2.370   0.400   1.699
 1575SOL    HW2 5625   2.306   0.514   1.599
 1576SOL     OW 5626   0.925   6.375   2.874
 1576SOL    HW1 5627   0.995   6.303   2.873
 1576SOL    HW2 5628   0.854   6.351   2.940
 1577SOL     OW 5629   2.243   0.515   6.386
 1577SOL    HW1 5630   2.290   0.593   6.345
 1577SOL    HW2 5631   2.270   0.506   6.482
 1578SOL     OW 5632   4.808   1.186   6.377
 1578SOL    HW1 5633   4.802   1.115   6.446
 1578SOL    HW2 5634   4.903   1.215   6.366
 1579SOL     OW 5635   6.937   2.343   1.238
 1579SOL    HW1 5636   6.973   2.251   1.232
 1579SOL    HW2 5637   7.010   2.407   1.262
 1580SOL     OW 5638   3.064   3.935   2.995
 1580SOL    HW1 5639   3.021   4.021   2.970
 1580SOL    HW2 5640   3.076   3.932   3.095
 1581SOL     OW 5641   6.849   4.504   5.725
 1581SOL    HW1 5642   6.886   4.459   5.807
 1581SOL    HW2 5643   6.911   4.576   5.695
 1582SOL     OW 5644   3.303   5.866   4.573
 1582SOL    HW1 5645   3.319   5.940   4.639
 1582SOL    HW2 5646   3.265   5.787   4.621
 1583SOL     OW 5647   0.636   5.429   4.631
 1583SOL    HW1 5648   0.666   5.442   4.537
 1583SOL    HW2 5649   0.687   5.353   4.672
 1584SOL     OW 5650   1.919   4.842   6.554
 1584SOL    HW1 5651   1.951   4.785   6.629
 1584SOL    HW2 5652   1.993   4.903   6.525
 1585SOL     OW 5653   4.125   1.427   3.016
 1585SOL    HW1 5654   4.197   1.362   3.041
 1585SOL    HW2 5655   4.047   1.414   3.077
 1586SOL     OW 5656   2.861   4.772   3.199
 1586SOL    HW1 5657   2.857   4.724   3.111
 1586SOL    HW2 5658   2.947   4.823   3.205
 1587SOL     OW 5659   1.814   4.832   5.576
 1587SOL    HW1 5660   1.827   4.833   5.477
 1587SOL    HW2 5661   1.857   4.912   5.616
 1588SOL     OW 5662   4.780   0.541   2.576
 1588SOL    HW1 5663   4.702   0.499   2.529
 1588SOL    HW2 5664   4.756   0.634   2.603
 1589SOL     OW 5665   6.806   3.403   2.714
 1589SOL    HW1 5666   6.710   3.396   2.686
 1589SOL    HW2 5667   6.837   3.497   2.703
 1590SOL     OW 5668   5.184   0.979   3.637
 1590SOL    HW1 5669   5.246   0.963   3.560
 1590SOL    HW2 5670   5.175   0.895   3.690
 1591SOL     OW 5671   6.929   6.206   1.079
 1591SOL    HW1 5672   6.934   6.144   1.001
 1591SOL    HW2 5673   6.929   6.300   1.047
 1592SOL     OW 5674   1.908   4.100   0.075
 1592SOL    HW1 5675   1.956   4.012   0.080
 1592SOL    HW2 5676   1.864   4.118   0.163
 1593SOL     OW 5677   0.758   0.034   6.059
 1593SOL    HW1 5678   0.849   0.065   6.085
 1593SOL    HW2 5679   0.689   0.092   6.102
 1594SOL     OW 5680   0.331   6.136   2.032
 1594SOL    HW1 5681   0.360   6.231   2.046
 1594SOL    HW2 5682   0.232   6.132   2.020
 1595SOL     OW 5683   0.643   4.267   0.617
 1595SOL    HW1 5684   0.589   4.338   0.573
 1595SOL    HW2 5685   0.701   4.307   0.688
 1596SOL     OW 5686   6.254   2.856   2.348
 1596SOL    HW1 5687   6.303   2.874   2.263
 1596SOL    HW2 5688   6.320   2.838   2.421
 1597SOL     OW 5689   2.486   5.911   1.281
 1597SOL    HW1 5690   2.492   5.832   1.342
 1597SOL    HW2 5691   2.389   5.932   1.264
 1598SOL     OW 5692   1.313   5.332   6.324
 1598SOL    HW1 5693   1.362   5.332   6.412
 1598SOL    HW2 5694   1.354   5.264   6.263
 1599SOL     OW 5695   4.906   4.922   5.258
 1599SOL    HW1 5696   4.864   4.920   5.167
 1599SOL    HW2 5697   4.857   4.860   5.319
 1600SOL     OW 5698   2.745   1.440   2.214
 1600SOL    HW1 5699   2.664   1.451   2.271
 1600SOL    HW2 5700   2.750   1.346   2.180
 1601SOL     OW 5701   0.409   6.590   4.252
 1601SOL    HW1 5702   0.404   6.493   4.230
 1601SOL    HW2 5703   0.424   6.601   4.351
 1602SOL     OW 5704   4.702   5.476   4.658
 1602SOL    HW1 5705   4.714   5.417   4.579
 1602SOL    HW2 5706   4.766   5.553   4.653
 1603SOL     OW 5707   2.710   5.209   3.697
 1603SOL    HW1 5708   2.752   5.129   3.742
 1603SOL    HW2 5709   2.754   5.223   3.609
 1604SOL     OW 5710   3.810   5.202   1.502
 1604SOL    HW1 5711   3.717   5.183   1.533
 1604SOL    HW2 5712   3.875   5.150   1.558
 1605SOL     OW 5713   6.346   5.652   1.603
 1605SOL    HW1 5714   6.332   5.751   1.610
 1605SOL    HW2 5715   6.290   5.605   1.671
 1606SOL     OW 5716   4.169   5.426   5.393
 1606SOL    HW1 5717   4.192   5.479   5.311
 1606SOL    HW2 5718   4.107   5.352   5.368
 1607SOL     OW 5719   4.191   0.244   0.879
 1607SOL    HW1 5720   4.205   0.193   0.964
 1607SOL    HW2 5721   4.176   0.180   0.804
 1608SOL     OW 5722   6.828   1.295   2.770
 1608SOL    HW1 5723   6.910   1.285   2.713
 1608SOL    HW2 5724   6.747   1.291   2.712
 1609SOL     OW 5725   3.288   6.984   0.961
 1609SOL    HW1 5726   3.307   7.013   1.055
 1609SOL    HW2 5727   3.371   6.947   0.920
 1610SOL     OW 5728   4.954   6.109   0.681
 1610SOL    HW1 5729   5.012   6.165   0.741
 1610SOL    HW2 5730   4.976   6.013   0.696
 1611SOL     OW 5731   1.729   3.325   0.706
 1611SOL    HW1 5732   1.672   3.396   0.748
 1611SOL    HW2 5733   1.801   3.299   0.769
 1612SOL     OW 5734   3.361   6.719   1.587
 1612SOL    HW1 5735   3.384   6.626   1.557
 1612SOL    HW2 5736   3.293   6.714   1.660
 1613SOL     OW 5737   0.527   5.594   1.866
 1613SOL    HW1 5738   0.593   5.669   1.872
 1613SOL    HW2 5739   0.486   5.578   1.956
 1614SOL     OW 5740   5.650   1.822   6.030
 1614SOL    HW1 5741   5.737   1.778   6.051
 1614SOL    HW2 5742   5.667   1.913   5.990
 1615SOL     OW 5743   6.346   5.438   6.432
 1615SOL    HW1 5744   6.352   5.525   6.382
 1615SOL    HW2 5745   6.301   5.370   6.375
 1616SOL     OW 5746   4.490   0.104   3.436
 1616SOL    HW1 5747   4.529   0.103   3.344
 1616SOL    HW2 5748   4.415   0.171   3.439
 1617SOL     OW 5749   4.844   6.297   2.978
 1617SOL    HW1 5750   4.812   6.347   3.058
 1617SOL    HW2 5751   4.766   6.265   2.924
 1618SOL     OW 5752   1.066   6.138   2.951
 1618SOL    HW1 5753   1.162   6.141   2.980
 1618SOL    HW2 5754   1.008   6.180   3.021
 1619SOL     OW 5755   0.263   5.480   0.120
 1619SOL    HW1 5756   0.186   5.544   0.111
 1619SOL    HW2 5757   0.306   5.468   0.030
 1620SOL     OW 5758   3.258   4.762   1.766
 1620SOL    HW1 5759   3.251   4.677   1.714
 1620SOL    HW2 5760   3.243   4.743   1.863
 1621SOL     OW 5761   5.938   0.173   0.857
 1621SOL    HW1 5762   5.908   0.092   0.807
 1621SOL    HW2 5763   5.860   0.232   0.875
 1622SOL     OW 5764   0.547   3.179   5.415
 1622SOL    HW1 5765   0.583   3.110   5.478
 1622SOL    HW2 5766   0.593   3.266   5.432
 1623SOL     OW 5767   0.530   2.500   4.758
 1623SOL    HW1 5768   0.534   2.400   4.755
 1623SOL    HW2 5769   0.436   2.529   4.773
 1624SOL     OW 5770   4.343   1.327   5.898
 1624SOL    HW1 5771   4.389   1.388   5.833
 1624SOL    HW2 5772   4.282   1.381   5.957
 1625SOL     OW 5773   1.474   5.196   6.787
 1625SOL    HW1 5774   1.554   5.139   6.772
 1625SOL    HW2 5775   1.393   5.138   6.796
 1626SOL     OW 5776   3.449   1.629   1.605
 1626SOL    HW1 5777   3.414   1.704   1.549
 1626SOL    HW2 5778   3.395   1.621   1.689
 1627SOL     OW 5779   5.360   3.110   3.641
 1627SOL    HW1 5780   5.309   3.068   3.566
 1627SOL    HW2 5781   5.417   3.041   3.685
 1628SOL     OW 5782   4.723   5.471   0.024
 1628SOL    HW1 5783   4.779   5.521   0.091
 1628SOL    HW2 5784   4.775   5.460   6.966
 1629SOL     OW 5785   2.625   1.207   3.967
 1629SOL    HW1 5786   2.693   1.150   4.014
 1629SOL    HW2 5787   2.672   1.279   3.917
 1630SOL     OW 5788   6.754   4.477   5.241
 1630SOL    HW1 5789   6.716   4.417   5.311
 1630SOL    HW2 5790   6.680   4.532   5.201
 1631SOL     OW 5791   0.280   2.804   0.801
 1631SOL    HW1 5792   0.330   2.796   0.715
 1631SOL    HW2 5793   0.216   2.881   0.796
 1632SOL     OW 5794   4.921   3.213   2.801
 1632SOL    HW1 5795   4.913   3.140   2.733
 1632SOL    HW2 5796   4.920   3.173   2.893
 1633SOL     OW 5797   5.072   4.343   4.774
 1633SOL    HW1 5798   5.046   4.369   4.681
 1633SOL    HW2 5799   5.102   4.248   4.775
 1634SOL     OW 5800   4.680   0.995   4.252
 1634SOL    HW1 5801   4.615   1.023   4.323
 1634SOL    HW2 5802   4.746   1.068   4.236
 1635SOL     OW 5803   0.764   5.109   6.469
 1635SOL    HW1 5804   0.730   5.032   6.524
 1635SOL    HW2 5805   0.687   5.167   6.443
 1636SOL     OW 5806   3.167   5.426   1.623
 1636SOL    HW1 5807   3.115   5.370   1.687
 1636SOL    HW2 5808   3.165   5.521   1.653
 1637SOL     OW 5809   6.682   6.993   3.687
 1637SOL    HW1 5810   6.737   6.958   3.611
 1637SOL    HW2 5811   6.722   6.964   3.774
 1638SOL     OW 5812   0.703   3.217   2.354
 1638SOL    HW1 5813   0.683   3.213   2.256
 1638SOL    HW2 5814   0.800   3.241   2.367
 1639SOL     OW 5815   5.874   4.912   1.773
 1639SOL    HW1 5816   5.856   4.947   1.865
 1639SOL    HW2 5817   5.922   4.825   1.780
 1640SOL     OW 5818   6.294   7.004   6.955
 1640SOL    HW1 5819   6.215   0.009   7.006
 1640SOL    HW2 5820   6.370   6.987   7.018
 1641SOL     OW 5821   6.756   2.509   3.215
 1641SOL    HW1 5822   6.766   2.410   3.215
 1641SOL    HW2 5823   6.732   2.540   3.123
 1642SOL     OW 5824   6.853   3.295   6.616
 1642SOL    HW1 5825   6.774   3.289   6.555
 1642SOL    HW2 5826   6.822   3.313   6.709
 1643SOL     OW 5827   2.471   4.488   2.954
 1643SOL    HW1 5828   2.414   4.569   2.966
 1643SOL    HW2 5829   2.565   4.509   2.981
 1644SOL     OW 5830   5.560   3.428   6.587
 1644SOL    HW1 5831   5.493   3.429   6.660
 1644SOL    HW2 5832   5.648   3.460   6.622
 1645SOL     OW 5833   3.186   6.266   6.159
 1645SOL    HW1 5834   3.207   6.267   6.061
 1645SOL    HW2 5835   3.094   6.301   6.175
 1646SOL     OW 5836   2.375   6.621   0.039
 1646SOL    HW1 5837   2.471   6.640   0.057
 1646SOL    HW2 5838   2.318   6.679   0.097
 1647SOL     OW 5839   6.341   2.224   4.244
 1647SOL    HW1 5840   6.366   2.313   4.283
 1647SOL    HW2 5841   6.327   2.234   4.145
 1648SOL     OW 5842   5.721   6.565   0.641
 1648SOL    HW1 5843   5.668   6.515   0.710
 1648SOL    HW2 5844   5.744   6.655   0.676
 1649SOL     OW 5845   3.885   1.136   4.737
 1649SOL    HW1 5846   3.800   1.180   4.767
 1649SOL    HW2 5847   3.878   1.037   4.753
 1650SOL     OW 5848   1.115   5.579   4.956
 1650SOL    HW1 5849   1.113   5.540   4.864
 1650SOL    HW2 5850   1.139   5.508   5.022
 1651SOL     OW 5851   0.692   2.269   2.562
 1651SOL    HW1 5852   0.707   2.368   2.566
 1651SOL    HW2 5853   0.623   2.248   2.493
 1652SOL     OW 5854   1.417   3.674   2.476
 1652SOL    HW1 5855   1.491   3.692   2.410
 1652SOL    HW2 5856   1.411   3.749   2.541
 1653SOL     OW 5857   0.379   6.274   1.354
 1653SOL    HW1 5858   0.445   6.262   1.427
 1653SOL    HW2 5859   0.370   6.371   1.333
 1654SOL     OW 5860   6.907   3.417   1.186
 1654SOL    HW1 5861   6.893   3.515   1.202
 1654SOL    HW2 5862   7.006   3.398   1.182
 1655SOL     OW 5863   6.679   1.473   3.833
 1655SOL    HW1 5864   6.735   1.399   3.797
 1655SOL    HW2 5865   6.621   1.438   3.906
 1656SOL     OW 5866   1.946   5.612   3.021
 1656SOL    HW1 5867   1.964   5.575   3.112
 1656SOL    HW2 5868   2.005   5.692   3.005
 1657SOL     OW 5869   6.025   0.343   4.371
 1657SOL    HW1 5870   5.987   0.432   4.394
 1657SOL    HW2 5871   6.114   0.355   4.327
 1658SOL     OW 5872   6.500   0.178   1.190
 1658SOL    HW1 5873   6.591   0.149   1.221
 1658SOL    HW2 5874   6.497   0.175   1.090
 1659SOL     OW 5875   3.636   6.917   0.135
 1659SOL    HW1 5876   3.542   6.942   0.112
 1659SOL    HW2 5877   3.672   6.853   0.068
 1660SOL     OW 5878   2.274   6.489   2.774
 1660SOL    HW1 5879   2.201   6.519   2.712
 1660SOL    HW2 5880   2.362   6.497   2.727
 1661SOL     OW 5881   2.198   5.897   1.498
 1661SOL    HW1 5882   2.115   5.909   1.552
 1661SOL    HW2 5883   2.249   5.818   1.532
 1662SOL     OW 5884   6.979   0.931   4.278
 1662SOL    HW1 5885   6.903   0.996   4.284
 1662SOL    HW2 5886   6.982   0.891   4.186
 1663SOL     OW 5887   4.677   5.368   3.408
 1663SOL    HW1 5888   4.604   5.330   3.350
 1663SOL    HW2 5889   4.700   5.301   3.479
 1664SOL     OW 5890   1.854   5.830   5.718
 1664SOL    HW1 5891   1.768   5.858   5.676
 1664SOL    HW2 5892   1.924   5.899   5.697
 1665SOL     OW 5893   6.376   3.620   1.531
 1665SOL    HW1 5894   6.329   3.692   1.583
 1665SOL    HW2 5895   6.352   3.628   1.434
 1666SOL     OW 5896   5.602   0.225   0.289
 1666SOL    HW1 5897   5.686   0.232   0.236
 1666SOL    HW2 5898   5.525   0.211   0.226
 1667SOL     OW 5899   6.854   6.057   1.751
 1667SOL    HW1 5900   6.782   6.092   1.811
 1667SOL    HW2 5901   6.851   5.957   1.750
 1668SOL     OW 5902   5.113   4.964   3.788
 1668SOL    HW1 5903   5.122   4.996   3.883
 1668SOL    HW2 5904   5.056   5.028   3.737
 1669SOL     OW 5905   6.799   4.763   5.952
 1669SOL    HW1 5906   6.880   4.821   5.947
 1669SOL    HW2 5907   6.815   4.678   5.902
 1670SOL     OW 5908   0.412   4.596   5.262
 1670SOL    HW1 5909   0.480   4.522   5.251
 1670SOL    HW2 5910   0.333   4.577   5.205
 1671SOL     OW 5911   5.582   1.060   3.232
 1671SOL    HW1 5912   5.607   1.146   3.187
 1671SOL    HW2 5913   5.647   1.041   3.306
 1672SOL     OW 5914   2.423   3.987   0.163
 1672SOL    HW1 5915   2.332   3.957   0.190
 1672SOL    HW2 5916   2.477   3.907   0.135
 1673SOL     OW 5917   0.852   1.509   4.839
 1673SOL    HW1 5918   0.798   1.467   4.912
 1673SOL    HW2 5919   0.939   1.462   4.830
 1674SOL     OW 5920   0.129   3.515   2.412
 1674SOL    HW1 5921   0.139   3.547   2.505
 1674SOL    HW2 5922   0.080   3.583   2.358
 1675SOL     OW 5923   5.044   0.215   0.067
 1675SOL    HW1 5924   5.024   0.140   0.129
 1675SOL    HW2 5925   5.004   0.299   0.102
 1676SOL     OW 5926   1.939   2.636   2.044
 1676SOL    HW1 5927   2.028   2.670   2.011
 1676SOL    HW2 5928   1.929   2.659   2.140
 1677SOL     OW 5929   4.132   3.699   3.776
 1677SOL    HW1 5930   4.125   3.636   3.853
 1677SOL    HW2 5931   4.165   3.787   3.808
 1678SOL     OW 5932   0.019   5.389   2.046
 1678SOL    HW1 5933   7.013   5.347   1.961
 1678SOL    HW2 5934   0.049   5.482   2.028
 1679SOL     OW 5935   1.356   1.280   4.554
 1679SOL    HW1 5936   1.274   1.291   4.498
 1679SOL    HW2 5937   1.421   1.353   4.532
 1680SOL     OW 5938   6.577   4.178   5.611
 1680SOL    HW1 5939   6.611   4.245   5.677
 1680SOL    HW2 5940   6.613   4.088   5.633
 1681SOL     OW 5941   1.413   5.965   6.330
 1681SOL    HW1 5942   1.446   6.057   6.307
 1681SOL    HW2 5943   1.478   5.897   6.298
 1682SOL     OW 5944   1.988   0.690   5.474
 1682SOL    HW1 5945   1.962   0.769   5.417
 1682SOL    HW2 5946   2.082   0.664   5.452
 1683SOL     OW 5947   6.284   5.451   2.574
 1683SOL    HW1 5948   6.358   5.436   2.510
 1683SOL    HW2 5949   6.196   5.442   2.527
 1684SOL     OW 5950   0.168   5.635   2.030
 1684SOL    HW1 5951   0.213   5.724   2.040
 1684SOL    HW2 5952   0.235   5.562   2.048
 1685SOL     OW 5953   2.210   1.301   5.876
 1685SOL    HW1 5954   2.133   1.361   5.853
 1685SOL    HW2 5955   2.280   1.354   5.924
 1686SOL     OW 5956   3.460   6.146   4.247
 1686SOL    HW1 5957   3.412   6.058   4.242
 1686SOL    HW2 5958   3.401   6.213   4.292
 1687SOL     OW 5959   0.747   2.729   2.013
 1687SOL    HW1 5960   0.780   2.651   1.960
 1687SOL    HW2 5961   0.745   2.704   2.110
 1688SOL     OW 5962   1.756   1.425   3.832
 1688SOL    HW1 5963   1.699   1.499   3.867
 1688SOL    HW2 5964   1.761   1.351   3.899
 1689SOL     OW 5965   6.215   0.654   2.753
 1689SOL    HW1 5966   6.216   0.659   2.653
 1689SOL    HW2 5967   6.299   0.695   2.789
 1690SOL     OW 5968   1.417   3.277   4.639
 1690SOL    HW1 5969   1.477   3.224   4.698
 1690SOL    HW2 5970   1.461   3.290   4.550
 1691SOL     OW 5971   6.020   3.399   4.253
 1691SOL    HW1 5972   5.932   3.434   4.284
 1691SOL    HW2 5973   6.040   3.313   4.299
 1692SOL     OW 5974   4.932   6.215   1.687
 1692SOL    HW1 5975   4.993   6.136   1.689
 1692SOL    HW2 5976   4.981   6.296   1.720
 1693SOL     OW 5977   6.804   2.575   3.620
 1693SOL    HW1 5978   6.890   2.578   3.570
 1693SOL    HW2 5979   6.822   2.544   3.714
 1694SOL     OW 5980   6.485   1.850   3.737
 1694SOL    HW1 5981   6.391   1.825   3.761
 1694SOL    HW2 5982   6.509   1.936   3.781
 1695SOL     OW 5983   3.036   0.563   6.474
 1695SOL    HW1 5984   2.978   0.635   6.436
 1695SOL    HW2 5985   2.985   0.477   6.474
 1696SOL     OW 5986   3.531   6.004   0.951
 1696SOL    HW1 5987   3.549   5.971   0.858
 1696SOL    HW2 5988   3.434   6.025   0.961
 1697SOL     OW 5989   6.569   1.418   1.035
 1697SOL    HW1 5990   6.539   1.454   1.123
 1697SOL    HW2 5991   6.667   1.401   1.037
 1698SOL     OW 5992   4.233   0.603   1.387
 1698SOL    HW1 5993   4.287   0.535   1.436
 1698SOL    HW2 5994   4.151   0.625   1.440
 1699SOL     OW 5995   1.883   1.724   5.946
 1699SOL    HW1 5996   1.961   1.717   6.008
 1699SOL    HW2 5997   1.912   1.699   5.853
 1700SOL     OW 5998   6.686   3.932   2.947
 1700SOL    HW1 5999   6.669   3.919   2.849
 1700SOL    HW2 6000   6.659   3.850   2.997
 1701SOL     OW 6001   5.852   6.101   5.400
 1701SOL    HW1 6002   5.764   6.074   5.438
 1701SOL    HW2 6003   5.916   6.024   5.406
 1702SOL     OW 6004   0.077   1.048   1.305
 1702SOL    HW1 6005   0.075   0.954   1.340
 1702SOL    HW2 6006   0.141   1.054   1.229
 1703SOL     OW 6007   3.751   1.125   6.757
 1703SOL    HW1 6008   3.672   1.067   6.737
 1703SOL    HW2 6009   3.826   1.068   6.791
 1704SOL     OW 6010   1.391   2.566   0.477
 1704SOL    HW1 6011   1.392   2.557   0.577
 1704SOL    HW2 6012   1.362   2.479   0.436
 1705SOL     OW 6013   3.474   2.368   1.688
 1705SOL    HW1 6014   3.508   2.334   1.600
 1705SOL    HW2 6015   3.551   2.380   1.751
 1706SOL     OW 6016   4.040   1.917   2.039
 1706SOL    HW1 6017   3.951   1.928   1.996
 1706SOL    HW2 6018   4.086   2.006   2.045
 1707SOL     OW 6019   4.834   2.633   2.902
 1707SOL    HW1 6020   4.738   2.654   2.922
 1707SOL    HW2 6021   4.885   2.631   2.988
 1708SOL     OW 6022   4.500   5.407   1.725
 1708SOL    HW1 6023   4.496   5.408   1.825
 1708SOL    HW2 6024   4.459   5.322   1.691
 1709SOL     OW 6025   3.285   6.654   2.201
 1709SOL    HW1 6026   3.233   6.714   2.263
 1709SOL    HW2 6027   3.236   6.647   2.114
 1710SOL     OW 6028   4.333   5.153   3.525
 1710SOL    HW1 6029   4.260   5.117   3.467
 1710SOL    HW2 6030   4.308   5.245   3.556
 1711SOL     OW 6031   2.080   5.283   4.684
 1711SOL    HW1 6032   2.123   5.193   4.693
 1711SOL    HW2 6033   2.141   5.345   4.635
 1712SOL     OW 6034   0.017   1.900   4.695
 1712SOL    HW1 6035   6.950   1.934   4.686
 1712SOL    HW2 6036   0.081   1.964   4.651
 1713SOL     OW 6037   4.432   1.237   2.645
 1713SOL    HW1 6038   4.470   1.326   2.620
 1713SOL    HW2 6039   4.332   1.243   2.651
 1714SOL     OW 6040   4.095   1.892   5.802
 1714SOL    HW1 6041   4.124   1.826   5.872
 1714SOL    HW2 6042   4.040   1.964   5.845
 1715SOL     OW 6043   2.170   5.806   2.994
 1715SOL    HW1 6044   2.262   5.796   3.030
 1715SOL    HW2 6045   2.168   5.880   2.927
 1716SOL     OW 6046   4.352   0.278   3.987
 1716SOL    HW1 6047   4.340   0.318   4.078
 1716SOL    HW2 6048   4.300   0.332   3.921
 1717SOL     OW 6049   3.362   5.896   4.303
 1717SOL    HW1 6050   3.373   5.892   4.402
 1717SOL    HW2 6051   3.358   5.803   4.267
 1718SOL     OW 6052   2.712   1.636   2.602
 1718SOL    HW1 6053   2.766   1.695   2.542
 1718SOL    HW2 6054   2.641   1.690   2.647
 1719SOL     OW 6055   2.101   3.469   1.062
 1719SOL    HW1 6056   2.006   3.468   1.032
 1719SOL    HW2 6057   2.124   3.382   1.105
 1720SOL     OW 6058   0.071   2.992   6.376
 1720SOL    HW1 6059   0.148   2.951   6.424
 1720SOL    HW2 6060   0.010   2.919   6.344
 1721SOL     OW 6061   1.599   6.913   1.316
 1721SOL    HW1 6062   1.522   6.849   1.317
 1721SOL    HW2 6063   1.626   6.934   1.410
 1722SOL     OW 6064   4.379   1.499   3.326
 1722SOL    HW1 6065   4.281   1.509   3.339
 1722SOL    HW2 6066   4.407   1.407   3.354
 1723SOL     OW 6067   4.747   2.806   6.990
 1723SOL    HW1 6068   4.709   2.749   0.036
 1723SOL    HW2 6069   4.831   2.764   6.955
 1724SOL     OW 6070   6.659   2.338   1.855
 1724SOL    HW1 6071   6.599   2.396   1.801
 1724SOL    HW2 6072   6.695   2.390   1.932
 1725SOL     OW 6073   1.869   5.121   6.951
 1725SOL    HW1 6074   1.802   5.123   7.024
 1725SOL    HW2 6075   1.956   5.085   6.986
 1726SOL     OW 6076   5.228   3.702   4.621
 1726SOL    HW1 6077   5.295   3.700   4.696
 1726SOL    HW2 6078   5.136   3.699   4.658
 1727SOL     OW 6079   3.942   3.407   3.814
 1727SOL    HW1 6080   3.886   3.325   3.820
 1727SOL    HW2 6081   4.008   3.407   3.890
 1728SOL     OW 6082   5.146   4.915   5.403
 1728SOL    HW1 6083   5.107   4.919   5.312
 1728SOL    HW2 6084   5.120   4.997   5.455
 1729SOL     OW 6085   1.494   3.349   3.166
 1729SOL    HW1 6086   1.414   3.341   3.226
 1729SOL    HW2 6087   1.468   3.398   3.083
 1730SOL     OW 6088   3.012   0.025   5.071
 1730SOL    HW1 6089   3.018   6.958   5.034
 1730SOL    HW2 6090   3.096   0.074   5.050
 1731SOL     OW 6091   6.323   4.816   3.436
 1731SOL    HW1 6092   6.414   4.795   3.400
 1731SOL    HW2 6093   6.262   4.739   3.421
 1732SOL     OW 6094   2.136   4.404   6.420
 1732SOL    HW1 6095   2.082   4.325   6.451
 1732SOL    HW2 6096   2.084   4.455   6.351
 1733SOL     OW 6097   2.069   4.093   2.026
 1733SOL    HW1 6098   2.084   4.192   2.029
 1733SOL    HW2 6099   1.991   4.073   1.967
 1734SOL     OW 6100   5.934   2.925   1.814
 1734SOL    HW1 6101   5.885   2.907   1.728
 1734SOL    HW2 6102   5.985   2.843   1.840
 1735SOL     OW 6103   4.530   5.513   6.052
 1735SOL    HW1 6104   4.618   5.514   6.005
 1735SOL    HW2 6105   4.537   5.568   6.135
 1736SOL     OW 6106   3.739   3.672   0.577
 1736SOL    HW1 6107   3.699   3.652   0.667
 1736SOL    HW2 6108   3.701   3.609   0.509
 1737SOL     OW 6109   5.254   6.928   4.743
 1737SOL    HW1 6110   5.204   6.895   4.664
 1737SOL    HW2 6111   5.242   0.001   4.752
 1738SOL     OW 6112   2.063   3.053   3.833
 1738SOL    HW1 6113   2.117   3.125   3.789
 1738SOL    HW2 6114   2.026   2.992   3.763
 1739SOL     OW 6115   6.392   1.006   4.534
 1739SOL    HW1 6116   6.482   1.045   4.552
 1739SOL    HW2 6117   6.331   1.025   4.612
 1740SOL     OW 6118   6.722   1.912   5.081
 1740SOL    HW1 6119   6.630   1.894   5.047
 1740SOL    HW2 6120   6.763   1.987   5.028
 1741SOL     OW 6121   3.038   0.960   4.551
 1741SOL    HW1 6122   2.994   0.895   4.613
 1741SOL    HW2 6123   3.081   0.910   4.476
 1742SOL     OW 6124   5.571   0.670   6.078
 1742SOL    HW1 6125   5.514   0.669   6.160
 1742SOL    HW2 6126   5.531   0.732   6.010
 1743SOL     OW 6127   0.657   1.048   2.493
 1743SOL    HW1 6128   0.592   0.973   2.489
 1743SOL    HW2 6129   0.620   1.127   2.443
 1744SOL     OW 6130   6.068   2.929   2.684
 1744SOL    HW1 6131   6.128   3.008   2.668
 1744SOL    HW2 6132   6.107   2.872   2.756
 1745SOL     OW 6133   5.882   6.330   2.249
 1745SOL    HW1 6134   5.858   6.298   2.341
 1745SOL    HW2 6135   5.911   6.253   2.193
 1746SOL     OW 6136   1.453   4.342   3.726
 1746SOL    HW1 6137   1.499   4.253   3.729
 1746SOL    HW2 6138   1.356   4.330   3.746
 1747SOL     OW 6139   3.271   1.493   2.691
 1747SOL    HW1 6140   3.334   1.437   2.637
 1747SOL    HW2 6141   3.194   1.521   2.632
 1748SOL     OW 6142   6.524   2.061   3.898
 1748SOL    HW1 6143   6.457   2.134   3.918
 1748SOL    HW2 6144   6.607   2.078   3.950
 1749SOL     OW 6145   2.433   6.962   6.698
 1749SOL    HW1 6146   2.344   7.009   6.697
 1749SOL    HW2 6147   2.419   6.866   6.720
 1750SOL     OW 6148   5.499   0.659   3.411
 1750SOL    HW1 6149   5.522   0.580   3.354
 1750SOL    HW2 6150   5.564   0.664   3.488
 1751SOL     OW 6151   5.241   1.431   4.776
 1751SOL    HW1 6152   5.250   1.467   4.683
 1751SOL    HW2 6153   5.305   1.356   4.790
 1752SOL     OW 6154   5.867   0.361   1.413
 1752SOL    HW1 6155   5.911   0.450   1.403
 1752SOL    HW2 6156   5.775   0.372   1.448
 1753SOL     OW 6157   6.547   0.635   1.989
 1753SOL    HW1 6158   6.498   0.617   2.074
 1753SOL    HW2 6159   6.620   0.566   1.979
 1754SOL     OW 6160   1.744   5.466   6.490
 1754SOL    HW1 6161   1.819   5.411   6.527
 1754SOL    HW2 6162   1.777   5.557   6.464
 1755SOL     OW 6163   0.253   5.992   6.506
 1755SOL    HW1 6164   0.155   5.975   6.490
 1755SOL    HW2 6165   0.269   6.090   6.517
 1756SOL     OW 6166   4.440   6.339   6.355
 1756SOL    HW1 6167   4.393   6.407   6.300
 1756SOL    HW2 6168   4.391   6.325   6.441
 1757SOL     OW 6169   3.643   5.544   5.365
 1757SOL    HW1 6170   3.581   5.468   5.346
 1757SOL    HW2 6171   3.694   5.524   5.449
 1758SOL     OW 6172   1.709   0.730   4.452
 1758SOL    HW1 6173   1.643   0.687   4.513
 1758SOL    HW2 6174   1.705   0.685   4.362
 1759SOL     OW 6175   1.580   6.392   5.499
 1759SOL    HW1 6176   1.511   6.419   5.566
 1759SOL    HW2 6177   1.671   6.411   5.535
 1760SOL     OW 6178   5.909   0.803   3.983
 1760SOL    HW1 6179   6.001   0.806   3.943
 1760SOL    HW2 6180   5.895   0.714   4.027
 1761SOL     OW 6181   6.654   0.368   1.685
 1761SOL    HW1 6182   6.714   0.366   1.605
 1761SOL    HW2 6183   6.590   0.445   1.677
 1762SOL     OW 6184   6.699   1.622   4.306
 1762SOL    HW1 6185   6.769   1.581   4.248
 1762SOL    HW2 6186   6.731   1.710   4.341
 1763SOL     OW 6187   1.254   4.669   4.711
 1763SOL    HW1 6188   1.353   4.671   4.700
 1763SOL    HW2 6189   1.228   4.722   4.792
 1764SOL     OW 6190   0.823   3.545   2.228
 1764SOL    HW1 6191   0.770   3.489   2.165
 1764SOL    HW2 6192   0.884   3.488   2.282
 1765SOL     OW 6193   3.689   1.655   1.236
 1765SOL    HW1 6194   3.601   1.698   1.218
 1765SOL    HW2 6195   3.763   1.714   1.203
 1766SOL     OW 6196   5.305   4.429   4.001
 1766SOL    HW1 6197   5.279   4.338   4.033
 1766SOL    HW2 6198   5.318   4.489   4.080
 1767SOL     OW 6199   1.132   4.845   3.406
 1767SOL    HW1 6200   1.100   4.769   3.350
 1767SOL    HW2 6201   1.054   4.886   3.454
 1768SOL     OW 6202   3.599   0.695   6.779
 1768SOL    HW1 6203   3.682   0.646   6.752
 1768SOL    HW2 6204   3.584   0.772   6.716
 1769SOL     OW 6205   5.719   0.959   0.049
 1769SOL    HW1 6206   5.736   0.881   7.016
 1769SOL    HW2 6207   5.623   0.960   0.076
 1770SOL     OW 6208   0.583   4.357   5.237
 1770SOL    HW1 6209   0.598   4.267   5.277
 1770SOL    HW2 6210   0.640   4.367   5.155
 1771SOL     OW 6211   1.528   4.954   0.444
 1771SOL    HW1 6212   1.548   5.030   0.506
 1771SOL    HW2 6213   1.514   4.989   0.351
 1772SOL     OW 6214   3.452   5.142   4.074
 1772SOL    HW1 6215   3.359   5.120   4.042
 1772SOL    HW2 6216   3.479   5.231   4.037
 1773SOL     OW 6217   1.513   2.281   5.574
 1773SOL    HW1 6218   1.490   2.374   5.604
 1773SOL    HW2 6219   1.610   2.277   5.550
 1774SOL     OW 6220   5.289   6.652   2.185
 1774SOL    HW1 6221   5.360   6.697   2.238
 1774SOL    HW2 6222   5.330   6.607   2.106
 1775SOL     OW 6223   2.272   5.833   6.705
 1775SOL    HW1 6224   2.307   5.828   6.798
 1775SOL    HW2 6225   2.309   5.758   6.651
 1776SOL     OW 6226   4.895   0.812   5.848
 1776SOL    HW1 6227   4.982   0.836   5.806
 1776SOL    HW2 6228   4.821   0.827   5.782
 1777SOL     OW 6229   3.495   6.756   6.550
 1777SOL    HW1 6230   3.539   6.799   6.471
 1777SOL    HW2 6231   3.554   6.764   6.630
 1778SOL     OW 6232   4.735   1.259   4.597
 1778SOL    HW1 6233   4.797   1.185   4.572
 1778SOL    HW2 6234   4.778   1.317   4.667
 1779SOL     OW 6235   4.910   0.084   5.517
 1779SOL    HW1 6236   4.972   0.033   5.578
 1779SOL    HW2 6237   4.823   0.035   5.510
 1780SOL     OW 6238   1.567   3.836   5.048
 1780SOL    HW1 6239   1.549   3.884   5.134
 1780SOL    HW2 6240   1.627   3.758   5.065
 1781SOL     OW 6241   5.167   0.036   5.249
 1781SOL    HW1 6242   5.100   0.110   5.256
 1781SOL    HW2 6243   5.245   0.057   5.309
 1782SOL     OW 6244   2.453   1.551   2.868
 1782SOL    HW1 6245   2.468   1.464   2.822
 1782SOL    HW2 6246   2.421   1.535   2.961
 1783SOL     OW 6247   2.415   3.626   6.117
 1783SOL    HW1 6248   2.506   3.647   6.153
 1783SOL    HW2 6249   2.408   3.529   6.095
 1784SOL     OW 6250   2.561   1.384   1.828
 1784SOL    HW1 6251   2.622   1.361   1.904
 1784SOL    HW2 6252   2.542   1.303   1.773
 1785SOL     OW 6253   0.080   6.750   4.250
 1785SOL    HW1 6254   0.145   6.726   4.323
 1785SOL    HW2 6255   0.015   6.676   4.238
 1786SOL     OW 6256   2.237   5.354   0.640
 1786SOL    HW1 6257   2.298   5.433   0.646
 1786SOL    HW2 6258   2.143   5.383   0.655
 1787SOL     OW 6259   1.965   1.963   5.760
 1787SOL    HW1 6260   1.902   1.928   5.829
 1787SOL    HW2 6261   2.002   1.887   5.706
 1788SOL     OW 6262   4.673   3.709   0.121
 1788SOL    HW1 6263   4.640   3.803   0.127
 1788SOL    HW2 6264   4.625   3.653   0.189
 1789SOL     OW 6265   6.436   2.711   1.911
 1789SOL    HW1 6266   6.512   2.770   1.882
 1789SOL    HW2 6267   6.472   2.635   1.965
 1790SOL     OW 6268   3.132   1.114   4.214
 1790SOL    HW1 6269   3.155   1.042   4.280
 1790SOL    HW2 6270   3.210   1.176   4.204
 1791SOL     OW 6271   6.417   1.043   3.388
 1791SOL    HW1 6272   6.482   1.010   3.456
 1791SOL    HW2 6273   6.388   1.136   3.411
 1792SOL     OW 6274   0.186   2.072   4.577
 1792SOL    HW1 6275   0.271   2.061   4.526
 1792SOL    HW2 6276   0.142   2.158   4.551
 1793SOL     OW 6277   6.112   1.510   4.487
 1793SOL    HW1 6278   6.179   1.470   4.425
 1793SOL    HW2 6279   6.128   1.476   4.580
 1794SOL     OW 6280   5.815   0.040   5.886
 1794SOL    HW1 6281   5.897   0.075   5.841
 1794SOL    HW2 6282   5.734   0.072   5.837
 1795SOL     OW 6283   6.112   5.118   1.375
 1795SOL    HW1 6284   6.090   5.113   1.278
 1795SOL    HW2 6285   6.040   5.074   1.429
 1796SOL     OW 6286   1.720   1.200   5.630
 1796SOL    HW1 6287   1.781   1.263   5.678
 1796SOL    HW2 6288   1.626   1.217   5.658
 1797SOL     OW 6289   1.141   0.337   5.656
 1797SOL    HW1 6290   1.147   0.429   5.617
 1797SOL    HW2 6291   1.233   0.305   5.678
 1798SOL     OW 6292   3.617   2.887   4.661
 1798SOL    HW1 6293   3.662   2.797   4.658
 1798SOL    HW2 6294   3.679   2.956   4.624
 1799SOL     OW 6295   4.084   2.620   6.625
 1799SOL    HW1 6296   4.117   2.551   6.560
 1799SOL    HW2 6297   4.129   2.707   6.607
 1800SOL     OW 6298   5.349   4.463   3.654
 1800SOL    HW1 6299   5.424   4.528   3.642
 1800SOL    HW2 6300   5.365   4.382   3.598
 1801SOL     OW 6301   0.863   2.216   1.950
 1801SOL    HW1 6302   0.920   2.211   1.868
 1801SOL    HW2 6303   0.913   2.179   2.028
 1802SOL     OW 6304   6.185   5.659   3.252
 1802SOL    HW1 6305   6.264   5.704   3.211
 1802SOL    HW2 6306   6.172   5.569   3.208
 1803SOL     OW 6307   0.323   6.613   2.621
 1803SOL    HW1 6308   0.283   6.683   2.680
 1803SOL    HW2 6309   0.402   6.651   2.573
 1804SOL     OW 6310   3.256   3.206   5.788
 1804SOL    HW1 6311   3.230   3.270   5.861
 1804SOL    HW2 6312   3.352   3.219   5.765
 1805SOL     OW 6313   1.010   5.404   6.306
 1805SOL    HW1 6314   1.030   5.452   6.221
 1805SOL    HW2 6315   1.057   5.449   6.382
 1806SOL     OW 6316   0.188   2.804   2.305
 1806SOL    HW1 6317   0.199   2.717   2.256
 1806SOL    HW2 6318   0.245   2.803   2.387
 1807SOL     OW 6319   6.130   3.750   6.835
 1807SOL    HW1 6320   6.171   3.777   6.748
 1807SOL    HW2 6321   6.111   3.831   6.890
 1808SOL     OW 6322   5.941   3.196   4.710
 1808SOL    HW1 6323   5.886   3.223   4.789
 1808SOL    HW2 6324   5.997   3.273   4.681
 1809SOL     OW 6325   3.189   1.363   5.301
 1809SOL    HW1 6326   3.157   1.318   5.385
 1809SOL    HW2 6327   3.288   1.372   5.304
 1810SOL     OW 6328   6.955   0.842   4.850
 1810SOL    HW1 6329   7.017   0.777   4.893
 1810SOL    HW2 6330   6.947   0.822   4.752
 1811SOL     OW 6331   4.688   4.874   1.590
 1811SOL    HW1 6332   4.681   4.779   1.620
 1811SOL    HW2 6333   4.631   4.887   1.509
 1812SOL     OW 6334   4.463   6.949   6.009
 1812SOL    HW1 6335   4.434   7.007   5.934
 1812SOL    HW2 6336   4.395   6.952   6.082
 1813SOL     OW 6337   4.719   4.338   2.221
 1813SOL    HW1 6338   4.664   4.368   2.143
 1813SOL    HW2 6339   4.680   4.376   2.306
 1814SOL     OW 6340   6.254   6.726   0.082
 1814SOL    HW1 6341   6.298   6.638   0.097
 1814SOL    HW2 6342   6.320   6.800   0.101
 1815SOL     OW 6343   5.527   6.244   2.568
 1815SOL    HW1 6344   5.510   6.328   2.516
 1815SOL    HW2 6345   5.512   6.262   2.665
 1816SOL     OW 6346   3.872   5.598   6.163
 1816SOL    HW1 6347   3.931   5.632   6.236
 1816SOL    HW2 6348   3.788   5.651   6.160
 1817SOL     OW 6349   3.452   1.639   3.241
 1817SOL    HW1 6350   3.356   1.665   3.234
 1817SOL    HW2 6351   3.498   1.654   3.153
 1818SOL     OW 6352   1.790   6.410   0.557
 1818SOL    HW1 6353   1.775   6.438   0.651
 1818SOL    HW2 6354   1.886   6.423   0.533
 1819SOL     OW 6355   1.699   5.023   1.872
 1819SOL    HW1 6356   1.615   5.016   1.926
 1819SOL    HW2 6357   1.689   4.969   1.788
 1820SOL     OW 6358   3.845   0.733   3.469
 1820SOL    HW1 6359   3.783   0.741   3.391
 1820SOL    HW2 6360   3.936   0.764   3.442
 1821SOL     OW 6361   3.640   1.319   1.627
 1821SOL    HW1 6362   3.656   1.414   1.599
 1821SOL    HW2 6363   3.574   1.277   1.565
 1822SOL     OW 6364   1.155   3.243   2.056
 1822SOL    HW1 6365   1.252   3.260   2.039
 1822SOL    HW2 6366   1.102   3.324   2.032
 1823SOL     OW 6367   2.934   6.468   3.186
 1823SOL    HW1 6368   3.014   6.432   3.235
 1823SOL    HW2 6369   2.854   6.460   3.245
 1824SOL     OW 6370   3.446   4.254   0.402
 1824SOL    HW1 6371   3.507   4.271   0.480
 1824SOL    HW2 6372   3.496   4.268   0.317
 1825SOL     OW 6373   0.136   3.365   5.112
 1825SOL    HW1 6374   0.049   3.399   5.150
 1825SOL    HW2 6375   0.178   3.302   5.177
 1826SOL     OW 6376   3.820   1.290   0.698
 1826SOL    HW1 6377   3.728   1.255   0.711
 1826SOL    HW2 6378   3.835   1.370   0.756
 1827SOL     OW 6379   5.123   5.445   0.853
 1827SOL    HW1 6380   5.184   5.524   0.845
 1827SOL    HW2 6381   5.154   5.386   0.927
 1828SOL     OW 6382   2.046   3.563   6.787
 1828SOL    HW1 6383   1.965   3.581   6.732
 1828SOL    HW2 6384   2.019   3.527   6.876
 1829SOL     OW 6385   3.749   0.374   3.339
 1829SOL    HW1 6386   3.819   0.434   3.377
 1829SOL    HW2 6387   3.658   0.409   3.361
 1830SOL     OW 6388   5.952   0.069   4.980
 1830SOL    HW1 6389   5.995   0.129   4.913
 1830SOL    HW2 6390   5.860   0.102   5.001
 1831SOL     OW 6391   4.619   5.970   2.640
 1831SOL    HW1 6392   4.674   5.900   2.685
 1831SOL    HW2 6393   4.668   6.005   2.560
 1832SOL     OW 6394   3.122   3.593   0.359
 1832SOL    HW1 6395   3.054   3.548   0.416
 1832SOL    HW2 6396   3.128   3.549   0.270
 1833SOL     OW 6397   5.063   0.017   1.176
 1833SOL    HW1 6398   5.023   7.011   1.090
 1833SOL    HW2 6399   5.023   0.105   1.200
 1834SOL     OW 6400   2.930   3.011   1.409
 1834SOL    HW1 6401   2.937   3.010   1.309
 1834SOL    HW2 6402   3.020   2.998   1.449
 1835SOL     OW 6403   0.234   4.983   1.455
 1835SOL    HW1 6404   0.315   4.990   1.398
 1835SOL    HW2 6405   0.171   5.058   1.434
 1836SOL     OW 6406   5.459   1.992   1.910
 1836SOL    HW1 6407   5.553   2.016   1.936
 1836SOL    HW2 6408   5.398   2.007   1.987
 1837SOL     OW 6409   2.254   0.637   5.474
 1837SOL    HW1 6410   2.258   0.624   5.573
 1837SOL    HW2 6411   2.346   0.656   5.440
 1838SOL     OW 6412   6.426   0.683   6.422
 1838SOL    HW1 6413   6.392   0.699   6.515
 1838SOL    HW2 6414   6.419   0.768   6.370
 1839SOL     OW 6415   6.361   1.614   6.547
 1839SOL    HW1 6416   6.405   1.622   6.458
 1839SOL    HW2 6417   6.427   1.582   6.615
 1840SOL     OW 6418   3.992   0.235   3.063
 1840SOL    HW1 6419   3.908   0.205   3.017
 1840SOL    HW2 6420   4.027   0.161   3.120
 1841SOL     OW 6421   2.531   0.721   2.458
 1841SOL    HW1 6422   2.589   0.645   2.429
 1841SOL    HW2 6423   2.572   0.808   2.429
 1842SOL     OW 6424   1.745   5.011   0.150
 1842SOL    HW1 6425   1.817   5.054   0.206
 1842SOL    HW2 6426   1.776   4.921   0.119
 1843SOL     OW 6427   4.557   1.030   4.661
 1843SOL    HW1 6428   4.619   1.109   4.662
 1843SOL    HW2 6429   4.606   0.948   4.689
 1844SOL     OW 6430   5.161   2.101   5.384
 1844SOL    HW1 6431   5.233   2.100   5.453
 1844SOL    HW2 6432   5.074   2.077   5.427
 1845SOL     OW 6433   3.053   0.885   3.686
 1845SOL    HW1 6434   2.991   0.925   3.753
 1845SOL    HW2 6435   3.008   0.880   3.597
 1846SOL     OW 6436   5.264   0.928   2.892
 1846SOL    HW1 6437   5.316   0.868   2.953
 1846SOL    HW2 6438   5.246   1.015   2.939
 1847SOL     OW 6439   1.690   0.592   5.303
 1847SOL    HW1 6440   1.618   0.591   5.372
 1847SOL    HW2 6441   1.740   0.679   5.309
 1848SOL     OW 6442   1.764   5.877   4.393
 1848SOL    HW1 6443   1.709   5.960   4.384
 1848SOL    HW2 6444   1.861   5.901   4.391
 1849SOL     OW 6445   4.960   3.020   2.077
 1849SOL    HW1 6446   4.952   3.093   2.145
 1849SOL    HW2 6447   4.870   2.980   2.059
 1850SOL     OW 6448   5.445   1.703   2.486
 1850SOL    HW1 6449   5.533   1.668   2.519
 1850SOL    HW2 6450   5.380   1.707   2.562
 1851SOL     OW 6451   0.898   3.173   6.561
 1851SOL    HW1 6452   0.862   3.114   6.489
 1851SOL    HW2 6453   0.989   3.206   6.534
 1852SOL     OW 6454   6.826   5.051   1.434
 1852SOL    HW1 6455   6.794   5.139   1.470
 1852SOL    HW2 6456   6.759   5.016   1.368
 1853SOL     OW 6457   6.811   2.560   3.939
 1853SOL    HW1 6458   6.799   2.658   3.950
 1853SOL    HW2 6459   6.733   2.512   3.980
 1854SOL     OW 6460   1.387   5.371   3.530
 1854SOL    HW1 6461   1.413   5.276   3.549
 1854SOL    HW2 6462   1.341   5.410   3.610
 1855SOL     OW 6463   5.523   3.302   4.837
 1855SOL    HW1 6464   5.619   3.287   4.859
 1855SOL    HW2 6465   5.466   3.251   4.902
 1856SOL     OW 6466   4.331   3.117   6.384
 1856SOL    HW1 6467   4.401   3.136   6.314
 1856SOL    HW2 6468   4.246   3.162   6.358
 1857SOL     OW 6469   5.684   1.013   0.427
 1857SOL    HW1 6470   5.773   0.970   0.407
 1857SOL    HW2 6471   5.612   0.959   0.384
 1858SOL     OW 6472   5.045   2.586   3.371
 1858SOL    HW1 6473   5.135   2.594   3.329
 1858SOL    HW2 6474   5.055   2.573   3.469
 1859SOL     OW 6475   5.272   1.773   4.053
 1859SOL    HW1 6476   5.220   1.855   4.028
 1859SOL    HW2 6477   5.337   1.795   4.126
 1860SOL     OW 6478   0.613   2.112   5.022
 1860SOL    HW1 6479   0.625   2.205   5.058
 1860SOL    HW2 6480   0.564   2.116   4.935
 1861SOL     OW 6481   5.566   0.411   2.954
 1861SOL    HW1 6482   5.632   0.484   2.938
 1861SOL    HW2 6483   5.493   0.444   3.014
 1862SOL     OW 6484   1.429   0.047   0.080
 1862SOL    HW1 6485   1.444   6.980   0.114
 1862SOL    HW2 6486   1.330   0.063   0.073
 1863SOL     OW 6487   6.997   2.640   1.137
 1863SOL    HW1 6488   6.904   2.661   1.166
 1863SOL    HW2 6489   0.036   2.686   1.197
 1864SOL     OW 6490   2.797   5.625   4.293
 1864SOL    HW1 6491   2.805   5.628   4.392
 1864SOL    HW2 6492   2.720   5.567   4.267
 1865SOL     OW 6493   3.882   0.866   1.270
 1865SOL    HW1 6494   3.842   0.933   1.331
 1865SOL    HW2 6495   3.827   0.859   1.187
 1866SOL     OW 6496   6.218   4.229   4.196
 1866SOL    HW1 6497   6.317   4.232   4.180
 1866SOL    HW2 6498   6.188   4.318   4.231
 1867SOL     OW 6499   2.443   2.884   1.312
 1867SOL    HW1 6500   2.540   2.894   1.335
 1867SOL    HW2 6501   2.391   2.862   1.394
 1868SOL     OW 6502   4.717   3.937   5.264
 1868SOL    HW1 6503   4.778   3.925   5.186
 1868SOL    HW2 6504   4.662   4.019   5.252
 1869SOL     OW 6505   5.299   2.878   3.889
 1869SOL    HW1 6506   5.238   2.957   3.887
 1869SOL    HW2 6507   5.393   2.910   3.904
 1870SOL     OW 6508   0.748   3.242   4.454
 1870SOL    HW1 6509   0.840   3.255   4.489
 1870SOL    HW2 6510   0.712   3.329   4.419
 1871SOL     OW 6511   6.914   6.543   7.023
 1871SOL    HW1 6512   6.983   6.593   0.049
 1871SOL    HW2 6513   6.875   6.602   6.953
 1872SOL     OW 6514   3.309   2.667   0.785
 1872SOL    HW1 6515   3.400   2.654   0.824
 1872SOL    HW2 6516   3.274   2.579   0.753
 1873SOL     OW 6517   6.265   0.782   6.689
 1873SOL    HW1 6518   6.228   0.875   6.681
 1873SOL    HW2 6519   6.210   0.720   6.634
 1874SOL     OW 6520   0.933   0.800   6.625
 1874SOL    HW1 6521   0.856   0.748   6.661
 1874SOL    HW2 6522   0.913   0.898   6.631
 1875SOL     OW 6523   6.548   6.093   0.609
 1875SOL    HW1 6524   6.489   6.013   0.599
 1875SOL    HW2 6525   6.597   6.109   0.524
 1876SOL     OW 6526   5.320   6.455   6.116
 1876SOL    HW1 6527   5.294   6.392   6.043
 1876SOL    HW2 6528   5.401   6.508   6.087
 1877SOL     OW 6529   0.046   1.330   2.648
 1877SOL    HW1 6530   0.105   1.284   2.715
 1877SOL    HW2 6531   0.095   1.341   2.562
 1878SOL     OW 6532   0.009   4.401   3.660
 1878SOL    HW1 6533   0.105   4.397   3.687
 1878SOL    HW2 6534   6.989   4.473   3.710
 1879SOL     OW 6535   2.637   4.925   4.024
 1879SOL    HW1 6536   2.643   4.955   4.120
 1879SOL    HW2 6537   2.672   4.832   4.016
 1880SOL     OW 6538   0.593   2.452   2.845
 1880SOL    HW1 6539   0.648   2.517   2.897
 1880SOL    HW2 6540   0.525   2.502   2.790
 1881SOL     OW 6541   0.726   2.343   3.487
 1881SOL    HW1 6542   0.757   2.433   3.520
 1881SOL    HW2 6543   0.730   2.341   3.388
 1882SOL     OW 6544   1.072   5.941   6.761
 1882SOL    HW1 6545   1.029   5.852   6.744
 1882SOL    HW2 6546   1.119   5.972   6.679
 1883SOL     OW 6547   1.465   3.527   2.963
 1883SOL    HW1 6548   1.373   3.556   2.989
 1883SOL    HW2 6549   1.530   3.600   2.984
 1884SOL     OW 6550   5.325   0.689   1.399
 1884SOL    HW1 6551   5.369   0.754   1.460
 1884SOL    HW2 6552   5.317   0.728   1.307
 1885SOL     OW 6553   6.921   1.839   0.749
 1885SOL    HW1 6554   6.827   1.832   0.783
 1885SOL    HW2 6555   6.981   1.781   0.805
 1886SOL     OW 6556   1.750   1.946   6.935
 1886SOL    HW1 6557   1.836   1.930   6.982
 1886SOL    HW2 6558   1.698   1.860   6.930
 1887SOL     OW 6559   0.187   4.364   6.090
 1887SOL    HW1 6560   0.264   4.425   6.069
 1887SOL    HW2 6561   0.197   4.329   6.183
 1888SOL     OW 6562   2.012   1.081   5.888
 1888SOL    HW1 6563   1.941   1.151   5.900
 1888SOL    HW2 6564   2.090   1.103   5.946
 1889SOL     OW 6565   4.427   3.862   0.085
 1889SOL    HW1 6566   4.455   3.884   7.018
 1889SOL    HW2 6567   4.334   3.826   0.085
 1890SOL     OW 6568   1.633   5.805   6.579
 1890SOL    HW1 6569   1.550   5.751   6.563
 1890SOL    HW2 6570   1.700   5.784   6.508
 1891SOL     OW 6571   5.195   2.606   5.498
 1891SOL    HW1 6572   5.177   2.518   5.541
 1891SOL    HW2 6573   5.172   2.602   5.401
 1892SOL     OW 6574   4.126   6.132   1.280
 1892SOL    HW1 6575   4.115   6.212   1.340
 1892SOL    HW2 6576   4.195   6.153   1.211
 1893SOL     OW 6577   3.525   2.120   4.471
 1893SOL    HW1 6578   3.614   2.162   4.488
 1893SOL    HW2 6579   3.462   2.147   4.544
 1894SOL     OW 6580   4.340   3.637   1.640
 1894SOL    HW1 6581   4.250   3.677   1.659
 1894SOL    HW2 6582   4.391   3.698   1.579
 1895SOL     OW 6583   6.224   0.606   2.478
 1895SOL    HW1 6584   6.170   0.536   2.430
 1895SOL    HW2 6585   6.275   0.660   2.411
 1896SOL     OW 6586   6.550   1.208   3.563
 1896SOL    HW1 6587   6.607   1.283   3.530
 1896SOL    HW2 6588   6.457   1.242   3.579
 1897SOL     OW 6589   7.011   5.213   3.669
 1897SOL    HW1 6590   6.941   5.215   3.598
 1897SOL    HW2 6591   6.972   5.178   3.754
 1898SOL     OW 6592   3.530   6.272   1.457
 1898SOL    HW1 6593   3.630   6.278   1.459
 1898SOL    HW2 6594   3.492   6.364   1.448
 1899SOL     OW 6595   0.861   3.862   2.856
 1899SOL    HW1 6596   0.806   3.789   2.816
 1899SOL    HW2 6597   0.899   3.919   2.783
 1900SOL     OW 6598   0.963   0.187   6.196
 1900SOL    HW1 6599   1.041   0.166   6.254
 1900SOL    HW2 6600   0.913   0.265   6.233
 1901SOL     OW 6601   2.311   1.430   0.467
 1901SOL    HW1 6602   2.238   1.498   0.477
 1901SOL    HW2 6603   2.271   1.338   0.465
 1902SOL     OW 6604   1.394   2.780   4.699
 1902SOL    HW1 6605   1.335   2.845   4.652
 1902SOL    HW2 6606   1.373   2.687   4.670
 1903SOL     OW 6607   0.410   3.668   3.248
 1903SOL    HW1 6608   0.452   3.599   3.188
 1903SOL    HW2 6609   0.362   3.622   3.323
 1904SOL     OW 6610   6.647   7.002   4.689
 1904SOL    HW1 6611   6.725   6.995   4.626
 1904SOL    HW2 6612   6.626   0.071   4.706
 1905SOL     OW 6613   0.025   2.958   3.773
 1905SOL    HW1 6614   0.099   3.025   3.780
 1905SOL    HW2 6615   7.020   2.953   3.679
 1906SOL     OW 6616   2.728   0.077   5.533
 1906SOL    HW1 6617   2.820   0.087   5.497
 1906SOL    HW2 6618   2.679   0.007   5.482
 1907SOL     OW 6619   3.201   0.234   3.538
 1907SOL    HW1 6620   3.250   0.284   3.609
 1907SOL    HW2 6621   3.255   0.155   3.509
 1908SOL     OW 6622   4.525   1.086   5.602
 1908SOL    HW1 6623   4.438   1.093   5.650
 1908SOL    HW2 6624   4.555   1.178   5.576
 1909SOL     OW 6625   2.270   4.256   4.577
 1909SOL    HW1 6626   2.348   4.200   4.605
 1909SOL    HW2 6627   2.186   4.203   4.590
 1910SOL     OW 6628   5.710   2.837   6.247
 1910SOL    HW1 6629   5.640   2.868   6.183
 1910SOL    HW2 6630   5.742   2.914   6.302
 1911SOL     OW 6631   6.492   2.128   5.387
 1911SOL    HW1 6632   6.436   2.093   5.311
 1911SOL    HW2 6633   6.511   2.225   5.373
 1912SOL     OW 6634   3.839   6.007   2.416
 1912SOL    HW1 6635   3.916   6.068   2.394
 1912SOL    HW2 6636   3.757   6.061   2.430
 1913SOL     OW 6637   1.833   6.730   5.154
 1913SOL    HW1 6638   1.804   6.757   5.063
 1913SOL    HW2 6639   1.911   6.668   5.148
 1914SOL     OW 6640   2.435   2.111   6.413
 1914SOL    HW1 6641   2.362   2.174   6.387
 1914SOL    HW2 6642   2.518   2.136   6.363
 1915SOL     OW 6643   3.744   1.620   5.811
 1915SOL    HW1 6644   3.719   1.637   5.906
 1915SOL    HW2 6645   3.739   1.705   5.759
 1916SOL     OW 6646   3.924   5.994   1.124
 1916SOL    HW1 6647   3.977   6.047   1.190
 1916SOL    HW2 6648   3.957   5.900   1.123
 1917SOL     OW 6649   3.472   3.279   4.867
 1917SOL    HW1 6650   3.411   3.308   4.793
 1917SOL    HW2 6651   3.454   3.183   4.890
 1918SOL     OW 6652   5.909   6.785   5.868
 1918SOL    HW1 6653   5.984   6.843   5.898
 1918SOL    HW2 6654   5.821   6.831   5.884
 1919SOL     OW 6655   1.164   6.525   1.776
 1919SOL    HW1 6656   1.065   6.514   1.788
 1919SOL    HW2 6657   1.200   6.580   1.851
 1920SOL     OW 6658   0.277   4.386   3.661
 1920SOL    HW1 6659   0.330   4.437   3.729
 1920SOL    HW2 6660   0.280   4.433   3.573
 1921SOL     OW 6661   0.176   5.195   6.954
 1921SOL    HW1 6662   0.181   5.287   6.916
 1921SOL    HW2 6663   0.105   5.143   6.907
 1922SOL     OW 6664   4.182   3.063   1.128
 1922SOL    HW1 6665   4.278   3.035   1.124
 1922SOL    HW2 6666   4.176   3.162   1.125
 1923SOL     OW 6667   3.082   1.399   0.382
 1923SOL    HW1 6668   3.159   1.391   0.319
 1923SOL    HW2 6669   2.996   1.384   0.332
 1924SOL     OW 6670   5.742   5.015   2.025
 1924SOL    HW1 6671   5.643   5.029   2.031
 1924SOL    HW2 6672   5.787   5.065   2.099
 1925SOL     OW 6673   2.868   3.714   1.738
 1925SOL    HW1 6674   2.783   3.761   1.762
 1925SOL    HW2 6675   2.925   3.774   1.682
 1926SOL     OW 6676   1.427   0.031   4.303
 1926SOL    HW1 6677   1.398   0.125   4.323
 1926SOL    HW2 6678   1.378   6.994   4.364
 1927SOL     OW 6679   3.792   5.184   6.219
 1927SOL    HW1 6680   3.810   5.123   6.296
 1927SOL    HW2 6681   3.856   5.162   6.145
 1928SOL     OW 6682   6.913   3.701   6.203
 1928SOL    HW1 6683   6.958   3.640   6.138
 1928SOL    HW2 6684   6.976   3.776   6.227
 1929SOL     OW 6685   0.791   5.321   1.509
 1929SOL    HW1 6686   0.845   5.284   1.585
 1929SOL    HW2 6687   0.752   5.409   1.537
 1930SOL     OW 6688   5.434   4.453   6.944
 1930SOL    HW1 6689   5.393   4.430   0.006
 1930SOL    HW2 6690   5.381   4.410   6.871
 1931SOL     OW 6691   0.173   3.415   3.169
 1931SOL    HW1 6692   0.233   3.460   3.103
 1931SOL    HW2 6693   0.092   3.472   3.185
 1932SOL     OW 6694   5.512   3.654   2.796
 1932SOL    HW1 6695   5.457   3.576   2.827
 1932SOL    HW2 6696   5.457   3.713   2.738
 1933SOL     OW 6697   2.175   4.938   1.192
 1933SOL    HW1 6698   2.208   4.928   1.098
 1933SOL    HW2 6699   2.245   4.983   1.247
 1934SOL     OW 6700   0.361   0.243   5.709
 1934SOL    HW1 6701   0.376   0.197   5.621
 1934SOL    HW2 6702   0.420   0.324   5.715
 1935SOL     OW 6703   3.327   0.396   4.972
 1935SOL    HW1 6704   3.367   0.458   4.905
 1935SOL    HW2 6705   3.394   0.376   5.044
 1936SOL     OW 6706   5.466   4.798   4.110
 1936SOL    HW1 6707   5.449   4.893   4.133
 1936SOL    HW2 6708   5.460   4.785   4.011
 1937SOL     OW 6709   3.959   6.735   1.863
 1937SOL    HW1 6710   3.908   6.812   1.901
 1937SOL    HW2 6711   4.029   6.706   1.928
 1938SOL     OW 6712   4.686   1.371   2.789
 1938SOL    HW1 6713   4.729   1.282   2.797
 1938SOL    HW2 6714   4.756   1.441   2.775
 1939SOL     OW 6715   0.688   6.768   4.184
 1939SOL    HW1 6716   0.655   6.794   4.274
 1939SOL    HW2 6717   0.614   6.776   4.117
 1940SOL     OW 6718   4.937   5.110   6.019
 1940SOL    HW1 6719   4.916   5.017   5.989
 1940SOL    HW2 6720   4.924   5.117   6.118
 1941SOL     OW 6721   0.021   3.639   3.223
 1941SOL    HW1 6722   0.091   3.643   3.294
 1941SOL    HW2 6723   7.012   3.730   3.206
 1942SOL     OW 6724   6.594   0.008   2.607
 1942SOL    HW1 6725   6.646   0.064   2.673
 1942SOL    HW2 6726   6.535   6.971   2.656
 1943SOL     OW 6727   3.164   6.072   2.370
 1943SOL    HW1 6728   3.142   6.043   2.276
 1943SOL    HW2 6729   3.137   6.167   2.383
 1944SOL     OW 6730   4.959   2.322   6.228
 1944SOL    HW1 6731   4.988   2.320   6.132
 1944SOL    HW2 6732   4.893   2.396   6.241
 1945SOL     OW 6733   3.794   5.555   2.810
 1945SOL    HW1 6734   3.874   5.525   2.759
 1945SOL    HW2 6735   3.780   5.653   2.796
 1946SOL     OW 6736   0.107   0.712   0.116
 1946SOL    HW1 6737   0.151   0.771   0.183
 1946SOL    HW2 6738   0.177   0.662   0.064
 1947SOL     OW 6739   5.380   6.582   3.723
 1947SOL    HW1 6740   5.447   6.656   3.719
 1947SOL    HW2 6741   5.308   6.606   3.788
 1948SOL     OW 6742   6.542   5.471   3.560
 1948SOL    HW1 6743   6.527   5.501   3.465
 1948SOL    HW2 6744   6.640   5.472   3.580
 1949SOL     OW 6745   4.422   4.385   5.783
 1949SOL    HW1 6746   4.480   4.421   5.710
 1949SOL    HW2 6747   4.361   4.315   5.745
 1950SOL     OW 6748   3.847   3.856   1.006
 1950SOL    HW1 6749   3.790   3.922   1.056
 1950SOL    HW2 6750   3.789   3.785   0.967
 1951SOL     OW 6751   6.678   3.621   0.408
 1951SOL    HW1 6752   6.662   3.714   0.375
 1951SOL    HW2 6753   6.776   3.601   0.405
 1952SOL     OW 6754   3.547   2.151   6.832
 1952SOL    HW1 6755   3.594   2.172   6.747
 1952SOL    HW2 6756   3.468   2.212   6.842
 1953SOL     OW 6757   6.266   2.324   6.585
 1953SOL    HW1 6758   6.334   2.395   6.602
 1953SOL    HW2 6759   6.308   2.249   6.533
 1954SOL     OW 6760   5.832   1.331   4.119
 1954SOL    HW1 6761   5.853   1.252   4.063
 1954SOL    HW2 6762   5.778   1.302   4.199
 1955SOL     OW 6763   1.421   6.927   2.026
 1955SOL    HW1 6764   1.514   6.930   2.062
 1955SOL    HW2 6765   1.417   6.977   1.939
 1956SOL     OW 6766   6.036   6.709   2.497
 1956SOL    HW1 6767   6.041   6.805   2.527
 1956SOL    HW2 6768   5.962   6.663   2.546
 1957SOL     OW 6769   6.601   4.840   4.768
 1957SOL    HW1 6770   6.505   4.813   4.780
 1957SOL    HW2 6771   6.614   4.932   4.803
 1958SOL     OW 6772   6.245   2.809   4.355
 1958SOL    HW1 6773   6.259   2.874   4.430
 1958SOL    HW2 6774   6.278   2.848   4.270
 1959SOL     OW 6775   0.072   2.093   6.063
 1959SOL    HW1 6776   7.006   2.057   6.071
 1959SOL    HW2 6777   0.114   2.059   5.979
 1960SOL     OW 6778   6.223   4.751   0.725
 1960SOL    HW1 6779   6.163   4.818   0.682
 1960SOL    HW2 6780   6.293   4.798   0.778
 1961SOL     OW 6781   5.730   4.528   4.465
 1961SOL    HW1 6782   5.733   4.428   4.475
 1961SOL    HW2 6783   5.703   4.550   4.371
 1962SOL     OW 6784   2.725   6.368   2.791
 1962SOL    HW1 6785   2.639   6.395   2.748
 1962SOL    HW2 6786   2.762   6.445   2.842
 1963SOL     OW 6787   0.651   0.949   1.436
 1963SOL    HW1 6788   0.573   0.901   1.476
 1963SOL    HW2 6789   0.705   0.992   1.509
 1964SOL     OW 6790   4.781   2.665   1.687
 1964SOL    HW1 6791   4.745   2.656   1.780
 1964SOL    HW2 6792   4.854   2.733   1.687
 1965SOL     OW 6793   1.025   3.362   3.099
 1965SOL    HW1 6794   0.992   3.303   3.026
 1965SOL    HW2 6795   0.973   3.448   3.100
 1966SOL     OW 6796   6.945   5.641   4.839
 1966SOL    HW1 6797   6.972   5.723   4.889
 1966SOL    HW2 6798   6.849   5.621   4.858
 1967SOL     OW 6799   4.759   2.271   5.467
 1967SOL    HW1 6800   4.800   2.201   5.409
 1967SOL    HW2 6801   4.678   2.234   5.512
 1968SOL     OW 6802   2.716   6.139   0.678
 1968SOL    HW1 6803   2.777   6.088   0.738
 1968SOL    HW2 6804   2.621   6.126   0.708
 1969SOL     OW 6805   0.405   1.536   1.218
 1969SOL    HW1 6806   0.325   1.479   1.237
 1969SOL    HW2 6807   0.376   1.631   1.208
 1970SOL     OW 6808   2.546   0.827   6.555
 1970SOL    HW1 6809   2.487   0.905   6.575
 1970SOL    HW2 6810   2.539   0.803   6.458
 1971SOL     OW 6811   5.824   6.671   6.140
 1971SOL    HW1 6812   5.855   6.676   6.045
 1971SOL    HW2 6813   5.813   6.575   6.167
 1972SOL     OW 6814   6.835   2.784   3.054
 1972SOL    HW1 6815   6.746   2.739   3.049
 1972SOL    HW2 6816   6.848   2.821   3.146
 1973SOL     OW 6817   2.827   3.376   1.153
 1973SOL    HW1 6818   2.814   3.417   1.062
 1973SOL    HW2 6819   2.748   3.400   1.211
 1974SOL     OW 6820   6.343   5.742   4.125
 1974SOL    HW1 6821   6.263   5.716   4.179
 1974SOL    HW2 6822   6.327   5.830   4.080
 1975SOL     OW 6823   2.313   1.420   3.356
 1975SOL    HW1 6824   2.307   1.333   3.406
 1975SOL    HW2 6825   2.252   1.487   3.398
 1976SOL     OW 6826   0.509   5.703   6.708
 1976SOL    HW1 6827   0.441   5.678   6.639
 1976SOL    HW2 6828   0.586   5.639   6.703
 1977SOL     OW 6829   1.643   2.679   3.508
 1977SOL    HW1 6830   1.726   2.635   3.473
 1977SOL    HW2 6831   1.617   2.637   3.595
 1978SOL     OW 6832   0.799   0.441   3.996
 1978SOL    HW1 6833   0.788   0.504   3.919
 1978SOL    HW2 6834   0.731   0.368   3.991
 1979SOL     OW 6835   6.819   4.144   4.904
 1979SOL    HW1 6836   6.772   4.204   4.840
 1979SOL    HW2 6837   6.909   4.182   4.927
 1980SOL     OW 6838   3.165   1.178   6.547
 1980SOL    HW1 6839   3.131   1.269   6.525
 1980SOL    HW2 6840   3.147   1.116   6.470
 1981SOL     OW 6841   5.947   1.985   2.754
 1981SOL    HW1 6842   6.009   2.039   2.698
 1981SOL    HW2 6843   5.999   1.920   2.809
 1982SOL     OW 6844   7.024   4.241   5.475
 1982SOL    HW1 6845   7.024   4.213   5.571
 1982SOL    HW2 6846   6.930   4.244   5.441
 1983SOL     OW 6847   1.052   2.040   2.653
 1983SOL    HW1 6848   0.977   1.979   2.678
 1983SOL    HW2 6849   1.036   2.076   2.560
 1984SOL     OW 6850   5.594   0.531   4.833
 1984SOL    HW1 6851   5.647   0.586   4.896
 1984SOL    HW2 6852   5.655   0.484   4.769
 1985SOL     OW 6853   0.860   0.815   2.449
 1985SOL    HW1 6854   0.856   0.872   2.530
 1985SOL    HW2 6855   0.936   0.844   2.391
 1986SOL     OW 6856   1.224   0.457   0.734
 1986SOL    HW1 6857   1.297   0.399   0.696
 1986SOL    HW2 6858   1.252   0.552   0.731
 1987SOL     OW 6859   1.402   3.311   2.011
 1987SOL    HW1 6860   1.391   3.315   1.911
 1987SOL    HW2 6861   1.469   3.241   2.034
 1988SOL     OW 6862   4.562   4.676   1.063
 1988SOL    HW1 6863   4.508   4.752   1.100
 1988SOL    HW2 6864   4.653   4.676   1.105
 1989SOL     OW 6865   2.550   6.582   5.207
 1989SOL    HW1 6866   2.474   6.634   5.168
 1989SOL    HW2 6867   2.536   6.484   5.188
 1990SOL     OW 6868   3.638   6.813   1.170
 1990SOL    HW1 6869   3.642   6.899   1.220
 1990SOL    HW2 6870   3.603   6.829   1.078
 1991SOL     OW 6871   3.931   4.707   6.161
 1991SOL    HW1 6872   3.942   4.627   6.101
 1991SOL    HW2 6873   3.949   4.790   6.108
 1992SOL     OW 6874   1.127   0.114   6.798
 1992SOL    HW1 6875   1.073   0.044   6.846
 1992SOL    HW2 6876   1.145   0.190   6.860
 1993SOL     OW 6877   4.261   3.760   5.224
 1993SOL    HW1 6878   4.166   3.735   5.243
 1993SOL    HW2 6879   4.279   3.751   5.126
 1994SOL     OW 6880   1.553   1.874   0.933
 1994SOL    HW1 6881   1.627   1.810   0.914
 1994SOL    HW2 6882   1.573   1.963   0.891
 1995SOL     OW 6883   6.401   2.475   1.261
 1995SOL    HW1 6884   6.349   2.559   1.272
 1995SOL    HW2 6885   6.497   2.492   1.282
 1996SOL     OW 6886   3.232   3.581   0.806
 1996SOL    HW1 6887   3.205   3.616   0.716
 1996SOL    HW2 6888   3.302   3.641   0.845
 1997SOL     OW 6889   5.227   0.366   5.709
 1997SOL    HW1 6890   5.141   0.385   5.757
 1997SOL    HW2 6891   5.297   0.428   5.742
 1998SOL     OW 6892   3.046   3.572   5.840
 1998SOL    HW1 6893   3.034   3.646   5.906
 1998SOL    HW2 6894   2.985   3.586   5.762
 1999SOL     OW 6895   2.829   6.982   1.892
 1999SOL    HW1 6896   2.763   0.029   1.907
 1999SOL    HW2 6897   2.789   6.913   1.830
 2000SOL     OW 6898   3.742   1.980   5.392
 2000SOL    HW1 6899   3.702   1.993   5.302
 2000SOL    HW2 6900   3.691   2.033   5.460
 2001SOL     OW 6901   3.455   2.100   1.825
 2001SOL    HW1 6902   3.529   2.125   1.888
 2001SOL    HW2 6903   3.404   2.183   1.800
 2002SOL     OW 6904   1.042   5.605   6.121
 2002SOL    HW1 6905   1.037   5.696   6.162
 2002SOL    HW2 6906   0.978   5.601   6.044
 2003SOL     OW 6907   5.688   0.191   3.331
 2003SOL    HW1 6908   5.748   0.135   3.388
 2003SOL    HW2 6909   5.698   0.162   3.235
 2004SOL     OW 6910   5.330   1.539   5.112
 2004SOL    HW1 6911   5.348   1.535   5.211
 2004SOL    HW2 6912   5.246   1.591   5.096
 2005SOL     OW 6913   1.055   5.274   6.762
 2005SOL    HW1 6914   0.989   5.345   6.787
 2005SOL    HW2 6915   1.056   5.262   6.663
 2006SOL     OW 6916   5.033   4.331   3.967
 2006SOL    HW1 6917   5.052   4.255   4.028
 2006SOL    HW2 6918   4.946   4.314   3.920
 2007SOL     OW 6919   4.426   5.564   0.656
 2007SOL    HW1 6920   4.393   5.555   0.563
 2007SOL    HW2 6921   4.517   5.606   0.655
 2008SOL     OW 6922   1.311   6.063   3.013
 2008SOL    HW1 6923   1.385   6.093   2.953
 2008SOL    HW2 6924   1.313   5.963   3.021
 2009SOL     OW 6925   6.500   6.864   1.327
 2009SOL    HW1 6926   6.534   6.800   1.397
 2009SOL    HW2 6927   6.576   6.922   1.297
 2010SOL     OW 6928   1.396   0.898   0.931
 2010SOL    HW1 6929   1.441   0.958   0.865
 2010SOL    HW2 6930   1.315   0.944   0.967
 2011SOL     OW 6931   0.180   2.087   5.103
 2011SOL    HW1 6932   0.105   2.078   5.037
 2011SOL    HW2 6933   0.250   2.019   5.081
 2012SOL     OW 6934   0.647   3.208   1.691
 2012SOL    HW1 6935   0.563   3.191   1.742
 2012SOL    HW2 6936   0.647   3.303   1.659
 2013SOL     OW 6937   5.889   0.452   3.137
 2013SOL    HW1 6938   5.922   0.358   3.142
 2013SOL    HW2 6939   5.861   0.473   3.044
 2014SOL     OW 6940   1.712   5.428   2.628
 2014SOL    HW1 6941   1.775   5.428   2.705
 2014SOL    HW2 6942   1.661   5.514   2.625
 2015SOL     OW 6943   2.387   1.258   6.512
 2015SOL    HW1 6944   2.443   1.302   6.582
 2015SOL    HW2 6945   2.341   1.329   6.458
 2016SOL     OW 6946   1.168   5.397   5.302
 2016SOL    HW1 6947   1.161   5.344   5.218
 2016SOL    HW2 6948   1.154   5.336   5.381
 2017SOL     OW 6949   2.941   6.502   4.688
 2017SOL    HW1 6950   2.906   6.443   4.760
 2017SOL    HW2 6951   2.876   6.502   4.611
 2018SOL     OW 6952   5.764   6.397   6.194
 2018SOL    HW1 6953   5.729   6.351   6.112
 2018SOL    HW2 6954   5.693   6.396   6.265
 2019SOL     OW 6955   4.399   2.369   2.450
 2019SOL    HW1 6956   4.328   2.358   2.520
 2019SOL    HW2 6957   4.358   2.361   2.359
 2020SOL     OW 6958   1.569   5.606   5.532
 2020SOL    HW1 6959   1.594   5.519   5.574
 2020SOL    HW2 6960   1.544   5.672   5.604
 2021SOL     OW 6961   2.089   6.077   3.785
 2021SOL    HW1 6962   1.993   6.060   3.809
 2021SOL    HW2 6963   2.137   5.990   3.776
 2022SOL     OW 6964   2.148   3.703   2.311
 2022SOL    HW1 6965   2.150   3.605   2.293
 2022SOL    HW2 6966   2.241   3.736   2.327
 2023SOL     OW 6967   7.012   1.353   6.701
 2023SOL    HW1 6968   0.017   1.318   6.613
 2023SOL    HW2 6969   0.064   1.382   6.755
 2024SOL     OW 6970   0.032   0.960   2.467
 2024SOL    HW1 6971   0.017   1.053   2.434
 2024SOL    HW2 6972   0.069   0.904   2.393
 2025SOL     OW 6973   2.064   2.851   2.217
 2025SOL    HW1 6974   2.080   2.881   2.123
 2025SOL    HW2 6975   2.002   2.916   2.262
 2026SOL     OW 6976   1.716   2.362   6.052
 2026SOL    HW1 6977   1.634   2.304   6.043
 2026SOL    HW2 6978   1.797   2.304   6.061
 2027SOL     OW 6979   0.925   1.246   1.382
 2027SOL    HW1 6980   0.845   1.250   1.322
 2027SOL    HW2 6981   0.981   1.166   1.358
 2028SOL     OW 6982   3.170   1.462   6.568
 2028SOL    HW1 6983   3.239   1.487   6.500
 2028SOL    HW2 6984   3.172   1.529   6.643
 2029SOL     OW 6985   0.007   0.418   0.562
 2029SOL    HW1 6986   6.992   0.491   0.616
 2029SOL    HW2 6987   0.013   0.446   0.466
 2030SOL     OW 6988   2.692   0.637   3.866
 2030SOL    HW1 6989   2.599   0.613   3.896
 2030SOL    HW2 6990   2.716   0.583   3.786
 2031SOL     OW 6991   5.243   6.206   2.694
 2031SOL    HW1 6992   5.280   6.113   2.688
 2031SOL    HW2 6993   5.263   6.254   2.609
 2032SOL     OW 6994   3.703   6.614   1.733
 2032SOL    HW1 6995   3.678   6.710   1.721
 2032SOL    HW2 6996   3.771   6.606   1.805
 2033SOL     OW 6997   3.384   4.556   6.941
 2033SOL    HW1 6998   3.323   4.631   6.965
 2033SOL    HW2 6999   3.415   4.567   6.847
 2034SOL     OW 7000   3.474   6.973   4.586
 2034SOL    HW1 7001   3.551   6.927   4.542
 2034SOL    HW2 7002   3.414   6.905   4.628
 2035SOL     OW 7003   0.391   0.737   2.345
 2035SOL    HW1 7004   0.489   0.745   2.329
 2035SOL    HW2 7005   0.342   0.799   2.284
 2036SOL     OW 7006   0.564   5.816   2.980
 2036SOL    HW1 7007   0.581   5.862   2.893
 2036SOL    HW2 7008   0.596   5.722   2.975
 2037SOL     OW 7009   0.281   2.190   6.261
 2037SOL    HW1 7010   0.225   2.268   6.233
 2037SOL    HW2 7011   0.255   2.110   6.207
 2038SOL     OW 7012   1.416   1.620   6.460
 2038SOL    HW1 7013   1.364   1.703   6.442
 2038SOL    HW2 7014   1.492   1.642   6.522
 2039SOL     OW 7015   0.267   4.821   2.052
 2039SOL    HW1 7016   0.260   4.857   2.144
 2039SOL    HW2 7017   0.217   4.880   1.989
 2040SOL     OW 7018   3.109   2.885   5.347
 2040SOL    HW1 7019   3.143   2.955   5.409
 2040SOL    HW2 7020   3.145   2.902   5.255
 2041SOL     OW 7021   6.775   5.840   5.696
 2041SOL    HW1 7022   6.778   5.872   5.601
 2041SOL    HW2 7023   6.841   5.891   5.750
 2042SOL     OW 7024   5.413   5.239   6.797
 2042SOL    HW1 7025   5.390   5.311   6.731
 2042SOL    HW2 7026   5.360   5.251   6.880
 2043SOL     OW 7027   6.657   4.124   2.562
 2043SOL    HW1 7028   6.563   4.127   2.529
 2043SOL    HW2 7029   6.715   4.182   2.504
 2044SOL     OW 7030   4.693   0.207   2.210
 2044SOL    HW1 7031   4.601   0.168   2.210
 2044SOL    HW2 7032   4.758   0.138   2.240
 2045SOL     OW 7033   1.842   4.718   5.081
 2045SOL    HW1 7034   1.861   4.790   5.014
 2045SOL    HW2 7035   1.844   4.629   5.035
 2046SOL     OW 7036   6.854   1.212   4.045
 2046SOL    HW1 7037   6.793   1.154   4.099
 2046SOL    HW2 7038   6.830   1.308   4.060
 2047SOL     OW 7039   4.554   2.020   0.456
 2047SOL    HW1 7040   4.559   2.058   0.548
 2047SOL    HW2 7041   4.462   1.982   0.440
 2048SOL     OW 7042   1.955   5.400   0.672
 2048SOL    HW1 7043   1.888   5.326   0.677
 2048SOL    HW2 7044   1.926   5.467   0.604
 2049SOL     OW 7045   4.454   1.260   6.528
 2049SOL    HW1 7046   4.380   1.323   6.550
 2049SOL    HW2 7047   4.540   1.311   6.521
 2050SOL     OW 7048   6.438   2.089   3.074
 2050SOL    HW1 7049   6.372   2.091   3.000
 2050SOL    HW2 7050   6.523   2.047   3.042
 2051SOL     OW 7051   0.129   5.734   0.864
 2051SOL    HW1 7052   0.059   5.704   0.930
 2051SOL    HW2 7053   0.211   5.677   0.875
 2052SOL     OW 7054   0.244   4.256   0.472
 2052SOL    HW1 7055   0.300   4.204   0.536
 2052SOL    HW2 7056   0.253   4.216   0.380
 2053SOL     OW 7057   6.386   0.768   6.013
 2053SOL    HW1 7058   6.292   0.801   6.020
 2053SOL    HW2 7059   6.387   0.676   5.974
 2054SOL     OW 7060   4.439   2.534   1.379
 2054SOL    HW1 7061   4.534   2.532   1.412
 2054SOL    HW2 7062   4.380   2.571   1.451
 2055SOL     OW 7063   6.212   3.140   2.582
 2055SOL    HW1 7064   6.181   3.226   2.541
 2055SOL    HW2 7065   6.307   3.124   2.558
 2056SOL     OW 7066   2.405   0.842   3.115
 2056SOL    HW1 7067   2.335   0.914   3.120
 2056SOL    HW2 7068   2.392   0.778   3.191
 2057SOL     OW 7069   5.596   3.005   3.395
 2057SOL    HW1 7070   5.658   3.047   3.461
 2057SOL    HW2 7071   5.620   3.036   3.303
 2058SOL     OW 7072   1.438   1.688   3.331
 2058SOL    HW1 7073   1.438   1.787   3.321
 2058SOL    HW2 7074   1.477   1.646   3.249
 2059SOL     OW 7075   2.627   6.315   6.914
 2059SOL    HW1 7076   2.653   6.387   6.849
 2059SOL    HW2 7077   2.546   6.268   6.880
 2060SOL     OW 7078   6.099   4.276   0.345
 2060SOL    HW1 7079   6.061   4.286   0.253
 2060SOL    HW2 7080   6.094   4.363   0.393
 2061SOL     OW 7081   1.077   1.580   2.836
 2061SOL    HW1 7082   1.045   1.625   2.920
 2061SOL    HW2 7083   1.097   1.484   2.855
 2062SOL     OW 7084   6.117   0.773   3.601
 2062SOL    HW1 7085   6.066   0.749   3.518
 2062SOL    HW2 7086   6.213   0.745   3.590
 2063SOL     OW 7087   1.985   0.352   6.020
 2063SOL    HW1 7088   1.978   0.438   6.071
 2063SOL    HW2 7089   2.006   0.373   5.924
 2064SOL     OW 7090   1.197   2.049   6.067
 2064SOL    HW1 7091   1.248   2.050   5.980
 2064SOL    HW2 7092   1.257   2.018   6.140
 2065SOL     OW 7093   6.848   3.555   3.068
 2065SOL    HW1 7094   6.934   3.573   3.116
 2065SOL    HW2 7095   6.867   3.535   2.972
 2066SOL     OW 7096   0.420   5.681   3.385
 2066SOL    HW1 7097   0.422   5.630   3.299
 2066SOL    HW2 7098   0.503   5.737   3.391
 2067SOL     OW 7099   6.830   5.605   0.873
 2067SOL    HW1 7100   6.752   5.581   0.931
 2067SOL    HW2 7101   6.806   5.684   0.817
 2068SOL     OW 7102   1.572   1.885   5.151
 2068SOL    HW1 7103   1.586   1.834   5.066
 2068SOL    HW2 7104   1.475   1.911   5.159
 2069SOL     OW 7105   0.802   3.063   3.165
 2069SOL    HW1 7106   0.735   2.999   3.129
 2069SOL    HW2 7107   0.852   3.021   3.241
 2070SOL     OW 7108   1.023   0.569   2.460
 2070SOL    HW1 7109   0.973   0.656   2.460
 2070SOL    HW2 7110   1.107   0.578   2.406
 2071SOL     OW 7111   6.525   6.228   5.149
 2071SOL    HW1 7112   6.513   6.134   5.117
 2071SOL    HW2 7113   6.436   6.273   5.151
 2072SOL     OW 7114   4.458   6.745   2.302
 2072SOL    HW1 7115   4.451   6.822   2.365
 2072SOL    HW2 7116   4.409   6.667   2.340
 2073SOL     OW 7117   4.145   0.013   4.254
 2073SOL    HW1 7118   4.209   0.074   4.300
 2073SOL    HW2 7119   4.171   0.003   4.158
 2074SOL     OW 7120   1.370   3.439   0.553
 2074SOL    HW1 7121   1.326   3.362   0.505
 2074SOL    HW2 7122   1.344   3.437   0.650
 2075SOL     OW 7123   5.518   2.817   1.365
 2075SOL    HW1 7124   5.473   2.873   1.435
 2075SOL    HW2 7125   5.554   2.876   1.293
 2076SOL     OW 7126   4.870   0.194   6.612
 2076SOL    HW1 7127   4.935   0.161   6.544
 2076SOL    HW2 7128   4.777   0.189   6.575
 2077SOL     OW 7129   5.404   1.963   2.740
 2077SOL    HW1 7130   5.482   2.001   2.790
 2077SOL    HW2 7131   5.402   1.999   2.647
 2078SOL     OW 7132   1.763   6.430   6.577
 2078SOL    HW1 7133   1.791   6.336   6.598
 2078SOL    HW2 7134   1.669   6.430   6.544
 2079SOL     OW 7135   6.052   1.656   3.355
 2079SOL    HW1 7136   6.057   1.755   3.363
 2079SOL    HW2 7137   6.001   1.633   3.272
 2080SOL     OW 7138   1.379   0.601   4.415
 2080SOL    HW1 7139   1.281   0.599   4.434
 2080SOL    HW2 7140   1.428   0.550   4.485
 2081SOL     OW 7141   2.013   5.653   4.513
 2081SOL    HW1 7142   1.933   5.593   4.507
 2081SOL    HW2 7143   2.086   5.605   4.560
 2082SOL     OW 7144   6.839   7.022   3.217
 2082SOL    HW1 7145   6.875   0.052   3.291
 2082SOL    HW2 7146   6.744   0.021   3.199
 2083SOL     OW 7147   5.311   4.744   6.141
 2083SOL    HW1 7148   5.221   4.761   6.099
 2083SOL    HW2 7149   5.328   4.812   6.212
 2084SOL     OW 7150   0.125   4.270   4.225
 2084SOL    HW1 7151   0.149   4.358   4.183
 2084SOL    HW2 7152   0.087   4.209   4.156
 2085SOL     OW 7153   4.784   0.974   6.563
 2085SOL    HW1 7154   4.852   0.953   6.633
 2085SOL    HW2 7155   4.693   0.975   6.604
 2086SOL     OW 7156   3.562   6.919   5.813
 2086SOL    HW1 7157   3.488   6.858   5.842
 2086SOL    HW2 7158   3.529   7.013   5.814
 2087SOL     OW 7159   5.264   6.861   1.211
 2087SOL    HW1 7160   5.196   6.930   1.187
 2087SOL    HW2 7161   5.218   6.776   1.236
 2088SOL     OW 7162   2.633   6.071   1.123
 2088SOL    HW1 7163   2.583   6.012   1.186
 2088SOL    HW2 7164   2.569   6.131   1.075
 2089SOL     OW 7165   5.543   2.366   6.454
 2089SOL    HW1 7166   5.521   2.421   6.373
 2089SOL    HW2 7167   5.592   2.423   6.520
 2090SOL     OW 7168   3.434   3.438   5.546
 2090SOL    HW1 7169   3.355   3.499   5.536
 2090SOL    HW2 7170   3.518   3.491   5.534
 2091SOL     OW 7171   6.828   5.434   0.396
 2091SOL    HW1 7172   6.782   5.347   0.378
 2091SOL    HW2 7173   6.923   5.417   0.422
 2092SOL     OW 7174   4.687   4.315   0.108
 2092SOL    HW1 7175   4.634   4.396   0.083
 2092SOL    HW2 7176   4.743   4.335   0.188
 2093SOL     OW 7177   2.647   2.448   1.846
 2093SOL    HW1 7178   2.736   2.443   1.891
 2093SOL    HW2 7179   2.657   2.489   1.755
 2094SOL     OW 7180   5.973   1.239   0.917
 2094SOL    HW1 7181   6.017   1.160   0.959
 2094SOL    HW2 7182   5.980   1.232   0.817
 2095SOL     OW 7183   5.357   0.435   4.801
 2095SOL    HW1 7184   5.440   0.484   4.828
 2095SOL    HW2 7185   5.370   0.337   4.813
 2096SOL     OW 7186   4.822   4.073   2.960
 2096SOL    HW1 7187   4.740   4.117   2.923
 2096SOL    HW2 7188   4.834   3.984   2.917
 2097SOL     OW 7189   2.334   2.960   6.690
 2097SOL    HW1 7190   2.385   3.045   6.703
 2097SOL    HW2 7191   2.388   2.883   6.724
 2098SOL     OW 7192   4.173   5.646   3.018
 2098SOL    HW1 7193   4.075   5.642   3.033
 2098SOL    HW2 7194   4.220   5.652   3.106
 2099SOL     OW 7195   2.676   3.162   5.355
 2099SOL    HW1 7196   2.728   3.238   5.317
 2099SOL    HW2 7197   2.635   3.109   5.281
 2100SOL     OW 7198   4.625   3.160   5.919
 2100SOL    HW1 7199   4.632   3.094   5.844
 2100SOL    HW2 7200   4.625   3.253   5.883
 2101SOL     OW 7201   1.710   6.238   2.504
 2101SOL    HW1 7202   1.807   6.250   2.525
 2101SOL    HW2 7203   1.681   6.146   2.531
 2102SOL     OW 7204   6.149   4.862   1.921
 2102SOL    HW1 7205   6.197   4.778   1.894
 2102SOL    HW2 7206   6.099   4.846   2.006
 2103SOL     OW 7207   3.489   3.965   6.136
 2103SOL    HW1 7208   3.563   3.913   6.178
 2103SOL    HW2 7209   3.413   3.903   6.115
 2104SOL     OW 7210   1.792   2.987   0.687
 2104SOL    HW1 7211   1.787   3.059   0.618
 2104SOL    HW2 7212   1.717   2.998   0.752
 2105SOL     OW 7213   5.217   5.952   4.831
 2105SOL    HW1 7214   5.243   6.042   4.796
 2105SOL    HW2 7215   5.195   5.959   4.929
 2106SOL     OW 7216   4.684   4.256   0.783
 2106SOL    HW1 7217   4.756   4.322   0.806
 2106SOL    HW2 7218   4.725   4.165   0.775
 2107SOL     OW 7219   5.475   2.569   5.588
 2107SOL    HW1 7220   5.477   2.495   5.655
 2107SOL    HW2 7221   5.384   2.573   5.546
 2108SOL     OW 7222   6.765   6.225   5.319
 2108SOL    HW1 7223   6.699   6.205   5.246
 2108SOL    HW2 7224   6.719   6.217   5.408
 2109SOL     OW 7225   4.074   6.418   2.954
 2109SOL    HW1 7226   4.114   6.484   2.890
 2109SOL    HW2 7227   3.998   6.371   2.910
 2110SOL     OW 7228   2.913   1.982   6.562
 2110SOL    HW1 7229   3.005   1.959   6.531
 2110SOL    HW2 7230   2.903   2.082   6.564
 2111SOL     OW 7231   1.252   2.642   0.219
 2111SOL    HW1 7232   1.330   2.635   0.158
 2111SOL    HW2 7233   1.281   2.623   0.313
 2112SOL     OW 7234   5.031   2.891   0.660
 2112SOL    HW1 7235   5.086   2.971   0.685
 2112SOL    HW2 7236   4.978   2.912   0.578
 2113SOL     OW 7237   0.903   1.443   5.153
 2113SOL    HW1 7238   0.913   1.374   5.224
 2113SOL    HW2 7239   0.820   1.424   5.100
 2114SOL     OW 7240   1.309   2.725   0.844
 2114SOL    HW1 7241   1.226   2.692   0.800
 2114SOL    HW2 7242   1.369   2.767   0.776
 2115SOL     OW 7243   2.141   3.293   2.500
 2115SOL    HW1 7244   2.187   3.365   2.447
 2115SOL    HW2 7245   2.153   3.205   2.453
 2116SOL     OW 7246   6.956   4.820   2.776
 2116SOL    HW1 7247   6.869   4.867   2.790
 2116SOL    HW2 7248   7.016   4.838   2.854
 2117SOL     OW 7249   6.304   4.642   1.818
 2117SOL    HW1 7250   6.348   4.616   1.904
 2117SOL    HW2 7251   6.369   4.632   1.743
 2118SOL     OW 7252   6.152   3.399   1.418
 2118SOL    HW1 7253   6.091   3.326   1.386
 2118SOL    HW2 7254   6.203   3.367   1.498
 2119SOL     OW 7255   2.379   5.776   0.910
 2119SOL    HW1 7256   2.320   5.834   0.855
 2119SOL    HW2 7257   2.379   5.808   1.005
 2120SOL     OW 7258   0.167   5.296   4.060
 2120SOL    HW1 7259   0.094   5.358   4.033
 2120SOL    HW2 7260   0.228   5.279   3.983
 2121SOL     OW 7261   0.893   3.871   5.755
 2121SOL    HW1 7262   0.826   3.873   5.829
 2121SOL    HW2 7263   0.969   3.933   5.777
 2122SOL     OW 7264   5.970   4.222   5.756
 2122SOL    HW1 7265   6.062   4.204   5.720
 2122SOL    HW2 7266   5.949   4.319   5.747
 2123SOL     OW 7267   6.561   5.761   2.055
 2123SOL    HW1 7268   6.504   5.747   2.136
 2123SOL    HW2 7269   6.516   5.826   1.993
 2124SOL     OW 7270   2.937   1.651   1.478
 2124SOL    HW1 7271   3.001   1.632   1.403
 2124SOL    HW2 7272   2.843   1.638   1.446
 2125SOL     OW 7273   1.758   0.545   1.515
 2125SOL    HW1 7274   1.682   0.608   1.503
 2125SOL    HW2 7275   1.728   0.452   1.492
 2126SOL     OW 7276   3.589   0.912   6.620
 2126SOL    HW1 7277   3.661   0.955   6.565
 2126SOL    HW2 7278   3.505   0.966   6.613
 2127SOL     OW 7279   6.684   3.293   4.256
 2127SOL    HW1 7280   6.637   3.347   4.326
 2127SOL    HW2 7281   6.724   3.211   4.298
 2128SOL     OW 7282   6.757   3.562   3.357
 2128SOL    HW1 7283   6.789   3.559   3.262
 2128SOL    HW2 7284   6.696   3.485   3.374
 2129SOL     OW 7285   4.315   3.489   5.539
 2129SOL    HW1 7286   4.333   3.478   5.636
 2129SOL    HW2 7287   4.380   3.554   5.499
 2130SOL     OW 7288   3.467   1.161   1.887
 2130SOL    HW1 7289   3.523   1.172   1.969
 2130SOL    HW2 7290   3.508   1.092   1.827
 2131SOL     OW 7291   6.397   0.360   0.041
 2131SOL    HW1 7292   6.330   0.409   7.011
 2131SOL    HW2 7293   6.349   0.303   0.108
 2132SOL     OW 7294   3.729   1.545   1.494
 2132SOL    HW1 7295   3.685   1.617   1.547
 2132SOL    HW2 7296   3.722   1.565   1.397
 2133SOL     OW 7297   2.827   3.609   0.007
 2133SOL    HW1 7298   2.754   3.674   0.026
 2133SOL    HW2 7299   2.915   3.649   0.034
 2134SOL     OW 7300   0.076   2.635   6.912
 2134SOL    HW1 7301   0.072   2.725   6.955
 2134SOL    HW2 7302   0.121   2.642   6.823
 2135SOL     OW 7303   0.169   3.993   4.061
 2135SOL    HW1 7304   0.118   3.952   3.986
 2135SOL    HW2 7305   0.264   3.960   4.059
 2136SOL     OW 7306   1.518   4.247   2.758
 2136SOL    HW1 7307   1.524   4.209   2.851
 2136SOL    HW2 7308   1.430   4.292   2.746
 2137SOL     OW 7309   2.385   5.774   5.614
 2137SOL    HW1 7310   2.325   5.701   5.581
 2137SOL    HW2 7311   2.427   5.745   5.700
 2138SOL     OW 7312   6.818   6.343   2.791
 2138SOL    HW1 7313   6.809   6.257   2.840
 2138SOL    HW2 7314   6.908   6.383   2.811
 2139SOL     OW 7315   4.735   0.899   3.514
 2139SOL    HW1 7316   4.759   0.996   3.515
 2139SOL    HW2 7317   4.658   0.883   3.575
 2140SOL     OW 7318   3.504   0.213   3.955
 2140SOL    HW1 7319   3.445   0.176   4.027
 2140SOL    HW2 7320   3.549   0.138   3.907
 2141SOL     OW 7321   6.627   3.173   1.782
 2141SOL    HW1 7322   6.693   3.214   1.719
 2141SOL    HW2 7323   6.672   3.157   1.870
 2142SOL     OW 7324   1.609   1.711   3.593
 2142SOL    HW1 7325   1.701   1.678   3.571
 2142SOL    HW2 7326   1.549   1.695   3.515
 2143SOL     OW 7327   3.203   4.749   1.445
 2143SOL    HW1 7328   3.264   4.828   1.432
 2143SOL    HW2 7329   3.243   4.669   1.402
 2144SOL     OW 7330   0.911   5.215   4.381
 2144SOL    HW1 7331   0.843   5.289   4.377
 2144SOL    HW2 7332   0.964   5.214   4.297
 2145SOL     OW 7333   4.200   6.508   4.374
 2145SOL    HW1 7334   4.217   6.467   4.284
 2145SOL    HW2 7335   4.193   6.607   4.365
 2146SOL     OW 7336   2.473   3.196   0.833
 2146SOL    HW1 7337   2.416   3.249   0.896
 2146SOL    HW2 7338   2.500   3.111   0.876
 2147SOL     OW 7339   6.334   1.790   5.770
 2147SOL    HW1 7340   6.323   1.752   5.678
 2147SOL    HW2 7341   6.403   1.737   5.820
 2148SOL     OW 7342   5.779   3.411   6.011
 2148SOL    HW1 7343   5.845   3.464   6.063
 2148SOL    HW2 7344   5.686   3.434   6.040
 2149SOL     OW 7345   3.069   1.840   0.995
 2149SOL    HW1 7346   3.030   1.806   0.909
 2149SOL    HW2 7347   3.117   1.766   1.041
 2150SOL     OW 7348   2.484   2.470   2.286
 2150SOL    HW1 7349   2.583   2.471   2.297
 2150SOL    HW2 7350   2.462   2.452   2.190
 2151SOL     OW 7351   2.039   6.874   6.110
 2151SOL    HW1 7352   2.069   6.886   6.204
 2151SOL    HW2 7353   2.008   6.962   6.073
 2152SOL     OW 7354   3.323   5.468   2.131
 2152SOL    HW1 7355   3.397   5.441   2.193
 2152SOL    HW2 7356   3.359   5.529   2.061
 2153SOL     OW 7357   4.954   1.484   2.739
 2153SOL    HW1 7358   4.921   1.533   2.659
 2153SOL    HW2 7359   4.982   1.550   2.810
 2154SOL     OW 7360   5.252   0.790   4.440
 2154SOL    HW1 7361   5.178   0.844   4.480
 2154SOL    HW2 7362   5.224   0.757   4.350
 2155SOL     OW 7363   3.578   6.579   1.276
 2155SOL    HW1 7364   3.591   6.674   1.247
 2155SOL    HW2 7365   3.638   6.559   1.353
 2156SOL     OW 7366   0.739   1.881   5.054
 2156SOL    HW1 7367   0.781   1.868   4.965
 2156SOL    HW2 7368   0.699   1.972   5.060
 2157SOL     OW 7369   5.714   0.005   2.846
 2157SOL    HW1 7370   5.770   6.951   2.867
 2157SOL    HW2 7371   5.762   0.062   2.780
 2158SOL     OW 7372   3.600   5.775   1.123
 2158SOL    HW1 7373   3.563   5.857   1.079
 2158SOL    HW2 7374   3.626   5.709   1.054
 2159SOL     OW 7375   1.304   0.356   5.132
 2159SOL    HW1 7376   1.318   0.315   5.042
 2159SOL    HW2 7377   1.378   0.327   5.194
 2160SOL     OW 7378   4.913   4.174   6.895
 2160SOL    HW1 7379   4.836   4.113   6.913
 2160SOL    HW2 7380   4.887   4.241   6.825
 2161SOL     OW 7381   5.666   4.690   2.605
 2161SOL    HW1 7382   5.764   4.708   2.602
 2161SOL    HW2 7383   5.643   4.616   2.541
 2162SOL     OW 7384   3.478   0.866   2.221
 2162SOL    HW1 7385   3.520   0.932   2.158
 2162SOL    HW2 7386   3.393   0.831   2.182
 2163SOL     OW 7387   1.852   4.392   6.855
 2163SOL    HW1 7388   1.846   4.300   6.818
 2163SOL    HW2 7389   1.831   4.391   6.953
 2164SOL     OW 7390   2.052   2.040   6.342
 2164SOL    HW1 7391   2.122   2.108   6.365
 2164SOL    HW2 7392   2.087   1.948   6.360
 2165SOL     OW 7393   6.947   2.617   3.370
 2165SOL    HW1 7394   0.012   2.577   3.375
 2165SOL    HW2 7395   6.894   2.569   3.300
 2166SOL     OW 7396   1.457   2.455   4.610
 2166SOL    HW1 7397   1.487   2.448   4.705
 2166SOL    HW2 7398   1.531   2.425   4.550
 2167SOL     OW 7399   1.662   1.913   3.246
 2167SOL    HW1 7400   1.572   1.943   3.279
 2167SOL    HW2 7401   1.733   1.953   3.304
 2168SOL     OW 7402   0.639   1.959   3.727
 2168SOL    HW1 7403   0.560   1.913   3.766
 2168SOL    HW2 7404   0.664   1.914   3.641
 2169SOL     OW 7405   5.846   2.287   6.732
 2169SOL    HW1 7406   5.907   2.244   6.666
 2169SOL    HW2 7407   5.789   2.355   6.686
 2170SOL     OW 7408   0.018   4.272   4.937
 2170SOL    HW1 7409   0.048   4.304   4.847
 2170SOL    HW2 7410   7.022   4.351   4.994
 2171SOL     OW 7411   0.061   5.142   1.320
 2171SOL    HW1 7412   7.005   5.195   1.307
 2171SOL    HW2 7413   0.077   5.084   1.240
 2172SOL     OW 7414   2.016   1.566   6.569
 2172SOL    HW1 7415   2.112   1.555   6.594
 2172SOL    HW2 7416   1.973   1.476   6.563
 2173SOL     OW 7417   4.260   0.496   5.404
 2173SOL    HW1 7418   4.213   0.424   5.353
 2173SOL    HW2 7419   4.354   0.505   5.371
 2174SOL     OW 7420   6.697   5.764   4.613
 2174SOL    HW1 7421   6.633   5.826   4.660
 2174SOL    HW2 7422   6.684   5.773   4.514
 2175SOL     OW 7423   1.914   2.268   4.405
 2175SOL    HW1 7424   1.990   2.222   4.450
 2175SOL    HW2 7425   1.915   2.365   4.429
 2176SOL     OW 7426   5.654   2.094   0.066
 2176SOL    HW1 7427   5.632   2.113   6.996
 2176SOL    HW2 7428   5.610   2.010   0.094
 2177SOL     OW 7429   0.096   1.701   3.407
 2177SOL    HW1 7430   0.045   1.786   3.418
 2177SOL    HW2 7431   0.071   1.658   3.321
 2178SOL     OW 7432   1.915   1.831   2.086
 2178SOL    HW1 7433   1.820   1.860   2.098
 2178SOL    HW2 7434   1.966   1.904   2.041
 2179SOL     OW 7435   1.944   5.085   5.605
 2179SOL    HW1 7436   2.032   5.098   5.560
 2179SOL    HW2 7437   1.870   5.114   5.544
 2180SOL     OW 7438   1.788   2.443   1.954
 2180SOL    HW1 7439   1.835   2.530   1.971
 2180SOL    HW2 7440   1.739   2.415   2.037
 2181SOL     OW 7441   4.717   4.865   4.527
 2181SOL    HW1 7442   4.720   4.824   4.435
 2181SOL    HW2 7443   4.754   4.958   4.523
 2182SOL     OW 7444   1.664   3.987   3.439
 2182SOL    HW1 7445   1.628   3.918   3.377
 2182SOL    HW2 7446   1.763   3.980   3.443
 2183SOL     OW 7447   1.957   4.542   6.276
 2183SOL    HW1 7448   1.875   4.563   6.329
 2183SOL    HW2 7449   1.935   4.476   6.204
 2184SOL     OW 7450   4.290   0.846   5.761
 2184SOL    HW1 7451   4.277   0.941   5.734
 2184SOL    HW2 7452   4.316   0.792   5.681
 2185SOL     OW 7453   0.463   0.322   1.180
 2185SOL    HW1 7454   0.448   0.311   1.082
 2185SOL    HW2 7455   0.465   0.232   1.224
 2186SOL     OW 7456   6.985   5.439   0.730
 2186SOL    HW1 7457   6.937   5.353   0.747
 2186SOL    HW2 7458   6.943   5.512   0.784
 2187SOL     OW 7459   6.569   6.029   2.655
 2187SOL    HW1 7460   6.474   6.056   2.639
 2187SOL    HW2 7461   6.574   5.931   2.671
 2188SOL     OW 7462   0.114   5.459   4.802
 2188SOL    HW1 7463   0.059   5.542   4.795
 2188SOL    HW2 7464   0.159   5.456   4.891
 2189SOL     OW 7465   2.239   0.256   1.193
 2189SOL    HW1 7466   2.193   0.237   1.106
 2189SOL    HW2 7467   2.229   0.353   1.216
 2190SOL     OW 7468   0.420   3.256   2.088
 2190SOL    HW1 7469   0.501   3.305   2.057
 2190SOL    HW2 7470   0.347   3.323   2.108
 2191SOL     OW 7471   2.704   1.605   6.585
 2191SOL    HW1 7472   2.770   1.567   6.521
 2191SOL    HW2 7473   2.707   1.705   6.580
 2192SOL     OW 7474   5.119   1.169   2.277
 2192SOL    HW1 7475   5.156   1.259   2.299
 2192SOL    HW2 7476   5.019   1.172   2.278
 2193SOL     OW 7477   5.595   6.462   6.762
 2193SOL    HW1 7478   5.643   6.550   6.762
 2193SOL    HW2 7479   5.550   6.448   6.674
 2194SOL     OW 7480   2.073   4.529   5.941
 2194SOL    HW1 7481   2.100   4.451   5.997
 2194SOL    HW2 7482   1.999   4.503   5.880
 2195SOL     OW 7483   0.148   0.017   5.071
 2195SOL    HW1 7484   0.052   7.021   5.059
 2195SOL    HW2 7485   0.159   0.117   5.077
 2196SOL     OW 7486   4.246   0.386   4.755
 2196SOL    HW1 7487   4.198   0.474   4.759
 2196SOL    HW2 7488   4.341   0.399   4.785
 2197SOL     OW 7489   2.924   3.138   0.101
 2197SOL    HW1 7490   2.965   3.111   0.014
 2197SOL    HW2 7491   2.869   3.220   0.087
 2198SOL     OW 7492   5.583   0.104   0.871
 2198SOL    HW1 7493   5.631   0.142   0.950
 2198SOL    HW2 7494   5.642   0.038   0.825
 2199SOL     OW 7495   5.329   6.893   3.165
 2199SOL    HW1 7496   5.254   6.828   3.179
 2199SOL    HW2 7497   5.295   6.986   3.178
 2200SOL     OW 7498   2.409   1.925   4.067
 2200SOL    HW1 7499   2.444   1.853   4.127
 2200SOL    HW2 7500   2.333   1.971   4.112
 2201SOL     OW 7501   6.394   2.772   3.442
 2201SOL    HW1 7502   6.409   2.857   3.391
 2201SOL    HW2 7503   6.479   2.719   3.443
 2202SOL     OW 7504   3.260   5.696   2.358
 2202SOL    HW1 7505   3.174   5.721   2.314
 2202SOL    HW2 7506   3.298   5.615   2.314
 2203SOL     OW 7507   1.977   2.747   0.786
 2203SOL    HW1 7508   2.062   2.794   0.811
 2203SOL    HW2 7509   1.899   2.804   0.810
 2204SOL     OW 7510   4.795   1.729   1.237
 2204SOL    HW1 7511   4.842   1.643   1.259
 2204SOL    HW2 7512   4.773   1.777   1.321
 2205SOL     OW 7513   0.457   6.623   6.281
 2205SOL    HW1 7514   0.390   6.677   6.332
 2205SOL    HW2 7515   0.522   6.684   6.235
 2206SOL     OW 7516   3.558   5.461   6.135
 2206SOL    HW1 7517   3.591   5.436   6.226
 2206SOL    HW2 7518   3.627   5.438   6.067
 2207SOL     OW 7519   2.728   5.365   6.571
 2207SOL    HW1 7520   2.823   5.337   6.578
 2207SOL    HW2 7521   2.711   5.404   6.481
 2208SOL     OW 7522   1.504   5.321   2.884
 2208SOL    HW1 7523   1.499   5.415   2.850
 2208SOL    HW2 7524   1.576   5.314   2.953
 2209SOL     OW 7525   1.422   0.249   5.725
 2209SOL    HW1 7526   1.462   0.227   5.636
 2209SOL    HW2 7527   1.441   0.175   5.789
 2210SOL     OW 7528   7.010   4.669   4.284
 2210SOL    HW1 7529   6.998   4.767   4.300
 2210SOL    HW2 7530   6.925   4.630   4.248
 2211SOL     OW 7531   6.814   0.214   0.490
 2211SOL    HW1 7532   6.886   0.275   0.522
 2211SOL    HW2 7533   6.727   0.263   0.489
 2212SOL     OW 7534   2.437   5.844   0.559
 2212SOL    HW1 7535   2.350   5.799   0.539
 2212SOL    HW2 7536   2.507   5.774   0.572
 2213SOL     OW 7537   3.050   1.599   4.915
 2213SOL    HW1 7538   3.007   1.535   4.852
 2213SOL    HW2 7539   3.019   1.692   4.896
 2214SOL     OW 7540   3.512   4.096   5.123
 2214SOL    HW1 7541   3.459   4.034   5.066
 2214SOL    HW2 7542   3.565   4.158   5.065
 2215SOL     OW 7543   5.842   1.506   6.933
 2215SOL    HW1 7544   5.822   1.408   6.928
 2215SOL    HW2 7545   5.849   1.534   0.002
 2216SOL     OW 7546   1.421   0.982   6.453
 2216SOL    HW1 7547   1.424   0.900   6.396
 2216SOL    HW2 7548   1.362   0.966   6.532
 2217SOL     OW 7549   3.816   6.804   2.205
 2217SOL    HW1 7550   3.851   6.880   2.260
 2217SOL    HW2 7551   3.786   6.839   2.116
 2218SOL     OW 7552   6.473   5.088   6.769
 2218SOL    HW1 7553   6.375   5.100   6.783
 2218SOL    HW2 7554   6.502   5.000   6.807
 2219SOL     OW 7555   5.414   1.682   0.744
 2219SOL    HW1 7556   5.320   1.695   0.776
 2219SOL    HW2 7557   5.454   1.771   0.722
 2220SOL     OW 7558   2.073   6.997   5.048
 2220SOL    HW1 7559   2.024   6.979   5.133
 2220SOL    HW2 7560   2.157   0.020   5.067
 2221SOL     OW 7561   6.034   1.610   5.604
 2221SOL    HW1 7562   6.067   1.633   5.513
 2221SOL    HW2 7563   6.048   1.688   5.665
 2222SOL     OW 7564   5.465   0.569   0.471
 2222SOL    HW1 7565   5.380   0.548   0.519
 2222SOL    HW2 7566   5.467   0.520   0.383
 2223SOL     OW 7567   5.679   1.285   5.190
 2223SOL    HW1 7568   5.766   1.264   5.144
 2223SOL    HW2 7569   5.697   1.327   5.278
 2224SOL     OW 7570   6.895   3.077   1.101
 2224SOL    HW1 7571   6.862   3.170   1.086
 2224SOL    HW2 7572   6.994   3.079   1.119
 2225SOL     OW 7573   6.285   0.077   3.512
 2225SOL    HW1 7574   6.328   7.017   3.539
 2225SOL    HW2 7575   6.356   0.147   3.502
 2226SOL     OW 7576   3.899   5.079   0.955
 2226SOL    HW1 7577   3.815   5.084   0.901
 2226SOL    HW2 7578   3.971   5.035   0.901
 2227SOL     OW 7579   5.670   3.173   6.958
 2227SOL    HW1 7580   5.681   3.080   6.993
 2227SOL    HW2 7581   5.573   3.195   6.950
 2228SOL     OW 7582   4.030   5.258   1.200
 2228SOL    HW1 7583   4.084   5.229   1.279
 2228SOL    HW2 7584   4.084   5.245   1.117
 2229SOL     OW 7585   4.365   2.592   5.462
 2229SOL    HW1 7586   4.304   2.671   5.465
 2229SOL    HW2 7587   4.362   2.545   5.551
 2230SOL     OW 7588   5.989   6.691   0.401
 2230SOL    HW1 7589   5.982   6.696   0.301
 2230SOL    HW2 7590   6.009   6.597   0.428
 2231SOL     OW 7591   0.454   0.818   1.615
 2231SOL    HW1 7592   0.374   0.813   1.675
 2231SOL    HW2 7593   0.536   0.834   1.670
 2232SOL     OW 7594   1.175   2.521   4.707
 2232SOL    HW1 7595   1.145   2.532   4.612
 2232SOL    HW2 7596   1.106   2.558   4.768
 2233SOL     OW 7597   1.964   2.991   0.030
 2233SOL    HW1 7598   2.034   2.925   0.001
 2233SOL    HW2 7599   1.873   2.951   0.015
 2234SOL     OW 7600   4.302   1.431   1.749
 2234SOL    HW1 7601   4.279   1.338   1.720
 2234SOL    HW2 7602   4.226   1.471   1.800
 2235SOL     OW 7603   3.130   0.125   1.470
 2235SOL    HW1 7604   3.100   0.046   1.417
 2235SOL    HW2 7605   3.131   0.207   1.412
 2236SOL     OW 7606   2.420   4.143   6.369
 2236SOL    HW1 7607   2.333   4.124   6.323
 2236SOL    HW2 7608   2.472   4.210   6.316
 2237SOL     OW 7609   6.112   4.677   3.760
 2237SOL    HW1 7610   6.030   4.654   3.708
 2237SOL    HW2 7611   6.120   4.777   3.768
 2238SOL     OW 7612   4.585   4.699   1.833
 2238SOL    HW1 7613   4.507   4.761   1.823
 2238SOL    HW2 7614   4.563   4.611   1.790
 2239SOL     OW 7615   3.817   4.969   4.336
 2239SOL    HW1 7616   3.720   4.981   4.315
 2239SOL    HW2 7617   3.827   4.934   4.430
 2240SOL     OW 7618   3.913   5.910   3.476
 2240SOL    HW1 7619   3.855   5.929   3.397
 2240SOL    HW2 7620   3.883   5.826   3.520
 2241SOL     OW 7621   0.809   5.632   3.317
 2241SOL    HW1 7622   0.790   5.699   3.388
 2241SOL    HW2 7623   0.780   5.668   3.228
 2242SOL     OW 7624   5.665   3.400   2.597
 2242SOL    HW1 7625   5.621   3.313   2.575
 2242SOL    HW2 7626   5.595   3.470   2.612
 2243SOL     OW 7627   1.447   6.627   6.148
 2243SOL    HW1 7628   1.500   6.680   6.214
 2243SOL    HW2 7629   1.349   6.645   6.161
 2244SOL     OW 7630   1.849   6.085   1.527
 2244SOL    HW1 7631   1.787   6.103   1.603
 2244SOL    HW2 7632   1.879   5.990   1.531
 2245SOL     OW 7633   0.640   1.858   1.030
 2245SOL    HW1 7634   0.653   1.760   1.048
 2245SOL    HW2 7635   0.724   1.896   0.992
 2246SOL     OW 7636   1.419   0.825   4.704
 2246SOL    HW1 7637   1.422   0.869   4.794
 2246SOL    HW2 7638   1.324   0.816   4.674
 2247SOL     OW 7639   3.481   2.897   3.786
 2247SOL    HW1 7640   3.572   2.859   3.801
 2247SOL    HW2 7641   3.476   2.989   3.824
 2248SOL     OW 7642   6.531   3.918   5.460
 2248SOL    HW1 7643   6.483   3.977   5.395
 2248SOL    HW2 7644   6.470   3.897   5.537
 2249SOL     OW 7645   5.726   6.574   3.730
 2249SOL    HW1 7646   5.667   6.653   3.716
 2249SOL    HW2 7647   5.816   6.592   3.690
 2250SOL     OW 7648   3.647   3.584   5.459
 2250SOL    HW1 7649   3.641   3.682   5.479
 2250SOL    HW2 7650   3.623   3.568   5.363
 2251SOL     OW 7651   4.978   0.466   6.430
 2251SOL    HW1 7652   5.001   0.536   6.362
 2251SOL    HW2 7653   5.055   0.404   6.442
 2252SOL     OW 7654   4.849   2.493   2.389
 2252SOL    HW1 7655   4.881   2.456   2.302
 2252SOL    HW2 7656   4.919   2.481   2.459
 2253SOL     OW 7657   0.451   3.834   6.810
 2253SOL    HW1 7658   0.419   3.748   6.771
 2253SOL    HW2 7659   0.474   3.821   6.906
 2254SOL     OW 7660   3.532   2.817   5.028
 2254SOL    HW1 7661   3.475   2.837   5.108
 2254SOL    HW2 7662   3.504   2.730   4.988
 2255SOL     OW 7663   4.375   3.419   6.047
 2255SOL    HW1 7664   4.418   3.502   6.083
 2255SOL    HW2 7665   4.345   3.362   6.123
 2256SOL     OW 7666   4.765   5.957   2.001
 2256SOL    HW1 7667   4.706   5.977   1.923
 2256SOL    HW2 7668   4.709   5.937   2.081
 2257SOL     OW 7669   0.223   2.742   4.017
 2257SOL    HW1 7670   0.306   2.689   3.995
 2257SOL    HW2 7671   0.149   2.714   3.956
 2258SOL     OW 7672   1.552   5.204   4.662
 2258SOL    HW1 7673   1.470   5.155   4.690
 2258SOL    HW2 7674   1.534   5.255   4.578
 2259SOL     OW 7675   5.191   3.597   6.389
 2259SOL    HW1 7676   5.136   3.646   6.456
 2259SOL    HW2 7677   5.176   3.499   6.399
 2260SOL     OW 7678   6.987   4.301   1.377
 2260SOL    HW1 7679   6.985   4.370   1.450
 2260SOL    HW2 7680   6.992   4.210   1.418
 2261SOL     OW 7681   5.837   5.202   0.115
 2261SOL    HW1 7682   5.837   5.117   0.169
 2261SOL    HW2 7683   5.877   5.184   0.025
 2262SOL     OW 7684   5.766   1.018   3.465
 2262SOL    HW1 7685   5.791   0.924   3.440
 2262SOL    HW2 7686   5.716   1.017   3.552
 2263SOL     OW 7687   3.042   6.163   6.472
 2263SOL    HW1 7688   2.951   6.200   6.454
 2263SOL    HW2 7689   3.074   6.112   6.393
 2264SOL     OW 7690   2.643   4.817   0.410
 2264SOL    HW1 7691   2.723   4.816   0.351
 2264SOL    HW2 7692   2.672   4.821   0.506
 2265SOL     OW 7693   1.178   0.794   4.070
 2265SOL    HW1 7694   1.258   0.783   4.129
 2265SOL    HW2 7695   1.201   0.855   3.993
 2266SOL     OW 7696   5.085   1.860   0.052
 2266SOL    HW1 7697   5.067   1.782   0.113
 2266SOL    HW2 7698   5.000   1.888   0.008
 2267SOL     OW 7699   4.823   2.208   5.004
 2267SOL    HW1 7700   4.754   2.277   4.980
 2267SOL    HW2 7701   4.914   2.247   4.991
 2268SOL     OW 7702   6.358   4.179   0.355
 2268SOL    HW1 7703   6.270   4.224   0.340
 2268SOL    HW2 7704   6.432   4.247   0.351
 2269SOL     OW 7705   6.547   4.721   5.454
 2269SOL    HW1 7706   6.496   4.806   5.461
 2269SOL    HW2 7707   6.487   4.648   5.423
 2270SOL     OW 7708   3.070   2.943   6.086
 2270SOL    HW1 7709   2.979   2.976   6.112
 2270SOL    HW2 7710   3.072   2.843   6.091
 2271SOL     OW 7711   5.337   4.046   0.497
 2271SOL    HW1 7712   5.283   4.040   0.581
 2271SOL    HW2 7713   5.396   4.127   0.501
 2272SOL     OW 7714   6.164   2.885   6.375
 2272SOL    HW1 7715   6.136   2.790   6.374
 2272SOL    HW2 7716   6.150   2.926   6.284
 2273SOL     OW 7717   1.680   1.764   2.358
 2273SOL    HW1 7718   1.619   1.699   2.404
 2273SOL    HW2 7719   1.765   1.772   2.409
 2274SOL     OW 7720   0.163   2.678   6.442
 2274SOL    HW1 7721   0.141   2.580   6.438
 2274SOL    HW2 7722   0.081   2.729   6.468
 2275SOL     OW 7723   6.750   6.989   4.161
 2275SOL    HW1 7724   6.737   0.029   4.234
 2275SOL    HW2 7725   6.723   6.899   4.193
 2276SOL     OW 7726   1.937   5.533   0.909
 2276SOL    HW1 7727   1.947   5.472   0.830
 2276SOL    HW2 7728   1.941   5.479   0.993
 2277SOL     OW 7729   3.778   3.462   4.205
 2277SOL    HW1 7730   3.686   3.453   4.243
 2277SOL    HW2 7731   3.781   3.540   4.143
 2278SOL     OW 7732   6.315   4.506   4.487
 2278SOL    HW1 7733   6.258   4.588   4.479
 2278SOL    HW2 7734   6.356   4.485   4.398
 2279SOL     OW 7735   5.930   6.708   5.611
 2279SOL    HW1 7736   5.833   6.708   5.588
 2279SOL    HW2 7737   5.941   6.722   5.709
 2280SOL     OW 7738   6.834   6.892   4.496
 2280SOL    HW1 7739   6.875   6.835   4.567
 2280SOL    HW2 7740   6.805   6.835   4.419
 2281SOL     OW 7741   3.213   1.501   2.234
 2281SOL    HW1 7742   3.180   1.548   2.316
 2281SOL    HW2 7743   3.309   1.524   2.218
 2282SOL     OW 7744   5.519   0.308   5.187
 2282SOL    HW1 7745   5.537   0.273   5.279
 2282SOL    HW2 7746   5.491   0.404   5.194
 2283SOL     OW 7747   0.659   5.038   1.382
 2283SOL    HW1 7748   0.738   5.043   1.443
 2283SOL    HW2 7749   0.588   5.101   1.415
 2284SOL     OW 7750   1.150   2.697   6.608
 2284SOL    HW1 7751   1.196   2.694   6.697
 2284SOL    HW2 7752   1.153   2.790   6.572
 2285SOL     OW 7753   2.118   2.278   1.184
 2285SOL    HW1 7754   2.173   2.257   1.266
 2285SOL    HW2 7755   2.021   2.279   1.209
 2286SOL     OW 7756   6.782   0.237   3.556
 2286SOL    HW1 7757   6.778   0.163   3.623
 2286SOL    HW2 7758   6.833   0.206   3.476
 2287SOL     OW 7759   1.877   0.652   3.220
 2287SOL    HW1 7760   1.902   0.724   3.156
 2287SOL    HW2 7761   1.948   0.582   3.222
 2288SOL     OW 7762   6.186   4.766   4.430
 2288SOL    HW1 7763   6.253   4.796   4.498
 2288SOL    HW2 7764   6.198   4.817   4.345
 2289SOL     OW 7765   0.955   4.900   1.917
 2289SOL    HW1 7766   0.884   4.864   1.857
 2289SOL    HW2 7767   0.917   4.914   2.009
 2290SOL     OW 7768   0.608   4.020   0.456
 2290SOL    HW1 7769   0.654   3.932   0.447
 2290SOL    HW2 7770   0.677   4.093   0.463
 2291SOL     OW 7771   2.697   2.647   5.814
 2291SOL    HW1 7772   2.648   2.618   5.732
 2291SOL    HW2 7773   2.748   2.730   5.794
 2292SOL     OW 7774   7.011   2.194   4.874
 2292SOL    HW1 7775   6.958   2.145   4.805
 2292SOL    HW2 7776   6.958   2.199   4.959
 2293SOL     OW 7777   4.598   6.062   1.497
 2293SOL    HW1 7778   4.687   6.030   1.465
 2293SOL    HW2 7779   4.609   6.122   1.575
 2294SOL     OW 7780   3.279   0.458   6.963
 2294SOL    HW1 7781   3.364   0.498   6.999
 2294SOL    HW2 7782   3.204   0.522   6.978
 2295SOL     OW 7783   0.782   2.241   2.855
 2295SOL    HW1 7784   0.771   2.194   2.768
 2295SOL    HW2 7785   0.711   2.311   2.864
 2296SOL     OW 7786   4.500   5.063   0.953
 2296SOL    HW1 7787   4.506   5.005   0.871
 2296SOL    HW2 7788   4.570   5.134   0.949
 2297SOL     OW 7789   3.968   4.328   5.659
 2297SOL    HW1 7790   3.877   4.356   5.630
 2297SOL    HW2 7791   4.028   4.319   5.580
 2298SOL     OW 7792   3.983   2.907   1.759
 2298SOL    HW1 7793   3.949   2.994   1.796
 2298SOL    HW2 7794   4.056   2.926   1.693
 2299SOL     OW 7795   4.132   5.908   5.291
 2299SOL    HW1 7796   4.038   5.920   5.260
 2299SOL    HW2 7797   4.192   5.972   5.243
 2300SOL     OW 7798   2.477   5.735   1.840
 2300SOL    HW1 7799   2.449   5.675   1.765
 2300SOL    HW2 7800   2.555   5.694   1.888
 2301SOL     OW 7801   3.192   2.996   3.033
 2301SOL    HW1 7802   3.104   3.026   3.071
 2301SOL    HW2 7803   3.219   3.058   2.960
 2302SOL     OW 7804   3.800   0.008   0.844
 2302SOL    HW1 7805   3.777   0.045   0.755
 2302SOL    HW2 7806   3.783   0.077   0.915
 2303SOL     OW 7807   2.826   2.937   6.433
 2303SOL    HW1 7808   2.835   3.007   6.504
 2303SOL    HW2 7809   2.732   2.904   6.430
 2304SOL     OW 7810   4.898   0.153   3.805
 2304SOL    HW1 7811   4.814   0.189   3.845
 2304SOL    HW2 7812   4.964   0.228   3.791
 2305SOL     OW 7813   2.594   6.562   3.242
 2305SOL    HW1 7814   2.554   6.484   3.193
 2305SOL    HW2 7815   2.524   6.606   3.298
 2306SOL     OW 7816   3.191   5.088   2.639
 2306SOL    HW1 7817   3.219   4.993   2.630
 2306SOL    HW2 7818   3.182   5.130   2.548
 2307SOL     OW 7819   6.525   3.740   2.433
 2307SOL    HW1 7820   6.487   3.804   2.366
 2307SOL    HW2 7821   6.454   3.675   2.462
 2308SOL     OW 7822   0.947   5.408   1.026
 2308SOL    HW1 7823   0.945   5.328   0.966
 2308SOL    HW2 7824   0.936   5.379   1.121
 2309SOL     OW 7825   1.078   0.451   6.745
 2309SOL    HW1 7826   1.128   0.503   6.676
 2309SOL    HW2 7827   0.998   0.409   6.703
 2310SOL     OW 7828   5.005   6.313   1.286
 2310SOL    HW1 7829   4.906   6.327   1.282
 2310SOL    HW2 7830   5.028   6.223   1.249
 2311SOL     OW 7831   2.349   5.895   2.040
 2311SOL    HW1 7832   2.383   5.831   1.971
 2311SOL    HW2 7833   2.348   5.987   2.002
 2312SOL     OW 7834   3.778   6.798   3.946
 2312SOL    HW1 7835   3.765   6.795   4.046
 2312SOL    HW2 7836   3.750   6.711   3.906
 2313SOL     OW 7837   5.394   5.533   1.460
 2313SOL    HW1 7838   5.420   5.513   1.554
 2313SOL    HW2 7839   5.304   5.493   1.441
 2314SOL     OW 7840   5.940   0.161   4.542
 2314SOL    HW1 7841   5.992   0.171   4.627
 2314SOL    HW2 7842   5.977   0.223   4.473
 2315SOL     OW 7843   4.867   3.222   5.438
 2315SOL    HW1 7844   4.933   3.222   5.362
 2315SOL    HW2 7845   4.906   3.173   5.516
 2316SOL     OW 7846   3.477   0.622   4.406
 2316SOL    HW1 7847   3.475   0.621   4.506
 2316SOL    HW2 7848   3.404   0.563   4.371
 2317SOL     OW 7849   0.506   6.079   3.642
 2317SOL    HW1 7850   0.536   6.109   3.552
 2317SOL    HW2 7851   0.572   6.109   3.711
 2318SOL     OW 7852   1.949   2.905   4.697
 2318SOL    HW1 7853   2.018   2.978   4.704
 2318SOL    HW2 7854   1.935   2.865   4.787
 2319SOL     OW 7855   2.150   5.086   4.398
 2319SOL    HW1 7856   2.137   4.993   4.365
 2319SOL    HW2 7857   2.163   5.085   4.497
 2320SOL     OW 7858   0.750   2.917   4.665
 2320SOL    HW1 7859   0.667   2.965   4.634
 2320SOL    HW2 7860   0.732   2.819   4.668
 2321SOL     OW 7861   2.239   6.361   7.024
 2321SOL    HW1 7862   2.308   6.308   6.974
 2321SOL    HW2 7863   2.270   6.456   0.005
 2322SOL     OW 7864   1.983   2.429   3.626
 2322SOL    HW1 7865   1.909   2.365   3.608
 2322SOL    HW2 7866   2.067   2.396   3.582
 2323SOL     OW 7867   3.120   5.091   2.008
 2323SOL    HW1 7868   3.220   5.099   2.013
 2323SOL    HW2 7869   3.095   4.995   1.993
 2324SOL     OW 7870   6.698   6.617   0.849
 2324SOL    HW1 7871   6.604   6.624   0.815
 2324SOL    HW2 7872   6.696   6.593   0.946
 2325SOL     OW 7873   0.663   4.650   1.198
 2325SOL    HW1 7874   0.618   4.650   1.287
 2325SOL    HW2 7875   0.601   4.689   1.130
 2326SOL     OW 7876   4.073   5.403   6.237
 2326SOL    HW1 7877   4.074   5.303   6.247
 2326SOL    HW2 7878   4.068   5.426   6.140
 2327SOL     OW 7879   6.590   2.401   3.944
 2327SOL    HW1 7880   6.513   2.449   3.902
 2327SOL    HW2 7881   6.648   2.361   3.873
 2328SOL     OW 7882   2.444   1.831   3.073
 2328SOL    HW1 7883   2.529   1.780   3.064
 2328SOL    HW2 7884   2.454   1.920   3.030
 2329SOL     OW 7885   1.983   4.286   4.874
 2329SOL    HW1 7886   1.986   4.222   4.797
 2329SOL    HW2 7887   2.073   4.293   4.915
 2330SOL     OW 7888   0.796   3.817   1.086
 2330SOL    HW1 7889   0.877   3.875   1.095
 2330SOL    HW2 7890   0.716   3.865   1.122
 2331SOL     OW 7891   4.139   5.528   6.797
 2331SOL    HW1 7892   4.092   5.446   6.763
 2331SOL    HW2 7893   4.201   5.503   6.871
 2332SOL     OW 7894   4.926   1.889   5.102
 2332SOL    HW1 7895   4.830   1.887   5.075
 2332SOL    HW2 7896   4.983   1.898   5.020
 2333SOL     OW 7897   0.379   4.782   2.906
 2333SOL    HW1 7898   0.332   4.703   2.866
 2333SOL    HW2 7899   0.420   4.836   2.832
 2334SOL     OW 7900   1.945   0.654   0.358
 2334SOL    HW1 7901   2.019   0.596   0.392
 2334SOL    HW2 7902   1.918   0.623   0.267
 2335SOL     OW 7903   6.651   0.585   2.737
 2335SOL    HW1 7904   6.646   0.518   2.663
 2335SOL    HW2 7905   6.636   0.677   2.700
 2336SOL     OW 7906   4.619   2.479   4.901
 2336SOL    HW1 7907   4.542   2.461   4.839
 2336SOL    HW2 7908   4.585   2.496   4.993
 2337SOL     OW 7909   4.708   1.269   2.058
 2337SOL    HW1 7910   4.677   1.358   2.024
 2337SOL    HW2 7911   4.792   1.243   2.011
 2338SOL     OW 7912   1.776   2.215   5.443
 2338SOL    HW1 7913   1.862   2.249   5.405
 2338SOL    HW2 7914   1.750   2.130   5.396
 2339SOL     OW 7915   3.574   3.849   4.512
 2339SOL    HW1 7916   3.673   3.860   4.519
 2339SOL    HW2 7917   3.534   3.931   4.471
 2340SOL     OW 7918   5.727   4.503   0.150
 2340SOL    HW1 7919   5.710   4.404   0.153
 2340SOL    HW2 7920   5.789   4.523   0.074
 2341SOL     OW 7921   4.413   4.889   1.148
 2341SOL    HW1 7922   4.455   4.959   1.090
 2341SOL    HW2 7923   4.314   4.891   1.135
 2342SOL     OW 7924   0.332   6.786   5.636
 2342SOL    HW1 7925   0.379   6.706   5.673
 2342SOL    HW2 7926   0.237   6.786   5.667
 2343SOL     OW 7927   2.499   5.546   2.407
 2343SOL    HW1 7928   2.488   5.616   2.478
 2343SOL    HW2 7929   2.524   5.591   2.321
 2344SOL     OW 7930   1.909   6.898   0.530
 2344SOL    HW1 7931   1.997   6.851   0.537
 2344SOL    HW2 7932   1.855   6.882   0.613
 2345SOL     OW 7933   2.980   5.004   4.645
 2345SOL    HW1 7934   2.950   5.015   4.550
 2345SOL    HW2 7935   2.948   5.082   4.698
 2346SOL     OW 7936   4.580   2.869   5.151
 2346SOL    HW1 7937   4.657   2.910   5.102
 2346SOL    HW2 7938   4.571   2.912   5.241
 2347SOL     OW 7939   2.617   3.351   1.713
 2347SOL    HW1 7940   2.656   3.415   1.647
 2347SOL    HW2 7941   2.536   3.391   1.755
 2348SOL     OW 7942   3.693   6.566   3.861
 2348SOL    HW1 7943   3.706   6.467   3.857
 2348SOL    HW2 7944   3.598   6.588   3.839
 2349SOL     OW 7945   0.929   4.637   5.990
 2349SOL    HW1 7946   1.023   4.605   6.002
 2349SOL    HW2 7947   0.917   4.723   6.038
 2350SOL     OW 7948   4.683   6.354   6.477
 2350SOL    HW1 7949   4.706   6.449   6.500
 2350SOL    HW2 7950   4.597   6.352   6.426
 2351SOL     OW 7951   3.104   4.938   3.267
 2351SOL    HW1 7952   3.089   4.957   3.364
 2351SOL    HW2 7953   3.190   4.980   3.238
 2352SOL     OW 7954   0.403   4.956   1.680
 2352SOL    HW1 7955   0.401   5.030   1.748
 2352SOL    HW2 7956   0.343   4.979   1.604
 2353SOL     OW 7957   3.376   4.503   5.300
 2353SOL    HW1 7958   3.291   4.455   5.321
 2353SOL    HW2 7959   3.358   4.601   5.294
 2354SOL     OW 7960   2.297   1.021   5.780
 2354SOL    HW1 7961   2.206   0.985   5.803
 2354SOL    HW2 7962   2.293   1.120   5.772
 2355SOL     OW 7963   1.793   5.880   0.320
 2355SOL    HW1 7964   1.854   5.918   0.250
 2355SOL    HW2 7965   1.846   5.825   0.384
 2356SOL     OW 7966   1.720   3.951   0.253
 2356SOL    HW1 7967   1.708   3.978   0.348
 2356SOL    HW2 7968   1.805   3.901   0.242
 2357SOL     OW 7969   4.481   6.234   3.862
 2357SOL    HW1 7970   4.401   6.211   3.805
 2357SOL    HW2 7971   4.564   6.226   3.807
 2358SOL     OW 7972   4.062   5.181   5.281
 2358SOL    HW1 7973   4.134   5.145   5.222
 2358SOL    HW2 7974   3.987   5.214   5.224
 2359SOL     OW 7975   0.298   0.770   6.177
 2359SOL    HW1 7976   0.354   0.708   6.231
 2359SOL    HW2 7977   0.203   0.767   6.210
 2360SOL     OW 7978   5.595   5.095   6.551
 2360SOL    HW1 7979   5.634   5.049   6.472
 2360SOL    HW2 7980   5.571   5.189   6.526
 2361SOL     OW 7981   2.551   1.198   4.863
 2361SOL    HW1 7982   2.554   1.266   4.790
 2361SOL    HW2 7983   2.511   1.239   4.945
 2362SOL     OW 7984   2.458   0.733   5.306
 2362SOL    HW1 7985   2.480   0.656   5.245
 2362SOL    HW2 7986   2.456   0.818   5.253
 2363SOL     OW 7987   4.310   2.257   5.370
 2363SOL    HW1 7988   4.315   2.160   5.349
 2363SOL    HW2 7989   4.239   2.273   5.438
 2364SOL     OW 7990   0.694   1.988   2.470
 2364SOL    HW1 7991   0.635   2.064   2.443
 2364SOL    HW2 7992   0.789   2.016   2.464
 2365SOL     OW 7993   5.906   2.823   6.567
 2365SOL    HW1 7994   5.810   2.796   6.580
 2365SOL    HW2 7995   5.963   2.741   6.562
 2366SOL     OW 7996   1.617   4.613   6.128
 2366SOL    HW1 7997   1.627   4.686   6.060
 2366SOL    HW2 7998   1.698   4.554   6.126
 2367SOL     OW 7999   3.152   4.496   0.778
 2367SOL    HW1 8000   3.085   4.454   0.717
 2367SOL    HW2 8001   3.114   4.503   0.870
 2368SOL     OW 8002   4.808   6.901   2.746
 2368SOL    HW1 8003   4.869   6.921   2.823
 2368SOL    HW2 8004   4.803   6.981   2.686
 2369SOL     OW 8005   1.170   2.877   5.647
 2369SOL    HW1 8006   1.130   2.821   5.575
 2369SOL    HW2 8007   1.167   2.973   5.619
 2370SOL     OW 8008   4.696   3.968   6.604
 2370SOL    HW1 8009   4.729   4.050   6.556
 2370SOL    HW2 8010   4.597   3.971   6.612
 2371SOL     OW 8011   0.499   6.455   2.295
 2371SOL    HW1 8012   0.593   6.481   2.273
 2371SOL    HW2 8013   0.445   6.536   2.315
 2372SOL     OW 8014   6.621   2.125   1.353
 2372SOL    HW1 8015   6.638   2.221   1.376
 2372SOL    HW2 8016   6.686   2.096   1.282
 2373SOL     OW 8017   0.438   0.499   0.188
 2373SOL    HW1 8018   0.510   0.430   0.185
 2373SOL    HW2 8019   0.391   0.503   0.100
 2374SOL     OW 8020   6.145   0.920   3.891
 2374SOL    HW1 8021   6.231   0.918   3.942
 2374SOL    HW2 8022   6.155   0.979   3.811
 2375SOL     OW 8023   2.158   0.087   4.135
 2375SOL    HW1 8024   2.121   0.112   4.225
 2375SOL    HW2 8025   2.154   7.014   4.124
 2376SOL     OW 8026   6.291   2.674   4.760
 2376SOL    HW1 8027   6.388   2.662   4.781
 2376SOL    HW2 8028   6.281   2.709   4.667
 2377SOL     OW 8029   3.358   4.062   2.926
 2377SOL    HW1 8030   3.262   4.045   2.949
 2377SOL    HW2 8031   3.363   4.116   2.842
 2378SOL     OW 8032   5.064   2.859   0.134
 2378SOL    HW1 8033   5.023   2.768   0.127
 2378SOL    HW2 8034   4.991   2.927   0.142
 2379SOL     OW 8035   5.877   2.271   6.313
 2379SOL    HW1 8036   5.833   2.324   6.386
 2379SOL    HW2 8037   5.965   2.314   6.291
 2380SOL     OW 8038   0.217   0.088   5.905
 2380SOL    HW1 8039   0.297   0.103   5.846
 2380SOL    HW2 8040   0.234   0.008   5.963
 2381SOL     OW 8041   2.082   3.734   4.519
 2381SOL    HW1 8042   2.142   3.763   4.593
 2381SOL    HW2 8043   2.060   3.814   4.462
 2382SOL     OW 8044   2.093   4.413   3.612
 2382SOL    HW1 8045   2.082   4.432   3.514
 2382SOL    HW2 8046   2.161   4.340   3.624
 2383SOL     OW 8047   5.857   6.489   0.938
 2383SOL    HW1 8048   5.913   6.536   0.869
 2383SOL    HW2 8049   5.763   6.481   0.905
 2384SOL     OW 8050   6.526   6.589   1.923
 2384SOL    HW1 8051   6.456   6.563   1.989
 2384SOL    HW2 8052   6.483   6.623   1.840
 2385SOL     OW 8053   6.975   6.441   0.977
 2385SOL    HW1 8054   6.950   6.434   0.881
 2385SOL    HW2 8055   0.046   6.420   0.988
 2386SOL     OW 8056   5.251   5.764   4.226
 2386SOL    HW1 8057   5.260   5.825   4.304
 2386SOL    HW2 8058   5.184   5.803   4.162
 2387SOL     OW 8059   1.004   1.459   3.936
 2387SOL    HW1 8060   0.966   1.523   3.870
 2387SOL    HW2 8061   1.090   1.496   3.972
 2388SOL     OW 8062   1.821   2.066   2.760
 2388SOL    HW1 8063   1.736   2.017   2.779
 2388SOL    HW2 8064   1.899   2.004   2.772
 2389SOL     OW 8065   5.429   3.484   3.353
 2389SOL    HW1 8066   5.403   3.444   3.441
 2389SOL    HW2 8067   5.470   3.413   3.296
 2390SOL     OW 8068   3.768   3.515   3.291
 2390SOL    HW1 8069   3.745   3.479   3.381
 2390SOL    HW2 8070   3.833   3.591   3.301
 2391SOL     OW 8071   5.111   5.126   5.776
 2391SOL    HW1 8072   5.145   5.032   5.768
 2391SOL    HW2 8073   5.037   5.129   5.843
 2392SOL     OW 8074   3.542   0.275   5.410
 2392SOL    HW1 8075   3.482   0.201   5.440
 2392SOL    HW2 8076   3.636   0.240   5.402
 2393SOL     OW 8077   4.271   4.598   6.101
 2393SOL    HW1 8078   4.249   4.650   6.183
 2393SOL    HW2 8079   4.220   4.512   6.101
 2394SOL     OW 8080   2.025   3.668   4.804
 2394SOL    HW1 8081   1.975   3.645   4.721
 2394SOL    HW2 8082   1.987   3.752   4.843
 2395SOL     OW 8083   6.143   2.362   6.337
 2395SOL    HW1 8084   6.197   2.337   6.257
 2395SOL    HW2 8085   6.203   2.387   6.413
 2396SOL     OW 8086   3.914   5.451   1.625
 2396SOL    HW1 8087   3.887   5.534   1.576
 2396SOL    HW2 8088   3.857   5.374   1.595
 2397SOL     OW 8089   0.372   4.114   6.888
 2397SOL    HW1 8090   0.405   4.024   6.858
 2397SOL    HW2 8091   0.273   4.118   6.880
 2398SOL     OW 8092   3.105   3.941   6.450
 2398SOL    HW1 8093   3.182   3.880   6.469
 2398SOL    HW2 8094   3.139   4.026   6.410
 2399SOL     OW 8095   4.845   1.170   2.287
 2399SOL    HW1 8096   4.775   1.173   2.358
 2399SOL    HW2 8097   4.811   1.217   2.205
 2400SOL     OW 8098   3.959   5.270   0.523
 2400SOL    HW1 8099   4.001   5.360   0.518
 2400SOL    HW2 8100   3.897   5.266   0.602
 2401SOL     OW 8101   4.487   6.776   6.418
 2401SOL    HW1 8102   4.431   6.731   6.488
 2401SOL    HW2 8103   4.435   6.851   6.378
 2402SOL     OW 8104   0.661   0.945   4.341
 2402SOL    HW1 8105   0.706   1.033   4.355
 2402SOL    HW2 8106   0.640   0.934   4.244
 2403SOL     OW 8107   2.275   2.410   0.705
 2403SOL    HW1 8108   2.367   2.383   0.734
 2403SOL    HW2 8109   2.221   2.435   0.785
 2404SOL     OW 8110   5.444   0.473   1.291
 2404SOL    HW1 8111   5.397   0.556   1.319
 2404SOL    HW2 8112   5.380   0.396   1.291
 2405SOL     OW 8113   3.626   3.495   3.046
 2405SOL    HW1 8114   3.676   3.436   2.983
 2405SOL    HW2 8115   3.667   3.490   3.137
 2406SOL     OW 8116   2.064   0.431   3.237
 2406SOL    HW1 8117   2.006   0.362   3.193
 2406SOL    HW2 8118   2.126   0.387   3.301
 2407SOL     OW 8119   5.596   2.779   3.046
 2407SOL    HW1 8120   5.527   2.735   2.989
 2407SOL    HW2 8121   5.615   2.721   3.126
 2408SOL     OW 8122   4.113   4.790   3.543
 2408SOL    HW1 8123   4.134   4.839   3.628
 2408SOL    HW2 8124   4.182   4.719   3.528
 2409SOL     OW 8125   1.365   3.293   1.729
 2409SOL    HW1 8126   1.293   3.260   1.668
 2409SOL    HW2 8127   1.419   3.362   1.681
 2410SOL     OW 8128   4.755   2.631   6.530
 2410SOL    HW1 8129   4.775   2.596   6.438
 2410SOL    HW2 8130   4.838   2.671   6.569
 2411SOL     OW 8131   4.769   5.288   5.685
 2411SOL    HW1 8132   4.733   5.363   5.740
 2411SOL    HW2 8133   4.816   5.326   5.605
 2412SOL     OW 8134   4.132   4.769   1.037
 2412SOL    HW1 8135   4.081   4.758   0.952
 2412SOL    HW2 8136   4.181   4.685   1.059
 2413SOL     OW 8137   6.517   2.162   0.344
 2413SOL    HW1 8138   6.609   2.199   0.351
 2413SOL    HW2 8139   6.520   2.062   0.354
 2414SOL     OW 8140   5.100   3.859   2.224
 2414SOL    HW1 8141   5.096   3.782   2.288
 2414SOL    HW2 8142   5.174   3.920   2.252
 2415SOL     OW 8143   0.682   0.133   2.266
 2415SOL    HW1 8144   0.675   0.035   2.249
 2415SOL    HW2 8145   0.774   0.164   2.240
 2416SOL     OW 8146   3.361   2.152   4.680
 2416SOL    HW1 8147   3.422   2.139   4.759
 2416SOL    HW2 8148   3.266   2.144   4.709
 2417SOL     OW 8149   3.845   3.103   5.561
 2417SOL    HW1 8150   3.835   3.006   5.581
 2417SOL    HW2 8151   3.942   3.127   5.557
 2418SOL     OW 8152   3.497   4.072   3.909
 2418SOL    HW1 8153   3.403   4.101   3.926
 2418SOL    HW2 8154   3.532   4.120   3.828
 2419SOL     OW 8155   1.101   6.010   3.914
 2419SOL    HW1 8156   1.026   5.954   3.949
 2419SOL    HW2 8157   1.188   5.963   3.931
 2420SOL     OW 8158   3.794   2.022   1.240
 2420SOL    HW1 8159   3.823   1.933   1.205
 2420SOL    HW2 8160   3.710   2.011   1.293
 2421SOL     OW 8161   2.542   1.504   5.249
 2421SOL    HW1 8162   2.634   1.468   5.239
 2421SOL    HW2 8163   2.530   1.583   5.188
 2422SOL     OW 8164   6.111   0.041   1.698
 2422SOL    HW1 8165   6.027   0.050   1.645
 2422SOL    HW2 8166   6.185   0.009   1.639
 2423SOL     OW 8167   1.411   6.516   3.753
 2423SOL    HW1 8168   1.508   6.538   3.760
 2423SOL    HW2 8169   1.397   6.454   3.675
 2424SOL     OW 8170   6.253   6.206   6.103
 2424SOL    HW1 8171   6.271   6.207   6.201
 2424SOL    HW2 8172   6.172   6.261   6.083
 2425SOL     OW 8173   6.469   0.217   4.139
 2425SOL    HW1 8174   6.556   0.244   4.182
 2425SOL    HW2 8175   6.487   0.180   4.048
 2426SOL     OW 8176   1.208   5.305   4.983
 2426SOL    HW1 8177   1.285   5.353   4.941
 2426SOL    HW2 8178   1.228   5.207   4.986
 2427SOL     OW 8179   5.470   5.672   6.525
 2427SOL    HW1 8180   5.445   5.768   6.535
 2427SOL    HW2 8181   5.422   5.634   6.446
 2428SOL     OW 8182   6.508   0.220   3.477
 2428SOL    HW1 8183   6.602   0.215   3.511
 2428SOL    HW2 8184   6.490   0.313   3.445
 2429SOL     OW 8185   6.107   5.595   4.216
 2429SOL    HW1 8186   6.016   5.586   4.257
 2429SOL    HW2 8187   6.160   5.512   4.235
 2430SOL     OW 8188   6.215   1.401   0.813
 2430SOL    HW1 8189   6.193   1.447   0.727
 2430SOL    HW2 8190   6.139   1.343   0.840
 2431SOL     OW 8191   4.061   0.379   2.338
 2431SOL    HW1 8192   4.068   0.342   2.245
 2431SOL    HW2 8193   4.046   0.477   2.334
 2432SOL     OW 8194   3.486   6.988   3.019
 2432SOL    HW1 8195   3.530   6.932   2.949
 2432SOL    HW2 8196   3.414   0.017   2.977
 2433SOL     OW 8197   3.343   0.057   1.185
 2433SOL    HW1 8198   3.330   7.021   1.262
 2433SOL    HW2 8199   3.423   0.114   1.201
 2434SOL     OW 8200   4.490   1.109   4.409
 2434SOL    HW1 8201   4.419   1.041   4.394
 2434SOL    HW2 8202   4.514   1.112   4.506
 2435SOL     OW 8203   4.395   5.154   5.984
 2435SOL    HW1 8204   4.451   5.141   6.065
 2435SOL    HW2 8205   4.325   5.223   6.001
 2436SOL     OW 8206   1.902   6.423   1.729
 2436SOL    HW1 8207   1.823   6.435   1.667
 2436SOL    HW2 8208   1.885   6.345   1.789
 2437SOL     OW 8209   4.069   6.144   0.909
 2437SOL    HW1 8210   4.092   6.066   0.851
 2437SOL    HW2 8211   3.997   6.117   0.973
 2438SOL     OW 8212   3.675   1.911   5.913
 2438SOL    HW1 8213   3.705   1.890   5.820
 2438SOL    HW2 8214   3.582   1.946   5.912
 2439SOL     OW 8215   0.779   4.049   6.964
 2439SOL    HW1 8216   0.720   4.127   6.943
 2439SOL    HW2 8217   0.812   4.008   6.879
 2440SOL     OW 8218   5.235   6.246   5.245
 2440SOL    HW1 8219   5.196   6.270   5.156
 2440SOL    HW2 8220   5.161   6.224   5.308
 2441SOL     OW 8221   6.607   0.164   0.143
 2441SOL    HW1 8222   6.656   0.231   0.087
 2441SOL    HW2 8223   6.518   0.202   0.168
 2442SOL     OW 8224   6.717   5.106   4.788
 2442SOL    HW1 8225   6.794   5.094   4.851
 2442SOL    HW2 8226   6.751   5.101   4.694
 2443SOL     OW 8227   3.699   6.703   5.330
 2443SOL    HW1 8228   3.700   6.678   5.233
 2443SOL    HW2 8229   3.791   6.729   5.358
 2444SOL     OW 8230   3.365   4.693   5.841
 2444SOL    HW1 8231   3.438   4.736   5.789
 2444SOL    HW2 8232   3.401   4.616   5.894
 2445SOL     OW 8233   0.294   0.569   1.684
 2445SOL    HW1 8234   0.389   0.544   1.698
 2445SOL    HW2 8235   0.282   0.603   1.591
 2446SOL     OW 8236   0.567   3.892   3.825
 2446SOL    HW1 8237   0.554   3.943   3.910
 2446SOL    HW2 8238   0.484   3.896   3.770
 2447SOL     OW 8239   2.825   1.912   0.536
 2447SOL    HW1 8240   2.793   1.854   0.461
 2447SOL    HW2 8241   2.905   1.869   0.579
 2448SOL     OW 8242   0.402   0.656   5.346
 2448SOL    HW1 8243   0.323   0.641   5.406
 2448SOL    HW2 8244   0.442   0.745   5.367
 2449SOL     OW 8245   0.107   4.709   1.490
 2449SOL    HW1 8246   0.131   4.802   1.518
 2449SOL    HW2 8247   0.188   4.652   1.491
 2450SOL     OW 8248   2.613   4.742   4.633
 2450SOL    HW1 8249   2.703   4.775   4.662
 2450SOL    HW2 8250   2.577   4.679   4.701
 2451SOL     OW 8251   0.603   0.144   3.582
 2451SOL    HW1 8252   0.578   0.236   3.550
 2451SOL    HW2 8253   0.525   0.102   3.627
 2452SOL     OW 8254   2.165   2.492   2.848
 2452SOL    HW1 8255   2.261   2.491   2.875
 2452SOL    HW2 8256   2.124   2.580   2.873
 2453SOL     OW 8257   6.288   3.582   1.283
 2453SOL    HW1 8258   6.230   3.634   1.221
 2453SOL    HW2 8259   6.236   3.507   1.323
 2454SOL     OW 8260   3.401   1.051   0.514
 2454SOL    HW1 8261   3.458   1.023   0.591
 2454SOL    HW2 8262   3.439   1.015   0.429
 2455SOL     OW 8263   5.535   6.819   0.576
 2455SOL    HW1 8264   5.490   6.849   0.660
 2455SOL    HW2 8265   5.569   6.726   0.588
 2456SOL     OW 8266   6.073   0.115   0.546
 2456SOL    HW1 8267   6.107   0.158   0.629
 2456SOL    HW2 8268   6.029   0.185   0.489
 2457SOL     OW 8269   7.019   6.301   0.328
 2457SOL    HW1 8270   0.031   6.253   0.249
 2457SOL    HW2 8271   0.001   6.400   0.315
 2458SOL     OW 8272   2.889   5.847   3.934
 2458SOL    HW1 8273   2.878   5.747   3.929
 2458SOL    HW2 8274   2.953   5.870   4.007
 2459SOL     OW 8275   2.527   6.835   0.458
 2459SOL    HW1 8276   2.598   6.803   0.521
 2459SOL    HW2 8277   2.466   6.898   0.505
 2460SOL     OW 8278   2.023   0.597   1.099
 2460SOL    HW1 8279   2.012   0.649   1.184
 2460SOL    HW2 8280   2.108   0.625   1.054
 2461SOL     OW 8281   4.935   0.622   2.817
 2461SOL    HW1 8282   4.938   0.547   2.751
 2461SOL    HW2 8283   4.840   0.647   2.834
 2462SOL     OW 8284   2.302   5.612   0.129
 2462SOL    HW1 8285   2.261   5.551   0.061
 2462SOL    HW2 8286   2.362   5.559   0.189
 2463SOL     OW 8287   5.927   2.297   4.126
 2463SOL    HW1 8288   5.892   2.339   4.043
 2463SOL    HW2 8289   6.025   2.316   4.135
 2464SOL     OW 8290   1.435   4.577   1.510
 2464SOL    HW1 8291   1.412   4.579   1.608
 2464SOL    HW2 8292   1.351   4.572   1.456
 2465SOL     OW 8293   6.354   5.804   1.128
 2465SOL    HW1 8294   6.365   5.800   1.028
 2465SOL    HW2 8295   6.342   5.900   1.156
 2466SOL     OW 8296   3.002   1.107   1.630
 2466SOL    HW1 8297   2.961   1.017   1.644
 2466SOL    HW2 8298   3.072   1.123   1.700
 2467SOL     OW 8299   5.582   1.751   5.639
 2467SOL    HW1 8300   5.654   1.819   5.643
 2467SOL    HW2 8301   5.493   1.796   5.642
 2468SOL     OW 8302   6.340   6.231   2.038
 2468SOL    HW1 8303   6.266   6.190   2.090
 2468SOL    HW2 8304   6.414   6.256   2.100
 2469SOL     OW 8305   3.541   5.166   4.987
 2469SOL    HW1 8306   3.498   5.256   4.990
 2469SOL    HW2 8307   3.470   5.096   4.974
 2470SOL     OW 8308   2.995   4.463   6.326
 2470SOL    HW1 8309   3.071   4.412   6.366
 2470SOL    HW2 8310   3.012   4.561   6.336
 2471SOL     OW 8311   2.016   6.094   1.835
 2471SOL    HW1 8312   2.065   6.168   1.790
 2471SOL    HW2 8313   2.026   6.010   1.783
 2472SOL     OW 8314   5.925   1.317   4.542
 2472SOL    HW1 8315   5.976   1.280   4.620
 2472SOL    HW2 8316   5.974   1.396   4.505
 2473SOL     OW 8317   1.556   3.997   5.275
 2473SOL    HW1 8318   1.599   3.985   5.364
 2473SOL    HW2 8319   1.560   4.094   5.249
 2474SOL     OW 8320   0.480   5.645   0.309
 2474SOL    HW1 8321   0.407   5.657   0.377
 2474SOL    HW2 8322   0.478   5.551   0.274
 2475SOL     OW 8323   4.575   1.473   1.126
 2475SOL    HW1 8324   4.580   1.502   1.222
 2475SOL    HW2 8325   4.626   1.388   1.115
 2476SOL     OW 8326   0.609   2.796   3.399
 2476SOL    HW1 8327   0.578   2.888   3.372
 2476SOL    HW2 8328   0.530   2.741   3.424
 2477SOL     OW 8329   6.330   0.388   2.126
 2477SOL    HW1 8330   6.236   0.356   2.133
 2477SOL    HW2 8331   6.378   0.334   2.056
 2478SOL     OW 8332   5.491   6.799   2.317
 2478SOL    HW1 8333   5.551   6.737   2.267
 2478SOL    HW2 8334   5.524   6.809   2.411
 2479SOL     OW 8335   0.784   3.755   1.521
 2479SOL    HW1 8336   0.754   3.814   1.597
 2479SOL    HW2 8337   0.709   3.744   1.456
 2480SOL     OW 8338   5.786   3.621   0.986
 2480SOL    HW1 8339   5.759   3.672   0.904
 2480SOL    HW2 8340   5.751   3.528   0.980
 2481SOL     OW 8341   3.324   6.722   0.475
 2481SOL    HW1 8342   3.424   6.728   0.482
 2481SOL    HW2 8343   3.294   6.632   0.507
 2482SOL     OW 8344   4.727   2.978   5.763
 2482SOL    HW1 8345   4.809   2.997   5.710
 2482SOL    HW2 8346   4.684   2.894   5.729
 2483SOL     OW 8347   2.484   1.847   0.282
 2483SOL    HW1 8348   2.442   1.848   0.191
 2483SOL    HW2 8349   2.581   1.822   0.274
 2484SOL     OW 8350   2.154   0.947   0.312
 2484SOL    HW1 8351   2.174   0.935   0.215
 2484SOL    HW2 8352   2.062   0.913   0.332
 2485SOL     OW 8353   4.492   5.316   2.070
 2485SOL    HW1 8354   4.507   5.413   2.048
 2485SOL    HW2 8355   4.440   5.309   2.156
 2486SOL     OW 8356   2.913   6.101   3.050
 2486SOL    HW1 8357   2.849   6.128   3.122
 2486SOL    HW2 8358   2.869   6.109   2.961
 2487SOL     OW 8359   3.707   5.712   7.018
 2487SOL    HW1 8360   3.678   5.759   0.075
 2487SOL    HW2 8361   3.714   5.778   6.943
 2488SOL     OW 8362   2.209   4.375   1.781
 2488SOL    HW1 8363   2.171   4.290   1.745
 2488SOL    HW2 8364   2.191   4.380   1.879
 2489SOL     OW 8365   2.254   4.822   3.917
 2489SOL    HW1 8366   2.296   4.910   3.939
 2489SOL    HW2 8367   2.287   4.790   3.828
 2490SOL     OW 8368   6.314   5.359   0.945
 2490SOL    HW1 8369   6.408   5.334   0.964
 2490SOL    HW2 8370   6.294   5.447   0.988
 2491SOL     OW 8371   2.179   5.395   3.202
 2491SOL    HW1 8372   2.105   5.451   3.238
 2491SOL    HW2 8373   2.204   5.427   3.110
 2492SOL     OW 8374   3.853   3.062   6.723
 2492SOL    HW1 8375   3.829   2.992   6.656
 2492SOL    HW2 8376   3.951   3.058   6.741
 2493SOL     OW 8377   5.977   0.187   3.135
 2493SOL    HW1 8378   6.064   0.191   3.185
 2493SOL    HW2 8379   5.922   0.111   3.170
 2494SOL     OW 8380   5.171   3.059   2.440
 2494SOL    HW1 8381   5.091   3.028   2.490
 2494SOL    HW2 8382   5.234   2.983   2.428
 2495SOL     OW 8383   5.039   0.502   5.309
 2495SOL    HW1 8384   4.989   0.552   5.379
 2495SOL    HW2 8385   5.089   0.566   5.250
 2496SOL     OW 8386   0.671   5.356   7.011
 2496SOL    HW1 8387   0.680   5.454   0.002
 2496SOL    HW2 8388   0.613   5.314   0.055
 2497SOL     OW 8389   0.163   2.071   6.941
 2497SOL    HW1 8390   0.101   2.118   6.879
 2497SOL    HW2 8391   0.110   2.008   6.999
 2498SOL     OW 8392   2.384   2.189   3.739
 2498SOL    HW1 8393   2.420   2.281   3.752
 2498SOL    HW2 8394   2.350   2.179   3.645
 2499SOL     OW 8395   5.747   1.004   4.709
 2499SOL    HW1 8396   5.673   0.938   4.703
 2499SOL    HW2 8397   5.776   1.032   4.617
 2500SOL     OW 8398   4.728   3.743   5.474
 2500SOL    HW1 8399   4.745   3.807   5.399
 2500SOL    HW2 8400   4.630   3.723   5.479
 2501SOL     OW 8401   6.339   4.650   6.919
 2501SOL    HW1 8402   6.428   4.628   6.879
 2501SOL    HW2 8403   6.351   4.675   7.015
 2502SOL     OW 8404   3.039   6.472   3.559
 2502SOL    HW1 8405   2.957   6.479   3.502
 2502SOL    HW2 8406   3.019   6.417   3.640
 2503SOL     OW 8407   3.757   5.826   5.649
 2503SOL    HW1 8408   3.833   5.879   5.611
 2503SOL    HW2 8409   3.766   5.822   5.748
 2504SOL     OW 8410   2.301   5.379   5.050
 2504SOL    HW1 8411   2.385   5.418   5.011
 2504SOL    HW2 8412   2.277   5.295   5.001
 2505SOL     OW 8413   3.289   6.212   4.450
 2505SOL    HW1 8414   3.225   6.142   4.418
 2505SOL    HW2 8415   3.289   6.213   4.550
 2506SOL     OW 8416   0.338   3.524   6.101
 2506SOL    HW1 8417   0.401   3.446   6.100
 2506SOL    HW2 8418   0.328   3.558   6.194
 2507SOL     OW 8419   6.160   4.889   6.954
 2507SOL    HW1 8420   6.210   4.821   6.901
 2507SOL    HW2 8421   6.064   4.891   6.923
 2508SOL     OW 8422   2.774   1.758   1.750
 2508SOL    HW1 8423   2.772   1.690   1.824
 2508SOL    HW2 8424   2.868   1.789   1.736
 2509SOL     OW 8425   5.479   2.093   2.491
 2509SOL    HW1 8426   5.453   2.129   2.401
 2509SOL    HW2 8427   5.553   2.026   2.479
 2510SOL     OW 8428   2.543   4.452   0.629
 2510SOL    HW1 8429   2.605   4.374   0.621
 2510SOL    HW2 8430   2.474   4.447   0.556
 2511SOL     OW 8431   1.415   1.518   4.825
 2511SOL    HW1 8432   1.441   1.559   4.737
 2511SOL    HW2 8433   1.458   1.428   4.834
 2512SOL     OW 8434   5.640   4.088   5.007
 2512SOL    HW1 8435   5.644   4.003   5.060
 2512SOL    HW2 8436   5.729   4.106   4.966
 2513SOL     OW 8437   1.110   2.413   6.049
 2513SOL    HW1 8438   1.197   2.403   6.000
 2513SOL    HW2 8439   1.109   2.499   6.099
 2514SOL     OW 8440   0.390   2.798   3.718
 2514SOL    HW1 8441   0.360   2.841   3.633
 2514SOL    HW2 8442   0.316   2.742   3.755
 2515SOL     OW 8443   1.425   6.288   1.217
 2515SOL    HW1 8444   1.427   6.299   1.316
 2515SOL    HW2 8445   1.423   6.378   1.173
 2516SOL     OW 8446   6.194   5.355   3.207
 2516SOL    HW1 8447   6.251   5.324   3.283
 2516SOL    HW2 8448   6.249   5.356   3.123
 2517SOL     OW 8449   2.370   5.663   6.274
 2517SOL    HW1 8450   2.362   5.652   6.175
 2517SOL    HW2 8451   2.319   5.590   6.319
 2518SOL     OW 8452   2.074   3.195   6.944
 2518SOL    HW1 8453   2.029   3.114   6.984
 2518SOL    HW2 8454   2.171   3.175   6.929
 2519SOL     OW 8455   4.726   4.734   4.257
 2519SOL    HW1 8456   4.778   4.650   4.246
 2519SOL    HW2 8457   4.744   4.796   4.180
 2520SOL     OW 8458   1.585   2.465   1.030
 2520SOL    HW1 8459   1.575   2.369   1.058
 2520SOL    HW2 8460   1.681   2.492   1.038
 2521SOL     OW 8461   0.947   0.042   5.789
 2521SOL    HW1 8462   0.944   7.006   5.867
 2521SOL    HW2 8463   0.996   7.026   5.713
 2522SOL     OW 8464   0.842   3.319   4.863
 2522SOL    HW1 8465   0.847   3.398   4.801
 2522SOL    HW2 8466   0.771   3.256   4.830
 2523SOL     OW 8467   6.638   2.924   0.644
 2523SOL    HW1 8468   6.710   2.856   0.654
 2523SOL    HW2 8469   6.659   3.004   0.701
 2524SOL     OW 8470   0.209   6.389   4.676
 2524SOL    HW1 8471   0.129   6.329   4.669
 2524SOL    HW2 8472   0.292   6.334   4.670
 2525SOL     OW 8473   1.828   3.233   3.991
 2525SOL    HW1 8474   1.819   3.328   4.020
 2525SOL    HW2 8475   1.925   3.208   3.989
 2526SOL     OW 8476   0.289   3.201   5.345
 2526SOL    HW1 8477   0.385   3.173   5.352
 2526SOL    HW2 8478   0.278   3.293   5.384
 2527SOL     OW 8479   6.165   0.195   5.410
 2527SOL    HW1 8480   6.074   0.192   5.370
 2527SOL    HW2 8481   6.176   0.120   5.476
 2528SOL     OW 8482   5.802   4.721   1.431
 2528SOL    HW1 8483   5.804   4.636   1.379
 2528SOL    HW2 8484   5.870   4.785   1.394
 2529SOL     OW 8485   5.658   4.871   5.838
 2529SOL    HW1 8486   5.605   4.935   5.783
 2529SOL    HW2 8487   5.596   4.807   5.883
 2530SOL     OW 8488   1.147   6.355   4.473
 2530SOL    HW1 8489   1.201   6.412   4.410
 2530SOL    HW2 8490   1.074   6.410   4.513
 2531SOL     OW 8491   5.660   6.848   4.809
 2531SOL    HW1 8492   5.662   6.748   4.807
 2531SOL    HW2 8493   5.717   6.881   4.884
 2532SOL     OW 8494   0.666   5.669   0.575
 2532SOL    HW1 8495   0.569   5.652   0.554
 2532SOL    HW2 8496   0.697   5.603   0.644
 2533SOL     OW 8497   5.647   6.510   5.113
 2533SOL    HW1 8498   5.730   6.539   5.161
 2533SOL    HW2 8499   5.635   6.412   5.123
 2534SOL     OW 8500   2.310   0.678   3.321
 2534SOL    HW1 8501   2.241   0.606   3.327
 2534SOL    HW2 8502   2.313   0.729   3.407
 2535SOL     OW 8503   2.193   1.824   6.389
 2535SOL    HW1 8504   2.174   1.775   6.474
 2535SOL    HW2 8505   2.286   1.861   6.392
 2536SOL     OW 8506   0.367   1.623   3.337
 2536SOL    HW1 8507   0.337   1.591   3.246
 2536SOL    HW2 8508   0.290   1.669   3.382
 2537SOL     OW 8509   4.871   6.310   0.524
 2537SOL    HW1 8510   4.880   6.220   0.567
 2537SOL    HW2 8511   4.856   6.379   0.595
 2538SOL     OW 8512   1.539   4.345   5.210
 2538SOL    HW1 8513   1.528   4.367   5.307
 2538SOL    HW2 8514   1.570   4.427   5.162
 2539SOL     OW 8515   4.189   6.857   5.472
 2539SOL    HW1 8516   4.223   6.838   5.564
 2539SOL    HW2 8517   4.255   6.915   5.424
 2540SOL     OW 8518   5.235   1.149   1.137
 2540SOL    HW1 8519   5.189   1.072   1.094
 2540SOL    HW2 8520   5.333   1.148   1.114
 2541SOL     OW 8521   1.428   0.604   5.667
 2541SOL    HW1 8522   1.446   0.620   5.570
 2541SOL    HW2 8523   1.385   0.686   5.706
 2542SOL     OW 8524   3.877   2.074   4.411
 2542SOL    HW1 8525   3.953   2.133   4.384
 2542SOL    HW2 8526   3.805   2.078   4.342
 2543SOL     OW 8527   1.980   0.826   2.992
 2543SOL    HW1 8528   1.892   0.850   2.951
 2543SOL    HW2 8529   2.019   0.748   2.943
 2544SOL     OW 8530   0.516   5.016   2.129
 2544SOL    HW1 8531   0.491   5.019   2.226
 2544SOL    HW2 8532   0.546   4.924   2.104
 2545SOL     OW 8533   1.350   1.301   1.388
 2545SOL    HW1 8534   1.448   1.299   1.369
 2545SOL    HW2 8535   1.305   1.228   1.338
 2546SOL     OW 8536   6.885   3.305   0.800
 2546SOL    HW1 8537   6.954   3.251   0.848
 2546SOL    HW2 8538   6.866   3.389   0.851
 2547SOL     OW 8539   5.721   5.628   0.738
 2547SOL    HW1 8540   5.644   5.571   0.710
 2547SOL    HW2 8541   5.698   5.724   0.725
 2548SOL     OW 8542   2.402   0.587   4.616
 2548SOL    HW1 8543   2.420   0.495   4.582
 2548SOL    HW2 8544   2.401   0.586   4.716
 2549SOL     OW 8545   2.307   2.449   1.650
 2549SOL    HW1 8546   2.387   2.390   1.641
 2549SOL    HW2 8547   2.255   2.424   1.732
 2550SOL     OW 8548   5.358   0.834   6.945
 2550SOL    HW1 8549   5.311   0.866   0.001
 2550SOL    HW2 8550   5.363   0.734   6.945
 2551SOL     OW 8551   3.559   5.445   6.897
 2551SOL    HW1 8552   3.471   5.493   6.901
 2551SOL    HW2 8553   3.613   5.469   6.978
 2552SOL     OW 8554   2.253   5.410   6.791
 2552SOL    HW1 8555   2.316   5.412   6.868
 2552SOL    HW2 8556   2.268   5.489   6.733
 2553SOL     OW 8557   3.347   2.977   6.056
 2553SOL    HW1 8558   3.250   2.975   6.079
 2553SOL    HW2 8559   3.359   3.012   5.963
 2554SOL     OW 8560   1.587   5.714   6.841
 2554SOL    HW1 8561   1.616   5.755   6.755
 2554SOL    HW2 8562   1.637   5.629   6.856
 2555SOL     OW 8563   6.101   6.161   6.758
 2555SOL    HW1 8564   6.041   6.083   6.741
 2555SOL    HW2 8565   6.053   6.228   6.814
 2556SOL     OW 8566   4.281   0.287   1.249
 2556SOL    HW1 8567   4.214   0.215   1.267
 2556SOL    HW2 8568   4.290   0.345   1.330
 2557SOL     OW 8569   2.688   0.360   6.774
 2557SOL    HW1 8570   2.613   0.423   6.795
 2557SOL    HW2 8571   2.750   0.355   6.853
 2558SOL     OW 8572   4.526   4.100   5.504
 2558SOL    HW1 8573   4.460   4.117   5.577
 2558SOL    HW2 8574   4.515   4.169   5.433
 2559SOL     OW 8575   6.779   3.374   3.783
 2559SOL    HW1 8576   6.807   3.292   3.833
 2559SOL    HW2 8577   6.808   3.367   3.687
 2560SOL     OW 8578   5.216   3.760   3.508
 2560SOL    HW1 8579   5.248   3.740   3.601
 2560SOL    HW2 8580   5.132   3.814   3.512
 2561SOL     OW 8581   3.687   1.419   3.233
 2561SOL    HW1 8582   3.648   1.402   3.143
 2561SOL    HW2 8583   3.614   1.428   3.300
 2562SOL     OW 8584   2.971   5.790   3.451
 2562SOL    HW1 8585   2.960   5.715   3.386
 2562SOL    HW2 8586   2.925   5.765   3.537
 2563SOL     OW 8587   3.146   1.561   6.227
 2563SOL    HW1 8588   3.209   1.609   6.288
 2563SOL    HW2 8589   3.186   1.474   6.198
 2564SOL     OW 8590   1.868   6.780   0.264
 2564SOL    HW1 8591   1.880   6.806   0.360
 2564SOL    HW2 8592   1.784   6.727   0.253
 2565SOL     OW 8593   0.417   0.851   6.940
 2565SOL    HW1 8594   0.484   0.901   6.993
 2565SOL    HW2 8595   0.339   0.910   6.919
 2566SOL     OW 8596   2.386   6.516   1.677
 2566SOL    HW1 8597   2.383   6.604   1.629
 2566SOL    HW2 8598   2.405   6.532   1.774
 2567SOL     OW 8599   1.616   1.182   1.073
 2567SOL    HW1 8600   1.638   1.279   1.083
 2567SOL    HW2 8601   1.658   1.146   0.990
 2568SOL     OW 8602   2.741   6.799   0.647
 2568SOL    HW1 8603   2.751   6.705   0.679
 2568SOL    HW2 8604   2.705   6.856   0.721
 2569SOL     OW 8605   2.707   1.948   1.938
 2569SOL    HW1 8606   2.723   1.886   1.861
 2569SOL    HW2 8607   2.629   2.007   1.917
 2570SOL     OW 8608   4.702   6.052   6.435
 2570SOL    HW1 8609   4.744   6.142   6.446
 2570SOL    HW2 8610   4.681   6.036   6.339
 2571SOL     OW 8611   3.848   3.022   4.567
 2571SOL    HW1 8612   3.805   3.100   4.521
 2571SOL    HW2 8613   3.909   3.056   4.639
 2572SOL     OW 8614   2.049   6.186   1.208
 2572SOL    HW1 8615   2.070   6.178   1.110
 2572SOL    HW2 8616   2.133   6.172   1.261
 2573SOL     OW 8617   6.646   1.755   2.995
 2573SOL    HW1 8618   6.619   1.756   3.092
 2573SOL    HW2 8619   6.579   1.703   2.943
 2574SOL     OW 8620   6.452   3.396   0.840
 2574SOL    HW1 8621   6.436   3.439   0.929
 2574SOL    HW2 8622   6.418   3.456   0.767
 2575SOL     OW 8623   5.193   3.324   1.542
 2575SOL    HW1 8624   5.132   3.263   1.594
 2575SOL    HW2 8625   5.169   3.419   1.562
 2576SOL     OW 8626   3.737   0.032   3.901
 2576SOL    HW1 8627   3.745   6.960   3.913
 2576SOL    HW2 8628   3.816   0.077   3.941
 2577SOL     OW 8629   5.022   0.470   3.491
 2577SOL    HW1 8630   5.104   0.519   3.464
 2577SOL    HW2 8631   4.951   0.484   3.422
 2578SOL     OW 8632   4.682   2.698   5.448
 2578SOL    HW1 8633   4.759   2.654   5.402
 2578SOL    HW2 8634   4.604   2.705   5.386
 2579SOL     OW 8635   1.231   1.641   5.346
 2579SOL    HW1 8636   1.168   1.685   5.281
 2579SOL    HW2 8637   1.270   1.559   5.304
 2580SOL     OW 8638   1.980   2.593   6.091
 2580SOL    HW1 8639   1.970   2.578   5.992
 2580SOL    HW2 8640   1.917   2.665   6.120
 2581SOL     OW 8641   5.712   4.533   1.843
 2581SOL    HW1 8642   5.632   4.481   1.812
 2581SOL    HW2 8643   5.741   4.500   1.932
 2582SOL     OW 8644   2.033   4.990   2.877
 2582SOL    HW1 8645   2.073   4.912   2.925
 2582SOL    HW2 8646   2.065   5.075   2.919
 2583SOL     OW 8647   1.385   0.679   0.757
 2583SOL    HW1 8648   1.366   0.752   0.823
 2583SOL    HW2 8649   1.464   0.703   0.701
 2584SOL     OW 8650   4.563   6.106   0.922
 2584SOL    HW1 8651   4.537   6.031   0.863
 2584SOL    HW2 8652   4.552   6.193   0.874
 2585SOL     OW 8653   3.157   0.525   0.632
 2585SOL    HW1 8654   3.165   0.559   0.725
 2585SOL    HW2 8655   3.070   0.556   0.593
 2586SOL     OW 8656   5.503   1.554   4.355
 2586SOL    HW1 8657   5.455   1.487   4.411
 2586SOL    HW2 8658   5.589   1.579   4.400
 2587SOL     OW 8659   6.871   0.351   4.654
 2587SOL    HW1 8660   6.814   0.403   4.718
 2587SOL    HW2 8661   6.855   0.383   4.561
 2588SOL     OW 8662   4.635   6.894   0.366
 2588SOL    HW1 8663   4.717   6.843   0.341
 2588SOL    HW2 8664   4.607   6.869   0.459
 2589SOL     OW 8665   0.676   6.848   5.459
 2589SOL    HW1 8666   0.696   6.937   5.501
 2589SOL    HW2 8667   0.581   6.846   5.428
 2590SOL     OW 8668   4.009   0.035   2.644
 2590SOL    HW1 8669   3.926   0.056   2.694
 2590SOL    HW2 8670   4.051   6.978   2.681
 2591SOL     OW 8671   5.349   5.826   2.516
 2591SOL    HW1 8672   5.301   5.741   2.494
 2591SOL    HW2 8673   5.314   5.862   2.603
 2592SOL     OW 8674   2.702   6.406   1.576
 2592SOL    HW1 8675   2.680   6.351   1.495
 2592SOL    HW2 8676   2.620   6.456   1.605
 2593SOL     OW 8677   3.688   6.421   2.092
 2593SOL    HW1 8678   3.771   6.417   2.147
 2593SOL    HW2 8679   3.643   6.509   2.105
 2594SOL     OW 8680   0.301   6.448   6.128
 2594SOL    HW1 8681   0.294   6.492   6.039
 2594SOL    HW2 8682   0.350   6.507   6.191
 2595SOL     OW 8683   7.026   2.211   5.533
 2595SOL    HW1 8684   0.050   2.152   5.469
 2595SOL    HW2 8685   0.024   2.188   5.627
 2596SOL     OW 8686   3.838   2.179   1.751
 2596SOL    HW1 8687   3.756   2.227   1.781
 2596SOL    HW2 8688   3.874   2.123   1.826
 2597SOL     OW 8689   1.835   3.639   0.718
 2597SOL    HW1 8690   1.898   3.690   0.776
 2597SOL    HW2 8691   1.865   3.646   0.623
 2598SOL     OW 8692   5.878   2.510   4.563
 2598SOL    HW1 8693   5.835   2.463   4.486
 2598SOL    HW2 8694   5.819   2.584   4.595
 2599SOL     OW 8695   3.713   5.823   6.750
 2599SOL    HW1 8696   3.694   5.921   6.735
 2599SOL    HW2 8697   3.627   5.772   6.743
 2600SOL     OW 8698   4.910   3.776   4.438
 2600SOL    HW1 8699   4.978   3.750   4.369
 2600SOL    HW2 8700   4.920   3.718   4.519
 2601SOL     OW 8701   3.645   2.162   6.583
 2601SOL    HW1 8702   3.570   2.228   6.585
 2601SOL    HW2 8703   3.732   2.211   6.586
 2602SOL     OW 8704   6.909   4.886   3.711
 2602SOL    HW1 8705   7.007   4.881   3.696
 2602SOL    HW2 8706   6.890   4.897   3.808
 2603SOL     OW 8707   2.965   2.177   1.511
 2603SOL    HW1 8708   2.872   2.197   1.479
 2603SOL    HW2 8709   2.967   2.180   1.611
 2604SOL     OW 8710   4.876   1.345   1.479
 2604SOL    HW1 8711   4.802   1.290   1.518
 2604SOL    HW2 8712   4.954   1.286   1.458
 2605SOL     OW 8713   3.966   5.240   3.575
 2605SOL    HW1 8714   3.988   5.322   3.629
 2605SOL    HW2 8715   4.009   5.247   3.485
 2606SOL     OW 8716   6.540   4.804   0.532
 2606SOL    HW1 8717   6.526   4.763   0.622
 2606SOL    HW2 8718   6.584   4.893   0.542
 2607SOL     OW 8719   0.238   1.931   5.881
 2607SOL    HW1 8720   0.163   1.879   5.840
 2607SOL    HW2 8721   0.258   1.894   5.972
 2608SOL     OW 8722   4.403   6.175   2.960
 2608SOL    HW1 8723   4.485   6.193   2.907
 2608SOL    HW2 8724   4.347   6.258   2.965
 2609SOL     OW 8725   0.714   2.707   1.185
 2609SOL    HW1 8726   0.759   2.789   1.150
 2609SOL    HW2 8727   0.686   2.722   1.280
 2610SOL     OW 8728   6.583   5.491   3.866
 2610SOL    HW1 8729   6.674   5.468   3.832
 2610SOL    HW2 8730   6.514   5.460   3.800
 2611SOL     OW 8731   6.359   6.718   1.123
 2611SOL    HW1 8732   6.294   6.788   1.154
 2611SOL    HW2 8733   6.443   6.724   1.177
 2612SOL     OW 8734   6.430   6.693   5.496
 2612SOL    HW1 8735   6.354   6.680   5.560
 2612SOL    HW2 8736   6.455   6.606   5.455
 2613SOL     OW 8737   2.735   6.160   1.772
 2613SOL    HW1 8738   2.741   6.226   1.698
 2613SOL    HW2 8739   2.679   6.082   1.742
 2614SOL     OW 8740   6.476   6.667   5.809
 2614SOL    HW1 8741   6.485   6.582   5.756
 2614SOL    HW2 8742   6.382   6.676   5.842
 2615SOL     OW 8743   5.725   4.803   3.311
 2615SOL    HW1 8744   5.758   4.874   3.373
 2615SOL    HW2 8745   5.630   4.781   3.333
 2616SOL     OW 8746   3.814   3.671   3.797
 2616SOL    HW1 8747   3.875   3.592   3.790
 2616SOL    HW2 8748   3.839   3.739   3.727
 2617SOL     OW 8749   3.066   6.532   1.522
 2617SOL    HW1 8750   3.091   6.596   1.595
 2617SOL    HW2 8751   3.046   6.583   1.438
 2618SOL     OW 8752   0.467   6.433   3.803
 2618SOL    HW1 8753   0.447   6.433   3.705
 2618SOL    HW2 8754   0.510   6.346   3.828
 2619SOL     OW 8755   3.391   1.070   3.246
 2619SOL    HW1 8756   3.398   1.162   3.206
 2619SOL    HW2 8757   3.307   1.026   3.214
 2620SOL     OW 8758   0.827   5.827   3.522
 2620SOL    HW1 8759   0.877   5.906   3.486
 2620SOL    HW2 8760   0.891   5.769   3.572
 2621SOL     OW 8761   1.837   5.722   3.456
 2621SOL    HW1 8762   1.753   5.670   3.466
 2621SOL    HW2 8763   1.824   5.794   3.387
 2622SOL     OW 8764   2.195   2.274   6.375
 2622SOL    HW1 8765   2.193   2.347   6.307
 2622SOL    HW2 8766   2.165   2.310   6.463
 2623SOL     OW 8767   3.372   1.823   4.872
 2623SOL    HW1 8768   3.404   1.912   4.904
 2623SOL    HW2 8769   3.319   1.778   4.944
 2624SOL     OW 8770   6.620   3.365   3.999
 2624SOL    HW1 8771   6.675   3.385   3.918
 2624SOL    HW2 8772   6.681   3.350   4.077
 2625SOL     OW 8773   2.513   2.804   5.354
 2625SOL    HW1 8774   2.540   2.876   5.290
 2625SOL    HW2 8775   2.584   2.790   5.422
 2626SOL     OW 8776   0.424   6.823   4.085
 2626SOL    HW1 8777   0.424   6.735   4.134
 2626SOL    HW2 8778   0.391   6.894   4.146
 2627SOL     OW 8779   0.278   1.103   4.074
 2627SOL    HW1 8780   0.312   1.012   4.097
 2627SOL    HW2 8781   0.272   1.158   4.158
 2628SOL     OW 8782   3.379   5.481   6.469
 2628SOL    HW1 8783   3.357   5.549   6.399
 2628SOL    HW2 8784   3.413   5.398   6.426
 2629SOL     OW 8785   3.442   3.893   2.356
 2629SOL    HW1 8786   3.364   3.892   2.419
 2629SOL    HW2 8787   3.436   3.973   2.297
 2630SOL     OW 8788   3.621   1.706   3.002
 2630SOL    HW1 8789   3.717   1.691   2.979
 2630SOL    HW2 8790   3.606   1.802   3.022
 2631SOL     OW 8791   4.935   0.061   4.088
 2631SOL    HW1 8792   4.917   0.096   3.996
 2631SOL    HW2 8793   4.849   0.034   4.131
 2632SOL     OW 8794   2.605   1.800   5.799
 2632SOL    HW1 8795   2.589   1.703   5.778
 2632SOL    HW2 8796   2.681   1.808   5.863
 2633SOL     OW 8797   6.342   2.367   6.145
 2633SOL    HW1 8798   6.434   2.332   6.126
 2633SOL    HW2 8799   6.346   2.466   6.155
 2634SOL     OW 8800   2.175   3.668   3.209
 2634SOL    HW1 8801   2.192   3.767   3.217
 2634SOL    HW2 8802   2.176   3.626   3.300
 2635SOL     OW 8803   5.961   5.733   4.501
 2635SOL    HW1 8804   5.946   5.672   4.423
 2635SOL    HW2 8805   5.994   5.821   4.469
 2636SOL     OW 8806   4.851   0.579   5.975
 2636SOL    HW1 8807   4.845   0.672   5.939
 2636SOL    HW2 8808   4.770   0.558   6.029
 2637SOL     OW 8809   5.882   1.182   3.826
 2637SOL    HW1 8810   5.787   1.166   3.800
 2637SOL    HW2 8811   5.899   1.144   3.916
 2638SOL     OW 8812   0.117   6.593   3.025
 2638SOL    HW1 8813   0.064   6.617   2.943
 2638SOL    HW2 8814   0.104   6.664   3.094
 2639SOL     OW 8815   0.162   0.056   2.137
 2639SOL    HW1 8816   0.230   0.005   2.190
 2639SOL    HW2 8817   0.136   0.139   2.186
 2640SOL     OW 8818   0.011   5.961   5.788
 2640SOL    HW1 8819   7.008   6.056   5.780
 2640SOL    HW2 8820   0.110   5.955   5.785
 2641SOL     OW 8821   5.102   2.818   1.755
 2641SOL    HW1 8822   5.010   2.855   1.768
 2641SOL    HW2 8823   5.118   2.744   1.820
 2642SOL     OW 8824   5.523   7.019   4.630
 2642SOL    HW1 8825   5.588   0.025   4.561
 2642SOL    HW2 8826   5.567   6.951   4.689
 2643SOL     OW 8827   1.337   5.031   3.363
 2643SOL    HW1 8828   1.303   5.123   3.341
 2643SOL    HW2 8829   1.260   4.969   3.373
 2644SOL     OW 8830   6.988   4.542   5.339
 2644SOL    HW1 8831   7.020   4.451   5.365
 2644SOL    HW2 8832   6.899   4.534   5.294
 2645SOL     OW 8833   4.735   6.529   4.804
 2645SOL    HW1 8834   4.690   6.479   4.730
 2645SOL    HW2 8835   4.829   6.549   4.778
 2646SOL     OW 8836   5.929   6.699   6.413
 2646SOL    HW1 8837   5.936   6.613   6.464
 2646SOL    HW2 8838   5.891   6.680   6.322
 2647SOL     OW 8839   5.417   0.655   0.768
 2647SOL    HW1 8840   5.420   0.575   0.827
 2647SOL    HW2 8841   5.487   0.721   0.797
 2648SOL     OW 8842   6.792   0.314   4.058
 2648SOL    HW1 8843   6.769   0.218   4.039
 2648SOL    HW2 8844   6.744   0.373   3.994
 2649SOL     OW 8845   4.473   2.175   6.405
 2649SOL    HW1 8846   4.526   2.208   6.483
 2649SOL    HW2 8847   4.525   2.103   6.358
 2650SOL     OW 8848   0.791   4.028   3.842
 2650SOL    HW1 8849   0.758   4.077   3.923
 2650SOL    HW2 8850   0.726   3.956   3.818
 2651SOL     OW 8851   1.066   1.515   0.499
 2651SOL    HW1 8852   1.040   1.531   0.595
 2651SOL    HW2 8853   1.158   1.475   0.497
 2652SOL     OW 8854   3.026   3.742   3.537
 2652SOL    HW1 8855   2.972   3.658   3.542
 2652SOL    HW2 8856   3.027   3.786   3.627
 2653SOL     OW 8857   5.109   0.064   4.990
 2653SOL    HW1 8858   5.171   0.117   4.932
 2653SOL    HW2 8859   5.148   0.057   5.083
 2654SOL     OW 8860   4.753   3.600   0.766
 2654SOL    HW1 8861   4.771   3.697   0.784
 2654SOL    HW2 8862   4.659   3.589   0.734
 2655SOL     OW 8863   4.844   4.522   4.148
 2655SOL    HW1 8864   4.869   4.480   4.060
 2655SOL    HW2 8865   4.773   4.467   4.192
 2656SOL     OW 8866   4.375   5.017   4.462
 2656SOL    HW1 8867   4.280   4.987   4.458
 2656SOL    HW2 8868   4.391   5.065   4.549
 2657SOL     OW 8869   2.547   4.618   6.514
 2657SOL    HW1 8870   2.490   4.537   6.534
 2657SOL    HW2 8871   2.610   4.597   6.439
 2658SOL     OW 8872   5.472   3.904   0.898
 2658SOL    HW1 8873   5.496   3.822   0.949
 2658SOL    HW2 8874   5.388   3.889   0.846
 2659SOL     OW 8875   6.492   2.445   4.534
 2659SOL    HW1 8876   6.453   2.475   4.446
 2659SOL    HW2 8877   6.561   2.510   4.564
 2660SOL     OW 8878   0.602   1.472   1.396
 2660SOL    HW1 8879   0.532   1.459   1.326
 2660SOL    HW2 8880   0.579   1.552   1.451
 2661SOL     OW 8881   2.569   6.214   2.455
 2661SOL    HW1 8882   2.584   6.129   2.406
 2661SOL    HW2 8883   2.624   6.287   2.414
 2662SOL     OW 8884   4.705   0.113   5.223
 2662SOL    HW1 8885   4.672   0.080   5.311
 2662SOL    HW2 8886   4.784   0.173   5.237
 2663SOL     OW 8887   3.006   4.380   1.315
 2663SOL    HW1 8888   3.000   4.302   1.378
 2663SOL    HW2 8889   2.920   4.430   1.317
 2664SOL     OW 8890   4.073   3.770   4.069
 2664SOL    HW1 8891   4.107   3.680   4.097
 2664SOL    HW2 8892   4.000   3.758   4.002
 2665SOL     OW 8893   2.802   1.959   4.631
 2665SOL    HW1 8894   2.890   1.943   4.587
 2665SOL    HW2 8895   2.813   2.027   4.704
 2666SOL     OW 8896   4.436   3.848   1.481
 2666SOL    HW1 8897   4.464   3.910   1.554
 2666SOL    HW2 8898   4.340   3.864   1.459
 2667SOL     OW 8899   1.648   5.649   4.367
 2667SOL    HW1 8900   1.693   5.736   4.384
 2667SOL    HW2 8901   1.597   5.654   4.281
 2668SOL     OW 8902   6.749   3.206   3.153
 2668SOL    HW1 8903   6.737   3.183   3.056
 2668SOL    HW2 8904   6.826   3.269   3.163
 2669SOL     OW 8905   3.085   4.829   5.080
 2669SOL    HW1 8906   3.038   4.914   5.105
 2669SOL    HW2 8907   3.017   4.758   5.062
 2670SOL     OW 8908   5.903   1.296   6.437
 2670SOL    HW1 8909   5.987   1.350   6.442
 2670SOL    HW2 8910   5.830   1.351   6.396
 2671SOL     OW 8911   3.270   5.281   0.576
 2671SOL    HW1 8912   3.214   5.354   0.538
 2671SOL    HW2 8913   3.212   5.202   0.597
 2672SOL     OW 8914   0.168   5.567   6.757
 2672SOL    HW1 8915   0.225   5.572   6.675
 2672SOL    HW2 8916   0.071   5.563   6.729
 2673SOL     OW 8917   5.819   2.383   3.890
 2673SOL    HW1 8918   5.769   2.321   3.830
 2673SOL    HW2 8919   5.878   2.442   3.835
 2674SOL     OW 8920   2.079   4.097   4.634
 2674SOL    HW1 8921   2.007   4.044   4.589
 2674SOL    HW2 8922   2.137   4.036   4.687
 2675SOL     OW 8923   0.668   4.884   4.768
 2675SOL    HW1 8924   0.605   4.938   4.712
 2675SOL    HW2 8925   0.680   4.794   4.727
 2676SOL     OW 8926   4.205   0.850   2.846
 2676SOL    HW1 8927   4.199   0.950   2.843
 2676SOL    HW2 8928   4.239   0.816   2.759
 2677SOL     OW 8929   3.029   5.208   0.361
 2677SOL    HW1 8930   3.052   5.207   0.264
 2677SOL    HW2 8931   3.082   5.279   0.407
 2678SOL     OW 8932   6.853   3.675   1.259
 2678SOL    HW1 8933   6.787   3.669   1.333
 2678SOL    HW2 8934   6.812   3.724   1.181
 2679SOL     OW 8935   4.248   5.233   1.007
 2679SOL    HW1 8936   4.315   5.302   1.033
 2679SOL    HW2 8937   4.294   5.146   0.987
 2680SOL     OW 8938   1.599   1.570   0.846
 2680SOL    HW1 8939   1.551   1.551   0.760
 2680SOL    HW2 8940   1.686   1.616   0.826
 2681SOL     OW 8941   1.511   2.165   4.406
 2681SOL    HW1 8942   1.476   2.242   4.354
 2681SOL    HW2 8943   1.466   2.160   4.495
 2682SOL     OW 8944   5.447   3.525   2.455
 2682SOL    HW1 8945   5.389   3.605   2.463
 2682SOL    HW2 8946   5.521   3.544   2.390
 2683SOL     OW 8947   1.351   3.494   0.047
 2683SOL    HW1 8948   1.428   3.487   0.110
 2683SOL    HW2 8949   1.372   3.562   7.004
 2684SOL     OW 8950   4.294   5.412   2.998
 2684SOL    HW1 8951   4.324   5.394   3.091
 2684SOL    HW2 8952   4.228   5.487   2.997
 2685SOL     OW 8953   0.259   6.891   6.058
 2685SOL    HW1 8954   0.221   6.912   6.148
 2685SOL    HW2 8955   0.241   6.796   6.035
 2686SOL     OW 8956   1.720   1.919   5.594
 2686SOL    HW1 8957   1.756   1.962   5.511
 2686SOL    HW2 8958   1.761   1.961   5.674
 2687SOL     OW 8959   4.216   4.666   3.147
 2687SOL    HW1 8960   4.316   4.665   3.154
 2687SOL    HW2 8961   4.189   4.648   3.053
 2688SOL     OW 8962   4.672   5.626   6.417
 2688SOL    HW1 8963   4.589   5.682   6.414
 2688SOL    HW2 8964   4.725   5.649   6.498
 2689SOL     OW 8965   2.184   1.754   3.041
 2689SOL    HW1 8966   2.119   1.822   3.074
 2689SOL    HW2 8967   2.271   1.798   3.019
 2690SOL     OW 8968   3.211   4.115   4.011
 2690SOL    HW1 8969   3.152   4.043   4.048
 2690SOL    HW2 8970   3.194   4.125   3.913
 2691SOL     OW 8971   1.330   5.568   2.282
 2691SOL    HW1 8972   1.297   5.483   2.325
 2691SOL    HW2 8973   1.376   5.624   2.350
 2692SOL     OW 8974   4.686   5.169   4.070
 2692SOL    HW1 8975   4.773   5.218   4.081
 2692SOL    HW2 8976   4.646   5.153   4.160
 2693SOL     OW 8977   1.780   4.129   2.831
 2693SOL    HW1 8978   1.851   4.108   2.763
 2693SOL    HW2 8979   1.724   4.205   2.799
 2694SOL     OW 8980   3.835   0.780   2.849
 2694SOL    HW1 8981   3.808   0.689   2.818
 2694SOL    HW2 8982   3.893   0.773   2.930
 2695SOL     OW 8983   5.632   1.366   2.675
 2695SOL    HW1 8984   5.670   1.449   2.634
 2695SOL    HW2 8985   5.613   1.299   2.604
 2696SOL     OW 8986   3.428   3.227   5.256
 2696SOL    HW1 8987   3.509   3.255   5.205
 2696SOL    HW2 8988   3.368   3.306   5.269
 2697SOL     OW 8989   4.170   1.727   3.226
 2697SOL    HW1 8990   4.260   1.690   3.206
 2697SOL    HW2 8991   4.126   1.670   3.296
 2698SOL     OW 8992   1.723   4.976   1.097
 2698SOL    HW1 8993   1.667   5.055   1.071
 2698SOL    HW2 8994   1.748   4.984   1.194
 2699SOL     OW 8995   3.188   5.697   0.356
 2699SOL    HW1 8996   3.210   5.735   0.266
 2699SOL    HW2 8997   3.232   5.753   0.427
 2700SOL     OW 8998   2.124   3.361   1.483
 2700SOL    HW1 8999   2.152   3.335   1.576
 2700SOL    HW2 9000   2.073   3.447   1.486
 2701SOL     OW 9001   3.955   6.873   6.654
 2701SOL    HW1 9002   3.887   6.947   6.653
 2701SOL    HW2 9003   3.988   6.859   6.747
 2702SOL     OW 9004   0.283   1.926   3.598
 2702SOL    HW1 9005   0.362   1.879   3.638
 2702SOL    HW2 9006   0.208   1.928   3.665
 2703SOL     OW 9007   2.304   0.823   2.711
 2703SOL    HW1 9008   2.267   0.763   2.781
 2703SOL    HW2 9009   2.323   0.770   2.628
 2704SOL     OW 9010   0.698   5.094   1.117
 2704SOL    HW1 9011   0.672   5.047   1.202
 2704SOL    HW2 9012   0.765   5.166   1.138
 2705SOL     OW 9013   1.478   5.365   4.448
 2705SOL    HW1 9014   1.438   5.439   4.502
 2705SOL    HW2 9015   1.483   5.393   4.352
 2706SOL     OW 9016   0.364   0.695   1.326
 2706SOL    HW1 9017   0.408   0.712   1.415
 2706SOL    HW2 9018   0.333   0.600   1.321
 2707SOL     OW 9019   2.140   0.413   5.387
 2707SOL    HW1 9020   2.220   0.362   5.355
 2707SOL    HW2 9021   2.169   0.505   5.416
 2708SOL     OW 9022   1.751   2.144   1.533
 2708SOL    HW1 9023   1.726   2.099   1.447
 2708SOL    HW2 9024   1.741   2.078   1.608
 2709SOL     OW 9025   5.400   6.869   0.810
 2709SOL    HW1 9026   5.429   6.912   0.896
 2709SOL    HW2 9027   5.311   6.825   0.823
 2710SOL     OW 9028   6.873   2.840   2.622
 2710SOL    HW1 9029   6.949   2.778   2.601
 2710SOL    HW2 9030   6.888   2.882   2.712
 2711SOL     OW 9031   2.920   0.932   3.464
 2711SOL    HW1 9032   2.827   0.966   3.447
 2711SOL    HW2 9033   2.958   0.897   3.378
 2712SOL     OW 9034   3.253   5.381   1.316
 2712SOL    HW1 9035   3.349   5.358   1.300
 2712SOL    HW2 9036   3.248   5.468   1.366
 2713SOL     OW 9037   1.496   2.124   4.932
 2713SOL    HW1 9038   1.441   2.192   4.884
 2713SOL    HW2 9039   1.449   2.097   5.017
 2714SOL     OW 9040   4.683   2.093   6.779
 2714SOL    HW1 9041   4.703   2.191   6.777
 2714SOL    HW2 9042   4.600   2.077   6.832
 2715SOL     OW 9043   5.824   0.288   0.126
 2715SOL    HW1 9044   5.827   0.388   0.121
 2715SOL    HW2 9045   5.799   0.251   0.036
 2716SOL     OW 9046   5.724   5.375   2.115
 2716SOL    HW1 9047   5.797   5.317   2.152
 2716SOL    HW2 9048   5.765   5.449   2.062
 2717SOL     OW 9049   0.873   4.955   1.539
 2717SOL    HW1 9050   0.964   4.986   1.511
 2717SOL    HW2 9051   0.863   4.858   1.516
 2718SOL     OW 9052   2.183   3.901   4.789
 2718SOL    HW1 9053   2.148   3.814   4.821
 2718SOL    HW2 9054   2.254   3.934   4.851
 2719SOL     OW 9055   5.438   4.727   1.720
 2719SOL    HW1 9056   5.507   4.787   1.679
 2719SOL    HW2 9057   5.349   4.747   1.680
 2720SOL     OW 9058   1.912   6.346   3.400
 2720SOL    HW1 9059   1.969   6.306   3.472
 2720SOL    HW2 9060   1.824   6.374   3.439
 2721SOL     OW 9061   3.323   0.373   4.445
 2721SOL    HW1 9062   3.399   0.312   4.467
 2721SOL    HW2 9063   3.250   0.320   4.402
 2722SOL     OW 9064   6.437   5.291   3.047
 2722SOL    HW1 9065   6.431   5.240   2.961
 2722SOL    HW2 9066   6.485   5.377   3.031
 2723SOL     OW 9067   1.574   0.004   5.822
 2723SOL    HW1 9068   1.504   6.978   5.773
 2723SOL    HW2 9069   1.665   7.002   5.792
 2724SOL     OW 9070   2.995   6.129   5.868
 2724SOL    HW1 9071   2.968   6.043   5.826
 2724SOL    HW2 9072   2.959   6.205   5.814
 2725SOL     OW 9073   6.158   4.895   3.204
 2725SOL    HW1 9074   6.205   4.883   3.292
 2725SOL    HW2 9075   6.104   4.979   3.206
 2726SOL     OW 9076   6.628   4.348   1.076
 2726SOL    HW1 9077   6.699   4.307   1.019
 2726SOL    HW2 9078   6.554   4.283   1.090
 2727SOL     OW 9079   0.225   4.655   2.690
 2727SOL    HW1 9080   0.137   4.650   2.645
 2727SOL    HW2 9081   0.290   4.706   2.633
 2728SOL     OW 9082   3.826   0.168   5.392
 2728SOL    HW1 9083   3.903   0.231   5.405
 2728SOL    HW2 9084   3.854   0.094   5.332
 2729SOL     OW 9085   6.412   5.952   1.897
 2729SOL    HW1 9086   6.392   5.955   1.799
 2729SOL    HW2 9087   6.404   6.044   1.935
 2730SOL     OW 9088   1.829   5.989   1.253
 2730SOL    HW1 9089   1.891   5.910   1.258
 2730SOL    HW2 9090   1.847   6.050   1.330
 2731SOL     OW 9091   3.924   3.985   2.128
 2731SOL    HW1 9092   3.977   3.906   2.096
 2731SOL    HW2 9093   3.986   4.061   2.146
 2732SOL     OW 9094   6.162   3.021   1.511
 2732SOL    HW1 9095   6.193   2.938   1.557
 2732SOL    HW2 9096   6.238   3.062   1.461
 2733SOL     OW 9097   0.375   0.158   5.457
 2733SOL    HW1 9098   0.337   0.073   5.421
 2733SOL    HW2 9099   0.398   0.220   5.382
 2734SOL     OW 9100   2.272   5.201   2.385
 2734SOL    HW1 9101   2.361   5.167   2.416
 2734SOL    HW2 9102   2.202   5.132   2.401
 2735SOL     OW 9103   0.686   3.692   3.301
 2735SOL    HW1 9104   0.741   3.686   3.384
 2735SOL    HW2 9105   0.591   3.707   3.325
 2736SOL     OW 9106   5.193   0.318   4.345
 2736SOL    HW1 9107   5.218   0.223   4.326
 2736SOL    HW2 9108   5.271   0.366   4.386
 2737SOL     OW 9109   3.239   3.129   5.484
 2737SOL    HW1 9110   3.229   3.191   5.562
 2737SOL    HW2 9111   3.312   3.161   5.425
 2738SOL     OW 9112   5.301   5.467   4.402
 2738SOL    HW1 9113   5.362   5.546   4.408
 2738SOL    HW2 9114   5.351   5.385   4.430
 2739SOL     OW 9115   5.812   4.957   0.220
 2739SOL    HW1 9116   5.749   4.978   0.145
 2739SOL    HW2 9117   5.762   4.910   0.293
 2740SOL     OW 9118   6.039   2.983   2.271
 2740SOL    HW1 9119   6.127   2.959   2.312
 2740SOL    HW2 9120   5.989   2.900   2.247
 2741SOL     OW 9121   6.883   1.408   5.963
 2741SOL    HW1 9122   6.794   1.454   5.967
 2741SOL    HW2 9123   6.893   1.347   6.041
 2742SOL     OW 9124   1.877   5.329   6.773
 2742SOL    HW1 9125   1.915   5.302   6.685
 2742SOL    HW2 9126   1.897   5.258   6.841
 2743SOL     OW 9127   6.249   5.349   2.189
 2743SOL    HW1 9128   6.221   5.256   2.163
 2743SOL    HW2 9129   6.193   5.381   2.266
 2744SOL     OW 9130   4.105   2.268   6.849
 2744SOL    HW1 9131   4.177   2.227   6.793
 2744SOL    HW2 9132   4.082   2.206   6.924
 2745SOL     OW 9133   1.021   6.941   6.976
 2745SOL    HW1 9134   0.947   6.884   7.010
 2745SOL    HW2 9135   1.105   6.887   6.971
 2746SOL     OW 9136   1.864   1.815   4.437
 2746SOL    HW1 9137   1.842   1.902   4.480
 2746SOL    HW2 9138   1.961   1.794   4.449
 2747SOL     OW 9139   5.594   3.428   5.603
 2747SOL    HW1 9140   5.680   3.378   5.605
 2747SOL    HW2 9141   5.594   3.498   5.674
 2748SOL     OW 9142   3.737   1.427   1.082
 2748SOL    HW1 9143   3.714   1.500   1.146
 2748SOL    HW2 9144   3.826   1.388   1.106
 2749SOL     OW 9145   6.167   4.423   3.896
 2749SOL    HW1 9146   6.167   4.516   3.859
 2749SOL    HW2 9147   6.259   4.400   3.928
 2750SOL     OW 9148   0.152   5.035   1.921
 2750SOL    HW1 9149   0.219   5.108   1.902
 2750SOL    HW2 9150   0.090   5.027   1.844
 2751SOL     OW 9151   1.453   6.644   0.666
 2751SOL    HW1 9152   1.408   6.572   0.614
 2751SOL    HW2 9153   1.473   6.721   0.606
 2752SOL     OW 9154   5.343   5.292   5.060
 2752SOL    HW1 9155   5.250   5.326   5.069
 2752SOL    HW2 9156   5.359   5.217   5.124
 2753SOL     OW 9157   1.671   0.108   6.367
 2753SOL    HW1 9158   1.727   0.190   6.374
 2753SOL    HW2 9159   1.666   0.079   6.272
 2754SOL     OW 9160   6.731   1.056   4.291
 2754SOL    HW1 9161   6.668   1.130   4.313
 2754SOL    HW2 9162   6.686   0.967   4.306
 2755SOL     OW 9163   3.340   0.005   3.282
 2755SOL    HW1 9164   3.278   6.953   3.288
 2755SOL    HW2 9165   3.399   7.022   3.202
 2756SOL     OW 9166   6.205   3.831   4.653
 2756SOL    HW1 9167   6.151   3.866   4.577
 2756SOL    HW2 9168   6.287   3.786   4.618
 2757SOL     OW 9169   2.493   1.181   0.012
 2757SOL    HW1 9170   2.529   1.261   6.991
 2757SOL    HW2 9171   2.568   1.122   0.042
 2758SOL     OW 9172   5.395   6.337   3.840
 2758SOL    HW1 9173   5.332   6.266   3.807
 2758SOL    HW2 9174   5.393   6.415   3.777
 2759SOL     OW 9175   3.845   5.615   5.161
 2759SOL    HW1 9176   3.814   5.619   5.066
 2759SOL    HW2 9177   3.769   5.586   5.220
 2760SOL     OW 9178   6.898   5.258   2.501
 2760SOL    HW1 9179   6.895   5.358   2.507
 2760SOL    HW2 9180   6.978   5.225   2.551
 2761SOL     OW 9181   1.739   4.365   3.435
 2761SOL    HW1 9182   1.768   4.443   3.491
 2761SOL    HW2 9183   1.644   4.342   3.457
 2762SOL     OW 9184   1.634   2.165   0.083
 2762SOL    HW1 9185   1.666   2.109   0.008
 2762SOL    HW2 9186   1.693   2.246   0.092
 2763SOL     OW 9187   5.213   2.361   5.662
 2763SOL    HW1 9188   5.242   2.407   5.746
 2763SOL    HW2 9189   5.116   2.381   5.646
 2764SOL     OW 9190   0.307   5.815   2.403
 2764SOL    HW1 9191   0.256   5.730   2.404
 2764SOL    HW2 9192   0.248   5.890   2.433
 2765SOL     OW 9193   0.019   0.146   0.686
 2765SOL    HW1 9194   6.997   0.067   0.649
 2765SOL    HW2 9195   0.022   0.218   0.616
 2766SOL     OW 9196   3.637   1.134   6.230
 2766SOL    HW1 9197   3.689   1.197   6.173
 2766SOL    HW2 9198   3.578   1.186   6.292
 2767SOL     OW 9199   5.987   5.835   6.316
 2767SOL    HW1 9200   5.927   5.904   6.358
 2767SOL    HW2 9201   5.994   5.756   6.376
 2768SOL     OW 9202   4.242   1.371   6.902
 2768SOL    HW1 9203   4.149   1.380   6.939
 2768SOL    HW2 9204   4.306   1.420   6.961
 2769SOL     OW 9205   2.352   4.824   6.506
 2769SOL    HW1 9206   2.357   4.811   6.407
 2769SOL    HW2 9207   2.392   4.745   6.552
 2770SOL     OW 9208   4.349   6.206   6.122
 2770SOL    HW1 9209   4.425   6.191   6.185
 2770SOL    HW2 9210   4.313   6.298   6.135
 2771SOL     OW 9211   5.859   0.412   4.979
 2771SOL    HW1 9212   5.781   0.410   4.917
 2771SOL    HW2 9213   5.828   0.399   5.073
 2772SOL     OW 9214   2.828   1.605   1.971
 2772SOL    HW1 9215   2.784   1.541   2.035
 2772SOL    HW2 9216   2.927   1.594   1.976
 2773SOL     OW 9217   6.950   3.166   3.968
 2773SOL    HW1 9218   7.003   3.120   3.897
 2773SOL    HW2 9219   6.876   3.105   3.999
 2774SOL     OW 9220   5.206   3.061   2.754
 2774SOL    HW1 9221   5.140   3.105   2.693
 2774SOL    HW2 9222   5.245   3.129   2.816
 2775SOL     OW 9223   6.368   3.975   3.615
 2775SOL    HW1 9224   6.382   3.940   3.708
 2775SOL    HW2 9225   6.273   4.004   3.605
 2776SOL     OW 9226   5.471   4.290   5.633
 2776SOL    HW1 9227   5.478   4.197   5.598
 2776SOL    HW2 9228   5.381   4.328   5.609
 2777SOL     OW 9229   2.261   1.513   6.694
 2777SOL    HW1 9230   2.355   1.479   6.691
 2777SOL    HW2 9231   2.230   1.519   6.788
 2778SOL     OW 9232   1.916   6.079   6.563
 2778SOL    HW1 9233   1.942   5.982   6.571
 2778SOL    HW2 9234   1.829   6.094   6.609
 2779SOL     OW 9235   5.292   6.864   2.015
 2779SOL    HW1 9236   5.221   6.933   2.004
 2779SOL    HW2 9237   5.282   6.820   2.104
 2780SOL     OW 9238   6.581   0.254   6.063
 2780SOL    HW1 9239   6.506   0.195   6.032
 2780SOL    HW2 9240   6.579   0.340   6.012
 2781SOL     OW 9241   5.972   0.532   3.384
 2781SOL    HW1 9242   6.011   0.618   3.352
 2781SOL    HW2 9243   5.928   0.485   3.308
 2782SOL     OW 9244   4.283   1.475   5.280
 2782SOL    HW1 9245   4.379   1.497   5.301
 2782SOL    HW2 9246   4.271   1.471   5.181
 2783SOL     OW 9247   6.641   3.710   1.428
 2783SOL    HW1 9248   6.664   3.807   1.435
 2783SOL    HW2 9249   6.559   3.691   1.482
 2784SOL     OW 9250   3.284   1.619   1.840
 2784SOL    HW1 9251   3.318   1.693   1.898
 2784SOL    HW2 9252   3.193   1.592   1.872
 2785SOL     OW 9253   5.374   1.976   0.672
 2785SOL    HW1 9254   5.344   2.066   0.640
 2785SOL    HW2 9255   5.370   1.973   0.772
 2786SOL     OW 9256   6.535   6.270   1.266
 2786SOL    HW1 9257   6.572   6.245   1.355
 2786SOL    HW2 9258   6.575   6.356   1.236
 2787SOL     OW 9259   6.759   5.940   5.453
 2787SOL    HW1 9260   6.677   5.901   5.413
 2787SOL    HW2 9261   6.834   5.935   5.386
 2788SOL     OW 9262   2.789   6.204   6.347
 2788SOL    HW1 9263   2.806   6.163   6.257
 2788SOL    HW2 9264   2.711   6.160   6.390
 2789SOL     OW 9265   1.876   1.966   3.428
 2789SOL    HW1 9266   1.838   1.980   3.519
 2789SOL    HW2 9267   1.967   2.008   3.422
 2790SOL     OW 9268   3.049   5.167   1.017
 2790SOL    HW1 9269   3.047   5.076   1.059
 2790SOL    HW2 9270   3.140   5.207   1.027
 2791SOL     OW 9271   0.348   4.307   2.430
 2791SOL    HW1 9272   0.260   4.338   2.393
 2791SOL    HW2 9273   0.335   4.272   2.522
 2792SOL     OW 9274   2.740   1.365   4.335
 2792SOL    HW1 9275   2.795   1.403   4.261
 2792SOL    HW2 9276   2.794   1.297   4.385
 2793SOL     OW 9277   5.280   3.606   2.080
 2793SOL    HW1 9278   5.342   3.529   2.095
 2793SOL    HW2 9279   5.187   3.579   2.104
 2794SOL     OW 9280   6.640   2.040   5.931
 2794SOL    HW1 9281   6.666   2.034   5.835
 2794SOL    HW2 9282   6.540   2.035   5.939
 2795SOL     OW 9283   0.394   4.597   1.078
 2795SOL    HW1 9284   0.434   4.654   1.006
 2795SOL    HW2 9285   0.295   4.610   1.079
 2796SOL     OW 9286   0.900   5.655   4.075
 2796SOL    HW1 9287   0.839   5.654   4.154
 2796SOL    HW2 9288   0.912   5.562   4.040
 2797SOL     OW 9289   5.426   5.491   5.724
 2797SOL    HW1 9290   5.341   5.461   5.769
 2797SOL    HW2 9291   5.430   5.452   5.632
 2798SOL     OW 9292   6.199   6.002   2.421
 2798SOL    HW1 9293   6.213   5.997   2.520
 2798SOL    HW2 9294   6.286   6.021   2.376
 2799SOL     OW 9295   4.902   5.741   5.399
 2799SOL    HW1 9296   4.877   5.754   5.495
 2799SOL    HW2 9297   4.819   5.733   5.344
 2800SOL     OW 9298   6.123   0.840   6.048
 2800SOL    HW1 9299   6.089   0.748   6.032
 2800SOL    HW2 9300   6.053   0.893   6.096
 2801SOL     OW 9301   1.272   5.715   5.954
 2801SOL    HW1 9302   1.225   5.627   5.945
 2801SOL    HW2 9303   1.206   5.789   5.951
 2802SOL     OW 9304   6.740   6.636   5.782
 2802SOL    HW1 9305   6.644   6.661   5.797
 2802SOL    HW2 9306   6.747   6.536   5.774
 2803SOL     OW 9307   3.475   4.448   5.916
 2803SOL    HW1 9308   3.530   4.385   5.972
 2803SOL    HW2 9309   3.531   4.482   5.840
 2804SOL     OW 9310   0.097   3.982   4.710
 2804SOL    HW1 9311   0.009   4.022   4.684
 2804SOL    HW2 9312   0.146   3.954   4.627
 2805SOL     OW 9313   6.139   3.964   2.542
 2805SOL    HW1 9314   6.131   3.871   2.509
 2805SOL    HW2 9315   6.070   3.981   2.612
 2806SOL     OW 9316   1.623   4.500   6.701
 2806SOL    HW1 9317   1.693   4.525   6.767
 2806SOL    HW2 9318   1.634   4.404   6.676
 2807SOL     OW 9319   4.027   0.752   3.045
 2807SOL    HW1 9320   4.117   0.793   3.031
 2807SOL    HW2 9321   4.038   0.661   3.085
 2808SOL     OW 9322   6.327   6.088   0.894
 2808SOL    HW1 9323   6.231   6.112   0.909
 2808SOL    HW2 9324   6.372   6.161   0.842
 2809SOL     OW 9325   5.825   2.518   1.322
 2809SOL    HW1 9326   5.900   2.524   1.387
 2809SOL    HW2 9327   5.821   2.425   1.285
 2810SOL     OW 9328   2.442   5.259   2.951
 2810SOL    HW1 9329   2.449   5.230   2.855
 2810SOL    HW2 9330   2.495   5.197   3.008
 2811SOL     OW 9331   0.805   1.540   2.168
 2811SOL    HW1 9332   0.887   1.509   2.120
 2811SOL    HW2 9333   0.819   1.532   2.267
 2812SOL     OW 9334   6.282   3.194   0.658
 2812SOL    HW1 9335   6.299   3.229   0.750
 2812SOL    HW2 9336   6.325   3.255   0.591
 2813SOL     OW 9337   0.621   1.556   0.539
 2813SOL    HW1 9338   0.525   1.583   0.539
 2813SOL    HW2 9339   0.662   1.577   0.450
 2814SOL     OW 9340   3.147   4.005   5.498
 2814SOL    HW1 9341   3.214   3.931   5.501
 2814SOL    HW2 9342   3.166   4.070   5.572
 2815SOL     OW 9343   0.031   5.580   5.802
 2815SOL    HW1 9344   6.969   5.570   5.757
 2815SOL    HW2 9345   0.017   5.614   5.895
 2816SOL     OW 9346   6.959   5.639   4.492
 2816SOL    HW1 9347   6.906   5.675   4.568
 2816SOL    HW2 9348   6.973   5.711   4.424
 2817SOL     OW 9349   3.478   1.395   2.495
 2817SOL    HW1 9350   3.472   1.488   2.460
 2817SOL    HW2 9351   3.477   1.330   2.418
 2818SOL     OW 9352   6.524   1.054   1.929
 2818SOL    HW1 9353   6.614   1.010   1.933
 2818SOL    HW2 9354   6.526   1.127   1.861
 2819SOL     OW 9355   1.370   0.226   1.276
 2819SOL    HW1 9356   1.271   0.237   1.266
 2819SOL    HW2 9357   1.412   0.316   1.291
 2820SOL     OW 9358   0.702   2.336   2.206
 2820SOL    HW1 9359   0.732   2.295   2.119
 2820SOL    HW2 9360   0.781   2.357   2.262
 2821SOL     OW 9361   2.988   5.329   5.980
 2821SOL    HW1 9362   3.030   5.383   6.053
 2821SOL    HW2 9363   2.998   5.377   5.893
 2822SOL     OW 9364   4.592   2.700   0.166
 2822SOL    HW1 9365   4.523   2.758   0.210
 2822SOL    HW2 9366   4.623   2.631   0.231
 2823SOL     OW 9367   5.764   0.792   6.851
 2823SOL    HW1 9368   5.825   0.778   6.773
 2823SOL    HW2 9369   5.692   0.857   6.826
 2824SOL     OW 9370   1.729   3.339   5.700
 2824SOL    HW1 9371   1.762   3.414   5.758
 2824SOL    HW2 9372   1.716   3.372   5.607
 2825SOL     OW 9373   5.759   0.399   6.608
 2825SOL    HW1 9374   5.705   0.474   6.570
 2825SOL    HW2 9375   5.711   0.312   6.590
 2826SOL     OW 9376   2.573   2.852   6.434
 2826SOL    HW1 9377   2.530   2.810   6.514
 2826SOL    HW2 9378   2.509   2.848   6.357
 2827SOL     OW 9379   0.308   1.003   6.524
 2827SOL    HW1 9380   0.334   0.928   6.584
 2827SOL    HW2 9381   0.292   1.085   6.579
 2828SOL     OW 9382   1.559   3.677   1.479
 2828SOL    HW1 9383   1.648   3.716   1.503
 2828SOL    HW2 9384   1.489   3.712   1.541
 2829SOL     OW 9385   3.313   3.187   3.218
 2829SOL    HW1 9386   3.243   3.147   3.278
 2829SOL    HW2 9387   3.333   3.124   3.143
 2830SOL     OW 9388   3.654   4.359   5.221
 2830SOL    HW1 9389   3.561   4.394   5.217
 2830SOL    HW2 9390   3.694   4.359   5.129
 2831SOL     OW 9391   0.444   2.229   2.959
 2831SOL    HW1 9392   0.476   2.310   2.912
 2831SOL    HW2 9393   0.371   2.186   2.905
 2832SOL     OW 9394   0.910   3.388   1.565
 2832SOL    HW1 9395   0.968   3.325   1.617
 2832SOL    HW2 9396   0.965   3.436   1.497
 2833SOL     OW 9397   2.527   1.664   2.111
 2833SOL    HW1 9398   2.538   1.608   2.192
 2833SOL    HW2 9399   2.616   1.681   2.069
 2834SOL     OW 9400   4.845   6.312   4.981
 2834SOL    HW1 9401   4.807   6.388   4.929
 2834SOL    HW2 9402   4.787   6.232   4.970
 2835SOL     OW 9403   0.978   6.375   0.628
 2835SOL    HW1 9404   1.031   6.457   0.650
 2835SOL    HW2 9405   0.923   6.349   0.707
 2836SOL     OW 9406   2.519   6.312   3.153
 2836SOL    HW1 9407   2.572   6.279   3.231
 2836SOL    HW2 9408   2.492   6.234   3.097
 2837SOL     OW 9409   5.621   4.477   2.407
 2837SOL    HW1 9410   5.632   4.382   2.434
 2837SOL    HW2 9411   5.573   4.482   2.319
 2838SOL     OW 9412   4.978   4.034   0.461
 2838SOL    HW1 9413   5.010   3.950   0.417
 2838SOL    HW2 9414   4.985   4.110   0.397
 2839SOL     OW 9415   0.116   2.730   2.618
 2839SOL    HW1 9416   0.142   2.824   2.637
 2839SOL    HW2 9417   0.193   2.681   2.577
 2840SOL     OW 9418   1.560   5.720   2.699
 2840SOL    HW1 9419   1.612   5.716   2.784
 2840SOL    HW2 9420   1.480   5.660   2.706
 2841SOL     OW 9421   6.393   2.283   0.142
 2841SOL    HW1 9422   6.413   2.381   0.129
 2841SOL    HW2 9423   6.459   2.244   0.206
 2842SOL     OW 9424   1.654   6.190   4.776
 2842SOL    HW1 9425   1.616   6.241   4.853
 2842SOL    HW2 9426   1.584   6.176   4.706
 2843SOL     OW 9427   2.553   2.161   3.072
 2843SOL    HW1 9428   2.644   2.123   3.052
 2843SOL    HW2 9429   2.520   2.212   2.993
 2844SOL     OW 9430   5.125   4.593   1.480
 2844SOL    HW1 9431   5.043   4.545   1.511
 2844SOL    HW2 9432   5.149   4.663   1.546
 2845SOL     OW 9433   5.234   2.839   3.239
 2845SOL    HW1 9434   5.295   2.761   3.251
 2845SOL    HW2 9435   5.217   2.854   3.142
 2846SOL     OW 9436   3.488   0.899   0.272
 2846SOL    HW1 9437   3.445   0.873   0.186
 2846SOL    HW2 9438   3.571   0.952   0.253
 2847SOL     OW 9439   4.859   3.935   2.365
 2847SOL    HW1 9440   4.959   3.934   2.376
 2847SOL    HW2 9441   4.837   3.952   2.269
 2848SOL     OW 9442   1.783   2.612   5.422
 2848SOL    HW1 9443   1.734   2.697   5.400
 2848SOL    HW2 9444   1.768   2.546   5.348
 2849SOL     OW 9445   3.806   1.079   1.416
 2849SOL    HW1 9446   3.849   1.081   1.507
 2849SOL    HW2 9447   3.804   1.171   1.378
 2850SOL     OW 9448   1.802   6.972   3.633
 2850SOL    HW1 9449   1.767   6.936   3.547
 2850SOL    HW2 9450   1.861   0.025   3.614
 2851SOL     OW 9451   4.411   3.527   6.615
 2851SOL    HW1 9452   4.339   3.557   6.676
 2851SOL    HW2 9453   4.383   3.542   6.520
 2852SOL     OW 9454   6.700   4.529   6.923
 2852SOL    HW1 9455   6.665   4.551   7.014
 2852SOL    HW2 9456   6.637   4.467   6.877
 2853SOL     OW 9457   0.528   3.329   0.283
 2853SOL    HW1 9458   0.443   3.298   0.324
 2853SOL    HW2 9459   0.538   3.428   0.297
 2854SOL     OW 9460   3.591   0.862   6.137
 2854SOL    HW1 9461   3.615   0.945   6.188
 2854SOL    HW2 9462   3.536   0.802   6.196
 2855SOL     OW 9463   1.092   2.593   4.469
 2855SOL    HW1 9464   1.036   2.676   4.472
 2855SOL    HW2 9465   1.182   2.616   4.431
 2856SOL     OW 9466   1.525   2.484   3.316
 2856SOL    HW1 9467   1.491   2.427   3.391
 2856SOL    HW2 9468   1.556   2.572   3.354
 2857SOL     OW 9469   0.233   3.027   1.005
 2857SOL    HW1 9470   0.241   2.975   1.090
 2857SOL    HW2 9471   0.169   2.980   0.943
 2858SOL     OW 9472   5.243   6.418   2.401
 2858SOL    HW1 9473   5.318   6.425   2.335
 2858SOL    HW2 9474   5.161   6.384   2.356
 2859SOL     OW 9475   5.361   5.721   0.422
 2859SOL    HW1 9476   5.417   5.765   0.352
 2859SOL    HW2 9477   5.357   5.623   0.404
 2860SOL     OW 9478   1.950   6.674   1.823
 2860SOL    HW1 9479   1.975   6.720   1.738
 2860SOL    HW2 9480   1.948   6.575   1.808
 2861SOL     OW 9481   2.968   5.387   5.407
 2861SOL    HW1 9482   2.971   5.296   5.365
 2861SOL    HW2 9483   3.058   5.411   5.443
 2862SOL     OW 9484   4.586   2.480   2.067
 2862SOL    HW1 9485   4.613   2.394   2.023
 2862SOL    HW2 9486   4.619   2.480   2.162
 2863SOL     OW 9487   5.201   1.535   6.942
 2863SOL    HW1 9488   5.105   1.525   6.968
 2863SOL    HW2 9489   5.208   1.555   6.845
 2864SOL     OW 9490   4.746   3.146   1.139
 2864SOL    HW1 9491   4.715   3.053   1.155
 2864SOL    HW2 9492   4.714   3.206   1.212
 2865SOL     OW 9493   4.285   6.759   4.143
 2865SOL    HW1 9494   4.320   6.796   4.057
 2865SOL    HW2 9495   4.218   6.688   4.125
 2866SOL     OW 9496   6.038   4.012   0.498
 2866SOL    HW1 9497   6.091   4.075   0.443
 2866SOL    HW2 9498   5.994   3.944   0.439
 2867SOL     OW 9499   6.426   6.264   2.503
 2867SOL    HW1 9500   6.472   6.196   2.446
 2867SOL    HW2 9501   6.451   6.356   2.473
 2868SOL     OW 9502   0.924   0.794   5.073
 2868SOL    HW1 9503   0.883   0.786   4.982
 2868SOL    HW2 9504   1.010   0.844   5.067
 2869SOL     OW 9505   6.144   0.612   3.872
 2869SOL    HW1 9506   6.160   0.683   3.803
 2869SOL    HW2 9507   6.194   0.530   3.846
 2870SOL     OW 9508   0.890   1.829   6.808
 2870SOL    HW1 9509   0.901   1.835   6.907
 2870SOL    HW2 9510   0.878   1.921   6.770
 2871SOL     OW 9511   6.184   0.437   6.940
 2871SOL    HW1 9512   6.100   0.489   6.923
 2871SOL    HW2 9513   6.207   0.383   6.859
 2872SOL     OW 9514   2.746   1.650   0.907
 2872SOL    HW1 9515   2.791   1.598   0.979
 2872SOL    HW2 9516   2.657   1.607   0.886
 2873SOL     OW 9517   6.680   5.968   1.479
 2873SOL    HW1 9518   6.718   5.899   1.541
 2873SOL    HW2 9519   6.728   5.962   1.391
 2874SOL     OW 9520   4.562   6.964   2.806
 2874SOL    HW1 9521   4.646   6.918   2.780
 2874SOL    HW2 9522   4.577   0.036   2.812
 2875SOL     OW 9523   3.601   6.915   2.760
 2875SOL    HW1 9524   3.521   6.897   2.702
 2875SOL    HW2 9525   3.682   6.874   2.719
 2876SOL     OW 9526   1.464   6.373   2.039
 2876SOL    HW1 9527   1.373   6.369   2.081
 2876SOL    HW2 9528   1.528   6.319   2.094
 2877SOL     OW 9529   2.484   0.730   0.030
 2877SOL    HW1 9530   2.451   0.699   6.967
 2877SOL    HW2 9531   2.570   0.684   0.051
 2878SOL     OW 9532   3.057   3.861   4.391
 2878SOL    HW1 9533   3.128   3.879   4.323
 2878SOL    HW2 9534   3.040   3.944   4.444
 2879SOL     OW 9535   4.272   5.378   6.011
 2879SOL    HW1 9536   4.251   5.424   5.924
 2879SOL    HW2 9537   4.358   5.414   6.048
 2880SOL     OW 9538   0.422   1.769   3.792
 2880SOL    HW1 9539   0.324   1.748   3.791
 2880SOL    HW2 9540   0.472   1.694   3.835
 2881SOL     OW 9541   3.402   5.721   0.174
 2881SOL    HW1 9542   3.384   5.761   0.084
 2881SOL    HW2 9543   3.489   5.756   0.209
 2882SOL     OW 9544   5.817   6.182   1.132
 2882SOL    HW1 9545   5.844   6.086   1.139
 2882SOL    HW2 9546   5.889   6.234   1.085
 2883SOL     OW 9547   5.971   6.621   3.616
 2883SOL    HW1 9548   6.055   6.670   3.640
 2883SOL    HW2 9549   5.986   6.523   3.630
 2884SOL     OW 9550   6.811   5.805   2.166
 2884SOL    HW1 9551   6.717   5.785   2.138
 2884SOL    HW2 9552   6.833   5.900   2.144
 2885SOL     OW 9553   1.249   2.069   4.266
 2885SOL    HW1 9554   1.220   2.164   4.277
 2885SOL    HW2 9555   1.325   2.050   4.328
 2886SOL     OW 9556   2.544   4.623   6.840
 2886SOL    HW1 9557   2.620   4.670   6.795
 2886SOL    HW2 9558   2.494   4.568   6.773
 2887SOL     OW 9559   6.947   6.530   4.245
 2887SOL    HW1 9560   6.974   6.436   4.222
 2887SOL    HW2 9561   6.847   6.536   4.250
 2888SOL     OW 9562   0.267   5.109   0.159
 2888SOL    HW1 9563   0.236   5.150   0.073
 2888SOL    HW2 9564   0.290   5.182   0.224
 2889SOL     OW 9565   3.092   6.827   3.026
 2889SOL    HW1 9566   3.087   6.749   2.963
 2889SOL    HW2 9567   3.089   6.912   2.974
 2890SOL     OW 9568   1.877   4.925   0.752
 2890SOL    HW1 9569   1.781   4.943   0.730
 2890SOL    HW2 9570   1.913   5.001   0.808
 2891SOL     OW 9571   1.260   3.313   3.309
 2891SOL    HW1 9572   1.211   3.384   3.259
 2891SOL    HW2 9573   1.210   3.291   3.393
 2892SOL     OW 9574   5.763   2.590   1.050
 2892SOL    HW1 9575   5.828   2.552   0.985
 2892SOL    HW2 9576   5.797   2.578   1.143
 2893SOL     OW 9577   1.763   5.572   4.745
 2893SOL    HW1 9578   1.771   5.540   4.651
 2893SOL    HW2 9579   1.831   5.526   4.803
 2894SOL     OW 9580   1.465   3.809   1.877
 2894SOL    HW1 9581   1.473   3.713   1.904
 2894SOL    HW2 9582   1.369   3.836   1.880
 2895SOL     OW 9583   4.034   0.648   6.317
 2895SOL    HW1 9584   3.938   0.675   6.327
 2895SOL    HW2 9585   4.061   0.656   6.221
 2896SOL     OW 9586   5.153   0.185   6.047
 2896SOL    HW1 9587   5.167   0.162   5.951
 2896SOL    HW2 9588   5.189   0.276   6.065
 2897SOL     OW 9589   4.308   5.012   2.879
 2897SOL    HW1 9590   4.368   5.011   2.958
 2897SOL    HW2 9591   4.213   5.024   2.910
 2898SOL     OW 9592   5.168   3.825   4.102
 2898SOL    HW1 9593   5.082   3.774   4.097
 2898SOL    HW2 9594   5.160   3.909   4.048
 2899SOL     OW 9595   6.598   1.613   0.672
 2899SOL    HW1 9596   6.547   1.543   0.722
 2899SOL    HW2 9597   6.592   1.700   0.720
 2900SOL     OW 9598   4.338   4.814   6.882
 2900SOL    HW1 9599   4.330   4.895   6.824
 2900SOL    HW2 9600   4.353   4.842   6.977
 2901SOL     OW 9601   1.861   5.191   3.308
 2901SOL    HW1 9602   1.778   5.137   3.288
 2901SOL    HW2 9603   1.849   5.240   3.394
 2902SOL     OW 9604   0.170   5.391   3.593
 2902SOL    HW1 9605   0.140   5.470   3.541
 2902SOL    HW2 9606   0.093   5.355   3.647
 2903SOL     OW 9607   4.679   6.446   1.163
 2903SOL    HW1 9608   4.739   6.434   1.083
 2903SOL    HW2 9609   4.672   6.359   1.212
 2904SOL     OW 9610   3.284   4.993   4.971
 2904SOL    HW1 9611   3.293   5.058   5.046
 2904SOL    HW2 9612   3.237   4.911   5.004
 2905SOL     OW 9613   1.548   4.096   3.667
 2905SOL    HW1 9614   1.557   4.020   3.730
 2905SOL    HW2 9615   1.563   4.064   3.573
 2906SOL     OW 9616   5.608   5.973   2.530
 2906SOL    HW1 9617   5.576   6.068   2.540
 2906SOL    HW2 9618   5.529   5.913   2.519
 2907SOL     OW 9619   0.618   1.892   4.104
 2907SOL    HW1 9620   0.669   1.820   4.059
 2907SOL    HW2 9621   0.538   1.854   4.149
 2908SOL     OW 9622   5.580   6.892   3.991
 2908SOL    HW1 9623   5.498   6.849   4.028
 2908SOL    HW2 9624   5.582   6.880   3.891
 2909SOL     OW 9625   1.431   6.726   3.349
 2909SOL    HW1 9626   1.395   6.795   3.285
 2909SOL    HW2 9627   1.392   6.740   3.439
 2910SOL     OW 9628   6.944   0.666   3.628
 2910SOL    HW1 9629   6.931   0.740   3.694
 2910SOL    HW2 9630   6.856   0.626   3.604
 2911SOL     OW 9631   1.552   4.717   3.695
 2911SOL    HW1 9632   1.456   4.740   3.683
 2911SOL    HW2 9633   1.609   4.791   3.659
 2912SOL     OW 9634   6.786   6.266   6.547
 2912SOL    HW1 9635   6.751   6.343   6.601
 2912SOL    HW2 9636   6.861   6.222   6.596
 2913SOL     OW 9637   2.885   4.729   2.639
 2913SOL    HW1 9638   2.931   4.758   2.722
 2913SOL    HW2 9639   2.952   4.723   2.564
 2914SOL     OW 9640   5.473   5.330   1.266
 2914SOL    HW1 9641   5.456   5.406   1.329
 2914SOL    HW2 9642   5.570   5.305   1.269
 2915SOL     OW 9643   3.026   2.030   3.885
 2915SOL    HW1 9644   3.091   1.965   3.924
 2915SOL    HW2 9645   3.068   2.074   3.805
 2916SOL     OW 9646   1.949   5.168   0.353
 2916SOL    HW1 9647   1.999   5.117   0.423
 2916SOL    HW2 9648   1.994   5.257   0.339
 2917SOL     OW 9649   3.200   0.587   4.273
 2917SOL    HW1 9650   3.164   0.533   4.197
 2917SOL    HW2 9651   3.235   0.527   4.344
 2918SOL     OW 9652   5.835   3.939   6.638
 2918SOL    HW1 9653   5.907   3.995   6.679
 2918SOL    HW2 9654   5.809   3.867   6.703
 2919SOL     OW 9655   6.308   6.374   3.386
 2919SOL    HW1 9656   6.290   6.280   3.355
 2919SOL    HW2 9657   6.364   6.371   3.469
 2920SOL     OW 9658   3.127   0.347   2.131
 2920SOL    HW1 9659   3.082   0.325   2.045
 2920SOL    HW2 9660   3.060   0.382   2.196
 2921SOL     OW 9661   0.376   0.291   6.025
 2921SOL    HW1 9662   0.412   0.346   5.948
 2921SOL    HW2 9663   0.279   0.274   6.011
 2922SOL     OW 9664   3.878   6.281   1.894
 2922SOL    HW1 9665   3.806   6.214   1.875
 2922SOL    HW2 9666   3.840   6.356   1.948
 2923SOL     OW 9667   6.436   5.227   4.762
 2923SOL    HW1 9668   6.523   5.178   4.771
 2923SOL    HW2 9669   6.420   5.248   4.666
 2924SOL     OW 9670   6.927   1.631   4.602
 2924SOL    HW1 9671   6.881   1.567   4.664
 2924SOL    HW2 9672   7.006   1.671   4.648
 2925SOL     OW 9673   5.550   2.133   6.824
 2925SOL    HW1 9674   5.627   2.179   6.780
 2925SOL    HW2 9675   5.537   2.043   6.782
 2926SOL     OW 9676   6.592   2.244   6.085
 2926SOL    HW1 9677   6.588   2.270   5.989
 2926SOL    HW2 9678   6.582   2.145   6.094
 2927SOL     OW 9679   1.580   3.229   0.445
 2927SOL    HW1 9680   1.586   3.254   0.542
 2927SOL    HW2 9681   1.488   3.248   0.411
 2928SOL     OW 9682   6.804   1.193   6.809
 2928SOL    HW1 9683   6.898   1.219   6.787
 2928SOL    HW2 9684   6.770   1.251   6.882
 2929SOL     OW 9685   1.459   2.511   5.022
 2929SOL    HW1 9686   1.509   2.444   5.078
 2929SOL    HW2 9687   1.521   2.552   4.956
 2930SOL     OW 9688   5.620   6.241   5.204
 2930SOL    HW1 9689   5.530   6.271   5.236
 2930SOL    HW2 9690   5.683   6.237   5.282
 2931SOL     OW 9691   4.372   4.863   0.143
 2931SOL    HW1 9692   4.455   4.823   0.181
 2931SOL    HW2 9693   4.293   4.829   0.194
 2932SOL     OW 9694   0.123   5.556   1.285
 2932SOL    HW1 9695   0.067   5.544   1.203
 2932SOL    HW2 9696   0.076   5.615   1.350
 2933SOL     OW 9697   0.635   6.891   2.206
 2933SOL    HW1 9698   0.674   6.802   2.228
 2933SOL    HW2 9699   0.617   6.897   2.108
 2934SOL     OW 9700   4.858   2.665   1.125
 2934SOL    HW1 9701   4.846   2.748   1.070
 2934SOL    HW2 9702   4.899   2.689   1.213
 2935SOL     OW 9703   0.607   2.538   6.363
 2935SOL    HW1 9704   0.594   2.444   6.330
 2935SOL    HW2 9705   0.685   2.579   6.316
 2936SOL     OW 9706   4.046   6.402   0.873
 2936SOL    HW1 9707   4.053   6.302   0.883
 2936SOL    HW2 9708   3.990   6.439   0.947
 2937SOL     OW 9709   4.939   5.265   0.762
 2937SOL    HW1 9710   4.983   5.180   0.733
 2937SOL    HW2 9711   5.009   5.333   0.784
 2938SOL     OW 9712   6.522   5.285   0.034
 2938SOL    HW1 9713   6.497   5.379   0.053
 2938SOL    HW2 9714   6.445   5.224   0.053
 2939SOL     OW 9715   1.484   0.271   1.731
 2939SOL    HW1 9716   1.389   0.301   1.743
 2939SOL    HW2 9717   1.522   0.314   1.649
 2940SOL     OW 9718   6.362   5.614   4.862
 2940SOL    HW1 9719   6.319   5.630   4.773
 2940SOL    HW2 9720   6.291   5.606   4.932
 2941SOL     OW 9721   2.382   2.330   3.240
 2941SOL    HW1 9722   2.425   2.416   3.211
 2941SOL    HW2 9723   2.450   2.257   3.243
 2942SOL     OW 9724   3.521   2.749   0.254
 2942SOL    HW1 9725   3.516   2.658   0.214
 2942SOL    HW2 9726   3.442   2.763   0.314
 2943SOL     OW 9727   5.987   5.192   3.900
 2943SOL    HW1 9728   6.020   5.098   3.890
 2943SOL    HW2 9729   5.960   5.228   3.811
 2944SOL     OW 9730   2.485   6.277   3.559
 2944SOL    HW1 9731   2.569   6.288   3.613
 2944SOL    HW2 9732   2.422   6.351   3.580
 2945SOL     OW 9733   5.043   3.198   1.820
 2945SOL    HW1 9734   5.009   3.288   1.848
 2945SOL    HW2 9735   5.027   3.132   1.894
 2946SOL     OW 9736   1.963   4.124   5.814
 2946SOL    HW1 9737   1.873   4.145   5.776
 2946SOL    HW2 9738   2.023   4.090   5.741
 2947SOL     OW 9739   0.259   5.321   0.354
 2947SOL    HW1 9740   0.273   5.381   0.275
 2947SOL    HW2 9741   0.196   5.364   0.418
 2948SOL     OW 9742   6.809   4.638   3.502
 2948SOL    HW1 9743   6.741   4.565   3.506
 2948SOL    HW2 9744   6.818   4.680   3.593
 2949SOL     OW 9745   0.323   5.830   6.297
 2949SOL    HW1 9746   0.288   5.897   6.363
 2949SOL    HW2 9747   0.423   5.834   6.296
 2950SOL     OW 9748   6.075   5.835   3.795
 2950SOL    HW1 9749   6.086   5.746   3.840
 2950SOL    HW2 9750   6.016   5.825   3.715
 2951SOL     OW 9751   5.457   1.337   2.184
 2951SOL    HW1 9752   5.466   1.249   2.138
 2951SOL    HW2 9753   5.545   1.383   2.184
 2952SOL     OW 9754   6.900   6.989   5.072
 2952SOL    HW1 9755   6.880   6.936   5.155
 2952SOL    HW2 9756   6.834   6.967   5.001
 2953SOL     OW 9757   0.318   4.202   3.335
 2953SOL    HW1 9758   0.410   4.237   3.316
 2953SOL    HW2 9759   0.307   4.113   3.292
 2954SOL     OW 9760   6.871   4.746   6.541
 2954SOL    HW1 9761   6.954   4.779   6.586
 2954SOL    HW2 9762   6.822   4.822   6.500
 2955SOL     OW 9763   1.044   4.506   0.640
 2955SOL    HW1 9764   1.128   4.453   0.634
 2955SOL    HW2 9765   1.002   4.492   0.730
 2956SOL     OW 9766   0.293   5.537   3.851
 2956SOL    HW1 9767   0.213   5.598   3.852
 2956SOL    HW2 9768   0.276   5.461   3.789
 2957SOL     OW 9769   4.403   4.972   1.540
 2957SOL    HW1 9770   4.344   4.936   1.467
 2957SOL    HW2 9771   4.385   4.923   1.625
 2958SOL     OW 9772   2.394   4.945   3.266
 2958SOL    HW1 9773   2.422   4.969   3.360
 2958SOL    HW2 9774   2.301   4.977   3.250
 2959SOL     OW 9775   5.209   2.782   2.699
 2959SOL    HW1 9776   5.200   2.870   2.747
 2959SOL    HW2 9777   5.120   2.757   2.659
 2960SOL     OW 9778   3.793   0.081   6.713
 2960SOL    HW1 9779   3.876   0.130   6.740
 2960SOL    HW2 9780   3.718   0.106   6.773
 2961SOL     OW 9781   6.520   4.722   2.911
 2961SOL    HW1 9782   6.430   4.762   2.929
 2961SOL    HW2 9783   6.585   4.795   2.889
 2962SOL     OW 9784   4.687   6.423   3.455
 2962SOL    HW1 9785   4.641   6.498   3.407
 2962SOL    HW2 9786   4.761   6.388   3.398
 2963SOL     OW 9787   0.870   0.505   6.507
 2963SOL    HW1 9788   0.814   0.567   6.562
 2963SOL    HW2 9789   0.811   0.447   6.451
 2964SOL     OW 9790   0.057   2.430   6.481
 2964SOL    HW1 9791   7.006   2.444   6.543
 2964SOL    HW2 9792   0.039   2.349   6.424
 2965SOL     OW 9793   1.033   0.485   4.482
 2965SOL    HW1 9794   1.036   0.518   4.576
 2965SOL    HW2 9795   1.064   0.390   4.478
 2966SOL     OW 9796   4.980   5.944   4.142
 2966SOL    HW1 9797   4.945   5.971   4.232
 2966SOL    HW2 9798   4.907   5.897   4.091
 2967SOL     OW 9799   6.334   1.186   5.598
 2967SOL    HW1 9800   6.352   1.207   5.694
 2967SOL    HW2 9801   6.243   1.217   5.573
 2968SOL     OW 9802   1.456   2.441   0.785
 2968SOL    HW1 9803   1.471   2.432   0.884
 2968SOL    HW2 9804   1.398   2.366   0.753
 2969SOL     OW 9805   4.968   3.416   4.889
 2969SOL    HW1 9806   4.903   3.481   4.928
 2969SOL    HW2 9807   5.056   3.460   4.875
 2970SOL     OW 9808   2.770   2.912   5.443
 2970SOL    HW1 9809   2.782   2.912   5.542
 2970SOL    HW2 9810   2.754   3.005   5.411
 2971SOL     OW 9811   5.714   4.184   0.207
 2971SOL    HW1 9812   5.810   4.168   0.229
 2971SOL    HW2 9813   5.692   4.141   0.119
 2972SOL     OW 9814   5.344   4.966   6.818
 2972SOL    HW1 9815   5.384   5.056   6.800
 2972SOL    HW2 9816   5.341   4.914   6.733
 2973SOL     OW 9817   4.873   6.737   2.167
 2973SOL    HW1 9818   4.863   6.748   2.266
 2973SOL    HW2 9819   4.941   6.667   2.148
 2974SOL     OW 9820   6.613   3.943   3.482
 2974SOL    HW1 9821   6.633   4.031   3.438
 2974SOL    HW2 9822   6.528   3.950   3.534
 2975SOL     OW 9823   4.968   4.454   4.543
 2975SOL    HW1 9824   5.022   4.467   4.460
 2975SOL    HW2 9825   4.888   4.397   4.522
 2976SOL     OW 9826   5.136   2.014   2.808
 2976SOL    HW1 9827   5.213   1.977   2.755
 2976SOL    HW2 9828   5.171   2.056   2.892
 2977SOL     OW 9829   0.637   0.722   2.597
 2977SOL    HW1 9830   0.706   0.736   2.527
 2977SOL    HW2 9831   0.584   0.640   2.576
 2978SOL     OW 9832   3.765   4.122   0.184
 2978SOL    HW1 9833   3.749   4.051   0.115
 2978SOL    HW2 9834   3.692   4.190   0.180
 2979SOL     OW 9835   3.229   1.511   4.216
 2979SOL    HW1 9836   3.134   1.523   4.190
 2979SOL    HW2 9837   3.282   1.591   4.188
 2980SOL     OW 9838   2.338   5.399   6.420
 2980SOL    HW1 9839   2.294   5.393   6.331
 2980SOL    HW2 9840   2.383   5.312   6.441
 2981SOL     OW 9841   2.532   1.293   0.348
 2981SOL    HW1 9842   2.522   1.208   0.297
 2981SOL    HW2 9843   2.443   1.319   0.387
 2982SOL     OW 9844   2.038   6.102   2.289
 2982SOL    HW1 9845   2.111   6.039   2.315
 2982SOL    HW2 9846   2.031   6.175   2.356
 2983SOL     OW 9847   0.033   2.258   0.851
 2983SOL    HW1 9848   0.060   2.353   0.843
 2983SOL    HW2 9849   6.961   2.251   0.860
 2984SOL     OW 9850   5.645   4.950   6.315
 2984SOL    HW1 9851   5.653   4.959   6.216
 2984SOL    HW2 9852   5.730   4.912   6.352
 2985SOL     OW 9853   0.678   1.372   5.014
 2985SOL    HW1 9854   0.693   1.307   4.939
 2985SOL    HW2 9855   0.595   1.346   5.064
 2986SOL     OW 9856   3.462   4.095   2.174
 2986SOL    HW1 9857   3.480   4.193   2.174
 2986SOL    HW2 9858   3.549   4.046   2.163
 2987SOL     OW 9859   1.380   1.252   4.197
 2987SOL    HW1 9860   1.455   1.240   4.132
 2987SOL    HW2 9861   1.377   1.173   4.259
 2988SOL     OW 9862   1.725   6.980   1.535
 2988SOL    HW1 9863   1.810   6.928   1.534
 2988SOL    HW2 9864   1.745   0.051   1.546
 2989SOL     OW 9865   5.455   3.810   5.126
 2989SOL    HW1 9866   5.408   3.882   5.074
 2989SOL    HW2 9867   5.393   3.775   5.197
 2990SOL     OW 9868   5.063   2.166   4.564
 2990SOL    HW1 9869   4.975   2.118   4.563
 2990SOL    HW2 9870   5.052   2.256   4.524
 2991SOL     OW 9871   6.190   3.060   6.102
 2991SOL    HW1 9872   6.274   3.114   6.107
 2991SOL    HW2 9873   6.113   3.114   6.133
 2992SOL     OW 9874   1.496   4.845   4.830
 2992SOL    HW1 9875   1.511   4.914   4.902
 2992SOL    HW2 9876   1.477   4.757   4.872
 2993SOL     OW 9877   0.148   5.105   0.473
 2993SOL    HW1 9878   0.175   5.195   0.437
 2993SOL    HW2 9879   0.048   5.099   0.476
 2994SOL     OW 9880   3.630   5.847   0.224
 2994SOL    HW1 9881   3.597   5.941   0.229
 2994SOL    HW2 9882   3.723   5.841   0.262
 2995SOL     OW 9883   4.242   0.004   0.136
 2995SOL    HW1 9884   4.154   6.983   0.136
 2995SOL    HW2 9885   4.295   7.002   0.216
 2996SOL     OW 9886   0.626   1.833   4.544
 2996SOL    HW1 9887   0.661   1.891   4.471
 2996SOL    HW2 9888   0.701   1.804   4.603
 2997SOL     OW 9889   4.743   0.065   3.182
 2997SOL    HW1 9890   4.765   0.139   3.119
 2997SOL    HW2 9891   4.694   7.019   3.132
 2998SOL     OW 9892   4.030   6.795   3.204
 2998SOL    HW1 9893   3.934   6.789   3.234
 2998SOL    HW2 9894   4.058   6.891   3.203
 2999SOL     OW 9895   3.078   5.072   5.934
 2999SOL    HW1 9896   3.043   5.164   5.954
 2999SOL    HW2 9897   3.008   5.021   5.883
 3000SOL     OW 9898   2.667   4.214   6.559
 3000SOL    HW1 9899   2.583   4.201   6.507
 3000SOL    HW2 9900   2.739   4.156   6.521
 3001SOL     OW 9901   6.364   1.939   0.616
 3001SOL    HW1 9902   6.419   1.905   0.539
 3001SOL    HW2 9903   6.339   1.862   0.675
 3002SOL     OW 9904   3.366   1.949   0.345
 3002SOL    HW1 9905   3.291   1.886   0.366
 3002SOL    HW2 9906   3.437   1.942   0.415
 3003SOL     OW 9907   0.995   6.481   1.278
 3003SOL    HW1 9908   1.061   6.432   1.335
 3003SOL    HW2 9909   0.907   6.433   1.280
 3004SOL     OW 9910   1.780   4.709   3.168
 3004SOL    HW1 9911   1.705   4.668   3.220
 3004SOL    HW2 9912   1.865   4.702   3.220
 3005SOL     OW 9913   1.328   3.149   6.418
 3005SOL    HW1 9914   1.424   3.161   6.394
 3005SOL    HW2 9915   1.279   3.105   6.342
 3006SOL     OW 9916   5.555   1.394   4.961
 3006SOL    HW1 9917   5.606   1.364   5.041
 3006SOL    HW2 9918   5.477   1.450   4.989
 3007SOL     OW 9919   4.992   5.221   0.023
 3007SOL    HW1 9920   4.925   5.243   0.094
 3007SOL    HW2 9921   5.001   5.121   0.016
 3008SOL     OW 9922   3.382   2.339   6.257
 3008SOL    HW1 9923   3.341   2.335   6.166
 3008SOL    HW2 9924   3.336   2.408   6.312
 3009SOL     OW 9925   0.136   3.013   2.587
 3009SOL    HW1 9926   0.107   2.993   2.494
 3009SOL    HW2 9927   0.085   3.092   2.622
 3010SOL     OW 9928   2.788   5.616   4.567
 3010SOL    HW1 9929   2.825   5.672   4.641
 3010SOL    HW2 9930   2.718   5.554   4.604
 3011SOL     OW 9931   6.236   0.281   1.741
 3011SOL    HW1 9932   6.175   0.214   1.698
 3011SOL    HW2 9933   6.289   0.237   1.813
 3012SOL     OW 9934   2.538   3.513   0.180
 3012SOL    HW1 9935   2.541   3.565   0.265
 3012SOL    HW2 9936   2.445   3.482   0.162
 3013SOL     OW 9937   6.450   4.538   3.202
 3013SOL    HW1 9938   6.488   4.620   3.244
 3013SOL    HW2 9939   6.516   4.500   3.137
 3014SOL     OW 9940   4.538   1.881   6.558
 3014SOL    HW1 9941   4.585   1.934   6.629
 3014SOL    HW2 9942   4.553   1.924   6.469
 3015SOL     OW 9943   2.010   1.979   7.009
 3015SOL    HW1 9944   1.999   2.021   0.073
 3015SOL    HW2 9945   2.081   2.029   6.958
 3016SOL     OW 9946   3.551   6.708   4.390
 3016SOL    HW1 9947   3.520   6.625   4.436
 3016SOL    HW2 9948   3.618   6.755   4.447
 3017SOL     OW 9949   5.274   4.989   2.599
 3017SOL    HW1 9950   5.305   4.990   2.694
 3017SOL    HW2 9951   5.345   4.949   2.541
 3018SOL     OW 9952   3.512   6.773   6.847
 3018SOL    HW1 9953   3.441   6.844   6.840
 3018SOL    HW2 9954   3.477   6.697   6.903
 3019SOL     OW 9955   0.853   6.946   0.564
 3019SOL    HW1 9956   0.764   6.943   0.609
 3019SOL    HW2 9957   0.847   6.900   0.475
 3020SOL     OW 9958   4.340   3.237   0.689
 3020SOL    HW1 9959   4.260   3.180   0.674
 3020SOL    HW2 9960   4.376   3.221   0.781
 3021SOL     OW 9961   2.498   6.946   4.327
 3021SOL    HW1 9962   2.431   6.973   4.396
 3021SOL    HW2 9963   2.590   6.953   4.365
 3022SOL     OW 9964   4.137   5.417   4.491
 3022SOL    HW1 9965   4.133   5.365   4.405
 3022SOL    HW2 9966   4.225   5.465   4.496
 3023SOL     OW 9967   3.795   6.736   2.658
 3023SOL    HW1 9968   3.892   6.758   2.646
 3023SOL    HW2 9969   3.760   6.692   2.576
 3024SOL     OW 9970   6.206   6.367   5.456
 3024SOL    HW1 9971   6.186   6.284   5.507
 3024SOL    HW2 9972   6.305   6.375   5.444
 3025SOL     OW 9973   3.723   6.069   1.845
 3025SOL    HW1 9974   3.643   6.047   1.900
 3025SOL    HW2 9975   3.704   6.046   1.749
 3026SOL     OW 9976   0.647   1.421   6.429
 3026SOL    HW1 9977   0.617   1.331   6.400
 3026SOL    HW2 9978   0.746   1.429   6.414
 3027SOL     OW 9979   3.892   1.296   2.202
 3027SOL    HW1 9980   3.917   1.371   2.262
 3027SOL    HW2 9981   3.887   1.329   2.107
 3028SOL     OW 9982   1.933   3.945   6.508
 3028SOL    HW1 9983   2.018   3.928   6.558
 3028SOL    HW2 9984   1.870   3.869   6.524
 3029SOL     OW 9985   1.095   2.595   3.707
 3029SOL    HW1 9986   1.082   2.509   3.658
 3029SOL    HW2 9987   1.070   2.582   3.803
 3030SOL     OW 9988   1.271   4.354   0.648
 3030SOL    HW1 9989   1.319   4.419   0.707
 3030SOL    HW2 9990   1.332   4.278   0.625
 3031SOL     OW 9991   1.440   4.502   0.854
 3031SOL    HW1 9992   1.427   4.595   0.886
 3031SOL    HW2 9993   1.519   4.498   0.793
 3032SOL     OW 9994   2.386   5.647   2.130
 3032SOL    HW1 9995   2.364   5.562   2.082
 3032SOL    HW2 9996   2.319   5.717   2.107
 3033SOL     OW 9997   6.440   1.655   2.816
 3033SOL    HW1 9998   6.479   1.659   2.724
 3033SOL    HW2 9999   6.474   1.573   2.863
 3034SOL     OW10000   1.067   6.142   3.670
 3034SOL    HW110001   1.077   6.085   3.752
 3034SOL    HW210002   1.029   6.087   3.596
 3035SOL     OW10003   1.133   3.002   6.275
 3035SOL    HW110004   1.078   2.942   6.332
 3035SOL    HW210005   1.173   2.949   6.200
 3036SOL     OW10006   1.328   2.362   5.307
 3036SOL    HW110007   1.252   2.301   5.328
 3036SOL    HW210008   1.294   2.442   5.257
 3037SOL     OW10009   6.378   5.152   5.471
 3037SOL    HW110010   6.408   5.238   5.430
 3037SOL    HW210011   6.458   5.098   5.496
 3038SOL     OW10012   5.208   4.209   5.897
 3038SOL    HW110013   5.152   4.230   5.816
 3038SOL    HW210014   5.268   4.132   5.875
 3039SOL     OW10015   0.017   3.361   6.979
 3039SOL    HW110016   7.016   3.306   0.031
 3039SOL    HW210017   6.972   3.356   6.909
 3040SOL     OW10018   3.128   4.706   5.717
 3040SOL    HW110019   3.109   4.653   5.634
 3040SOL    HW210020   3.227   4.712   5.730
 3041SOL     OW10021   0.953   4.855   6.142
 3041SOL    HW110022   0.929   4.950   6.118
 3041SOL    HW210023   0.882   4.817   6.202
 3042SOL     OW10024   5.846   5.978   2.622
 3042SOL    HW110025   5.758   5.971   2.575
 3042SOL    HW210026   5.832   5.979   2.721
 3043SOL     OW10027   3.284   3.836   1.019
 3043SOL    HW110028   3.348   3.759   1.013
 3043SOL    HW210029   3.263   3.854   1.115
 3044SOL     OW10030   2.899   4.840   5.318
 3044SOL    HW110031   2.975   4.776   5.325
 3044SOL    HW210032   2.895   4.897   5.400
 3045SOL     OW10033   4.889   6.672   3.082
 3045SOL    HW110034   4.932   6.599   3.135
 3045SOL    HW210035   4.818   6.716   3.137
 3046SOL     OW10036   3.662   6.435   0.523
 3046SOL    HW110037   3.578   6.381   0.531
 3046SOL    HW210038   3.651   6.505   0.452
 3047SOL     OW10039   6.863   6.980   0.635
 3047SOL    HW110040   6.824   6.934   0.715
 3047SOL    HW210041   6.792   0.005   0.588
 3048SOL     OW10042   4.799   2.409   0.755
 3048SOL    HW110043   4.847   2.493   0.779
 3048SOL    HW210044   4.700   2.425   0.755
 3049SOL     OW10045   0.983   0.890   4.221
 3049SOL    HW110046   1.062   0.866   4.165
 3049SOL    HW210047   0.907   0.829   4.201
 3050SOL     OW10048   2.317   2.710   1.571
 3050SOL    HW110049   2.313   2.613   1.594
 3050SOL    HW210050   2.387   2.755   1.627
 3051SOL     OW10051   2.890   6.560   6.420
 3051SOL    HW110052   2.840   6.633   6.373
 3051SOL    HW210053   2.901   6.584   6.516
 3052SOL     OW10054   5.363   5.228   2.197
 3052SOL    HW110055   5.406   5.318   2.189
 3052SOL    HW210056   5.272   5.238   2.235
 3053SOL     OW10057   0.326   3.617   1.146
 3053SOL    HW110058   0.239   3.648   1.107
 3053SOL    HW210059   0.362   3.541   1.092
 3054SOL     OW10060   5.771   0.729   2.016
 3054SOL    HW110061   5.783   0.827   2.002
 3054SOL    HW210062   5.853   0.680   1.984
 3055SOL     OW10063   5.616   0.140   5.515
 3055SOL    HW110064   5.706   0.097   5.503
 3055SOL    HW210065   5.597   0.151   5.612
 3056SOL     OW10066   6.056   1.776   5.807
 3056SOL    HW110067   6.030   1.870   5.831
 3056SOL    HW210068   6.155   1.769   5.800
 3057SOL     OW10069   5.104   6.490   4.392
 3057SOL    HW110070   5.075   6.583   4.414
 3057SOL    HW210071   5.196   6.475   4.428
 3058SOL     OW10072   6.100   3.999   1.001
 3058SOL    HW110073   6.172   4.007   1.069
 3058SOL    HW210074   6.139   3.965   0.915
 3059SOL     OW10075   2.554   1.790   4.297
 3059SOL    HW110076   2.547   1.750   4.389
 3059SOL    HW210077   2.601   1.878   4.303
 3060SOL     OW10078   2.206   5.118   6.778
 3060SOL    HW110079   2.211   5.218   6.781
 3060SOL    HW210080   2.255   5.080   6.856
 3061SOL     OW10081   5.780   5.687   5.868
 3061SOL    HW110082   5.743   5.594   5.866
 3061SOL    HW210083   5.842   5.697   5.946
 3062SOL     OW10084   3.033   5.543   1.236
 3062SOL    HW110085   2.981   5.511   1.157
 3062SOL    HW210086   3.089   5.468   1.272
 3063SOL     OW10087   0.657   4.413   1.041
 3063SOL    HW110088   0.700   4.350   1.106
 3063SOL    HW210089   0.622   4.493   1.089
 3064SOL     OW10090   4.229   3.317   6.989
 3064SOL    HW110091   4.290   3.371   0.021
 3064SOL    HW210092   4.253   3.221   6.995
 3065SOL     OW10093   1.226   1.844   6.388
 3065SOL    HW110094   1.161   1.769   6.381
 3065SOL    HW210095   1.178   1.928   6.409
 3066SOL     OW10096   5.234   5.324   6.165
 3066SOL    HW110097   5.186   5.342   6.251
 3066SOL    HW210098   5.331   5.306   6.185
 3067SOL     OW10099   2.985   1.673   0.777
 3067SOL    HW110100   2.906   1.666   0.839
 3067SOL    HW210101   2.963   1.628   0.690
 3068SOL     OW10102   6.965   0.206   1.687
 3068SOL    HW110103   6.991   0.299   1.660
 3068SOL    HW210104   6.974   0.197   1.786
 3069SOL     OW10105   6.016   6.284   3.392
 3069SOL    HW110106   6.080   6.238   3.330
 3069SOL    HW210107   5.947   6.332   3.338
 3070SOL     OW10108   2.602   1.077   6.406
 3070SOL    HW110109   2.682   1.047   6.458
 3070SOL    HW210110   2.557   1.152   6.455
 3071SOL     OW10111   6.462   5.154   4.049
 3071SOL    HW110112   6.502   5.147   3.958
 3071SOL    HW210113   6.503   5.232   4.097
 3072SOL     OW10114   1.892   6.001   6.984
 3072SOL    HW110115   1.936   6.087   6.957
 3072SOL    HW210116   1.792   6.011   6.977
 3073SOL     OW10117   6.988   4.231   1.691
 3073SOL    HW110118   6.904   4.285   1.699
 3073SOL    HW210119   6.966   4.134   1.691
 3074SOL     OW10120   1.027   4.263   0.853
 3074SOL    HW110121   1.060   4.309   0.935
 3074SOL    HW210122   1.091   4.279   0.777
 3075SOL     OW10123   2.518   5.408   3.802
 3075SOL    HW110124   2.608   5.366   3.792
 3075SOL    HW210125   2.448   5.345   3.767
 3076SOL     OW10126   6.559   1.307   4.460
 3076SOL    HW110127   6.649   1.348   4.442
 3076SOL    HW210128   6.527   1.337   4.550
 3077SOL     OW10129   5.846   3.339   1.915
 3077SOL    HW110130   5.861   3.328   1.816
 3077SOL    HW210131   5.934   3.352   1.960
 3078SOL     OW10132   6.518   3.387   1.991
 3078SOL    HW110133   6.445   3.442   2.033
 3078SOL    HW210134   6.522   3.408   1.893
 3079SOL     OW10135   3.159   2.162   3.702
 3079SOL    HW110136   3.254   2.131   3.707
 3079SOL    HW210137   3.133   2.177   3.607
 3080SOL     OW10138   4.919   4.157   2.156
 3080SOL    HW110139   4.994   4.163   2.222
 3080SOL    HW210140   4.840   4.205   2.192
 3081SOL     OW10141   0.415   4.652   5.904
 3081SOL    HW110142   0.412   4.593   5.823
 3081SOL    HW210143   0.441   4.597   5.984
 3082SOL     OW10144   2.684   6.017   3.999
 3082SOL    HW110145   2.716   6.043   4.090
 3082SOL    HW210146   2.755   5.964   3.952
 3083SOL     OW10147   3.072   6.320   2.905
 3083SOL    HW110148   3.121   6.258   2.844
 3083SOL    HW210149   2.997   6.271   2.949
 3084SOL     OW10150   6.566   3.912   2.678
 3084SOL    HW110151   6.570   3.839   2.610
 3084SOL    HW210152   6.603   3.996   2.639
 3085SOL     OW10153   5.528   4.255   0.818
 3085SOL    HW110154   5.581   4.284   0.738
 3085SOL    HW210155   5.526   4.155   0.822
 3086SOL     OW10156   4.431   0.912   6.982
 3086SOL    HW110157   4.386   0.973   6.918
 3086SOL    HW210158   4.530   0.926   6.979
 3087SOL     OW10159   2.806   6.554   2.951
 3087SOL    HW110160   2.781   6.648   2.973
 3087SOL    HW210161   2.844   6.509   3.032
 3088SOL     OW10162   1.583   3.159   5.875
 3088SOL    HW110163   1.519   3.100   5.826
 3088SOL    HW210164   1.622   3.226   5.812
 3089SOL     OW10165   4.459   2.459   4.647
 3089SOL    HW110166   4.410   2.401   4.713
 3089SOL    HW210167   4.456   2.416   4.557
 3090SOL     OW10168   2.164   1.133   2.249
 3090SOL    HW110169   2.116   1.103   2.332
 3090SOL    HW210170   2.105   1.120   2.170
 3091SOL     OW10171   1.446   1.132   0.794
 3091SOL    HW110172   1.362   1.185   0.792
 3091SOL    HW210173   1.523   1.189   0.766
 3092SOL     OW10174   5.172   6.553   1.038
 3092SOL    HW110175   5.174   6.454   1.027
 3092SOL    HW210176   5.158   6.576   1.134
 3093SOL     OW10177   5.647   6.456   5.614
 3093SOL    HW110178   5.734   6.412   5.639
 3093SOL    HW210179   5.664   6.553   5.595
 3094SOL     OW10180   2.812   0.272   4.287
 3094SOL    HW110181   2.826   0.371   4.293
 3094SOL    HW210182   2.736   0.253   4.225
 3095SOL     OW10183   2.116   3.742   6.019
 3095SOL    HW110184   2.194   3.689   6.054
 3095SOL    HW210185   2.101   3.720   5.923
 3096SOL     OW10186   0.900   4.193   4.988
 3096SOL    HW110187   0.806   4.160   4.999
 3096SOL    HW210188   0.927   4.187   4.892
 3097SOL     OW10189   5.811   2.883   7.008
 3097SOL    HW110190   5.730   2.837   0.019
 3097SOL    HW210191   5.876   2.814   6.975
 3098SOL     OW10192   1.695   3.425   1.896
 3098SOL    HW110193   1.676   3.383   1.807
 3098SOL    HW210194   1.792   3.449   1.901
 3099SOL     OW10195   1.081   6.243   4.123
 3099SOL    HW110196   1.091   6.159   4.069
 3099SOL    HW210197   1.153   6.307   4.098
 3100SOL     OW10198   6.678   6.397   2.300
 3100SOL    HW110199   6.744   6.464   2.267
 3100SOL    HW210200   6.721   6.338   2.368
 3101SOL     OW10201   4.455   6.401   5.708
 3101SOL    HW110202   4.453   6.396   5.608
 3101SOL    HW210203   4.550   6.400   5.740
 3102SOL     OW10204   6.720   6.020   1.193
 3102SOL    HW110205   6.775   6.055   1.117
 3102SOL    HW210206   6.633   6.069   1.197
 3103SOL     OW10207   4.943   0.698   1.267
 3103SOL    HW110208   5.005   0.645   1.324
 3103SOL    HW210209   4.862   0.643   1.245
 3104SOL     OW10210   3.591   0.464   6.532
 3104SOL    HW110211   3.538   0.447   6.615
 3104SOL    HW210212   3.628   0.378   6.497
 3105SOL     OW10213   4.666   3.745   1.387
 3105SOL    HW110214   4.577   3.762   1.429
 3105SOL    HW210215   4.716   3.832   1.378
 3106SOL     OW10216   5.486   6.710   5.135
 3106SOL    HW110217   5.409   6.719   5.072
 3106SOL    HW210218   5.527   6.619   5.124
 3107SOL     OW10219   4.333   1.463   4.378
 3107SOL    HW110220   4.243   1.422   4.392
 3107SOL    HW210221   4.381   1.470   4.465
 3108SOL     OW10222   1.935   5.382   4.911
 3108SOL    HW110223   2.005   5.343   4.852
 3108SOL    HW210224   1.976   5.453   4.969
 3109SOL     OW10225   6.379   0.558   4.526
 3109SOL    HW110226   6.345   0.523   4.613
 3109SOL    HW210227   6.442   0.491   4.485
 3110SOL     OW10228   2.294   4.141   3.364
 3110SOL    HW110229   2.291   4.150   3.264
 3110SOL    HW210230   2.348   4.216   3.402
 3111SOL     OW10231   0.241   4.461   3.408
 3111SOL    HW110232   0.275   4.366   3.404
 3111SOL    HW210233   0.302   4.520   3.356
 3112SOL     OW10234   3.155   3.423   0.144
 3112SOL    HW110235   3.083   3.357   0.167
 3112SOL    HW210236   3.244   3.383   0.163
 3113SOL     OW10237   3.091   6.607   2.843
 3113SOL    HW110238   3.148   6.575   2.767
 3113SOL    HW210239   3.051   6.528   2.890
 3114SOL     OW10240   3.980   1.407   0.233
 3114SOL    HW110241   3.937   1.430   0.321
 3114SOL    HW210242   4.077   1.385   0.249
 3115SOL     OW10243   3.792   4.625   5.336
 3115SOL    HW110244   3.739   4.540   5.340
 3115SOL    HW210245   3.889   4.604   5.334
 3116SOL     OW10246   0.130   1.694   0.174
 3116SOL    HW110247   0.210   1.686   0.115
 3116SOL    HW210248   0.111   1.606   0.217
 3117SOL     OW10249   4.256   2.971   5.531
 3117SOL    HW110250   4.175   2.967   5.473
 3117SOL    HW210251   4.326   3.027   5.486
 3118SOL     OW10252   1.350   6.656   1.982
 3118SOL    HW110253   1.391   6.735   2.026
 3118SOL    HW210254   1.335   6.584   2.049
 3119SOL     OW10255   2.741   2.408   5.900
 3119SOL    HW110256   2.752   2.360   5.813
 3119SOL    HW210257   2.745   2.506   5.885
 3120SOL     OW10258   3.326   0.952   6.013
 3120SOL    HW110259   3.421   0.944   6.043
 3120SOL    HW210260   3.316   1.033   5.956
 3121SOL     OW10261   5.877   1.925   4.277
 3121SOL    HW110262   5.976   1.934   4.287
 3121SOL    HW210263   5.854   1.909   4.181
 3122SOL     OW10264   4.393   4.768   5.334
 3122SOL    HW110265   4.311   4.771   5.392
 3122SOL    HW210266   4.438   4.857   5.334
 3123SOL     OW10267   1.379   1.144   3.396
 3123SOL    HW110268   1.406   1.052   3.366
 3123SOL    HW210269   1.306   1.178   3.336
 3124SOL     OW10270   5.357   6.968   3.699
 3124SOL    HW110271   5.300   6.969   3.782
 3124SOL    HW210272   5.298   6.969   3.618
 3125SOL     OW10273   1.193   2.954   5.342
 3125SOL    HW110274   1.247   3.037   5.356
 3125SOL    HW210275   1.242   2.894   5.279
 3126SOL     OW10276   5.200   4.433   5.626
 3126SOL    HW110277   5.133   4.363   5.650
 3126SOL    HW210278   5.245   4.467   5.709
 3127SOL     OW10279   1.906   2.531   4.975
 3127SOL    HW110280   1.879   2.570   4.887
 3127SOL    HW210281   1.983   2.584   5.012
 3128SOL     OW10282   3.708   0.651   0.456
 3128SOL    HW110283   3.741   0.693   0.371
 3128SOL    HW210284   3.702   0.720   0.528
 3129SOL     OW10285   4.895   3.672   1.037
 3129SOL    HW110286   4.941   3.663   1.125
 3129SOL    HW210287   4.881   3.581   0.997
 3130SOL     OW10288   1.498   4.321   1.183
 3130SOL    HW110289   1.472   4.416   1.166
 3130SOL    HW210290   1.536   4.282   1.099
 3131SOL     OW10291   0.420   3.481   2.320
 3131SOL    HW110292   0.468   3.426   2.388
 3131SOL    HW210293   0.331   3.508   2.355
 3132SOL     OW10294   4.439   5.111   6.565
 3132SOL    HW110295   4.485   5.199   6.580
 3132SOL    HW210296   4.507   5.042   6.540
 3133SOL     OW10297   3.597   0.857   2.948
 3133SOL    HW110298   3.562   0.945   2.914
 3133SOL    HW210299   3.688   0.841   2.912
 3134SOL     OW10300   4.327   5.214   1.670
 3134SOL    HW110301   4.248   5.203   1.729
 3134SOL    HW210302   4.349   5.126   1.627
 3135SOL     OW10303   4.964   6.657   6.312
 3135SOL    HW110304   4.941   6.586   6.245
 3135SOL    HW210305   5.056   6.691   6.293
 3136SOL     OW10306   5.454   0.358   1.747
 3136SOL    HW110307   5.466   0.452   1.779
 3136SOL    HW210308   5.395   0.308   1.810
 3137SOL     OW10309   6.586   6.646   3.003
 3137SOL    HW110310   6.596   6.626   3.101
 3137SOL    HW210311   6.517   6.585   2.964
 3138SOL     OW10312   6.104   5.502   3.491
 3138SOL    HW110313   6.126   5.556   3.410
 3138SOL    HW210314   6.005   5.504   3.507
 3139SOL     OW10315   3.634   4.885   1.384
 3139SOL    HW110316   3.613   4.825   1.461
 3139SOL    HW210317   3.644   4.979   1.417
 3140SOL     OW10318   6.481   6.406   5.413
 3140SOL    HW110319   6.515   6.407   5.319
 3140SOL    HW210320   6.545   6.355   5.471
 3141SOL     OW10321   0.574   7.016   6.745
 3141SOL    HW110322   0.671   6.991   6.739
 3141SOL    HW210323   0.521   6.960   6.682
 3142SOL     OW10324   3.343   1.014   3.690
 3142SOL    HW110325   3.403   0.935   3.699
 3142SOL    HW210326   3.251   0.990   3.719
 3143SOL     OW10327   6.348   1.804   6.760
 3143SOL    HW110328   6.311   1.724   6.714
 3143SOL    HW210329   6.319   1.804   6.856
 3144SOL     OW10330   4.512   3.693   0.686
 3144SOL    HW110331   4.555   3.723   0.601
 3144SOL    HW210332   4.437   3.629   0.665
 3145SOL     OW10333   2.113   6.472   2.329
 3145SOL    HW110334   2.147   6.559   2.365
 3145SOL    HW210335   2.071   6.420   2.404
 3146SOL     OW10336   0.477   1.015   4.724
 3146SOL    HW110337   0.468   0.971   4.634
 3146SOL    HW210338   0.488   0.944   4.794
 3147SOL     OW10339   2.938   5.109   6.739
 3147SOL    HW110340   2.904   5.100   6.832
 3147SOL    HW210341   2.965   5.019   6.704
 3148SOL     OW10342   0.029   0.559   4.187
 3148SOL    HW110343   6.981   0.623   4.168
 3148SOL    HW210344   0.058   0.569   4.282
 3149SOL     OW10345   3.076   1.199   6.810
 3149SOL    HW110346   3.033   1.283   6.776
 3149SOL    HW210347   3.112   1.146   6.733
 3150SOL     OW10348   6.936   6.203   4.833
 3150SOL    HW110349   6.957   6.212   4.930
 3150SOL    HW210350   6.924   6.107   4.809
 3151SOL     OW10351   0.013   1.813   5.814
 3151SOL    HW110352   7.024   1.746   5.887
 3151SOL    HW210353   6.953   1.833   5.769
 3152SOL     OW10354   0.571   3.891   0.040
 3152SOL    HW110355   0.531   3.955   0.106
 3152SOL    HW210356   0.640   3.939   7.012
 3153SOL     OW10357   6.311   5.100   0.079
 3153SOL    HW110358   6.266   5.035   0.019
 3153SOL    HW210359   6.284   5.083   0.174
 3154SOL     OW10360   6.409   1.230   1.128
 3154SOL    HW110361   6.468   1.150   1.138
 3154SOL    HW210362   6.464   1.310   1.105
 3155SOL     OW10363   6.164   4.710   0.176
 3155SOL    HW110364   6.102   4.633   0.159
 3155SOL    HW210365   6.151   4.780   0.107
 3156SOL     OW10366   3.180   4.005   2.180
 3156SOL    HW110367   3.138   4.025   2.269
 3156SOL    HW210368   3.271   4.047   2.176
 3157SOL     OW10369   1.847   1.413   4.954
 3157SOL    HW110370   1.800   1.494   4.918
 3157SOL    HW210371   1.786   1.334   4.947
 3158SOL     OW10372   2.434   0.991   4.730
 3158SOL    HW110373   2.463   1.065   4.791
 3158SOL    HW210374   2.484   0.998   4.643
 3159SOL     OW10375   5.599   0.174   6.524
 3159SOL    HW110376   5.585   0.109   6.599
 3159SOL    HW210377   5.575   0.130   6.437
 3160SOL     OW10378   1.264   6.363   5.876
 3160SOL    HW110379   1.300   6.292   5.935
 3160SOL    HW210380   1.210   6.427   5.930
 3161SOL     OW10381   2.841   2.282   2.787
 3161SOL    HW110382   2.931   2.284   2.743
 3161SOL    HW210383   2.771   2.301   2.719
 3162SOL     OW10384   1.105   5.627   1.019
 3162SOL    HW110385   1.048   5.544   1.019
 3162SOL    HW210386   1.064   5.695   0.959
 3163SOL     OW10387   3.782   3.951   6.965
 3163SOL    HW110388   3.878   3.975   6.953
 3163SOL    HW210389   3.765   3.860   6.926
 3164SOL     OW10390   3.766   5.527   2.188
 3164SOL    HW110391   3.760   5.591   2.264
 3164SOL    HW210392   3.833   5.560   2.121
 3165SOL     OW10393   0.741   5.588   1.538
 3165SOL    HW110394   0.746   5.662   1.605
 3165SOL    HW210395   0.815   5.599   1.471
 3166SOL     OW10396   5.023   1.815   3.834
 3166SOL    HW110397   5.026   1.715   3.836
 3166SOL    HW210398   5.068   1.852   3.915
 3167SOL     OW10399   5.718   4.299   0.619
 3167SOL    HW110400   5.752   4.392   0.607
 3167SOL    HW210401   5.795   4.238   0.639
 3168SOL     OW10402   6.064   3.039   6.997
 3168SOL    HW110403   5.994   2.969   6.983
 3168SOL    HW210404   6.020   3.126   7.022
 3169SOL     OW10405   2.118   3.875   3.646
 3169SOL    HW110406   2.027   3.893   3.684
 3169SOL    HW210407   2.158   3.796   3.691
 3170SOL     OW10408   4.251   5.553   2.215
 3170SOL    HW110409   4.176   5.593   2.266
 3170SOL    HW210410   4.282   5.469   2.261
 3171SOL     OW10411   5.941   2.168   1.440
 3171SOL    HW110412   5.997   2.122   1.370
 3171SOL    HW210413   5.898   2.100   1.498
 3172SOL     OW10414   0.349   5.361   6.452
 3172SOL    HW110415   0.363   5.360   6.353
 3172SOL    HW210416   0.392   5.280   6.492
 3173SOL     OW10417   3.350   2.042   6.613
 3173SOL    HW110418   3.394   2.034   6.702
 3173SOL    HW210419   3.392   2.116   6.561
 3174SOL     OW10420   3.094   3.216   6.667
 3174SOL    HW110421   3.077   3.221   6.569
 3174SOL    HW210422   3.051   3.294   6.713
 3175SOL     OW10423   5.789   1.625   1.415
 3175SOL    HW110424   5.791   1.555   1.344
 3175SOL    HW210425   5.864   1.690   1.399
 3176SOL     OW10426   0.727   3.005   5.543
 3176SOL    HW110427   0.788   2.989   5.465
 3176SOL    HW210428   0.766   3.076   5.602
 3177SOL     OW10429   5.180   4.009   3.901
 3177SOL    HW110430   5.227   4.077   3.956
 3177SOL    HW210431   5.247   3.956   3.849
 3178SOL     OW10432   6.337   2.235   6.889
 3178SOL    HW110433   6.366   2.259   6.982
 3178SOL    HW210434   6.269   2.302   6.858
 3179SOL     OW10435   1.012   1.933   1.835
 3179SOL    HW110436   1.110   1.917   1.823
 3179SOL    HW210437   0.986   2.015   1.785
 3180SOL     OW10438   6.236   6.921   0.618
 3180SOL    HW110439   6.259   6.850   0.552
 3180SOL    HW210440   6.168   6.982   0.577
 3181SOL     OW10441   6.343   2.737   4.059
 3181SOL    HW110442   6.302   2.827   4.043
 3181SOL    HW210443   6.402   2.742   4.140
 3182SOL     OW10444   2.755   0.212   0.316
 3182SOL    HW110445   2.658   0.223   0.293
 3182SOL    HW210446   2.791   0.132   0.269
 3183SOL     OW10447   4.427   4.543   2.701
 3183SOL    HW110448   4.406   4.468   2.765
 3183SOL    HW210449   4.393   4.629   2.739
 3184SOL     OW10450   0.563   2.070   3.268
 3184SOL    HW110451   0.468   2.078   3.298
 3184SOL    HW210452   0.565   2.023   3.180
 3185SOL     OW10453   4.837   6.415   6.925
 3185SOL    HW110454   4.818   6.317   6.927
 3185SOL    HW210455   4.761   6.465   6.968
 3186SOL     OW10456   3.100   2.067   0.194
 3186SOL    HW110457   3.085   2.012   0.112
 3186SOL    HW210458   3.197   2.062   0.221
 3187SOL     OW10459   3.810   5.414   1.877
 3187SOL    HW110460   3.853   5.346   1.935
 3187SOL    HW210461   3.861   5.423   1.791
 3188SOL     OW10462   1.505   6.845   4.584
 3188SOL    HW110463   1.588   6.892   4.554
 3188SOL    HW210464   1.426   6.905   4.570
 3189SOL     OW10465   1.061   1.839   1.064
 3189SOL    HW110466   0.991   1.772   1.091
 3189SOL    HW210467   1.082   1.827   0.967
 3190SOL     OW10468   0.066   5.665   0.143
 3190SOL    HW110469   0.067   5.714   0.229
 3190SOL    HW210470   7.015   5.602   0.140
 3191SOL     OW10471   4.763   5.171   1.671
 3191SOL    HW110472   4.811   5.209   1.592
 3191SOL    HW210473   4.766   5.071   1.667
 3192SOL     OW10474   0.519   3.022   0.937
 3192SOL    HW110475   0.565   3.083   0.873
 3192SOL    HW210476   0.423   3.012   0.910
 3193SOL     OW10477   3.741   1.505   5.039
 3193SOL    HW110478   3.669   1.507   4.970
 3193SOL    HW210479   3.809   1.436   5.014
 3194SOL     OW10480   1.454   2.098   5.795
 3194SOL    HW110481   1.462   2.151   5.710
 3194SOL    HW210482   1.427   2.004   5.774
 3195SOL     OW10483   0.840   1.463   1.825
 3195SOL    HW110484   0.764   1.432   1.767
 3195SOL    HW210485   0.922   1.475   1.769
 3196SOL     OW10486   6.977   0.367   6.741
 3196SOL    HW110487   6.944   0.306   6.669
 3196SOL    HW210488   6.958   0.325   6.830
 3197SOL     OW10489   2.734   6.756   4.928
 3197SOL    HW110490   2.787   6.677   4.960
 3197SOL    HW210491   2.726   6.753   4.829
 3198SOL     OW10492   6.749   3.109   2.852
 3198SOL    HW110493   6.681   3.036   2.838
 3198SOL    HW210494   6.728   3.185   2.791
 3199SOL     OW10495   5.225   4.316   2.950
 3199SOL    HW110496   5.292   4.352   2.884
 3199SOL    HW210497   5.138   4.299   2.903
 3200SOL     OW10498   5.809   3.042   2.384
 3200SOL    HW110499   5.738   3.010   2.321
 3200SOL    HW210500   5.897   3.045   2.338
 3201SOL     OW10501   6.788   4.628   2.936
 3201SOL    HW110502   6.697   4.665   2.955
 3201SOL    HW210503   6.846   4.640   3.017
 3202SOL     OW10504   1.249   4.917   0.560
 3202SOL    HW110505   1.173   4.854   0.569
 3202SOL    HW210506   1.336   4.867   0.567
 3203SOL     OW10507   5.864   1.487   0.598
 3203SOL    HW110508   5.869   1.388   0.586
 3203SOL    HW210509   5.866   1.532   0.509
 3204SOL     OW10510   3.994   0.037   3.240
 3204SOL    HW110511   4.041   0.039   3.329
 3204SOL    HW210512   3.898   0.060   3.253
 3205SOL     OW10513   4.813   3.029   6.073
 3205SOL    HW110514   4.899   3.056   6.029
 3205SOL    HW210515   4.737   3.078   6.031
 3206SOL     OW10516   1.828   4.118   0.958
 3206SOL    HW110517   1.797   4.031   0.995
 3206SOL    HW210518   1.748   4.177   0.941
 3207SOL     OW10519   1.073   1.145   6.840
 3207SOL    HW110520   1.120   1.072   6.792
 3207SOL    HW210521   1.113   1.233   6.815
 3208SOL     OW10522   5.395   5.950   6.500
 3208SOL    HW110523   5.305   5.981   6.469
 3208SOL    HW210524   5.463   6.020   6.479
 3209SOL     OW10525   2.870   5.045   4.404
 3209SOL    HW110526   2.880   4.958   4.357
 3209SOL    HW210527   2.786   5.090   4.375
 3210SOL     OW10528   1.310   4.598   1.113
 3210SOL    HW110529   1.403   4.624   1.089
 3210SOL    HW210530   1.248   4.618   1.037
 3211SOL     OW10531   1.672   3.855   0.799
 3211SOL    HW110532   1.701   3.879   0.891
 3211SOL    HW210533   1.732   3.784   0.762
 3212SOL     OW10534   3.139   6.965   2.711
 3212SOL    HW110535   3.135   0.038   2.697
 3212SOL    HW210536   3.055   6.935   2.756
 3213SOL     OW10537   0.900   0.160   7.013
 3213SOL    HW110538   0.963   0.085   6.995
 3213SOL    HW210539   0.951   0.242   0.010
 3214SOL     OW10540   4.608   5.858   2.232
 3214SOL    HW110541   4.553   5.801   2.294
 3214SOL    HW210542   4.560   5.870   2.145
 3215SOL     OW10543   0.375   4.003   0.590
 3215SOL    HW110544   0.464   4.019   0.548
 3215SOL    HW210545   0.382   4.017   0.689
 3216SOL     OW10546   6.008   5.375   0.899
 3216SOL    HW110547   6.104   5.386   0.876
 3216SOL    HW210548   5.961   5.327   0.825
 3217SOL     OW10549   0.493   5.441   2.432
 3217SOL    HW110550   0.489   5.473   2.527
 3217SOL    HW210551   0.410   5.391   2.410
 3218SOL     OW10552   5.853   2.742   3.293
 3218SOL    HW110553   5.909   2.813   3.336
 3218SOL    HW210554   5.912   2.675   3.249
 3219SOL     OW10555   0.041   1.052   3.940
 3219SOL    HW110556   7.010   1.128   3.967
 3219SOL    HW210557   0.131   1.061   3.983
 3220SOL     OW10558   0.130   5.771   5.510
 3220SOL    HW110559   0.086   5.723   5.586
 3220SOL    HW210560   0.145   5.866   5.534
 3221SOL     OW10561   3.541   0.034   2.270
 3221SOL    HW110562   3.480   0.056   2.346
 3221SOL    HW210563   3.627   7.024   2.307
 3222SOL     OW10564   2.942   1.568   2.791
 3222SOL    HW110565   2.896   1.653   2.766
 3222SOL    HW210566   2.915   1.495   2.728
 3223SOL     OW10567   2.661   6.443   0.121
 3223SOL    HW110568   2.719   6.522   0.105
 3223SOL    HW210569   2.661   6.383   0.041
 3224SOL     OW10570   4.815   2.893   4.973
 3224SOL    HW110571   4.821   2.992   4.963
 3224SOL    HW210572   4.783   2.852   4.888
 3225SOL     OW10573   4.953   2.106   5.834
 3225SOL    HW110574   4.866   2.108   5.884
 3225SOL    HW210575   5.009   2.185   5.861
 3226SOL     OW10576   2.396   0.996   2.231
 3226SOL    HW110577   2.309   1.045   2.231
 3226SOL    HW210578   2.379   0.898   2.218
 3227SOL     OW10579   3.927   3.901   6.646
 3227SOL    HW110580   3.885   3.919   6.735
 3227SOL    HW210581   3.859   3.911   6.574
 3228SOL     OW10582   6.501   3.768   1.128
 3228SOL    HW110583   6.437   3.833   1.169
 3228SOL    HW210584   6.466   3.675   1.139
 3229SOL     OW10585   3.604   1.213   5.576
 3229SOL    HW110586   3.504   1.213   5.582
 3229SOL    HW210587   3.641   1.157   5.651
 3230SOL     OW10588   2.172   4.982   6.037
 3230SOL    HW110589   2.253   5.023   6.079
 3230SOL    HW210590   2.148   4.898   6.085
 3231SOL     OW10591   2.699   0.516   2.351
 3231SOL    HW110592   2.783   0.558   2.386
 3231SOL    HW210593   2.690   0.535   2.253
 3232SOL     OW10594   4.447   6.308   4.715
 3232SOL    HW110595   4.355   6.340   4.735
 3232SOL    HW210596   4.489   6.367   4.645
 3233SOL     OW10597   6.677   2.382   0.645
 3233SOL    HW110598   6.633   2.458   0.599
 3233SOL    HW210599   6.643   2.375   0.739
 3234SOL     OW10600   0.753   2.644   0.327
 3234SOL    HW110601   0.692   2.709   0.372
 3234SOL    HW210602   0.742   2.651   0.228
 3235SOL     OW10603   0.179   0.048   1.685
 3235SOL    HW110604   0.199   7.023   1.602
 3235SOL    HW210605   0.080   0.062   1.693
 3236SOL     OW10606   0.586   4.329   0.182
 3236SOL    HW110607   0.575   4.385   0.263
 3236SOL    HW210608   0.683   4.321   0.160
 3237SOL     OW10609   6.082   1.837   2.140
 3237SOL    HW110610   6.020   1.852   2.063
 3237SOL    HW210611   6.122   1.746   2.133
 3238SOL     OW10612   6.122   5.569   0.014
 3238SOL    HW110613   6.091   5.558   6.946
 3238SOL    HW210614   6.216   5.538   0.022
 3239SOL     OW10615   0.490   1.491   2.554
 3239SOL    HW110616   0.418   1.559   2.570
 3239SOL    HW210617   0.543   1.478   2.638
 3240SOL     OW10618   0.062   6.879   6.626
 3240SOL    HW110619   0.092   6.911   6.536
 3240SOL    HW210620   0.051   6.958   6.687
 3241SOL     OW10621   4.844   1.114   5.759
 3241SOL    HW110622   4.799   1.027   5.744
 3241SOL    HW210623   4.837   1.140   5.856
 3242SOL     OW10624   4.116   4.445   6.420
 3242SOL    HW110625   4.155   4.537   6.408
 3242SOL    HW210626   4.111   4.400   6.331
 3243SOL     OW10627   4.845   5.066   0.476
 3243SOL    HW110628   4.911   5.037   0.408
 3243SOL    HW210629   4.772   5.118   0.432
 3244SOL     OW10630   5.056   6.411   0.090
 3244SOL    HW110631   5.148   6.450   0.082
 3244SOL    HW210632   5.010   6.419   0.001
 3245SOL     OW10633   5.147   2.557   3.666
 3245SOL    HW110634   5.191   2.557   3.756
 3245SOL    HW210635   5.136   2.462   3.635
 3246SOL     OW10636   6.643   6.917   2.945
 3246SOL    HW110637   6.615   6.843   3.006
 3246SOL    HW210638   6.742   6.917   2.935
 3247SOL     OW10639   5.829   4.082   2.328
 3247SOL    HW110640   5.895   4.156   2.342
 3247SOL    HW210641   5.866   4.017   2.261
 3248SOL     OW10642   5.573   2.744   2.229
 3248SOL    HW110643   5.647   2.796   2.186
 3248SOL    HW210644   5.509   2.712   2.159
 3249SOL     OW10645   3.509   4.146   3.216
 3249SOL    HW110646   3.516   4.119   3.120
 3249SOL    HW210647   3.591   4.117   3.264
 3250SOL     OW10648   5.740   6.927   2.516
 3250SOL    HW110649   5.646   6.921   2.551
 3250SOL    HW210650   5.737   6.949   2.418
 3251SOL     OW10651   3.814   0.544   3.659
 3251SOL    HW110652   3.779   0.594   3.738
 3251SOL    HW210653   3.814   0.604   3.579
 3252SOL     OW10654   2.676   1.032   2.564
 3252SOL    HW110655   2.647   0.967   2.634
 3252SOL    HW210656   2.596   1.068   2.517
 3253SOL     OW10657   4.630   3.400   0.995
 3253SOL    HW110658   4.616   3.487   1.043
 3253SOL    HW210659   4.726   3.373   1.003
 3254SOL     OW10660   4.924   6.136   0.011
 3254SOL    HW110661   4.885   6.080   0.085
 3254SOL    HW210662   5.005   6.184   0.046
 3255SOL     OW10663   4.006   6.591   1.346
 3255SOL    HW110664   4.104   6.579   1.363
 3255SOL    HW210665   3.982   6.545   1.260
 3256SOL     OW10666   3.501   1.274   1.008
 3256SOL    HW110667   3.426   1.298   1.069
 3256SOL    HW210668   3.588   1.293   1.053
 3257SOL     OW10669   1.262   1.957   1.740
 3257SOL    HW110670   1.335   1.905   1.694
 3257SOL    HW210671   1.283   2.054   1.736
 3258SOL     OW10672   4.417   5.813   2.509
 3258SOL    HW110673   4.490   5.867   2.551
 3258SOL    HW210674   4.350   5.788   2.579
 3259SOL     OW10675   4.824   4.480   4.882
 3259SOL    HW110676   4.831   4.562   4.826
 3259SOL    HW210677   4.915   4.438   4.891
 3260SOL     OW10678   1.765   2.442   1.476
 3260SOL    HW110679   1.818   2.385   1.413
 3260SOL    HW210680   1.680   2.395   1.499
 3261SOL     OW10681   5.650   0.914   1.155
 3261SOL    HW110682   5.683   0.868   1.072
 3261SOL    HW210683   5.724   0.923   1.221
 3262SOL     OW10684   3.870   1.947   2.347
 3262SOL    HW110685   3.801   1.964   2.417
 3262SOL    HW210686   3.937   2.021   2.348
 3263SOL     OW10687   3.022   1.313   3.216
 3263SOL    HW110688   3.043   1.237   3.154
 3263SOL    HW210689   3.009   1.397   3.162
 3264SOL     OW10690   1.940   5.366   1.119
 3264SOL    HW110691   2.025   5.334   1.162
 3264SOL    HW210692   1.883   5.411   1.188
 3265SOL     OW10693   4.922   0.157   6.207
 3265SOL    HW110694   4.880   0.080   6.159
 3265SOL    HW210695   4.995   0.195   6.150
 3266SOL     OW10696   2.988   4.544   6.999
 3266SOL    HW110697   2.976   4.542   0.071
 3266SOL    HW210698   2.943   4.465   6.957
 3267SOL     OW10699   3.003   6.046   1.773
 3267SOL    HW110700   3.044   6.110   1.708
 3267SOL    HW210701   2.916   6.083   1.805
 3268SOL     OW10702   2.376   3.983   1.441
 3268SOL    HW110703   2.296   3.960   1.496
 3268SOL    HW210704   2.445   4.026   1.499
 3269SOL     OW10705   5.816   6.013   2.297
 3269SOL    HW110706   5.855   5.933   2.342
 3269SOL    HW210707   5.758   6.063   2.361
 3270SOL     OW10708   1.857   4.116   6.833
 3270SOL    HW110709   1.849   4.094   6.930
 3270SOL    HW210710   1.902   4.040   6.785
 3271SOL     OW10711   6.492   2.802   1.121
 3271SOL    HW110712   6.423   2.734   1.145
 3271SOL    HW210713   6.469   2.843   1.032
 3272SOL     OW10714   2.990   4.441   6.036
 3272SOL    HW110715   2.992   4.452   6.135
 3272SOL    HW210716   2.938   4.515   5.995
 3273SOL     OW10717   6.520   4.886   7.017
 3273SOL    HW110718   6.480   4.945   0.060
 3273SOL    HW210719   6.525   4.792   0.026
 3274SOL     OW10720   5.947   0.349   0.462
 3274SOL    HW110721   5.894   0.357   0.377
 3274SOL    HW210722   5.932   0.431   0.518
 3275SOL     OW10723   5.305   0.949   0.185
 3275SOL    HW110724   5.367   0.904   0.249
 3275SOL    HW210725   5.267   1.031   0.229
 3276SOL     OW10726   4.218   6.063   6.809
 3276SOL    HW110727   4.305   6.023   6.783
 3276SOL    HW210728   4.151   5.990   6.825
 3277SOL     OW10729   3.331   1.061   0.961
 3277SOL    HW110730   3.292   1.051   0.870
 3277SOL    HW210731   3.398   1.135   0.961
 3278SOL     OW10732   1.187   1.089   5.624
 3278SOL    HW110733   1.107   1.138   5.660
 3278SOL    HW210734   1.181   1.085   5.524
 3279SOL     OW10735   5.422   6.582   0.313
 3279SOL    HW110736   5.356   6.551   0.381
 3279SOL    HW210737   5.512   6.542   0.334
 3280SOL     OW10738   4.844   4.661   4.698
 3280SOL    HW110739   4.898   4.595   4.647
 3280SOL    HW210740   4.782   4.709   4.634
 3281SOL     OW10741   0.960   4.735   1.154
 3281SOL    HW110742   0.988   4.784   1.236
 3281SOL    HW210743   0.871   4.692   1.170
 3282SOL     OW10744   6.806   5.361   4.927
 3282SOL    HW110745   6.804   5.457   4.898
 3282SOL    HW210746   6.760   5.304   4.859
 3283SOL     OW10747   3.212   1.061   1.214
 3283SOL    HW110748   3.195   1.146   1.263
 3283SOL    HW210749   3.282   1.076   1.144
 3284SOL     OW10750   1.019   6.165   6.406
 3284SOL    HW110751   0.935   6.215   6.426
 3284SOL    HW210752   1.055   6.193   6.317
 3285SOL     OW10753   4.544   2.100   4.271
 3285SOL    HW110754   4.543   2.011   4.316
 3285SOL    HW210755   4.633   2.144   4.288
 3286SOL     OW10756   4.103   3.202   2.156
 3286SOL    HW110757   4.024   3.149   2.125
 3286SOL    HW210758   4.186   3.147   2.149
 3287SOL     OW10759   0.626   0.123   0.367
 3287SOL    HW110760   0.634   0.155   0.461
 3287SOL    HW210761   0.566   0.043   0.364
 3288SOL     OW10762   2.050   6.244   0.241
 3288SOL    HW110763   1.991   6.295   0.178
 3288SOL    HW210764   2.126   6.204   0.189
 3289SOL     OW10765   3.011   1.309   6.040
 3289SOL    HW110766   2.980   1.398   6.073
 3289SOL    HW210767   3.091   1.281   6.092
 3290SOL     OW10768   6.832   4.709   1.093
 3290SOL    HW110769   6.860   4.767   1.169
 3290SOL    HW210770   6.874   4.619   1.101
 3291SOL     OW10771   1.986   0.616   6.124
 3291SOL    HW110772   2.084   0.611   6.143
 3291SOL    HW210773   1.967   0.699   6.070
 3292SOL     OW10774   0.032   0.997   0.720
 3292SOL    HW110775   6.980   0.942   0.750
 3292SOL    HW210776   0.005   1.094   0.718
 3293SOL     OW10777   6.099   4.487   1.725
 3293SOL    HW110778   6.017   4.543   1.712
 3293SOL    HW210779   6.168   4.539   1.773
 3294SOL     OW10780   5.357   3.168   6.331
 3294SOL    HW110781   5.384   3.124   6.417
 3294SOL    HW210782   5.439   3.192   6.279
 3295SOL     OW10783   0.990   3.033   2.091
 3295SOL    HW110784   1.043   3.118   2.087
 3295SOL    HW210785   1.016   2.974   2.015
 3296SOL     OW10786   1.254   0.702   2.835
 3296SOL    HW110787   1.172   0.675   2.885
 3296SOL    HW210788   1.282   0.793   2.865
 3297SOL     OW10789   2.864   1.875   5.267
 3297SOL    HW110790   2.847   1.924   5.353
 3297SOL    HW210791   2.843   1.935   5.190
 3298SOL     OW10792   5.969   2.024   5.894
 3298SOL    HW110793   5.877   2.019   5.933
 3298SOL    HW210794   6.028   2.077   5.955
 3299SOL     OW10795   3.666   5.800   2.822
 3299SOL    HW110796   3.624   5.795   2.731
 3299SOL    HW210797   3.633   5.882   2.870
 3300SOL     OW10798   0.631   0.994   5.970
 3300SOL    HW110799   0.540   0.956   5.986
 3300SOL    HW210800   0.695   0.919   5.952
 3301SOL     OW10801   1.912   3.180   3.308
 3301SOL    HW110802   1.929   3.086   3.279
 3301SOL    HW210803   1.860   3.180   3.393
 3302SOL     OW10804   0.581   4.820   5.194
 3302SOL    HW110805   0.548   4.856   5.281
 3302SOL    HW210806   0.525   4.741   5.167
 3303SOL     OW10807   3.372   3.617   0.407
 3303SOL    HW110808   3.409   3.663   0.326
 3303SOL    HW210809   3.275   3.635   0.414
 3304SOL     OW10810   1.865   5.541   5.744
 3304SOL    HW110811   1.834   5.636   5.745
 3304SOL    HW210812   1.931   5.529   5.670
 3305SOL     OW10813   2.295   1.620   2.467
 3305SOL    HW110814   2.333   1.700   2.421
 3305SOL    HW210815   2.240   1.567   2.403
 3306SOL     OW10816   1.988   5.349   5.295
 3306SOL    HW110817   2.001   5.386   5.203
 3306SOL    HW210818   1.892   5.355   5.321
 3307SOL     OW10819   0.723   6.322   6.189
 3307SOL    HW110820   0.731   6.244   6.252
 3307SOL    HW210821   0.661   6.298   6.115
 3308SOL     OW10822   2.839   5.600   1.655
 3308SOL    HW110823   2.829   5.641   1.565
 3308SOL    HW210824   2.936   5.591   1.677
 3309SOL     OW10825   6.301   5.523   3.679
 3309SOL    HW110826   6.372   5.522   3.608
 3309SOL    HW210827   6.211   5.533   3.637
 3310SOL     OW10828   0.191   4.130   5.309
 3310SOL    HW110829   0.134   4.180   5.375
 3310SOL    HW210830   0.150   4.040   5.291
 3311SOL     OW10831   3.549   4.638   0.461
 3311SOL    HW110832   3.524   4.732   0.487
 3311SOL    HW210833   3.466   4.585   0.443
 3312SOL     OW10834   4.012   4.096   6.087
 3312SOL    HW110835   3.983   4.010   6.129
 3312SOL    HW210836   3.955   4.114   6.007
 3313SOL     OW10837   0.879   6.378   4.252
 3313SOL    HW110838   0.863   6.339   4.342
 3313SOL    HW210839   0.951   6.326   4.206
 3314SOL     OW10840   2.183   1.522   2.199
 3314SOL    HW110841   2.245   1.494   2.127
 3314SOL    HW210842   2.099   1.559   2.159
 3315SOL     OW10843   0.330   4.341   4.840
 3315SOL    HW110844   0.247   4.353   4.786
 3315SOL    HW210845   0.305   4.333   4.937
 3316SOL     OW10846   5.066   0.944   5.167
 3316SOL    HW110847   5.096   1.036   5.195
 3316SOL    HW210848   4.996   0.911   5.230
 3317SOL     OW10849   4.966   2.579   2.042
 3317SOL    HW110850   5.033   2.568   1.968
 3317SOL    HW210851   4.881   2.618   2.005
 3318SOL     OW10852   1.935   1.427   1.295
 3318SOL    HW110853   2.032   1.447   1.281
 3318SOL    HW210854   1.884   1.513   1.299
 3319SOL     OW10855   5.914   1.469   3.754
 3319SOL    HW110856   5.833   1.514   3.793
 3319SOL    HW210857   5.911   1.371   3.775
 3320SOL     OW10858   6.144   1.107   6.217
 3320SOL    HW110859   6.084   1.080   6.293
 3320SOL    HW210860   6.208   1.177   6.248
 3321SOL     OW10861   5.060   2.006   0.276
 3321SOL    HW110862   5.074   1.964   0.186
 3321SOL    HW210863   5.088   1.941   0.348
 3322SOL     OW10864   6.806   2.319   0.993
 3322SOL    HW110865   6.768   2.407   0.964
 3322SOL    HW210866   6.855   2.330   1.079
 3323SOL     OW10867   3.038   3.039   6.889
 3323SOL    HW110868   3.046   3.078   6.798
 3323SOL    HW210869   3.126   3.003   6.918
 3324SOL     OW10870   3.732   4.702   6.683
 3324SOL    HW110871   3.826   4.681   6.658
 3324SOL    HW210872   3.729   4.785   6.738
 3325SOL     OW10873   6.922   3.933   6.804
 3325SOL    HW110874   6.933   3.833   6.799
 3325SOL    HW210875   6.927   3.962   6.899
 3326SOL     OW10876   5.160   2.063   1.574
 3326SOL    HW110877   5.197   1.970   1.570
 3326SOL    HW210878   5.064   2.062   1.547
 3327SOL     OW10879   3.080   5.384   2.194
 3327SOL    HW110880   3.165   5.399   2.143
 3327SOL    HW210881   3.068   5.286   2.211
 3328SOL     OW10882   4.294   1.917   0.743
 3328SOL    HW110883   4.233   1.844   0.775
 3328SOL    HW210884   4.302   1.987   0.814
 3329SOL     OW10885   5.956   0.122   5.255
 3329SOL    HW110886   5.878   0.182   5.270
 3329SOL    HW210887   5.965   0.102   5.158
 3330SOL     OW10888   6.490   3.916   1.660
 3330SOL    HW110889   6.455   3.992   1.715
 3330SOL    HW210890   6.547   3.952   1.586
 3331SOL     OW10891   2.104   2.866   1.688
 3331SOL    HW110892   2.168   2.943   1.686
 3331SOL    HW210893   2.152   2.782   1.661
 3332SOL     OW10894   5.628   5.835   6.861
 3332SOL    HW110895   5.718   5.804   6.892
 3332SOL    HW210896   5.568   5.756   6.852
 3333SOL     OW10897   4.459   5.480   6.759
 3333SOL    HW110898   4.446   5.442   6.850
 3333SOL    HW210899   4.515   5.417   6.705
 3334SOL     OW10900   3.165   4.019   1.262
 3334SOL    HW110901   3.109   4.032   1.180
 3334SOL    HW210902   3.105   4.003   1.341
 3335SOL     OW10903   4.987   5.956   5.804
 3335SOL    HW110904   4.937   5.922   5.725
 3335SOL    HW210905   5.085   5.957   5.783
 3336SOL     OW10906   2.872   5.330   4.963
 3336SOL    HW110907   2.789   5.294   5.006
 3336SOL    HW210908   2.902   5.412   5.011
 3337SOL     OW10909   2.945   3.723   2.149
 3337SOL    HW110910   2.892   3.652   2.104
 3337SOL    HW210911   2.948   3.804   2.091
 3338SOL     OW10912   5.598   2.575   1.463
 3338SOL    HW110913   5.690   2.559   1.426
 3338SOL    HW210914   5.565   2.665   1.434
 3339SOL     OW10915   6.620   6.877   6.634
 3339SOL    HW110916   6.555   6.824   6.689
 3339SOL    HW210917   6.571   6.919   6.557
 3340SOL     OW10918   3.373   0.469   1.905
 3340SOL    HW110919   3.456   0.519   1.882
 3340SOL    HW210920   3.384   0.427   1.995
 3341SOL     OW10921   0.848   6.333   3.787
 3341SOL    HW110922   0.854   6.348   3.886
 3341SOL    HW210923   0.939   6.317   3.750
 3342SOL     OW10924   2.631   6.632   4.279
 3342SOL    HW110925   2.558   6.634   4.211
 3342SOL    HW210926   2.677   6.721   4.281
 3343SOL     OW10927   4.818   3.148   0.768
 3343SOL    HW110928   4.761   3.077   0.808
 3343SOL    HW210929   4.761   3.224   0.737
 3344SOL     OW10930   6.207   3.095   4.746
 3344SOL    HW110931   6.119   3.051   4.762
 3344SOL    HW210932   6.240   3.138   4.830
 3345SOL     OW10933   1.453   3.825   5.593
 3345SOL    HW110934   1.550   3.844   5.604
 3345SOL    HW210935   1.403   3.861   5.672
 3346SOL     OW10936   1.754   1.064   0.804
 3346SOL    HW110937   1.714   1.054   0.713
 3346SOL    HW210938   1.849   1.095   0.795
 3347SOL     OW10939   0.505   4.320   4.054
 3347SOL    HW110940   0.561   4.358   3.981
 3347SOL    HW210941   0.441   4.253   4.016
 3348SOL     OW10942   3.101   3.202   3.805
 3348SOL    HW110943   3.168   3.159   3.745
 3348SOL    HW210944   3.065   3.285   3.763
 3349SOL     OW10945   0.888   5.246   4.090
 3349SOL    HW110946   0.881   5.281   3.997
 3349SOL    HW210947   0.839   5.159   4.097
 3350SOL     OW10948   1.459   2.522   5.672
 3350SOL    HW110949   1.390   2.559   5.735
 3350SOL    HW210950   1.469   2.583   5.594
 3351SOL     OW10951   5.326   0.528   2.776
 3351SOL    HW110952   5.337   0.623   2.747
 3351SOL    HW210953   5.380   0.469   2.716
 3352SOL     OW10954   0.381   2.624   0.323
 3352SOL    HW110955   0.417   2.604   0.231
 3352SOL    HW210956   0.373   2.539   0.375
 3353SOL     OW10957   1.701   6.546   2.066
 3353SOL    HW110958   1.631   6.496   2.014
 3353SOL    HW210959   1.778   6.485   2.085
 3354SOL     OW10960   4.907   2.663   4.414
 3354SOL    HW110961   4.984   2.685   4.474
 3354SOL    HW210962   4.844   2.740   4.410
 3355SOL     OW10963   1.502   1.431   0.282
 3355SOL    HW110964   1.553   1.348   0.262
 3355SOL    HW210965   1.553   1.487   0.347
 3356SOL     OW10966   2.319   3.814   6.296
 3356SOL    HW110967   2.333   3.751   6.220
 3356SOL    HW210968   2.328   3.908   6.265
 3357SOL     OW10969   2.612   4.600   1.764
 3357SOL    HW110970   2.699   4.565   1.798
 3357SOL    HW210971   2.552   4.620   1.842
 3358SOL     OW10972   4.992   0.304   1.301
 3358SOL    HW110973   4.921   0.266   1.360
 3358SOL    HW210974   5.014   0.397   1.332
 3359SOL     OW10975   6.693   0.459   3.676
 3359SOL    HW110976   6.734   0.378   3.634
 3359SOL    HW210977   6.707   0.455   3.775
 3360SOL     OW10978   0.376   0.747   6.677
 3360SOL    HW110979   0.409   0.766   6.770
 3360SOL    HW210980   0.439   0.684   6.632
 3361SOL     OW10981   0.328   4.228   2.685
 3361SOL    HW110982   0.298   4.296   2.751
 3361SOL    HW210983   0.287   4.139   2.708
 3362SOL     OW10984   3.880   1.404   3.880
 3362SOL    HW110985   3.828   1.339   3.824
 3362SOL    HW210986   3.976   1.402   3.851
 3363SOL     OW10987   0.389   0.094   0.143
 3363SOL    HW110988   0.289   0.104   0.142
 3363SOL    HW210989   0.413   0.010   0.191
 3364SOL     OW10990   0.944   4.375   4.498
 3364SOL    HW110991   1.022   4.387   4.560
 3364SOL    HW210992   0.893   4.461   4.491
 3365SOL     OW10993   0.561   2.072   5.600
 3365SOL    HW110994   0.465   2.046   5.610
 3365SOL    HW210995   0.618   1.990   5.608
 3366SOL     OW10996   5.839   0.597   6.182
 3366SOL    HW110997   5.929   0.591   6.138
 3366SOL    HW210998   5.772   0.631   6.115
 3367SOL     OW10999   3.139   2.635   1.370
 3367SOL    HW111000   3.097   2.608   1.284
 3367SOL    HW211001   3.238   2.617   1.366
 3368SOL     OW11002   0.838   5.599   5.914
 3368SOL    HW111003   0.818   5.612   5.817
 3368SOL    HW211004   0.753   5.607   5.966
 3369SOL     OW11005   3.563   2.586   5.915
 3369SOL    HW111006   3.509   2.505   5.891
 3369SOL    HW211007   3.656   2.575   5.880
 3370SOL     OW11008   6.865   6.154   5.950
 3370SOL    HW111009   6.785   6.150   6.009
 3370SOL    HW211010   6.948   6.151   6.006
 3371SOL     OW11011   1.193   3.947   2.626
 3371SOL    HW111012   1.287   3.980   2.636
 3371SOL    HW211013   1.182   3.902   2.538
 3372SOL     OW11014   0.732   1.219   1.205
 3372SOL    HW111015   0.721   1.120   1.214
 3372SOL    HW211016   0.753   1.241   1.110
 3373SOL     OW11017   6.943   1.517   2.913
 3373SOL    HW111018   6.891   1.440   2.877
 3373SOL    HW211019   7.019   1.539   2.851
 3374SOL     OW11020   2.059   5.904   4.830
 3374SOL    HW111021   2.109   5.991   4.829
 3374SOL    HW211022   1.966   5.918   4.796
 3375SOL     OW11023   5.035   4.668   6.269
 3375SOL    HW111024   4.941   4.679   6.300
 3375SOL    HW211025   5.092   4.739   6.311
 3376SOL     OW11026   3.486   3.439   3.610
 3376SOL    HW111027   3.445   3.435   3.701
 3376SOL    HW211028   3.414   3.447   3.542
 3377SOL     OW11029   0.185   6.680   4.542
 3377SOL    HW111030   0.115   6.734   4.590
 3377SOL    HW211031   0.154   6.586   4.533
 3378SOL     OW11032   6.551   0.341   0.526
 3378SOL    HW111033   6.468   0.315   0.476
 3378SOL    HW211034   6.587   0.426   0.489
 3379SOL     OW11035   6.878   5.303   6.475
 3379SOL    HW111036   6.903   5.381   6.418
 3379SOL    HW211037   6.954   5.237   6.475
 3380SOL     OW11038   5.518   6.694   6.072
 3380SOL    HW111039   5.577   6.701   6.153
 3380SOL    HW211040   5.453   6.770   6.072
 3381SOL     OW11041   1.179   2.999   1.309
 3381SOL    HW111042   1.271   3.013   1.347
 3381SOL    HW211043   1.176   3.036   1.216
 3382SOL     OW11044   0.740   0.420   0.672
 3382SOL    HW111045   0.731   0.483   0.595
 3382SOL    HW211046   0.817   0.448   0.729
 3383SOL     OW11047   4.271   5.766   2.765
 3383SOL    HW111048   4.175   5.763   2.792
 3383SOL    HW211049   4.329   5.758   2.845
 3384SOL     OW11050   2.592   3.593   5.405
 3384SOL    HW111051   2.651   3.565   5.480
 3384SOL    HW211052   2.532   3.518   5.379
 3385SOL     OW11053   0.338   3.838   3.648
 3385SOL    HW111054   0.257   3.897   3.641
 3385SOL    HW211055   0.354   3.793   3.560
 3386SOL     OW11056   6.739   3.479   6.270
 3386SOL    HW111057   6.702   3.426   6.346
 3386SOL    HW211058   6.832   3.509   6.293
 3387SOL     OW11059   2.985   1.317   3.791
 3387SOL    HW111060   2.921   1.272   3.854
 3387SOL    HW211061   2.969   1.283   3.698
 3388SOL     OW11062   5.366   3.428   1.808
 3388SOL    HW111063   5.289   3.367   1.829
 3388SOL    HW211064   5.334   3.501   1.748
 3389SOL     OW11065   5.063   5.430   4.499
 3389SOL    HW111066   5.154   5.437   4.458
 3389SOL    HW211067   5.052   5.502   4.568
 3390SOL     OW11068   5.359   4.766   5.535
 3390SOL    HW111069   5.289   4.821   5.490
 3390SOL    HW211070   5.315   4.692   5.587
 3391SOL     OW11071   5.274   2.923   4.972
 3391SOL    HW111072   5.339   2.862   5.017
 3391SOL    HW211073   5.190   2.927   5.025
 3392SOL     OW11074   2.878   6.858   3.849
 3392SOL    HW111075   2.793   6.881   3.801
 3392SOL    HW211076   2.953   6.914   3.813
 3393SOL     OW11077   0.255   6.246   6.852
 3393SOL    HW111078   0.280   6.149   6.850
 3393SOL    HW211079   0.296   6.289   6.932
 3394SOL     OW11080   6.106   2.754   0.672
 3394SOL    HW111081   6.011   2.736   0.700
 3394SOL    HW211082   6.106   2.805   0.586
 3395SOL     OW11083   6.039   3.712   3.565
 3395SOL    HW111084   5.983   3.688   3.485
 3395SOL    HW211085   6.129   3.671   3.556
 3396SOL     OW11086   5.825   2.350   3.372
 3396SOL    HW111087   5.790   2.299   3.294
 3396SOL    HW211088   5.845   2.287   3.447
 3397SOL     OW11089   2.541   1.211   5.478
 3397SOL    HW111090   2.503   1.122   5.503
 3397SOL    HW211091   2.468   1.278   5.474
 3398SOL     OW11092   1.184   6.736   4.034
 3398SOL    HW111093   1.088   6.759   4.019
 3398SOL    HW211094   1.241   6.818   4.023
 3399SOL     OW11095   5.494   4.171   4.763
 3399SOL    HW111096   5.530   4.178   4.856
 3399SOL    HW211097   5.470   4.262   4.730
 3400SOL     OW11098   4.538   1.729   5.948
 3400SOL    HW111099   4.490   1.767   5.869
 3400SOL    HW211100   4.490   1.648   5.980
 3401SOL     OW11101   6.843   3.329   0.532
 3401SOL    HW111102   6.872   3.422   0.509
 3401SOL    HW211103   6.845   3.317   0.631
 3402SOL     OW11104   3.815   6.263   0.208
 3402SOL    HW111105   3.881   6.211   0.263
 3402SOL    HW211106   3.800   6.352   0.250
 3403SOL     OW11107   4.369   6.893   5.043
 3403SOL    HW111108   4.384   6.828   5.117
 3403SOL    HW211109   4.360   6.844   4.956
 3404SOL     OW11110   5.373   1.711   6.706
 3404SOL    HW111111   5.325   1.789   6.746
 3404SOL    HW211112   5.465   1.705   6.744
 3405SOL     OW11113   6.660   4.113   4.483
 3405SOL    HW111114   6.567   4.104   4.519
 3405SOL    HW211115   6.711   4.029   4.500
 3406SOL     OW11116   0.785   4.194   2.487
 3406SOL    HW111117   0.841   4.276   2.474
 3406SOL    HW211118   0.715   4.213   2.557
 3407SOL     OW11119   1.485   5.462   0.236
 3407SOL    HW111120   1.501   5.440   0.140
 3407SOL    HW211121   1.495   5.560   0.250
 3408SOL     OW11122   5.001   3.857   5.169
 3408SOL    HW111123   5.019   3.767   5.129
 3408SOL    HW211124   4.939   3.847   5.246
 3409SOL     OW11125   3.763   6.004   6.460
 3409SOL    HW111126   3.723   6.032   6.547
 3409SOL    HW211127   3.692   5.964   6.402
 3410SOL     OW11128   6.698   5.626   6.958
 3410SOL    HW111129   6.682   5.703   7.019
 3410SOL    HW211130   6.768   5.566   6.998
 3411SOL     OW11131   0.251   2.492   1.724
 3411SOL    HW111132   0.264   2.394   1.733
 3411SOL    HW211133   0.155   2.515   1.744
 3412SOL     OW11134   4.574   2.853   6.427
 3412SOL    HW111135   4.644   2.915   6.461
 3412SOL    HW211136   4.559   2.779   6.493
 3413SOL     OW11137   5.561   0.542   2.092
 3413SOL    HW111138   5.637   0.605   2.110
 3413SOL    HW211139   5.592   0.448   2.107
 3414SOL     OW11140   1.684   0.913   5.666
 3414SOL    HW111141   1.688   1.011   5.649
 3414SOL    HW211142   1.605   0.874   5.619
 3415SOL     OW11143   1.491   3.944   4.612
 3415SOL    HW111144   1.492   3.848   4.584
 3415SOL    HW211145   1.398   3.981   4.601
 3416SOL     OW11146   0.087   5.825   0.604
 3416SOL    HW111147   7.023   5.802   0.568
 3416SOL    HW211148   0.086   5.815   0.704
 3417SOL     OW11149   0.545   5.791   3.673
 3417SOL    HW111150   0.634   5.793   3.627
 3417SOL    HW211151   0.503   5.882   3.668
 3418SOL     OW11152   3.884   0.116   4.749
 3418SOL    HW111153   3.885   0.178   4.828
 3418SOL    HW211154   3.961   0.136   4.689
 3419SOL     OW11155   4.057   5.435   5.068
 3419SOL    HW111156   4.036   5.415   4.973
 3419SOL    HW211157   4.013   5.520   5.095
 3420SOL     OW11158   5.537   3.374   3.799
 3420SOL    HW111159   5.504   3.282   3.777
 3420SOL    HW211160   5.632   3.368   3.832
 3421SOL     OW11161   5.697   0.626   6.430
 3421SOL    HW111162   5.600   0.625   6.405
 3421SOL    HW211163   5.753   0.629   6.348
 3422SOL     OW11164   1.940   6.833   1.544
 3422SOL    HW111165   1.964   6.738   1.522
 3422SOL    HW211166   2.022   6.882   1.575
 3423SOL     OW11167   2.330   6.526   0.886
 3423SOL    HW111168   2.254   6.463   0.869
 3423SOL    HW211169   2.398   6.517   0.814
 3424SOL     OW11170   3.161   0.188   2.595
 3424SOL    HW111171   3.065   0.176   2.572
 3424SOL    HW211172   3.169   0.256   2.669
 3425SOL     OW11173   5.652   4.221   2.506
 3425SOL    HW111174   5.714   4.186   2.437
 3425SOL    HW211175   5.631   4.149   2.573
 3426SOL     OW11176   3.267   2.943   0.011
 3426SOL    HW111177   3.365   2.957   7.023
 3426SOL    HW211178   3.237   2.995   0.091
 3427SOL     OW11179   6.628   6.594   0.118
 3427SOL    HW111180   6.707   6.624   0.064
 3427SOL    HW211181   6.558   6.559   0.056
 3428SOL     OW11182   2.949   4.950   1.272
 3428SOL    HW111183   2.954   4.896   1.356
 3428SOL    HW211184   2.934   5.046   1.294
 3429SOL     OW11185   0.951   1.831   0.048
 3429SOL    HW111186   1.015   1.760   0.077
 3429SOL    HW211187   0.891   1.854   0.124
 3430SOL     OW11188   6.894   6.471   5.398
 3430SOL    HW111189   6.950   6.481   5.315
 3430SOL    HW211190   6.849   6.382   5.397
 3431SOL     OW11191   2.087   6.721   1.239
 3431SOL    HW111192   2.074   6.644   1.302
 3431SOL    HW211193   2.165   6.775   1.268
 3432SOL     OW11194   2.533   2.786   0.059
 3432SOL    HW111195   2.460   2.798   7.018
 3432SOL    HW211196   2.596   2.715   0.029
 3433SOL     OW11197   1.283   6.806   6.721
 3433SOL    HW111198   1.279   6.891   6.669
 3433SOL    HW211199   1.191   6.769   6.731
 3434SOL     OW11200   4.516   2.149   0.733
 3434SOL    HW111201   4.427   2.138   0.776
 3434SOL    HW211202   4.531   2.245   0.710
 3435SOL     OW11203   1.405   1.527   1.241
 3435SOL    HW111204   1.482   1.482   1.194
 3435SOL    HW211205   1.353   1.459   1.292
 3436SOL     OW11206   3.360   6.710   5.913
 3436SOL    HW111207   3.289   6.708   5.982
 3436SOL    HW211208   3.447   6.683   5.954
 3437SOL     OW11209   3.179   0.791   6.163
 3437SOL    HW111210   3.220   0.699   6.159
 3437SOL    HW211211   3.236   0.855   6.112
 3438SOL     OW11212   1.253   2.244   0.674
 3438SOL    HW111213   1.226   2.280   0.584
 3438SOL    HW211214   1.177   2.257   0.738
 3439SOL     OW11215   1.920   6.411   5.433
 3439SOL    HW111216   2.007   6.374   5.400
 3439SOL    HW211217   1.935   6.501   5.474
 3440SOL     OW11218   4.103   3.714   1.718
 3440SOL    HW111219   4.060   3.789   1.669
 3440SOL    HW211220   4.035   3.668   1.775
 3441SOL     OW11221   5.154   0.255   3.909
 3441SOL    HW111222   5.202   0.177   3.949
 3441SOL    HW211223   5.164   0.253   3.810
 3442SOL     OW11224   3.022   4.861   2.859
 3442SOL    HW111225   3.011   4.959   2.875
 3442SOL    HW211226   3.119   4.840   2.848
 3443SOL     OW11227   5.574   6.938   1.585
 3443SOL    HW111228   5.556   6.848   1.545
 3443SOL    HW211229   5.616   6.997   1.516
 3444SOL     OW11230   5.346   5.450   0.435
 3444SOL    HW111231   5.401   5.374   0.400
 3444SOL    HW211232   5.257   5.417   0.466
 3445SOL     OW11233   6.234   5.641   4.626
 3445SOL    HW111234   6.289   5.693   4.560
 3445SOL    HW211235   6.140   5.677   4.626
 3446SOL     OW11236   5.931   0.587   2.508
 3446SOL    HW111237   5.973   0.500   2.484
 3446SOL    HW211238   6.000   0.658   2.510
 3447SOL     OW11239   5.110   5.530   1.148
 3447SOL    HW111240   5.029   5.479   1.122
 3447SOL    HW211241   5.127   5.519   1.246
 3448SOL     OW11242   3.272   0.603   0.854
 3448SOL    HW111243   3.257   0.664   0.932
 3448SOL    HW211244   3.337   0.645   0.791
 3449SOL     OW11245   6.255   6.630   3.487
 3449SOL    HW111246   6.279   6.616   3.583
 3449SOL    HW211247   6.207   6.550   3.452
 3450SOL     OW11248   0.325   2.444   6.590
 3450SOL    HW111249   0.319   2.522   6.652
 3450SOL    HW211250   0.257   2.454   6.517
 3451SOL     OW11251   1.622   6.084   3.043
 3451SOL    HW111252   1.656   6.170   3.081
 3451SOL    HW211253   1.574   6.102   2.958
 3452SOL     OW11254   6.125   1.508   6.497
 3452SOL    HW111255   6.214   1.553   6.502
 3452SOL    HW211256   6.076   1.521   6.583
 3453SOL     OW11257   6.740   5.846   6.321
 3453SOL    HW111258   6.739   5.754   6.283
 3453SOL    HW211259   6.669   5.854   6.391
 3454SOL     OW11260   1.325   1.634   6.845
 3454SOL    HW111261   1.387   1.559   6.823
 3454SOL    HW211262   1.372   1.721   6.832
 3455SOL     OW11263   2.185   2.768   4.170
 3455SOL    HW111264   2.098   2.727   4.142
 3455SOL    HW211265   2.168   2.857   4.212
 3456SOL     OW11266   5.513   5.729   2.245
 3456SOL    HW111267   5.509   5.761   2.340
 3456SOL    HW211268   5.513   5.808   2.184
 3457SOL     OW11269   2.783   5.773   3.654
 3457SOL    HW111270   2.765   5.697   3.716
 3457SOL    HW211271   2.696   5.808   3.618
 3458SOL     OW11272   4.503   0.352   0.446
 3458SOL    HW111273   4.580   0.375   0.505
 3458SOL    HW211274   4.479   0.431   0.389
 3459SOL     OW11275   6.377   3.930   2.870
 3459SOL    HW111276   6.370   4.029   2.858
 3459SOL    HW211277   6.430   3.891   2.795
 3460SOL     OW11278   2.357   3.090   6.975
 3460SOL    HW111279   2.435   3.110   0.009
 3460SOL    HW211280   2.371   3.136   6.887
 3461SOL     OW11281   4.706   6.310   4.603
 3461SOL    HW111282   4.686   6.231   4.662
 3461SOL    HW211283   4.801   6.305   4.572
 3462SOL     OW11284   0.466   3.612   2.092
 3462SOL    HW111285   0.369   3.628   2.110
 3462SOL    HW211286   0.496   3.529   2.138
 3463SOL     OW11287   1.314   3.490   3.558
 3463SOL    HW111288   1.279   3.398   3.543
 3463SOL    HW211289   1.412   3.486   3.575
 3464SOL     OW11290   6.832   3.053   6.899
 3464SOL    HW111291   6.760   3.047   6.829
 3464SOL    HW211292   6.808   2.993   6.975
 3465SOL     OW11293   1.166   2.953   1.888
 3465SOL    HW111294   1.168   2.860   1.851
 3465SOL    HW211295   1.258   2.993   1.884
 3466SOL     OW11296   6.757   4.817   6.888
 3466SOL    HW111297   6.671   4.853   6.924
 3466SOL    HW211298   6.746   4.721   6.865
 3467SOL     OW11299   2.152   2.079   0.974
 3467SOL    HW111300   2.173   2.147   1.045
 3467SOL    HW211301   2.231   2.066   0.915
 3468SOL     OW11302   6.057   0.858   2.459
 3468SOL    HW111303   5.970   0.898   2.487
 3468SOL    HW211304   6.066   0.863   2.359
 3469SOL     OW11305   4.546   0.792   4.119
 3469SOL    HW111306   4.596   0.743   4.048
 3469SOL    HW211307   4.609   0.851   4.169
 3470SOL     OW11308   6.986   2.250   1.832
 3470SOL    HW111309   0.049   2.228   1.792
 3470SOL    HW211310   6.916   2.194   1.789
 3471SOL     OW11311   4.606   4.475   4.667
 3471SOL    HW111312   4.525   4.533   4.680
 3471SOL    HW211313   4.674   4.496   4.736
 3472SOL     OW11314   2.708   1.299   3.068
 3472SOL    HW111315   2.727   1.267   2.975
 3472SOL    HW211316   2.691   1.398   3.066
 3473SOL     OW11317   7.019   2.583   1.785
 3473SOL    HW111318   6.939   2.529   1.813
 3473SOL    HW211319   7.022   2.589   1.686
 3474SOL     OW11320   0.713   4.631   3.178
 3474SOL    HW111321   0.802   4.665   3.207
 3474SOL    HW211322   0.690   4.669   3.089
 3475SOL     OW11323   1.300   3.942   3.854
 3475SOL    HW111324   1.247   3.861   3.881
 3475SOL    HW211325   1.261   4.023   3.899
 3476SOL     OW11326   2.349   1.942   2.716
 3476SOL    HW111327   2.307   2.028   2.748
 3476SOL    HW211328   2.341   1.938   2.616
 3477SOL     OW11329   2.012   4.705   0.876
 3477SOL    HW111330   1.944   4.772   0.846
 3477SOL    HW211331   2.091   4.752   0.915
 3478SOL     OW11332   2.342   5.521   6.017
 3478SOL    HW111333   2.331   5.481   5.926
 3478SOL    HW211334   2.301   5.461   6.086
 3479SOL     OW11335   0.996   0.589   2.887
 3479SOL    HW111336   1.047   0.549   2.963
 3479SOL    HW211337   0.905   0.615   2.917
 3480SOL     OW11338   6.947   5.899   4.637
 3480SOL    HW111339   6.988   5.858   4.718
 3480SOL    HW211340   6.848   5.888   4.641
 3481SOL     OW11341   5.155   0.519   0.486
 3481SOL    HW111342   5.150   0.474   0.575
 3481SOL    HW211343   5.078   0.581   0.475
 3482SOL     OW11344   6.037   1.352   1.876
 3482SOL    HW111345   6.107   1.280   1.872
 3482SOL    HW211346   5.961   1.321   1.933
 3483SOL     OW11347   5.118   2.142   1.826
 3483SOL    HW111348   5.108   2.136   1.727
 3483SOL    HW211349   5.168   2.225   1.850
 3484SOL     OW11350   0.698   2.821   0.592
 3484SOL    HW111351   0.728   2.817   0.687
 3484SOL    HW211352   0.647   2.905   0.576
 3485SOL     OW11353   1.760   2.078   4.289
 3485SOL    HW111354   1.830   2.133   4.335
 3485SOL    HW211355   1.669   2.110   4.315
 3486SOL     OW11356   2.699   0.202   3.589
 3486SOL    HW111357   2.703   0.116   3.641
 3486SOL    HW211358   2.609   0.243   3.599
 3487SOL     OW11359   6.479   1.879   0.377
 3487SOL    HW111360   6.423   1.903   0.297
 3487SOL    HW211361   6.517   1.788   0.365
 3488SOL     OW11362   6.556   0.217   4.768
 3488SOL    HW111363   6.471   0.267   4.782
 3488SOL    HW211364   6.603   0.206   4.856
 3489SOL     OW11365   3.414   0.843   1.838
 3489SOL    HW111366   3.454   0.901   1.767
 3489SOL    HW211367   3.474   0.764   1.853
 3490SOL     OW11368   3.649   3.999   1.144
 3490SOL    HW111369   3.652   4.095   1.117
 3490SOL    HW211370   3.565   3.982   1.196
 3491SOL     OW11371   4.634   2.627   5.984
 3491SOL    HW111372   4.547   2.583   6.004
 3491SOL    HW211373   4.655   2.693   6.057
 3492SOL     OW11374   6.581   4.613   1.172
 3492SOL    HW111375   6.646   4.666   1.117
 3492SOL    HW211376   6.587   4.517   1.147
 3493SOL     OW11377   4.836   4.079   4.800
 3493SOL    HW111378   4.784   4.148   4.851
 3493SOL    HW211379   4.818   3.988   4.837
 3494SOL     OW11380   3.195   1.161   1.866
 3494SOL    HW111381   3.173   1.103   1.944
 3494SOL    HW211382   3.293   1.151   1.845
 3495SOL     OW11383   5.902   4.650   1.681
 3495SOL    HW111384   5.876   4.664   1.586
 3495SOL    HW211385   5.824   4.616   1.733
 3496SOL     OW11386   6.074   5.137   1.096
 3496SOL    HW111387   6.011   5.135   1.018
 3496SOL    HW211388   6.168   5.145   1.064
 3497SOL     OW11389   2.340   1.068   3.995
 3497SOL    HW111390   2.409   1.050   4.065
 3497SOL    HW211391   2.381   1.119   3.920
 3498SOL     OW11392   3.303   1.966   0.922
 3498SOL    HW111393   3.275   2.008   0.836
 3498SOL    HW211394   3.222   1.930   0.969
 3499SOL     OW11395   5.725   3.931   4.218
 3499SOL    HW111396   5.813   3.971   4.190
 3499SOL    HW211397   5.720   3.837   4.184
 3500SOL     OW11398   2.185   3.586   5.182
 3500SOL    HW111399   2.266   3.641   5.162
 3500SOL    HW211400   2.105   3.628   5.139
 3501SOL     OW11401   2.045   6.036   5.663
 3501SOL    HW111402   2.106   5.990   5.598
 3501SOL    HW211403   2.090   6.118   5.698
 3502SOL     OW11404   6.690   2.807   1.783
 3502SOL    HW111405   6.688   2.874   1.709
 3502SOL    HW211406   6.716   2.852   1.869
 3503SOL     OW11407   5.934   6.344   4.759
 3503SOL    HW111408   5.888   6.319   4.845
 3503SOL    HW211409   5.873   6.404   4.706
 3504SOL     OW11410   2.401   1.147   1.983
 3504SOL    HW111411   2.308   1.172   2.010
 3504SOL    HW211412   2.443   1.092   2.055
 3505SOL     OW11413   5.680   4.427   5.566
 3505SOL    HW111414   5.701   4.398   5.472
 3505SOL    HW211415   5.599   4.380   5.598
 3506SOL     OW11416   4.693   5.060   5.483
 3506SOL    HW111417   4.707   4.961   5.484
 3506SOL    HW211418   4.663   5.091   5.573
 3507SOL     OW11419   2.478   0.574   1.229
 3507SOL    HW111420   2.546   0.646   1.233
 3507SOL    HW211421   2.523   0.485   1.221
 3508SOL     OW11422   2.394   1.737   6.045
 3508SOL    HW111423   2.413   1.735   6.143
 3508SOL    HW211424   2.465   1.788   5.998
 3509SOL     OW11425   4.958   0.885   6.753
 3509SOL    HW111426   4.987   0.794   6.726
 3509SOL    HW211427   4.997   0.908   6.842
 3510SOL     OW11428   1.276   1.564   1.920
 3510SOL    HW111429   1.340   1.494   1.888
 3510SOL    HW211430   1.261   1.553   2.018
 3511SOL     OW11431   2.460   5.126   1.187
 3511SOL    HW111432   2.497   5.071   1.261
 3511SOL    HW211433   2.526   5.130   1.112
 3512SOL     OW11434   0.288   4.567   0.765
 3512SOL    HW111435   0.208   4.507   0.772
 3512SOL    HW211436   0.349   4.533   0.694
 3513SOL     OW11437   5.677   2.513   6.652
 3513SOL    HW111438   5.685   2.603   6.611
 3513SOL    HW211439   5.634   2.520   6.742
 3514SOL     OW11440   0.188   1.845   2.022
 3514SOL    HW111441   0.241   1.778   1.969
 3514SOL    HW211442   0.251   1.906   2.071
 3515SOL     OW11443   4.552   5.884   3.480
 3515SOL    HW111444   4.596   5.795   3.473
 3515SOL    HW211445   4.603   5.942   3.544
 3516SOL     OW11446   5.154   6.762   0.850
 3516SOL    HW111447   5.151   6.694   0.923
 3516SOL    HW211448   5.081   6.829   0.865
 3517SOL     OW11449   1.284   2.185   1.467
 3517SOL    HW111450   1.238   2.271   1.443
 3517SOL    HW211451   1.370   2.205   1.512
 3518SOL     OW11452   5.226   2.637   4.224
 3518SOL    HW111453   5.281   2.560   4.257
 3518SOL    HW211454   5.149   2.603   4.170
 3519SOL     OW11455   1.302   0.552   6.209
 3519SOL    HW111456   1.359   0.479   6.245
 3519SOL    HW211457   1.213   0.551   6.256
 3520SOL     OW11458   2.996   5.311   6.586
 3520SOL    HW111459   3.087   5.347   6.609
 3520SOL    HW211460   2.974   5.236   6.648
 3521SOL     OW11461   5.415   2.489   0.086
 3521SOL    HW111462   5.459   2.463   0.172
 3521SOL    HW211463   5.384   2.406   0.039
 3522SOL     OW11464   6.951   4.835   1.323
 3522SOL    HW111465   7.014   4.799   1.392
 3522SOL    HW211466   6.893   4.905   1.365
 3523SOL     OW11467   1.319   4.786   6.104
 3523SOL    HW111468   1.315   4.775   6.204
 3523SOL    HW211469   1.396   4.845   6.081
 3524SOL     OW11470   4.717   1.514   1.947
 3524SOL    HW111471   4.690   1.608   1.966
 3524SOL    HW211472   4.739   1.505   1.850
 3525SOL     OW11473   0.765   4.669   2.901
 3525SOL    HW111474   0.858   4.706   2.906
 3525SOL    HW211475   0.767   4.578   2.859
 3526SOL     OW11476   2.465   6.418   4.074
 3526SOL    HW111477   2.458   6.374   4.163
 3526SOL    HW211478   2.473   6.347   4.003
 3527SOL     OW11479   5.708   3.328   6.372
 3527SOL    HW111480   5.660   3.314   6.285
 3527SOL    HW211481   5.642   3.349   6.444
 3528SOL     OW11482   1.336   6.070   5.136
 3528SOL    HW111483   1.335   6.111   5.227
 3528SOL    HW211484   1.349   5.971   5.145
 3529SOL     OW11485   3.665   0.370   6.224
 3529SOL    HW111486   3.719   0.295   6.261
 3529SOL    HW211487   3.707   0.457   6.248
 3530SOL     OW11488   6.969   4.650   2.246
 3530SOL    HW111489   6.998   4.746   2.246
 3530SOL    HW211490   0.022   4.591   2.239
 3531SOL     OW11491   4.810   3.046   0.153
 3531SOL    HW111492   4.818   3.145   0.160
 3531SOL    HW211493   4.779   3.021   0.061
 3532SOL     OW11494   2.912   0.558   1.799
 3532SOL    HW111495   2.947   0.494   1.867
 3532SOL    HW211496   2.814   0.572   1.814
 3533SOL     OW11497   1.678   1.632   2.798
 3533SOL    HW111498   1.771   1.624   2.835
 3533SOL    HW211499   1.651   1.729   2.799
 3534SOL     OW11500   6.570   1.649   0.219
 3534SOL    HW111501   6.530   1.594   0.145
 3534SOL    HW211502   6.582   1.592   0.300
 3535SOL     OW11503   1.652   5.883   0.938
 3535SOL    HW111504   1.567   5.872   0.887
 3535SOL    HW211505   1.661   5.978   0.968
 3536SOL     OW11506   2.796   2.085   2.982
 3536SOL    HW111507   2.835   1.994   2.970
 3536SOL    HW211508   2.825   2.144   2.906
 3537SOL     OW11509   3.287   5.996   1.796
 3537SOL    HW111510   3.211   5.991   1.731
 3537SOL    HW211511   3.351   6.068   1.767
 3538SOL     OW11512   1.414   0.057   6.364
 3538SOL    HW111513   1.380   6.990   6.356
 3538SOL    HW211514   1.512   0.055   6.380
 3539SOL     OW11515   4.778   3.460   6.099
 3539SOL    HW111516   4.841   3.454   6.022
 3539SOL    HW211517   4.688   3.488   6.067
 3540SOL     OW11518   2.256   1.897   5.374
 3540SOL    HW111519   2.297   1.861   5.290
 3540SOL    HW211520   2.262   1.997   5.374
 3541SOL     OW11521   1.892   2.146   6.109
 3541SOL    HW111522   1.934   2.113   6.193
 3541SOL    HW211523   1.839   2.072   6.067
 3542SOL     OW11524   1.921   5.418   2.834
 3542SOL    HW111525   1.894   5.334   2.880
 3542SOL    HW211526   1.946   5.487   2.902
 3543SOL     OW11527   0.836   2.249   4.647
 3543SOL    HW111528   0.789   2.325   4.603
 3543SOL    HW211529   0.774   2.171   4.657
 3544SOL     OW11530   2.710   4.534   6.314
 3544SOL    HW111531   2.763   4.453   6.291
 3544SOL    HW211532   2.771   4.612   6.327
 3545SOL     OW11533   4.107   4.951   0.783
 3545SOL    HW111534   4.188   4.911   0.827
 3545SOL    HW211535   4.049   4.878   0.748
 3546SOL     OW11536   1.496   4.411   4.250
 3546SOL    HW111537   1.467   4.385   4.342
 3546SOL    HW211538   1.575   4.355   4.224
 3547SOL     OW11539   6.432   5.276   4.486
 3547SOL    HW111540   6.352   5.323   4.449
 3547SOL    HW211541   6.472   5.218   4.415
 3548SOL     OW11542   5.674   1.490   6.059
 3548SOL    HW111543   5.735   1.562   6.026
 3548SOL    HW211544   5.704   1.402   6.022
 3549SOL     OW11545   6.502   5.392   5.686
 3549SOL    HW111546   6.565   5.426   5.756
 3549SOL    HW211547   6.521   5.295   5.669
 3550SOL     OW11548   6.456   2.816   2.540
 3550SOL    HW111549   6.495   2.785   2.626
 3550SOL    HW211550   6.529   2.849   2.480
 3551SOL     OW11551   3.777   0.894   2.202
 3551SOL    HW111552   3.758   0.813   2.257
 3551SOL    HW211553   3.821   0.867   2.116
 3552SOL     OW11554   5.553   6.480   2.483
 3552SOL    HW111555   5.579   6.504   2.389
 3552SOL    HW211556   5.474   6.534   2.510
 3553SOL     OW11557   4.785   4.724   1.208
 3553SOL    HW111558   4.811   4.805   1.155
 3553SOL    HW211559   4.853   4.652   1.193
 3554SOL     OW11560   4.923   1.962   1.428
 3554SOL    HW111561   4.856   1.910   1.480
 3554SOL    HW211562   4.997   1.902   1.399
 3555SOL     OW11563   1.315   4.488   4.066
 3555SOL    HW111564   1.377   4.449   4.134
 3555SOL    HW211565   1.368   4.527   3.990
 3556SOL     OW11566   4.297   1.596   3.897
 3556SOL    HW111567   4.269   1.665   3.965
 3556SOL    HW211568   4.328   1.513   3.944
 3557SOL     OW11569   0.792   0.800   4.561
 3557SOL    HW111570   0.882   0.797   4.518
 3557SOL    HW211571   0.729   0.853   4.504
 3558SOL     OW11572   1.570   6.091   1.637
 3558SOL    HW111573   1.499   6.120   1.701
 3558SOL    HW211574   1.570   5.991   1.630
 3559SOL     OW11575   0.608   6.136   5.466
 3559SOL    HW111576   0.662   6.221   5.461
 3559SOL    HW211577   0.668   6.058   5.446
 3560SOL     OW11578   0.286   5.840   1.575
 3560SOL    HW111579   0.363   5.777   1.570
 3560SOL    HW211580   0.205   5.797   1.533
 3561SOL     OW11581   4.218   4.822   4.974
 3561SOL    HW111582   4.136   4.819   5.031
 3561SOL    HW211583   4.263   4.733   4.974
 3562SOL     OW11584   4.607   1.116   3.305
 3562SOL    HW111585   4.667   1.152   3.376
 3562SOL    HW211586   4.602   1.182   3.229
 3563SOL     OW11587   5.909   1.693   0.105
 3563SOL    HW111588   5.870   1.743   0.182
 3563SOL    HW211589   5.892   1.743   0.021
 3564SOL     OW11590   1.776   4.583   3.616
 3564SOL    HW111591   1.803   4.548   3.706
 3564SOL    HW211592   1.691   4.636   3.626
 3565SOL     OW11593   2.707   5.675   5.066
 3565SOL    HW111594   2.694   5.763   5.112
 3565SOL    HW211595   2.773   5.620   5.117
 3566SOL     OW11596   6.713   3.623   6.024
 3566SOL    HW111597   6.684   3.535   6.062
 3566SOL    HW211598   6.764   3.674   6.092
 3567SOL     OW11599   0.340   3.143   0.346
 3567SOL    HW111600   0.248   3.170   0.375
 3567SOL    HW211601   0.333   3.072   0.276
 3568SOL     OW11602   4.830   5.636   4.322
 3568SOL    HW111603   4.793   5.553   4.365
 3568SOL    HW211604   4.907   5.611   4.263
 3569SOL     OW11605   2.402   1.761   5.599
 3569SOL    HW111606   2.469   1.799   5.662
 3569SOL    HW211607   2.357   1.835   5.549
 3570SOL     OW11608   5.244   0.632   4.931
 3570SOL    HW111609   5.293   0.550   4.901
 3570SOL    HW211610   5.289   0.714   4.896
 3571SOL     OW11611   1.291   6.635   5.405
 3571SOL    HW111612   1.384   6.622   5.373
 3571SOL    HW211613   1.230   6.645   5.326
 3572SOL     OW11614   5.640   2.926   2.795
 3572SOL    HW111615   5.726   2.973   2.811
 3572SOL    HW211616   5.610   2.882   2.880
 3573SOL     OW11617   6.724   4.152   3.352
 3573SOL    HW111618   6.681   4.177   3.265
 3573SOL    HW211619   6.821   4.178   3.349
 3574SOL     OW11620   0.421   2.872   1.195
 3574SOL    HW111621   0.453   2.897   1.104
 3574SOL    HW211622   0.454   2.939   1.261
 3575SOL     OW11623   5.318   5.908   2.784
 3575SOL    HW111624   5.407   5.891   2.828
 3575SOL    HW211625   5.247   5.911   2.854
 3576SOL     OW11626   0.937   2.610   6.906
 3576SOL    HW111627   1.026   2.565   6.901
 3576SOL    HW211628   0.950   2.709   6.907
 3577SOL     OW11629   1.699   2.788   6.820
 3577SOL    HW111630   1.695   2.837   6.733
 3577SOL    HW211631   1.686   2.853   6.895
 3578SOL     OW11632   4.329   1.336   0.905
 3578SOL    HW111633   4.402   1.283   0.948
 3578SOL    HW211634   4.245   1.282   0.903
 3579SOL     OW11635   6.704   2.527   2.939
 3579SOL    HW111636   6.643   2.453   2.968
 3579SOL    HW211637   6.778   2.490   2.884
 3580SOL     OW11638   6.192   2.878   0.890
 3580SOL    HW111639   6.271   2.937   0.875
 3580SOL    HW211640   6.161   2.840   0.802
 3581SOL     OW11641   0.831   4.985   3.246
 3581SOL    HW111642   0.899   5.058   3.251
 3581SOL    HW211643   0.783   4.990   3.158
 3582SOL     OW11644   1.451   3.601   6.406
 3582SOL    HW111645   1.475   3.534   6.475
 3582SOL    HW211646   1.433   3.690   6.450
 3583SOL     OW11647   1.405   4.523   6.996
 3583SOL    HW111648   1.436   4.606   6.950
 3583SOL    HW211649   1.443   4.443   6.951
 3584SOL     OW11650   5.888   4.526   6.015
 3584SOL    HW111651   5.905   4.516   5.917
 3584SOL    HW211652   5.793   4.501   6.035
 3585SOL     OW11653   2.833   2.168   4.823
 3585SOL    HW111654   2.871   2.138   4.910
 3585SOL    HW211655   2.773   2.247   4.838
 3586SOL     OW11656   6.031   1.549   4.849
 3586SOL    HW111657   5.935   1.536   4.824
 3586SOL    HW211658   6.085   1.473   4.812
 3587SOL     OW11659   1.946   5.085   5.881
 3587SOL    HW111660   2.040   5.112   5.903
 3587SOL    HW211661   1.936   5.076   5.782
 3588SOL     OW11662   0.599   3.246   5.018
 3588SOL    HW111663   0.616   3.328   5.072
 3588SOL    HW211664   0.675   3.183   5.028
 3589SOL     OW11665   5.980   0.982   5.681
 3589SOL    HW111666   6.021   1.031   5.758
 3589SOL    HW211667   5.960   0.888   5.708
 3590SOL     OW11668   6.952   3.578   0.450
 3590SOL    HW111669   7.014   3.644   0.493
 3590SOL    HW211670   6.993   3.546   0.364
 3591SOL     OW11671   5.808   3.622   0.176
 3591SOL    HW111672   5.863   3.569   0.240
 3591SOL    HW211673   5.744   3.562   0.129
 3592SOL     OW11674   0.644   5.991   2.373
 3592SOL    HW111675   0.710   5.926   2.336
 3592SOL    HW211676   0.619   6.057   2.303
 3593SOL     OW11677   1.005   4.615   5.656
 3593SOL    HW111678   1.068   4.684   5.691
 3593SOL    HW211679   0.939   4.591   5.727
 3594SOL     OW11680   4.730   6.864   3.386
 3594SOL    HW111681   4.746   6.943   3.327
 3594SOL    HW211682   4.770   6.880   3.476
 3595SOL     OW11683   4.900   5.934   6.567
 3595SOL    HW111684   4.824   5.970   6.513
 3595SOL    HW211685   4.871   5.853   6.617
 3596SOL     OW11686   4.874   3.058   2.557
 3596SOL    HW111687   4.882   3.099   2.467
 3596SOL    HW211688   4.793   2.999   2.560
 3597SOL     OW11689   1.951   2.238   5.717
 3597SOL    HW111690   1.868   2.251   5.662
 3597SOL    HW211691   1.962   2.141   5.737
 3598SOL     OW11692   1.487   6.735   5.888
 3598SOL    HW111693   1.455   6.687   5.969
 3598SOL    HW211694   1.585   6.719   5.876
 3599SOL     OW11695   4.822   1.981   0.048
 3599SOL    HW111696   4.819   2.076   0.080
 3599SOL    HW211697   4.752   1.928   0.096
 3600SOL     OW11698   0.940   2.911   2.348
 3600SOL    HW111699   0.939   2.967   2.265
 3600SOL    HW211700   1.020   2.936   2.404
 3601SOL     OW11701   5.222   2.727   6.182
 3601SOL    HW111702   5.160   2.665   6.229
 3601SOL    HW211703   5.213   2.819   6.221
 3602SOL     OW11704   1.369   4.099   0.538
 3602SOL    HW111705   1.286   4.126   0.490
 3602SOL    HW211706   1.348   4.025   0.602
 3603SOL     OW11707   3.865   1.176   4.168
 3603SOL    HW111708   3.801   1.249   4.146
 3603SOL    HW211709   3.818   1.088   4.166
 3604SOL     OW11710   6.930   6.444   3.571
 3604SOL    HW111711   6.962   6.525   3.522
 3604SOL    HW211712   6.845   6.466   3.619
 3605SOL     OW11713   0.747   4.668   3.834
 3605SOL    HW111714   0.708   4.721   3.909
 3605SOL    HW211715   0.809   4.598   3.871
 3606SOL     OW11716   0.695   6.868   4.477
 3606SOL    HW111717   0.732   6.788   4.524
 3606SOL    HW211718   0.604   6.889   4.514
 3607SOL     OW11719   5.429   5.056   2.001
 3607SOL    HW111720   5.393   5.111   2.077
 3607SOL    HW211721   5.353   5.015   1.951
 3608SOL     OW11722   4.778   2.211   4.338
 3608SOL    HW111723   4.789   2.310   4.346
 3608SOL    HW211724   4.786   2.169   4.428
 3609SOL     OW11725   1.696   0.001   4.212
 3609SOL    HW111726   1.725   0.092   4.182
 3609SOL    HW211727   1.601   0.004   4.243
 3610SOL     OW11728   1.472   0.358   6.298
 3610SOL    HW111729   1.551   0.365   6.237
 3610SOL    HW211730   1.472   0.268   6.342
 3611SOL     OW11731   4.742   5.368   4.382
 3611SOL    HW111732   4.669   5.344   4.318
 3611SOL    HW211733   4.788   5.285   4.413
 3612SOL     OW11734   0.323   0.616   7.000
 3612SOL    HW111735   0.280   0.583   6.915
 3612SOL    HW211736   0.372   0.701   6.981
 3613SOL     OW11737   4.966   4.527   2.208
 3613SOL    HW111738   4.915   4.456   2.159
 3613SOL    HW211739   4.999   4.489   2.295
 3614SOL     OW11740   3.487   3.702   0.816
 3614SOL    HW111741   3.570   3.686   0.870
 3614SOL    HW211742   3.497   3.786   0.764
 3615SOL     OW11743   5.179   3.006   6.212
 3615SOL    HW111744   5.143   3.049   6.129
 3615SOL    HW211745   5.263   3.053   6.240
 3616SOL     OW11746   0.837   0.908   6.264
 3616SOL    HW111747   0.913   0.848   6.238
 3616SOL    HW211748   0.862   1.003   6.245
 3617SOL     OW11749   4.120   0.822   6.732
 3617SOL    HW111750   4.211   0.850   6.700
 3617SOL    HW211751   4.117   0.722   6.738
 3618SOL     OW11752   2.316   3.092   5.358
 3618SOL    HW111753   2.389   3.044   5.309
 3618SOL    HW211754   2.353   3.134   5.440
 3619SOL     OW11755   6.079   2.723   5.639
 3619SOL    HW111756   6.018   2.651   5.604
 3619SOL    HW211757   6.125   2.768   5.563
 3620SOL     OW11758   5.894   5.320   5.676
 3620SOL    HW111759   5.973   5.291   5.731
 3620SOL    HW211760   5.835   5.378   5.731
 3621SOL     OW11761   3.117   3.151   4.884
 3621SOL    HW111762   3.192   3.086   4.883
 3621SOL    HW211763   3.055   3.133   4.807
 3622SOL     OW11764   1.365   1.211   0.121
 3622SOL    HW111765   1.457   1.211   0.162
 3622SOL    HW211766   1.314   1.132   0.155
 3623SOL     OW11767   6.828   6.337   4.012
 3623SOL    HW111768   6.884   6.391   3.948
 3623SOL    HW211769   6.886   6.269   4.056
 3624SOL     OW11770   1.567   0.180   2.401
 3624SOL    HW111771   1.624   0.103   2.431
 3624SOL    HW211772   1.472   0.149   2.392
 3625SOL     OW11773   0.732   3.452   6.241
 3625SOL    HW111774   0.650   3.419   6.195
 3625SOL    HW211775   0.806   3.386   6.229
 3626SOL     OW11776   0.648   2.763   5.579
 3626SOL    HW111777   0.606   2.718   5.501
 3626SOL    HW211778   0.681   2.853   5.552
 3627SOL     OW11779   4.180   3.023   1.598
 3627SOL    HW111780   4.205   3.115   1.628
 3627SOL    HW211781   4.254   2.985   1.543
 3628SOL     OW11782   0.651   1.664   1.907
 3628SOL    HW111783   0.673   1.752   1.863
 3628SOL    HW211784   0.722   1.598   1.884
 3629SOL     OW11785   0.660   0.593   5.181
 3629SOL    HW111786   0.579   0.634   5.221
 3629SOL    HW211787   0.636   0.545   5.096
 3630SOL     OW11788   5.592   2.816   3.725
 3630SOL    HW111789   5.672   2.776   3.683
 3630SOL    HW211790   5.520   2.827   3.656
 3631SOL     OW11791   1.895   0.364   2.766
 3631SOL    HW111792   1.892   0.344   2.668
 3631SOL    HW211793   1.886   0.279   2.818
 3632SOL     OW11794   5.691   4.950   1.136
 3632SOL    HW111795   5.617   4.882   1.134
 3632SOL    HW211796   5.678   5.016   1.062
 3633SOL     OW11797   4.124   2.468   6.108
 3633SOL    HW111798   4.140   2.513   6.020
 3633SOL    HW211799   4.031   2.430   6.109
 3634SOL     OW11800   2.020   5.638   6.169
 3634SOL    HW111801   2.048   5.730   6.194
 3634SOL    HW211802   1.997   5.636   6.071
 3635SOL     OW11803   2.787   0.670   1.301
 3635SOL    HW111804   2.828   0.743   1.355
 3635SOL    HW211805   2.765   0.593   1.360
 3636SOL     OW11806   6.588   5.483   0.535
 3636SOL    HW111807   6.676   5.484   0.488
 3636SOL    HW211808   6.590   5.413   0.607
 3637SOL     OW11809   0.284   2.212   1.694
 3637SOL    HW111810   0.303   2.126   1.742
 3637SOL    HW211811   0.300   2.201   1.596
 3638SOL     OW11812   6.903   4.394   2.860
 3638SOL    HW111813   6.866   4.483   2.886
 3638SOL    HW211814   6.998   4.387   2.890
 3639SOL     OW11815   4.919   4.944   0.205
 3639SOL    HW111816   4.951   4.897   0.123
 3639SOL    HW211817   4.825   4.977   0.191
 3640SOL     OW11818   4.967   1.255   0.115
 3640SOL    HW111819   5.060   1.248   0.152
 3640SOL    HW211820   4.955   1.344   0.072
 3641SOL     OW11821   6.182   3.456   1.900
 3641SOL    HW111822   6.138   3.542   1.925
 3641SOL    HW211823   6.211   3.408   1.983
 3642SOL     OW11824   4.553   2.247   0.222
 3642SOL    HW111825   4.537   2.202   0.310
 3642SOL    HW211826   4.482   2.317   0.208
 3643SOL     OW11827   3.533   5.821   5.405
 3643SOL    HW111828   3.578   5.732   5.398
 3643SOL    HW211829   3.585   5.888   5.352
 3644SOL     OW11830   2.365   1.737   1.891
 3644SOL    HW111831   2.446   1.778   1.847
 3644SOL    HW211832   2.391   1.697   1.978
 3645SOL     OW11833   1.932   2.933   4.037
 3645SOL    HW111834   1.928   2.977   4.127
 3645SOL    HW211835   1.987   2.989   3.975
 3646SOL     OW11836   1.062   4.084   5.836
 3646SOL    HW111837   1.059   4.166   5.779
 3646SOL    HW211838   1.084   4.110   5.930
 3647SOL     OW11839   2.605   5.599   7.023
 3647SOL    HW111840   2.681   5.599   6.959
 3647SOL    HW211841   2.640   5.608   0.090
 3648SOL     OW11842   4.719   5.998   3.658
 3648SOL    HW111843   4.711   6.097   3.673
 3648SOL    HW211844   4.815   5.971   3.663
 3649SOL     OW11845   6.168   3.158   0.253
 3649SOL    HW111846   6.151   3.061   0.239
 3649SOL    HW211847   6.265   3.173   0.271
 3650SOL     OW11848   5.885   5.041   1.525
 3650SOL    HW111849   5.854   5.136   1.532
 3650SOL    HW211850   5.897   5.003   1.616
 3651SOL     OW11851   1.860   0.495   4.561
 3651SOL    HW111852   1.830   0.526   4.652
 3651SOL    HW211853   1.908   0.570   4.515
 3652SOL     OW11854   6.150   6.848   3.304
 3652SOL    HW111855   6.195   6.810   3.385
 3652SOL    HW211856   6.201   6.820   3.222
 3653SOL     OW11857   1.480   1.241   2.865
 3653SOL    HW111858   1.444   1.283   2.948
 3653SOL    HW211859   1.423   1.269   2.787
 3654SOL     OW11860   4.455   4.902   0.734
 3654SOL    HW111861   4.405   4.932   0.654
 3654SOL    HW211862   4.444   4.803   0.745
 3655SOL     OW11863   3.449   0.830   4.210
 3655SOL    HW111864   3.486   0.761   4.273
 3655SOL    HW211865   3.421   0.785   4.125
 3656SOL     OW11866   0.281   5.395   1.631
 3656SOL    HW111867   0.341   5.474   1.623
 3656SOL    HW211868   0.277   5.346   1.544
 3657SOL     OW11869   5.011   5.608   4.704
 3657SOL    HW111870   5.107   5.593   4.726
 3657SOL    HW211871   4.954   5.582   4.782
 3658SOL     OW11872   2.449   5.151   6.510
 3658SOL    HW111873   2.394   5.067   6.511
 3658SOL    HW211874   2.521   5.145   6.580
 3659SOL     OW11875   1.667   2.565   5.859
 3659SOL    HW111876   1.673   2.496   5.930
 3659SOL    HW211877   1.580   2.555   5.810
 3660SOL     OW11878   6.155   6.147   4.636
 3660SOL    HW111879   6.094   6.206   4.689
 3660SOL    HW211880   6.185   6.195   4.554
 3661SOL     OW11881   0.148   0.692   4.915
 3661SOL    HW111882   0.220   0.715   4.981
 3661SOL    HW211883   0.139   0.593   4.907
 3662SOL     OW11884   4.496   0.662   4.703
 3662SOL    HW111885   4.445   0.719   4.767
 3662SOL    HW211886   4.489   0.566   4.730
 3663SOL     OW11887   1.668   2.953   7.022
 3663SOL    HW111888   1.644   3.043   6.987
 3663SOL    HW211889   1.621   2.938   0.083
 3664SOL     OW11890   4.640   2.274   1.898
 3664SOL    HW111891   4.683   2.279   1.808
 3664SOL    HW211892   4.688   2.208   1.955
 3665SOL     OW11893   0.707   6.127   5.179
 3665SOL    HW111894   0.773   6.054   5.164
 3665SOL    HW211895   0.729   6.176   5.264
 3666SOL     OW11896   1.073   3.657   3.248
 3666SOL    HW111897   1.032   3.645   3.338
 3666SOL    HW211898   1.005   3.692   3.184
 3667SOL     OW11899   0.039   1.075   3.421
 3667SOL    HW111900   0.076   1.012   3.489
 3667SOL    HW211901   6.968   1.055   3.406
 3668SOL     OW11902   0.905   0.446   1.588
 3668SOL    HW111903   0.910   0.524   1.525
 3668SOL    HW211904   0.901   0.479   1.682
 3669SOL     OW11905   5.947   1.710   3.611
 3669SOL    HW111906   5.987   1.686   3.522
 3669SOL    HW211907   5.915   1.627   3.656
 3670SOL     OW11908   2.579   5.190   7.026
 3670SOL    HW111909   2.570   5.090   0.001
 3670SOL    HW211910   2.672   5.215   0.027
 3671SOL     OW11911   0.189   2.052   3.904
 3671SOL    HW111912   0.223   2.140   3.870
 3671SOL    HW211913   0.134   2.068   3.987
 3672SOL     OW11914   4.535   2.233   2.964
 3672SOL    HW111915   4.556   2.299   3.036
 3672SOL    HW211916   4.579   2.145   2.985
 3673SOL     OW11917   4.125   5.809   6.698
 3673SOL    HW111918   4.156   5.823   6.604
 3673SOL    HW211919   4.105   5.712   6.712
 3674SOL     OW11920   1.498   6.150   5.809
 3674SOL    HW111921   1.432   6.129   5.880
 3674SOL    HW211922   1.559   6.222   5.840
 3675SOL     OW11923   1.382   2.470   4.051
 3675SOL    HW111924   1.290   2.466   4.010
 3675SOL    HW211925   1.430   2.550   4.015
 3676SOL     OW11926   5.592   3.616   2.252
 3676SOL    HW111927   5.673   3.667   2.281
 3676SOL    HW211928   5.590   3.612   2.152
 3677SOL     OW11929   3.474   0.143   4.381
 3677SOL    HW111930   3.572   0.157   4.369
 3677SOL    HW211931   3.456   0.048   4.408
 3678SOL     OW11932   1.728   0.600   4.177
 3678SOL    HW111933   1.819   0.627   4.146
 3678SOL    HW211934   1.661   0.624   4.108
 3679SOL     OW11935   6.938   0.382   3.043
 3679SOL    HW111936   6.989   0.409   3.126
 3679SOL    HW211937   6.866   0.449   3.025
 3680SOL     OW11938   4.729   2.741   4.757
 3680SOL    HW111939   4.673   2.736   4.674
 3680SOL    HW211940   4.726   2.654   4.805
 3681SOL     OW11941   1.072   1.429   6.783
 3681SOL    HW111942   1.010   1.445   6.859
 3681SOL    HW211943   1.112   1.515   6.753
 3682SOL     OW11944   6.003   2.467   0.251
 3682SOL    HW111945   5.931   2.535   0.267
 3682SOL    HW211946   5.962   2.383   0.215
 3683SOL     OW11947   6.970   0.319   3.811
 3683SOL    HW111948   6.930   0.320   3.903
 3683SOL    HW211949   7.019   0.405   3.796
 3684SOL     OW11950   0.955   5.577   6.876
 3684SOL    HW111951   0.908   5.588   6.964
 3684SOL    HW211952   1.043   5.624   6.880
 3685SOL     OW11953   2.052   6.036   5.969
 3685SOL    HW111954   2.014   6.087   5.892
 3685SOL    HW211955   2.123   5.974   5.936
 3686SOL     OW11956   6.290   5.397   4.183
 3686SOL    HW111957   6.275   5.386   4.084
 3686SOL    HW211958   6.216   5.351   4.232
 3687SOL     OW11959   4.943   6.684   4.022
 3687SOL    HW111960   4.928   6.654   3.928
 3687SOL    HW211961   4.861   6.667   4.076
 3688SOL     OW11962   6.485   3.236   6.858
 3688SOL    HW111963   6.395   3.192   6.848
 3688SOL    HW211964   6.479   3.329   6.822
 3689SOL     OW11965   2.059   1.083   5.548
 3689SOL    HW111966   2.049   1.043   5.639
 3689SOL    HW211967   2.026   1.177   5.550
 3690SOL     OW11968   4.299   5.843   0.607
 3690SOL    HW111969   4.378   5.904   0.597
 3690SOL    HW211970   4.328   5.758   0.651
 3691SOL     OW11971   2.455   1.771   7.011
 3691SOL    HW111972   2.541   1.721   7.005
 3691SOL    HW211973   2.474   1.866   0.009
 3692SOL     OW11974   6.558   5.194   5.892
 3692SOL    HW111975   6.628   5.134   5.854
 3692SOL    HW211976   6.599   5.282   5.917
 3693SOL     OW11977   2.040   1.893   2.760
 3693SOL    HW111978   1.987   1.830   2.816
 3693SOL    HW211979   2.119   1.846   2.722
 3694SOL     OW11980   1.599   6.547   2.314
 3694SOL    HW111981   1.609   6.540   2.215
 3694SOL    HW211982   1.689   6.549   2.356
 3695SOL     OW11983   5.359   1.397   1.557
 3695SOL    HW111984   5.380   1.303   1.530
 3695SOL    HW211985   5.440   1.454   1.543
 3696SOL     OW11986   3.997   6.890   4.756
 3696SOL    HW111987   4.077   6.885   4.697
 3696SOL    HW211988   3.964   6.984   4.761
 3697SOL     OW11989   6.676   6.110   2.879
 3697SOL    HW111990   6.653   6.072   2.790
 3697SOL    HW211991   6.759   6.066   2.914
 3698SOL     OW11992   2.245   0.767   3.562
 3698SOL    HW111993   2.158   0.717   3.561
 3698SOL    HW211994   2.230   0.859   3.599
 3699SOL     OW11995   1.711   1.385   3.554
 3699SOL    HW111996   1.612   1.394   3.546
 3699SOL    HW211997   1.739   1.409   3.647
 3700SOL     OW11998   1.551   5.064   5.041
 3700SOL    HW111999   1.536   5.042   5.137
 3700SOL    HW212000   1.595   5.154   5.034
 3701SOL     OW12001   1.184   6.578   3.114
 3701SOL    HW112002   1.102   6.635   3.104
 3701SOL    HW212003   1.203   6.563   3.211
 3702SOL     OW12004   5.232   6.465   3.386
 3702SOL    HW112005   5.332   6.465   3.389
 3702SOL    HW212006   5.196   6.398   3.451
 3703SOL     OW12007   0.520   0.532   6.535
 3703SOL    HW112008   0.477   0.505   6.449
 3703SOL    HW212009   0.505   0.461   6.604
 3704SOL     OW12010   4.753   2.159   1.335
 3704SOL    HW112011   4.810   2.085   1.372
 3704SOL    HW212012   4.806   2.243   1.331
 3705SOL     OW12013   5.325   4.430   4.441
 3705SOL    HW112014   5.314   4.508   4.380
 3705SOL    HW212015   5.349   4.348   4.388
 3706SOL     OW12016   0.640   4.234   6.834
 3706SOL    HW112017   0.556   4.270   6.874
 3706SOL    HW212018   0.617   4.176   6.756
 3707SOL     OW12019   4.461   6.136   4.105
 3707SOL    HW112020   4.391   6.207   4.113
 3707SOL    HW212021   4.507   6.143   4.017
 3708SOL     OW12022   4.408   6.873   1.135
 3708SOL    HW112023   4.423   6.776   1.115
 3708SOL    HW212024   4.329   6.905   1.083
 3709SOL     OW12025   2.976   0.283   1.927
 3709SOL    HW112026   2.893   0.244   1.969
 3709SOL    HW212027   2.994   0.237   1.841
 3710SOL     OW12028   0.410   5.313   4.419
 3710SOL    HW112029   0.341   5.377   4.453
 3710SOL    HW212030   0.497   5.360   4.410
 3711SOL     OW12031   1.325   5.618   5.360
 3711SOL    HW112032   1.284   5.528   5.349
 3711SOL    HW212033   1.406   5.611   5.418
 3712SOL     OW12034   1.492   5.907   0.013
 3712SOL    HW112035   1.411   5.879   0.064
 3712SOL    HW212036   1.518   5.834   6.975
 3713SOL     OW12037   0.455   0.228   5.015
 3713SOL    HW112038   0.510   0.164   5.069
 3713SOL    HW212039   0.371   0.250   5.065
 3714SOL     OW12040   5.770   5.393   6.760
 3714SOL    HW112041   5.740   5.472   6.813
 3714SOL    HW212042   5.770   5.416   6.663
 3715SOL     OW12043   1.170   4.688   2.055
 3715SOL    HW112044   1.106   4.731   1.991
 3715SOL    HW212045   1.263   4.695   2.018
 3716SOL     OW12046   6.185   5.987   4.865
 3716SOL    HW112047   6.189   6.053   4.790
 3716SOL    HW212048   6.091   5.955   4.874
 3717SOL     OW12049   5.346   1.037   0.532
 3717SOL    HW112050   5.278   1.107   0.509
 3717SOL    HW212051   5.373   1.047   0.627
 3718SOL     OW12052   0.038   6.815   6.952
 3718SOL    HW112053   0.028   6.895   6.892
 3718SOL    HW212054   0.131   6.780   6.944
 3719SOL     OW12055   4.096   2.963   6.774
 3719SOL    HW112056   4.049   2.888   6.821
 3719SOL    HW212057   4.161   2.926   6.708
 3720SOL     OW12058   5.657   3.370   0.981
 3720SOL    HW112059   5.558   3.367   0.970
 3720SOL    HW212060   5.698   3.293   0.932
 3721SOL     OW12061   0.258   4.866   0.548
 3721SOL    HW112062   0.219   4.949   0.508
 3721SOL    HW212063   0.244   4.867   0.647
 3722SOL     OW12064   5.682   6.260   1.476
 3722SOL    HW112065   5.589   6.261   1.511
 3722SOL    HW212066   5.685   6.310   1.389
 3723SOL     OW12067   4.707   4.892   0.619
 3723SOL    HW112068   4.736   4.963   0.555
 3723SOL    HW212069   4.620   4.918   0.660
 3724SOL     OW12070   1.518   3.980   5.996
 3724SOL    HW112071   1.598   4.037   6.017
 3724SOL    HW212072   1.511   3.906   6.063
 3725SOL     OW12073   0.620   5.809   6.457
 3725SOL    HW112074   0.703   5.862   6.440
 3725SOL    HW212075   0.622   5.773   6.550
 3726SOL     OW12076   5.174   3.674   6.128
 3726SOL    HW112077   5.165   3.665   6.227
 3726SOL    HW212078   5.147   3.766   6.101
 3727SOL     OW12079   6.826   3.022   5.507
 3727SOL    HW112080   6.727   3.009   5.510
 3727SOL    HW212081   6.868   2.947   5.457
 3728SOL     OW12082   2.223   3.293   6.412
 3728SOL    HW112083   2.311   3.325   6.379
 3728SOL    HW212084   2.222   3.193   6.412
 3729SOL     OW12085   1.463   1.767   4.284
 3729SOL    HW112086   1.496   1.840   4.224
 3729SOL    HW212087   1.482   1.679   4.242
 3730SOL     OW12088   3.722   6.323   5.650
 3730SOL    HW112089   3.822   6.325   5.659
 3730SOL    HW212090   3.691   6.228   5.650
 3731SOL     OW12091   0.320   1.259   0.192
 3731SOL    HW112092   0.287   1.165   0.184
 3731SOL    HW212093   0.249   1.322   0.162
 3732SOL     OW12094   2.592   2.234   0.483
 3732SOL    HW112095   2.615   2.275   0.572
 3732SOL    HW212096   2.536   2.298   0.431
 3733SOL     OW12097   2.316   1.805   3.332
 3733SOL    HW112098   2.368   1.811   3.247
 3733SOL    HW212099   2.377   1.784   3.408
 3734SOL     OW12100   4.356   0.551   1.764
 3734SOL    HW112101   4.266   0.587   1.739
 3734SOL    HW212102   4.347   0.455   1.788
 3735SOL     OW12103   3.379   0.679   2.841
 3735SOL    HW112104   3.354   0.763   2.793
 3735SOL    HW212105   3.454   0.698   2.904
 3736SOL     OW12106   6.827   1.300   0.975
 3736SOL    HW112107   6.821   1.351   0.890
 3736SOL    HW212108   6.922   1.274   0.993
 3737SOL     OW12109   5.985   1.377   3.414
 3737SOL    HW112110   6.018   1.467   3.387
 3737SOL    HW212111   5.927   1.386   3.495
 3738SOL     OW12112   6.410   0.213   1.457
 3738SOL    HW112113   6.423   0.311   1.472
 3738SOL    HW212114   6.423   0.192   1.361
 3739SOL     OW12115   2.289   4.575   1.606
 3739SOL    HW112116   2.264   4.496   1.661
 3739SOL    HW212117   2.255   4.562   1.512
 3740SOL     OW12118   6.369   5.344   0.423
 3740SOL    HW112119   6.290   5.378   0.475
 3740SOL    HW212120   6.449   5.401   0.443
 3741SOL     OW12121   4.916   2.826   6.716
 3741SOL    HW112122   5.015   2.842   6.713
 3741SOL    HW212123   4.869   2.914   6.728
 3742SOL     OW12124   4.081   6.874   0.393
 3742SOL    HW112125   4.028   6.950   0.358
 3742SOL    HW212126   4.178   6.899   0.394
 3743SOL     OW12127   5.427   3.297   1.352
 3743SOL    HW112128   5.353   3.303   1.419
 3743SOL    HW212129   5.513   3.276   1.400
 3744SOL     OW12130   1.498   5.903   2.003
 3744SOL    HW112131   1.442   5.965   2.058
 3744SOL    HW212132   1.561   5.854   2.063
 3745SOL     OW12133   5.484   4.161   2.841
 3745SOL    HW112134   5.425   4.090   2.879
 3745SOL    HW212135   5.504   4.229   2.911
 3746SOL     OW12136   6.372   0.445   4.049
 3746SOL    HW112137   6.281   0.413   4.024
 3746SOL    HW212138   6.424   0.370   4.090
 3747SOL     OW12139   4.349   6.153   5.530
 3747SOL    HW112140   4.399   6.187   5.449
 3747SOL    HW212141   4.371   6.056   5.544
 3748SOL     OW12142   5.194   0.680   1.851
 3748SOL    HW112143   5.119   0.726   1.803
 3748SOL    HW212144   5.161   0.595   1.892
 3749SOL     OW12145   2.444   4.790   3.041
 3749SOL    HW112146   2.393   4.842   2.972
 3749SOL    HW212147   2.398   4.798   3.129
 3750SOL     OW12148   6.147   4.312   0.725
 3750SOL    HW112149   6.235   4.272   0.753
 3750SOL    HW212150   6.075   4.243   0.733
 3751SOL     OW12151   6.702   3.551   0.832
 3751SOL    HW112152   6.694   3.572   0.929
 3751SOL    HW212153   6.610   3.544   0.792
 3752SOL     OW12154   0.977   6.958   0.806
 3752SOL    HW112155   0.932   6.966   0.717
 3752SOL    HW212156   1.063   7.009   0.805
 3753SOL     OW12157   6.711   1.065   3.855
 3753SOL    HW112158   6.633   1.111   3.811
 3753SOL    HW212159   6.774   1.134   3.891
 3754SOL     OW12160   4.081   6.340   1.430
 3754SOL    HW112161   4.109   6.342   1.527
 3754SOL    HW212162   4.052   6.432   1.402
 3755SOL     OW12163   5.762   6.015   4.174
 3755SOL    HW112164   5.708   5.944   4.129
 3755SOL    HW212165   5.849   6.027   4.126
 3756SOL     OW12166   1.988   6.412   6.115
 3756SOL    HW112167   2.061   6.479   6.109
 3756SOL    HW212168   1.902   6.459   6.137
 3757SOL     OW12169   3.881   6.504   6.899
 3757SOL    HW112170   3.875   6.498   6.999
 3757SOL    HW212171   3.934   6.426   6.865
 3758SOL     OW12172   1.706   1.322   4.323
 3758SOL    HW112173   1.780   1.360   4.268
 3758SOL    HW212174   1.740   1.297   4.413
 3759SOL     OW12175   4.726   5.024   6.208
 3759SOL    HW112176   4.716   4.970   6.124
 3759SOL    HW212177   4.677   5.111   6.197
 3760SOL     OW12178   1.502   2.855   4.227
 3760SOL    HW112179   1.446   2.916   4.170
 3760SOL    HW212180   1.532   2.777   4.172
 3761SOL     OW12181   0.424   0.373   5.279
 3761SOL    HW112182   0.520   0.351   5.258
 3761SOL    HW212183   0.415   0.472   5.289
 3762SOL     OW12184   0.372   5.404   6.911
 3762SOL    HW112185   0.463   5.441   6.933
 3762SOL    HW212186   0.330   5.462   6.840
 3763SOL     OW12187   6.969   4.876   7.026
 3763SOL    HW112188   6.885   4.846   6.980
 3763SOL    HW212189   6.949   4.957   0.055
 3764SOL     OW12190   1.770   0.310   3.397
 3764SOL    HW112191   1.734   0.266   3.315
 3764SOL    HW212192   1.712   0.388   3.421
 3765SOL     OW12193   4.896   1.427   0.927
 3765SOL    HW112194   4.823   1.359   0.931
 3765SOL    HW212195   4.957   1.416   1.006
 3766SOL     OW12196   1.165   1.087   3.933
 3766SOL    HW112197   1.245   1.133   3.971
 3766SOL    HW212198   1.086   1.103   3.992
 3767SOL     OW12199   2.306   5.164   0.181
 3767SOL    HW112200   2.377   5.130   0.241
 3767SOL    HW212201   2.317   5.125   0.090
 3768SOL     OW12202   2.326   6.004   5.486
 3768SOL    HW112203   2.353   5.922   5.537
 3768SOL    HW212204   2.396   6.025   5.417
 3769SOL     OW12205   5.547   5.527   5.096
 3769SOL    HW112206   5.475   5.461   5.120
 3769SOL    HW212207   5.512   5.620   5.106
 3770SOL     OW12208   1.998   0.003   0.032
 3770SOL    HW112209   1.995   6.931   0.015
 3770SOL    HW212210   1.969   0.052   6.976
 3771SOL     OW12211   6.475   2.742   6.769
 3771SOL    HW112212   6.440   2.803   6.697
 3771SOL    HW212213   6.427   2.760   6.854
 3772SOL     OW12214   0.191   0.997   0.159
 3772SOL    HW112215   0.236   0.942   0.230
 3772SOL    HW212216   0.228   0.971   0.069
 3773SOL     OW12217   6.393   3.189   6.394
 3773SOL    HW112218   6.422   3.100   6.429
 3773SOL    HW212219   6.410   3.192   6.295
 3774SOL     OW12220   0.376   5.839   0.104
 3774SOL    HW112221   0.384   5.761   0.166
 3774SOL    HW212222   0.319   5.813   0.025
 3775SOL     OW12223   5.085   4.691   2.044
 3775SOL    HW112224   5.173   4.717   2.083
 3775SOL    HW212225   5.043   4.620   2.100
 3776SOL     OW12226   4.004   1.206   0.450
 3776SOL    HW112227   3.943   1.236   0.377
 3776SOL    HW212228   4.098   1.233   0.428
 3777SOL     OW12229   3.260   4.964   4.709
 3777SOL    HW112230   3.298   4.963   4.801
 3777SOL    HW212231   3.167   4.928   4.711
 3778SOL     OW12232   2.814   5.265   3.214
 3778SOL    HW112233   2.777   5.353   3.184
 3778SOL    HW212234   2.750   5.223   3.279
 3779SOL     OW12235   1.933   4.583   1.137
 3779SOL    HW112236   1.932   4.485   1.115
 3779SOL    HW212237   1.955   4.635   1.055
 3780SOL     OW12238   4.587   5.250   6.170
 3780SOL    HW112239   4.604   5.311   6.093
 3780SOL    HW212240   4.507   5.284   6.221
 3781SOL     OW12241   1.708   6.992   4.488
 3781SOL    HW112242   1.707   6.976   4.389
 3781SOL    HW212243   1.683   0.061   4.507
 3782SOL     OW12244   2.342   1.278   4.359
 3782SOL    HW112245   2.313   1.226   4.280
 3782SOL    HW212246   2.441   1.286   4.361
 3783SOL     OW12247   5.646   6.399   4.663
 3783SOL    HW112248   5.636   6.301   4.677
 3783SOL    HW212249   5.663   6.417   4.566
 3784SOL     OW12250   5.318   2.569   3.212
 3784SOL    HW112251   5.384   2.496   3.232
 3784SOL    HW212252   5.263   2.543   3.133
 3785SOL     OW12253   0.913   1.078   6.625
 3785SOL    HW112254   0.933   1.125   6.539
 3785SOL    HW212255   0.945   1.134   6.702
 3786SOL     OW12256   2.112   6.921   2.917
 3786SOL    HW112257   2.136   6.925   3.014
 3786SOL    HW212258   2.188   6.883   2.865
 3787SOL     OW12259   5.923   6.650   3.100
 3787SOL    HW112260   6.016   6.686   3.115
 3787SOL    HW212261   5.917   6.557   3.135
 3788SOL     OW12262   0.773   3.658   4.278
 3788SOL    HW112263   0.737   3.616   4.195
 3788SOL    HW212264   0.732   3.615   4.358
 3789SOL     OW12265   0.640   3.489   4.449
 3789SOL    HW112266   0.546   3.524   4.460
 3789SOL    HW212267   0.671   3.449   4.535
 3790SOL     OW12268   2.143   3.965   5.593
 3790SOL    HW112269   2.170   3.938   5.500
 3790SOL    HW212270   2.111   3.885   5.643
 3791SOL     OW12271   6.345   0.204   0.240
 3791SOL    HW112272   6.294   0.118   0.249
 3791SOL    HW212273   6.322   0.265   0.315
 3792SOL     OW12274   6.921   0.848   3.852
 3792SOL    HW112275   6.996   0.912   3.869
 3792SOL    HW212276   6.836   0.899   3.842
 3793SOL     OW12277   3.697   0.483   2.555
 3793SOL    HW112278   3.619   0.446   2.605
 3793SOL    HW212279   3.676   0.485   2.457
 3794SOL     OW12280   2.218   4.013   1.035
 3794SOL    HW112281   2.235   4.103   0.993
 3794SOL    HW212282   2.287   3.996   1.105
 3795SOL     OW12283   3.368   6.591   7.000
 3795SOL    HW112284   3.284   6.601   6.946
 3795SOL    HW212285   3.368   6.503   0.020
 3796SOL     OW12286   2.891   1.965   1.169
 3796SOL    HW112287   2.816   1.904   1.198
 3796SOL    HW212288   2.944   1.921   1.097
 3797SOL     OW12289   6.397   4.201   2.788
 3797SOL    HW112290   6.447   4.287   2.800
 3797SOL    HW212291   6.419   4.162   2.698
 3798SOL     OW12292   4.027   6.107   2.894
 3798SOL    HW112293   3.982   6.088   2.982
 3798SOL    HW212294   3.975   6.177   2.845
 3799SOL     OW12295   6.833   2.830   3.915
 3799SOL    HW112296   6.745   2.832   3.868
 3799SOL    HW212297   6.907   2.834   3.848
 3800SOL     OW12298   5.307   2.976   4.502
 3800SOL    HW112299   5.331   3.072   4.518
 3800SOL    HW212300   5.308   2.927   4.589
 3801SOL     OW12301   6.435   5.970   3.044
 3801SOL    HW112302   6.380   6.040   3.090
 3801SOL    HW212303   6.506   6.014   2.990
 3802SOL     OW12304   0.747   2.625   3.544
 3802SOL    HW112305   0.702   2.706   3.506
 3802SOL    HW212306   0.715   2.610   3.637
 3803SOL     OW12307   3.807   2.262   1.079
 3803SOL    HW112308   3.791   2.230   0.986
 3803SOL    HW212309   3.817   2.183   1.140
 3804SOL     OW12310   5.011   2.123   3.380
 3804SOL    HW112311   5.035   2.148   3.474
 3804SOL    HW212312   4.912   2.123   3.370
 3805SOL     OW12313   2.811   3.496   1.542
 3805SOL    HW112314   2.800   3.592   1.570
 3805SOL    HW212315   2.900   3.485   1.498
 3806SOL     OW12316   2.822   3.804   6.719
 3806SOL    HW112317   2.894   3.814   6.788
 3806SOL    HW212318   2.734   3.830   6.758
 3807SOL     OW12319   2.426   6.654   3.924
 3807SOL    HW112320   2.396   6.713   3.999
 3807SOL    HW212321   2.464   6.570   3.962
 3808SOL     OW12322   3.953   0.356   1.085
 3808SOL    HW112323   3.992   0.355   0.993
 3808SOL    HW212324   3.967   0.446   1.126
 3809SOL     OW12325   6.075   2.958   0.462
 3809SOL    HW112326   5.989   2.968   0.412
 3809SOL    HW212327   6.067   3.000   0.552
 3810SOL     OW12328   4.610   2.410   5.281
 3810SOL    HW112329   4.677   2.482   5.263
 3810SOL    HW212330   4.657   2.331   5.321
 3811SOL     OW12331   1.217   4.169   3.975
 3811SOL    HW112332   1.200   4.253   3.924
 3811SOL    HW212333   1.265   4.191   4.060
 3812SOL     OW12334   5.222   0.825   5.468
 3812SOL    HW112335   5.157   0.789   5.402
 3812SOL    HW212336   5.280   0.893   5.424
 3813SOL     OW12337   4.134   4.277   0.449
 3813SOL    HW112338   4.044   4.300   0.411
 3813SOL    HW212339   4.134   4.181   0.478
 3814SOL     OW12340   0.431   6.861   1.178
 3814SOL    HW112341   0.353   6.849   1.240
 3814SOL    HW212342   0.516   6.855   1.231
 3815SOL     OW12343   4.859   2.944   0.421
 3815SOL    HW112344   4.836   2.849   0.439
 3815SOL    HW212345   4.846   2.964   0.324
 3816SOL     OW12346   0.646   5.895   0.077
 3816SOL    HW112347   0.678   5.866   0.167
 3816SOL    HW212348   0.546   5.903   0.079
 3817SOL     OW12349   5.394   3.763   3.312
 3817SOL    HW112350   5.397   3.663   3.307
 3817SOL    HW212351   5.328   3.791   3.381
 3818SOL     OW12352   4.907   0.188   0.436
 3818SOL    HW112353   4.898   0.118   0.365
 3818SOL    HW212354   4.973   0.257   0.406
 3819SOL     OW12355   5.466   5.467   1.002
 3819SOL    HW112356   5.430   5.391   1.056
 3819SOL    HW212357   5.565   5.468   1.008
 3820SOL     OW12358   6.787   6.862   3.431
 3820SOL    HW112359   6.821   6.908   3.349
 3820SOL    HW212360   6.850   6.788   3.457
 3821SOL     OW12361   2.130   2.435   0.941
 3821SOL    HW112362   2.054   2.501   0.937
 3821SOL    HW212363   2.122   2.380   1.024
 3822SOL     OW12364   1.481   6.133   2.801
 3822SOL    HW112365   1.402   6.180   2.762
 3822SOL    HW212366   1.553   6.126   2.732
 3823SOL     OW12367   3.861   2.431   6.054
 3823SOL    HW112368   3.848   2.453   5.957
 3823SOL    HW212369   3.789   2.369   6.084
 3824SOL     OW12370   5.298   1.811   6.445
 3824SOL    HW112371   5.358   1.872   6.394
 3824SOL    HW212372   5.339   1.791   6.534
 3825SOL     OW12373   0.537   6.772   0.767
 3825SOL    HW112374   0.629   6.801   0.794
 3825SOL    HW212375   0.491   6.847   0.720
 3826SOL     OW12376   0.367   3.576   0.279
 3826SOL    HW112377   0.348   3.633   0.359
 3826SOL    HW212378   0.457   3.598   0.242
 3827SOL     OW12379   3.082   2.993   1.166
 3827SOL    HW112380   3.074   3.015   1.069
 3827SOL    HW212381   3.171   2.949   1.182
 3828SOL     OW12382   4.679   2.513   1.468
 3828SOL    HW112383   4.762   2.469   1.434
 3828SOL    HW212384   4.703   2.581   1.538
 3829SOL     OW12385   2.135   4.759   4.344
 3829SOL    HW112386   2.156   4.734   4.249
 3829SOL    HW212387   2.204   4.719   4.404
 3830SOL     OW12388   0.987   0.167   5.060
 3830SOL    HW112389   0.954   0.260   5.042
 3830SOL    HW212390   1.061   0.171   5.128
 3831SOL     OW12391   4.583   1.811   2.049
 3831SOL    HW112392   4.516   1.869   2.002
 3831SOL    HW212393   4.668   1.862   2.061
 3832SOL     OW12394   5.806   1.302   2.031
 3832SOL    HW112395   5.753   1.358   1.967
 3832SOL    HW212396   5.768   1.210   2.035
 3833SOL     OW12397   1.224   6.014   6.502
 3833SOL    HW112398   1.153   6.050   6.442
 3833SOL    HW212399   1.308   6.001   6.450
 3834SOL     OW12400   3.682   2.501   1.072
 3834SOL    HW112401   3.713   2.406   1.067
 3834SOL    HW212402   3.704   2.539   1.162
 3835SOL     OW12403   2.935   5.540   5.160
 3835SOL    HW112404   2.945   5.472   5.233
 3835SOL    HW212405   3.026   5.574   5.134
 3836SOL     OW12406   1.741   3.822   5.459
 3836SOL    HW112407   1.837   3.838   5.437
 3836SOL    HW212408   1.732   3.793   5.554
 3837SOL     OW12409   5.201   3.906   6.818
 3837SOL    HW112410   5.185   3.873   6.911
 3837SOL    HW212411   5.282   3.965   6.817
 3838SOL     OW12412   6.506   4.165   4.163
 3838SOL    HW112413   6.581   4.164   4.097
 3838SOL    HW212414   6.531   4.111   4.244
 3839SOL     OW12415   4.306   0.714   4.499
 3839SOL    HW112416   4.354   0.723   4.587
 3839SOL    HW212417   4.212   0.684   4.516
 3840SOL     OW12418   1.557   1.234   5.166
 3840SOL    HW112419   1.610   1.204   5.087
 3840SOL    HW212420   1.501   1.313   5.140
 3841SOL     OW12421   6.917   3.531   4.862
 3841SOL    HW112422   6.844   3.577   4.812
 3841SOL    HW212423   6.987   3.598   4.888
 3842SOL     OW12424   1.158   4.586   7.019
 3842SOL    HW112425   1.104   4.503   0.008
 3842SOL    HW212426   1.250   4.562   6.988
 3843SOL     OW12427   6.812   4.590   1.899
 3843SOL    HW112428   6.889   4.649   1.872
 3843SOL    HW212429   6.726   4.640   1.887
 3844SOL     OW12430   0.036   4.260   5.906
 3844SOL    HW112431   0.070   4.167   5.920
 3844SOL    HW212432   0.102   4.325   5.943
 3845SOL     OW12433   3.863   2.971   2.954
 3845SOL    HW112434   3.777   2.982   3.003
 3845SOL    HW212435   3.908   3.060   2.945
 3846SOL     OW12436   0.632   4.847   4.035
 3846SOL    HW112437   0.699   4.880   4.102
 3846SOL    HW212438   0.541   4.879   4.060
 3847SOL     OW12439   6.100   1.247   5.208
 3847SOL    HW112440   6.030   1.179   5.228
 3847SOL    HW212441   6.075   1.299   5.127
 3848SOL     OW12442   3.029   5.847   2.963
 3848SOL    HW112443   2.958   5.777   2.952
 3848SOL    HW212444   2.988   5.931   2.998
 3849SOL     OW12445   0.532   1.433   5.405
 3849SOL    HW112446   0.602   1.499   5.433
 3849SOL    HW212447   0.443   1.478   5.404
 3850SOL     OW12448   2.633   3.455   1.304
 3850SOL    HW112449   2.696   3.462   1.381
 3850SOL    HW212450   2.540   3.475   1.335
 3851SOL     OW12451   1.254   4.586   3.264
 3851SOL    HW112452   1.313   4.577   3.344
 3851SOL    HW212453   1.216   4.497   3.239
 3852SOL     OW12454   4.652   6.749   4.550
 3852SOL    HW112455   4.677   6.769   4.645
 3852SOL    HW212456   4.676   6.655   4.528
 3853SOL     OW12457   1.522   3.084   2.497
 3853SOL    HW112458   1.609   3.127   2.474
 3853SOL    HW212459   1.537   3.013   2.566
 3854SOL     OW12460   0.944   4.224   2.890
 3854SOL    HW112461   0.955   4.172   2.975
 3854SOL    HW212462   0.959   4.163   2.812
 3855SOL     OW12463   4.749   5.739   6.803
 3855SOL    HW112464   4.780   5.675   6.733
 3855SOL    HW212465   4.828   5.782   6.846
 3856SOL     OW12466   6.732   6.397   4.984
 3856SOL    HW112467   6.703   6.312   5.029
 3856SOL    HW212468   6.752   6.379   4.888
 3857SOL     OW12469   0.911   6.127   5.614
 3857SOL    HW112470   0.909   6.163   5.521
 3857SOL    HW212471   0.970   6.046   5.618
 3858SOL     OW12472   1.531   6.181   6.252
 3858SOL    HW112473   1.625   6.200   6.226
 3858SOL    HW212474   1.496   6.255   6.309
 3859SOL     OW12475   6.998   1.998   3.444
 3859SOL    HW112476   0.058   2.043   3.419
 3859SOL    HW212477   6.941   2.063   3.494
 3860SOL     OW12478   1.111   6.900   4.941
 3860SOL    HW112479   1.081   6.995   4.931
 3860SOL    HW212480   1.083   6.849   4.860
 3861SOL     OW12481   5.133   4.270   1.790
 3861SOL    HW112482   5.175   4.322   1.864
 3861SOL    HW212483   5.062   4.210   1.828
 3862SOL     OW12484   6.658   7.008   5.317
 3862SOL    HW112485   6.715   6.926   5.324
 3862SOL    HW212486   6.578   6.989   5.260
 3863SOL     OW12487   3.837   4.228   6.426
 3863SOL    HW112488   3.831   4.284   6.343
 3863SOL    HW212489   3.921   4.173   6.424
 3864SOL     OW12490   4.167   1.854   5.514
 3864SOL    HW112491   4.143   1.884   5.606
 3864SOL    HW212492   4.135   1.761   5.500
 3865SOL     OW12493   3.685   0.501   1.617
 3865SOL    HW112494   3.666   0.526   1.712
 3865SOL    HW212495   3.772   0.452   1.613
 3866SOL     OW12496   3.817   0.679   0.217
 3866SOL    HW112497   3.908   0.718   0.227
 3866SOL    HW212498   3.775   0.713   0.133
 3867SOL     OW12499   1.832   3.484   4.132
 3867SOL    HW112500   1.910   3.470   4.192
 3867SOL    HW212501   1.762   3.537   4.180
 3868SOL     OW12502   2.238   6.463   2.097
 3868SOL    HW112503   2.220   6.381   2.044
 3868SOL    HW212504   2.188   6.459   2.183
 3869SOL     OW12505   6.797   3.083   4.358
 3869SOL    HW112506   6.745   3.029   4.424
 3869SOL    HW212507   6.848   3.022   4.298
 3870SOL     OW12508   4.610   4.754   0.211
 3870SOL    HW112509   4.580   4.670   0.168
 3870SOL    HW212510   4.587   4.751   0.309
 3871SOL     OW12511   2.967   1.082   2.578
 3871SOL    HW112512   2.871   1.052   2.575
 3871SOL    HW212513   2.990   1.108   2.672
 3872SOL     OW12514   3.161   2.864   1.519
 3872SOL    HW112515   3.173   2.828   1.611
 3872SOL    HW212516   3.154   2.788   1.454
 3873SOL     OW12517   5.740   5.404   1.307
 3873SOL    HW112518   5.835   5.409   1.277
 3873SOL    HW212519   5.697   5.494   1.295
 3874SOL     OW12520   4.204   6.367   0.574
 3874SOL    HW112521   4.224   6.342   0.479
 3874SOL    HW212522   4.105   6.377   0.586
 3875SOL     OW12523   1.011   3.602   2.726
 3875SOL    HW112524   0.916   3.630   2.741
 3875SOL    HW212525   1.018   3.502   2.732
 3876SOL     OW12526   5.108   5.342   6.419
 3876SOL    HW112527   5.146   5.296   6.500
 3876SOL    HW212528   5.010   5.324   6.413
 3877SOL     OW12529   6.655   1.182   0.636
 3877SOL    HW112530   6.738   1.219   0.594
 3877SOL    HW212531   6.596   1.258   0.664
 3878SOL     OW12532   2.465   5.908   5.960
 3878SOL    HW112533   2.388   5.904   6.024
 3878SOL    HW212534   2.522   5.987   5.982
 3879SOL     OW12535   5.039   5.860   1.246
 3879SOL    HW112536   5.119   5.827   1.296
 3879SOL    HW212537   5.069   5.919   1.171
 3880SOL     OW12538   6.190   4.242   2.978
 3880SOL    HW112539   6.225   4.190   3.056
 3880SOL    HW212540   6.240   4.216   2.895
 3881SOL     OW12541   1.307   5.249   0.925
 3881SOL    HW112542   1.302   5.337   0.878
 3881SOL    HW212543   1.238   5.187   0.887
 3882SOL     OW12544   6.316   0.989   5.182
 3882SOL    HW112545   6.401   0.941   5.160
 3882SOL    HW212546   6.335   1.084   5.205
 3883SOL     OW12547   4.967   1.625   3.529
 3883SOL    HW112548   4.879   1.615   3.576
 3883SOL    HW212549   4.988   1.540   3.481
 3884SOL     OW12550   1.321   6.276   4.708
 3884SOL    HW112551   1.383   6.210   4.666
 3884SOL    HW212552   1.245   6.295   4.645
 3885SOL     OW12553   6.644   0.794   4.620
 3885SOL    HW112554   6.640   0.892   4.637
 3885SOL    HW212555   6.588   0.770   4.541
 3886SOL     OW12556   5.983   0.315   5.785
 3886SOL    HW112557   5.998   0.223   5.749
 3886SOL    HW212558   5.968   0.310   5.884
 3887SOL     OW12559   5.304   2.098   5.611
 3887SOL    HW112560   5.273   2.167   5.676
 3887SOL    HW212561   5.400   2.112   5.590
 3888SOL     OW12562   0.054   0.829   6.362
 3888SOL    HW112563   0.078   0.805   6.456
 3888SOL    HW212564   0.046   0.928   6.354
 3889SOL     OW12565   0.241   5.107   6.196
 3889SOL    HW112566   0.260   5.039   6.125
 3889SOL    HW212567   0.226   5.060   6.283
 3890SOL     OW12568   6.375   6.539   2.858
 3890SOL    HW112569   6.390   6.440   2.850
 3890SOL    HW212570   6.312   6.569   2.787
 3891SOL     OW12571   5.636   4.827   4.580
 3891SOL    HW112572   5.686   4.741   4.569
 3891SOL    HW212573   5.556   4.827   4.520
 3892SOL     OW12574   1.304   0.570   2.324
 3892SOL    HW112575   1.339   0.663   2.327
 3892SOL    HW212576   1.343   0.517   2.399
 3893SOL     OW12577   3.328   6.025   3.192
 3893SOL    HW112578   3.241   6.055   3.231
 3893SOL    HW212579   3.314   5.941   3.140
 3894SOL     OW12580   3.705   2.517   0.531
 3894SOL    HW112581   3.750   2.526   0.442
 3894SOL    HW212582   3.627   2.455   0.523
 3895SOL     OW12583   1.180   0.872   5.402
 3895SOL    HW112584   1.247   0.851   5.331
 3895SOL    HW212585   1.088   0.857   5.367
 3896SOL     OW12586   0.746   2.203   6.419
 3896SOL    HW112587   0.759   2.231   6.324
 3896SOL    HW212588   0.652   2.222   6.447
 3897SOL     OW12589   2.983   6.563   2.266
 3897SOL    HW112590   3.035   6.634   2.313
 3897SOL    HW212591   2.952   6.598   2.177
 3898SOL     OW12592   3.227   2.942   3.670
 3898SOL    HW112593   3.167   2.952   3.749
 3898SOL    HW212594   3.320   2.926   3.700
 3899SOL     OW12595   5.212   1.235   5.070
 3899SOL    HW112596   5.121   1.273   5.084
 3899SOL    HW212597   5.281   1.300   5.103
 3900SOL     OW12598   5.984   2.932   3.430
 3900SOL    HW112599   6.071   2.942   3.477
 3900SOL    HW212600   5.970   3.011   3.369
 3901SOL     OW12601   1.771   6.676   5.714
 3901SOL    HW112602   1.737   6.582   5.717
 3901SOL    HW212603   1.852   6.680   5.655
 3902SOL     OW12604   5.135   4.567   2.981
 3902SOL    HW112605   5.154   4.469   2.984
 3902SOL    HW212606   5.036   4.582   2.989
 3903SOL     OW12607   4.571   3.464   0.298
 3903SOL    HW112608   4.536   3.397   0.363
 3903SOL    HW212609   4.651   3.426   0.251
 3904SOL     OW12610   0.886   6.857   0.288
 3904SOL    HW112611   0.862   6.763   0.267
 3904SOL    HW212612   0.836   6.919   0.227
 3905SOL     OW12613   6.313   6.300   6.361
 3905SOL    HW112614   6.408   6.270   6.369
 3905SOL    HW212615   6.283   6.338   6.449
 3906SOL     OW12616   1.551   4.524   3.893
 3906SOL    HW112617   1.551   4.598   3.826
 3906SOL    HW212618   1.523   4.439   3.849
 3907SOL     OW12619   6.916   1.120   4.786
 3907SOL    HW112620   6.961   1.031   4.785
 3907SOL    HW212621   6.870   1.134   4.874
 3908SOL     OW12622   1.142   0.767   5.718
 3908SOL    HW112623   1.196   0.850   5.704
 3908SOL    HW212624   1.078   0.781   5.793
 3909SOL     OW12625   4.889   3.441   6.350
 3909SOL    HW112626   4.838   3.437   6.264
 3909SOL    HW212627   4.973   3.389   6.341
 3910SOL     OW12628   3.676   3.927   2.129
 3910SOL    HW112629   3.642   3.843   2.171
 3910SOL    HW212630   3.769   3.946   2.161
 3911SOL     OW12631   5.393   0.412   0.911
 3911SOL    HW112632   5.340   0.424   0.995
 3911SOL    HW212633   5.459   0.338   0.923
 3912SOL     OW12634   3.127   1.748   5.965
 3912SOL    HW112635   3.197   1.803   6.011
 3912SOL    HW212636   3.104   1.669   6.021
 3913SOL     OW12637   3.825   6.536   0.733
 3913SOL    HW112638   3.885   6.473   0.783
 3913SOL    HW212639   3.757   6.484   0.682
 3914SOL     OW12640   5.657   1.670   1.061
 3914SOL    HW112641   5.642   1.589   1.003
 3914SOL    HW212642   5.599   1.665   1.142
 3915SOL     OW12643   3.145   6.076   0.409
 3915SOL    HW112644   3.236   6.119   0.412
 3915SOL    HW212645   3.128   6.028   0.495
 3916SOL     OW12646   3.242   0.695   3.106
 3916SOL    HW112647   3.243   0.669   3.009
 3916SOL    HW212648   3.333   0.679   3.145
 3917SOL     OW12649   2.484   5.149   0.611
 3917SOL    HW112650   2.463   5.244   0.634
 3917SOL    HW212651   2.506   5.099   0.694
 3918SOL     OW12652   5.124   1.163   0.413
 3918SOL    HW112653   5.109   1.074   0.456
 3918SOL    HW212654   5.036   1.211   0.404
 3919SOL     OW12655   4.736   1.321   0.642
 3919SOL    HW112656   4.732   1.324   0.742
 3919SOL    HW212657   4.744   1.414   0.607
 3920SOL     OW12658   3.077   1.484   0.027
 3920SOL    HW112659   3.140   1.447   0.095
 3920SOL    HW212660   3.028   1.562   0.066
 3921SOL     OW12661   6.762   2.699   6.735
 3921SOL    HW112662   6.714   2.706   6.823
 3921SOL    HW212663   6.704   2.735   6.662
 3922SOL     OW12664   4.760   4.735   2.027
 3922SOL    HW112665   4.817   4.654   2.043
 3922SOL    HW212666   4.710   4.724   1.942
 3923SOL     OW12667   6.045   1.104   1.430
 3923SOL    HW112668   6.014   1.186   1.479
 3923SOL    HW212669   6.092   1.043   1.493
 3924SOL     OW12670   0.191   4.434   3.970
 3924SOL    HW112671   0.192   4.335   3.959
 3924SOL    HW212672   0.273   4.473   3.928
 3925SOL     OW12673   4.787   3.992   0.667
 3925SOL    HW112674   4.858   4.004   0.598
 3925SOL    HW212675   4.830   3.982   0.757
 3926SOL     OW12676   1.135   0.606   5.979
 3926SOL    HW112677   1.218   0.582   6.029
 3926SOL    HW212678   1.080   0.524   5.964
 3927SOL     OW12679   0.320   2.627   4.537
 3927SOL    HW112680   0.234   2.587   4.566
 3927SOL    HW212681   0.363   2.567   4.469
 3928SOL     OW12682   2.201   6.931   3.164
 3928SOL    HW112683   2.201   6.857   3.232
 3928SOL    HW212684   2.208   7.019   3.211
 3929SOL     OW12685   6.795   1.857   5.674
 3929SOL    HW112686   6.705   1.889   5.647
 3929SOL    HW212687   6.844   1.823   5.594
 3930SOL     OW12688   1.474   2.374   3.548
 3930SOL    HW112689   1.400   2.318   3.585
 3930SOL    HW212690   1.501   2.444   3.614
 3931SOL     OW12691   1.620   1.998   1.985
 3931SOL    HW112692   1.681   2.049   2.046
 3931SOL    HW212693   1.591   1.914   2.030
 3932SOL     OW12694   1.946   5.513   3.781
 3932SOL    HW112695   1.901   5.456   3.850
 3932SOL    HW212696   1.927   5.609   3.801
 3933SOL     OW12697   1.648   5.428   0.474
 3933SOL    HW112698   1.621   5.434   0.378
 3933SOL    HW212699   1.737   5.470   0.487
 3934SOL     OW12700   0.741   1.523   2.437
 3934SOL    HW112701   0.803   1.588   2.481
 3934SOL    HW212702   0.659   1.513   2.493
 3935SOL     OW12703   5.990   3.205   6.200
 3935SOL    HW112704   5.957   3.186   6.293
 3935SOL    HW212705   5.961   3.297   6.173
 3936SOL     OW12706   6.559   5.760   5.083
 3936SOL    HW112707   6.476   5.803   5.048
 3936SOL    HW212708   6.600   5.704   5.010
 3937SOL     OW12709   0.401   5.243   2.736
 3937SOL    HW112710   0.425   5.340   2.743
 3937SOL    HW212711   0.373   5.209   2.826
 3938SOL     OW12712   6.860   3.955   4.512
 3938SOL    HW112713   6.895   3.864   4.493
 3938SOL    HW212714   6.921   4.024   4.474
 3939SOL     OW12715   0.898   1.246   2.014
 3939SOL    HW112716   0.968   1.291   2.070
 3939SOL    HW212717   0.880   1.302   1.933
 3940SOL     OW12718   2.876   4.778   1.770
 3940SOL    HW112719   2.780   4.793   1.748
 3940SOL    HW212720   2.885   4.701   1.833
 3941SOL     OW12721   6.072   7.009   4.134
 3941SOL    HW112722   6.122   0.050   4.187
 3941SOL    HW212723   6.023   0.028   4.059
 3942SOL     OW12724   1.142   6.689   6.297
 3942SOL    HW112725   1.146   6.620   6.370
 3942SOL    HW212726   1.048   6.698   6.264
 3943SOL     OW12727   0.655   3.941   1.682
 3943SOL    HW112728   0.658   4.038   1.660
 3943SOL    HW212729   0.572   3.921   1.733
 3944SOL     OW12730   6.172   3.136   6.541
 3944SOL    HW112731   6.261   3.165   6.505
 3944SOL    HW212732   6.127   3.078   6.473
 3945SOL     OW12733   0.943   2.127   3.561
 3945SOL    HW112734   0.998   2.112   3.478
 3945SOL    HW212735   0.848   2.104   3.542
 3946SOL     OW12736   6.856   3.723   0.702
 3946SOL    HW112737   6.806   3.640   0.729
 3946SOL    HW212738   6.805   3.803   0.733
 3947SOL     OW12739   5.806   6.271   0.611
 3947SOL    HW112740   5.752   6.354   0.626
 3947SOL    HW212741   5.889   6.294   0.559
 3948SOL     OW12742   2.148   2.716   6.316
 3948SOL    HW112743   2.061   2.723   6.366
 3948SOL    HW212744   2.146   2.637   6.256
 3949SOL     OW12745   6.244   6.568   2.607
 3949SOL    HW112746   6.327   6.549   2.555
 3949SOL    HW212747   6.172   6.599   2.544
 3950SOL     OW12748   4.189   4.378   1.722
 3950SOL    HW112749   4.256   4.304   1.711
 3950SOL    HW212750   4.214   4.436   1.799
 3951SOL     OW12751   0.274   2.337   5.447
 3951SOL    HW112752   0.328   2.311   5.367
 3951SOL    HW212753   0.180   2.358   5.419
 3952SOL     OW12754   5.483   2.269   4.940
 3952SOL    HW112755   5.407   2.225   4.989
 3952SOL    HW212756   5.518   2.206   4.870
 3953SOL     OW12757   2.977   3.798   5.986
 3953SOL    HW112758   2.977   3.856   5.905
 3953SOL    HW212759   2.948   3.852   6.065
 3954SOL     OW12760   0.094   3.865   5.276
 3954SOL    HW112761   0.098   3.771   5.243
 3954SOL    HW212762   0.050   3.867   5.365
 3955SOL     OW12763   5.403   6.192   0.176
 3955SOL    HW112764   5.419   6.234   0.266
 3955SOL    HW212765   5.434   6.255   0.105
 3956SOL     OW12766   0.814   2.582   5.766
 3956SOL    HW112767   0.822   2.586   5.865
 3956SOL    HW212768   0.767   2.664   5.733
 3957SOL     OW12769   3.104   6.970   3.719
 3957SOL    HW112770   3.137   0.038   3.713
 3957SOL    HW212771   3.180   6.907   3.701
 3958SOL     OW12772   6.623   5.905   0.120
 3958SOL    HW112773   6.536   5.953   0.131
 3958SOL    HW212774   6.681   5.955   0.056
 3959SOL     OW12775   2.682   5.699   0.874
 3959SOL    HW112776   2.686   5.732   0.780
 3959SOL    HW212777   2.587   5.700   0.905
 3960SOL     OW12778   4.442   2.597   6.969
 3960SOL    HW112779   4.503   2.616   6.892
 3960SOL    HW212780   4.473   2.648   0.023
 3961SOL     OW12781   5.060   1.700   2.184
 3961SOL    HW112782   4.990   1.635   2.215
 3961SOL    HW212783   5.137   1.650   2.146
 3962SOL     OW12784   1.145   6.328   0.251
 3962SOL    HW112785   1.240   6.311   0.224
 3962SOL    HW212786   1.114   6.414   0.210
 3963SOL     OW12787   5.092   5.663   3.642
 3963SOL    HW112788   5.162   5.592   3.632
 3963SOL    HW212789   5.003   5.621   3.658
 3964SOL     OW12790   5.400   6.019   5.217
 3964SOL    HW112791   5.334   6.092   5.198
 3964SOL    HW212792   5.480   6.030   5.158
 3965SOL     OW12793   3.822   5.159   6.709
 3965SOL    HW112794   3.918   5.186   6.719
 3965SOL    HW212795   3.767   5.239   6.685
 3966SOL     OW12796   6.034   4.848   6.096
 3966SOL    HW112797   5.985   4.765   6.124
 3966SOL    HW212798   6.132   4.835   6.112
 3967SOL     OW12799   0.435   5.612   4.729
 3967SOL    HW112800   0.469   5.620   4.823
 3967SOL    HW212801   0.503   5.563   4.674
 3968SOL     OW12802   4.859   0.305   2.695
 3968SOL    HW112803   4.873   0.379   2.629
 3968SOL    HW212804   4.918   0.228   2.672
 3969SOL     OW12805   1.390   4.882   2.945
 3969SOL    HW112806   1.467   4.889   3.008
 3969SOL    HW212807   1.368   4.973   2.910
 3970SOL     OW12808   4.734   4.912   4.025
 3970SOL    HW112809   4.689   4.880   3.942
 3970SOL    HW212810   4.703   5.004   4.047
 3971SOL     OW12811   2.734   5.473   3.508
 3971SOL    HW112812   2.691   5.409   3.571
 3971SOL    HW212813   2.829   5.444   3.492
 3972SOL     OW12814   0.554   6.529   0.467
 3972SOL    HW112815   0.646   6.538   0.503
 3972SOL    HW212816   0.489   6.517   0.542
 3973SOL     OW12817   3.196   3.564   4.492
 3973SOL    HW112818   3.270   3.628   4.474
 3973SOL    HW212819   3.145   3.547   4.407
 3974SOL     OW12820   0.250   1.403   5.896
 3974SOL    HW112821   0.262   1.312   5.857
 3974SOL    HW212822   0.220   1.466   5.824
 3975SOL     OW12823   6.603   1.006   6.367
 3975SOL    HW112824   6.521   0.970   6.324
 3975SOL    HW212825   6.680   0.944   6.348
 3976SOL     OW12826   0.767   4.446   0.795
 3976SOL    HW112827   0.764   4.438   0.895
 3976SOL    HW212828   0.717   4.528   0.766
 3977SOL     OW12829   2.256   5.906   6.156
 3977SOL    HW112830   2.292   5.829   6.210
 3977SOL    HW212831   2.162   5.925   6.184
 3978SOL     OW12832   5.744   1.529   5.596
 3978SOL    HW112833   5.837   1.566   5.586
 3978SOL    HW212834   5.677   1.602   5.580
 3979SOL     OW12835   1.454   7.020   1.770
 3979SOL    HW112836   1.483   6.953   1.702
 3979SOL    HW212837   1.455   0.085   1.731
 3980SOL     OW12838   5.472   3.211   4.574
 3980SOL    HW112839   5.400   3.279   4.560
 3980SOL    HW212840   5.490   3.201   4.672
 3981SOL     OW12841   0.218   1.980   6.435
 3981SOL    HW112842   0.137   1.944   6.389
 3981SOL    HW212843   0.240   2.070   6.398
 3982SOL     OW12844   1.839   0.950   4.450
 3982SOL    HW112845   1.874   0.974   4.360
 3982SOL    HW212846   1.784   0.867   4.444
 3983SOL     OW12847   3.241   0.108   4.638
 3983SOL    HW112848   3.179   0.076   4.566
 3983SOL    HW212849   3.333   0.074   4.620
 3984SOL     OW12850   1.604   6.659   1.839
 3984SOL    HW112851   1.518   6.639   1.885
 3984SOL    HW212852   1.678   6.662   1.907
 3985SOL     OW12853   1.146   4.044   0.055
 3985SOL    HW112854   1.208   3.973   0.089
 3985SOL    HW212855   1.052   4.011   0.063
 3986SOL     OW12856   0.297   2.162   1.402
 3986SOL    HW112857   0.219   2.113   1.362
 3986SOL    HW212858   0.336   2.223   1.333
 3987SOL     OW12859   1.848   5.643   5.249
 3987SOL    HW112860   1.890   5.693   5.173
 3987SOL    HW212861   1.919   5.607   5.309
 3988SOL     OW12862   4.063   1.733   6.344
 3988SOL    HW112863   4.154   1.766   6.321
 3988SOL    HW212864   3.994   1.797   6.309
 3989SOL     OW12865   6.242   0.058   6.539
 3989SOL    HW112866   6.225   0.066   6.441
 3989SOL    HW212867   6.155   0.048   6.588
 3990SOL     OW12868   0.069   2.538   4.680
 3990SOL    HW112869   7.016   2.485   4.708
 3990SOL    HW212870   0.048   2.636   4.684
 3991SOL     OW12871   0.552   2.219   3.660
 3991SOL    HW112872   0.590   2.133   3.694
 3991SOL    HW212873   0.615   2.261   3.595
 3992SOL     OW12874   4.127   3.268   6.652
 3992SOL    HW112875   4.090   3.182   6.689
 3992SOL    HW212876   4.226   3.269   6.665
 3993SOL     OW12877   2.896   2.023   2.567
 3993SOL    HW112878   2.812   2.063   2.604
 3993SOL    HW212879   2.944   2.091   2.512
 3994SOL     OW12880   2.583   2.579   4.855
 3994SOL    HW112881   2.642   2.593   4.775
 3994SOL    HW212882   2.530   2.662   4.872
 3995SOL     OW12883   2.141   3.894   3.384
 3995SOL    HW112884   2.146   3.872   3.482
 3995SOL    HW212885   2.207   3.967   3.363
 3996SOL     OW12886   0.776   1.332   4.089
 3996SOL    HW112887   0.694   1.337   4.031
 3996SOL    HW212888   0.845   1.394   4.053
 3997SOL     OW12889   4.976   3.443   3.080
 3997SOL    HW112890   5.073   3.432   3.056
 3997SOL    HW212891   4.931   3.354   3.074
 3998SOL     OW12892   6.172   1.849   2.639
 3998SOL    HW112893   6.098   1.853   2.572
 3998SOL    HW212894   6.256   1.818   2.595
 3999SOL     OW12895   5.679   4.214   3.352
 3999SOL    HW112896   5.688   4.178   3.445
 3999SOL    HW212897   5.769   4.216   3.309
 4000SOL     OW12898   3.100   6.153   2.648
 4000SOL    HW112899   3.159   6.097   2.589
 4000SOL    HW212900   3.004   6.137   2.624
 4001SOL     OW12901   2.513   4.180   6.048
 4001SOL    HW112902   2.477   4.263   6.006
 4001SOL    HW212903   2.555   4.122   5.978
 4002SOL     OW12904   3.869   3.389   5.017
 4002SOL    HW112905   3.944   3.384   4.951
 4002SOL    HW212906   3.905   3.375   5.109
 4003SOL     OW12907   2.423   1.126   6.189
 4003SOL    HW112908   2.480   1.071   6.249
 4003SOL    HW212909   2.372   1.193   6.243
 4004SOL     OW12910   6.408   3.846   3.245
 4004SOL    HW112911   6.346   3.789   3.298
 4004SOL    HW212912   6.495   3.855   3.294
 4005SOL     OW12913   3.808   4.487   1.180
 4005SOL    HW112914   3.868   4.448   1.110
 4005SOL    HW212915   3.801   4.585   1.167
 4006SOL     OW12916   5.501   4.683   1.969
 4006SOL    HW112917   5.447   4.696   1.886
 4006SOL    HW212918   5.597   4.704   1.949
 4007SOL     OW12919   0.054   1.890   3.731
 4007SOL    HW112920   6.992   1.923   3.699
 4007SOL    HW212921   0.088   1.949   3.804
 4008SOL     OW12922   2.892   6.631   0.274
 4008SOL    HW112923   2.951   6.613   0.195
 4008SOL    HW212924   2.923   6.715   0.320
 4009SOL     OW12925   5.109   2.020   1.051
 4009SOL    HW112926   5.051   2.082   1.104
 4009SOL    HW212927   5.054   1.974   0.981
 4010SOL     OW12928   3.182   3.571   1.498
 4010SOL    HW112929   3.175   3.482   1.455
 4010SOL    HW212930   3.199   3.560   1.596
 4011SOL     OW12931   6.543   6.205   1.558
 4011SOL    HW112932   6.579   6.283   1.609
 4011SOL    HW212933   6.616   6.139   1.540
 4012SOL     OW12934   3.667   6.652   2.419
 4012SOL    HW112935   3.573   6.621   2.406
 4012SOL    HW212936   3.699   6.700   2.337
 4013SOL     OW12937   1.748   0.264   1.450
 4013SOL    HW112938   1.705   0.250   1.361
 4013SOL    HW212939   1.846   0.247   1.442
 4014SOL     OW12940   3.998   6.357   3.898
 4014SOL    HW112941   3.990   6.317   3.990
 4014SOL    HW212942   3.932   6.315   3.837
 4015SOL     OW12943   4.269   4.704   6.359
 4015SOL    HW112944   4.250   4.795   6.395
 4015SOL    HW212945   4.348   4.665   6.406
 4016SOL     OW12946   2.773   5.303   0.331
 4016SOL    HW112947   2.712   5.227   0.311
 4016SOL    HW212948   2.864   5.268   0.356
 4017SOL     OW12949   0.073   4.845   5.072
 4017SOL    HW112950   7.020   4.843   5.012
 4017SOL    HW212951   0.138   4.775   5.044
 4018SOL     OW12952   4.052   6.897   1.491
 4018SOL    HW112953   4.027   6.827   1.424
 4018SOL    HW212954   3.970   6.926   1.541
 4019SOL     OW12955   5.644   4.003   2.664
 4019SOL    HW112956   5.588   4.051   2.731
 4019SOL    HW212957   5.735   3.987   2.701
 4020SOL     OW12958   6.875   3.192   5.695
 4020SOL    HW112959   6.844   3.112   5.643
 4020SOL    HW212960   6.936   3.163   5.768
 4021SOL     OW12961   3.725   4.053   5.288
 4021SOL    HW112962   3.808   4.060   5.232
 4021SOL    HW212963   3.645   4.061   5.230
 4022SOL     OW12964   4.062   6.109   0.358
 4022SOL    HW112965   4.073   6.076   0.452
 4022SOL    HW212966   4.116   6.192   0.345
 4023SOL     OW12967   0.041   1.098   6.318
 4023SOL    HW112968   7.015   1.169   6.270
 4023SOL    HW212969   0.115   1.141   6.370
 4024SOL     OW12970   2.498   4.973   4.611
 4024SOL    HW112971   2.577   5.026   4.581
 4024SOL    HW212972   2.522   4.876   4.613
 4025SOL     OW12973   0.476   6.510   4.576
 4025SOL    HW112974   0.385   6.551   4.571
 4025SOL    HW212975   0.471   6.422   4.624
 4026SOL     OW12976   6.471   6.366   4.280
 4026SOL    HW112977   6.439   6.319   4.362
 4026SOL    HW212978   6.396   6.418   4.239
 4027SOL     OW12979   2.895   2.104   7.015
 4027SOL    HW112980   2.922   2.168   6.943
 4027SOL    HW212981   2.953   2.118   0.069
 4028SOL     OW12982   4.477   1.732   3.451
 4028SOL    HW112983   4.444   1.659   3.392
 4028SOL    HW212984   4.453   1.712   3.546
 4029SOL     OW12985   3.058   4.267   5.699
 4029SOL    HW112986   2.985   4.309   5.754
 4029SOL    HW212987   3.118   4.214   5.759
 4030SOL     OW12988   6.295   0.883   1.993
 4030SOL    HW112989   6.364   0.936   2.044
 4030SOL    HW212990   6.339   0.802   1.953
 4031SOL     OW12991   4.860   6.305   3.264
 4031SOL    HW112992   4.932   6.239   3.283
 4031SOL    HW212993   4.776   6.257   3.239
 4032SOL     OW12994   0.082   6.958   2.691
 4032SOL    HW112995   0.177   6.927   2.695
 4032SOL    HW212996   0.044   6.939   2.600
 4033SOL     OW12997   1.494   2.685   1.749
 4033SOL    HW112998   1.497   2.651   1.843
 4033SOL    HW212999   1.411   2.739   1.735
 4034SOL     OW13000   5.647   1.988   5.179
 4034SOL    HW113001   5.726   2.026   5.132
 4034SOL    HW213002   5.673   1.903   5.225
 4035SOL     OW13003   6.281   1.208   0.572
 4035SOL    HW113004   6.283   1.183   0.669
 4035SOL    HW213005   6.261   1.127   0.517
 4036SOL     OW13006   4.218   4.788   2.389
 4036SOL    HW113007   4.194   4.759   2.482
 4036SOL    HW213008   4.307   4.750   2.364
 4037SOL     OW13009   2.065   1.162   6.246
 4037SOL    HW113010   2.126   1.242   6.253
 4037SOL    HW213011   1.974   1.192   6.218
 4038SOL     OW13012   4.468   3.179   0.935
 4038SOL    HW113013   4.468   3.094   0.988
 4038SOL    HW213014   4.528   3.246   0.980
 4039SOL     OW13015   4.909   5.404   1.699
 4039SOL    HW113016   4.873   5.429   1.609
 4039SOL    HW213017   4.863   5.322   1.732
 4040SOL     OW13018   3.052   6.640   5.114
 4040SOL    HW113019   3.145   6.604   5.128
 4040SOL    HW213020   3.028   6.700   5.191
 4041SOL     OW13021   1.625   5.041   0.787
 4041SOL    HW113022   1.591   5.067   0.877
 4041SOL    HW213023   1.571   5.086   0.716
 4042SOL     OW13024   6.306   6.011   4.099
 4042SOL    HW113025   6.268   6.050   4.182
 4042SOL    HW213026   6.388   6.062   4.073
 4043SOL     OW13027   6.827   1.966   6.091
 4043SOL    HW113028   6.762   1.999   6.022
 4043SOL    HW213029   6.833   1.867   6.086
 4044SOL     OW13030   5.145   6.129   3.801
 4044SOL    HW113031   5.123   6.051   3.741
 4044SOL    HW213032   5.060   6.164   3.842
 4045SOL     OW13033   3.924   6.077   6.204
 4045SOL    HW113034   3.886   6.053   6.115
 4045SOL    HW213035   3.852   6.078   6.273
 4046SOL     OW13036   1.054   2.149   3.296
 4046SOL    HW113037   1.147   2.188   3.300
 4046SOL    HW213038   1.009   2.180   3.213
 4047SOL     OW13039   2.673   2.058   6.849
 4047SOL    HW113040   2.757   2.095   6.889
 4047SOL    HW213041   2.599   2.062   6.917
 4048SOL     OW13042   5.078   1.180   1.385
 4048SOL    HW113043   5.141   1.139   1.451
 4048SOL    HW213044   5.121   1.181   1.295
 4049SOL     OW13045   5.272   5.133   6.545
 4049SOL    HW113046   5.358   5.158   6.589
 4049SOL    HW213047   5.291   5.079   6.463
 4050SOL     OW13048   0.879   6.289   2.283
 4050SOL    HW113049   0.948   6.259   2.217
 4050SOL    HW213050   0.919   6.356   2.345
 4051SOL     OW13051   3.811   1.515   6.410
 4051SOL    HW113052   3.861   1.455   6.474
 4051SOL    HW213053   3.849   1.504   6.318
 4052SOL     OW13054   6.008   1.324   2.819
 4052SOL    HW113055   6.066   1.398   2.852
 4052SOL    HW213056   6.007   1.324   2.719
 4053SOL     OW13057   3.027   7.022   4.488
 4053SOL    HW113058   2.974   6.994   4.569
 4053SOL    HW213059   3.071   6.942   4.448
 4054SOL     OW13060   5.280   4.323   1.239
 4054SOL    HW113061   5.333   4.249   1.199
 4054SOL    HW213062   5.204   4.285   1.292
 4055SOL     OW13063   3.098   3.766   0.646
 4055SOL    HW113064   3.047   3.796   0.728
 4055SOL    HW213065   3.105   3.843   0.582
 4056SOL     OW13066   5.716   3.939   0.800
 4056SOL    HW113067   5.619   3.934   0.826
 4056SOL    HW213068   5.735   3.871   0.730
 4057SOL     OW13069   0.079   2.654   0.643
 4057SOL    HW113070   0.108   2.616   0.730
 4057SOL    HW213071   0.154   2.708   0.604
 4058SOL     OW13072   2.742   6.384   4.859
 4058SOL    HW113073   2.725   6.321   4.936
 4058SOL    HW213074   2.666   6.378   4.794
 4059SOL     OW13075   0.963   1.752   2.378
 4059SOL    HW113076   1.057   1.729   2.404
 4059SOL    HW213077   0.961   1.787   2.285
 4060SOL     OW13078   5.248   5.338   5.401
 4060SOL    HW113079   5.195   5.254   5.397
 4060SOL    HW213080   5.210   5.399   5.471
 4061SOL     OW13081   2.111   4.703   2.326
 4061SOL    HW113082   2.105   4.789   2.377
 4061SOL    HW213083   2.020   4.667   2.310
 4062SOL     OW13084   2.635   0.565   1.853
 4062SOL    HW113085   2.591   0.651   1.826
 4062SOL    HW213086   2.614   0.495   1.786
 4063SOL     OW13087   6.349   6.463   0.249
 4063SOL    HW113088   6.344   6.444   0.347
 4063SOL    HW213089   6.314   6.384   0.198
 4064SOL     OW13090   2.405   0.531   3.969
 4064SOL    HW113091   2.330   0.470   3.993
 4064SOL    HW213092   2.402   0.550   3.871
 4065SOL     OW13093   1.166   6.350   1.415
 4065SOL    HW113094   1.234   6.332   1.487
 4065SOL    HW213095   1.191   6.300   1.332
 4066SOL     OW13096   6.665   4.419   3.080
 4066SOL    HW113097   6.665   4.319   3.082
 4066SOL    HW213098   6.695   4.450   2.990
 4067SOL     OW13099   6.113   3.244   2.956
 4067SOL    HW113100   6.188   3.308   2.939
 4067SOL    HW213101   6.034   3.270   2.901
 4068SOL     OW13102   1.534   0.917   4.961
 4068SOL    HW113103   1.600   0.966   5.018
 4068SOL    HW213104   1.543   0.819   4.977
 4069SOL     OW13105   3.228   5.413   6.705
 4069SOL    HW113106   3.282   5.421   6.621
 4069SOL    HW213107   3.221   5.503   6.748
 4070SOL     OW13108   0.450   2.618   2.667
 4070SOL    HW113109   0.445   2.690   2.597
 4070SOL    HW213110   0.439   2.659   2.757
 4071SOL     OW13111   0.893   1.604   5.474
 4071SOL    HW113112   0.841   1.610   5.388
 4071SOL    HW213113   0.928   1.694   5.498
 4072SOL     OW13114   1.084   5.500   4.687
 4072SOL    HW113115   1.020   5.563   4.643
 4072SOL    HW213116   1.054   5.406   4.671
 4073SOL     OW13117   2.930   6.655   6.670
 4073SOL    HW113118   2.996   6.617   6.735
 4073SOL    HW213119   2.914   6.751   6.693
 4074SOL     OW13120   6.955   3.901   1.465
 4074SOL    HW113121   0.012   3.943   1.431
 4074SOL    HW213122   6.937   3.817   1.414
 4075SOL     OW13123   4.667   1.857   1.477
 4075SOL    HW113124   4.664   1.836   1.574
 4075SOL    HW213125   4.597   1.924   1.455
 4076SOL     OW13126   2.893   3.227   5.961
 4076SOL    HW113127   2.909   3.234   5.863
 4076SOL    HW213128   2.861   3.135   5.983
 4077SOL     OW13129   3.754   1.395   6.849
 4077SOL    HW113130   3.845   1.382   6.890
 4077SOL    HW213131   3.722   1.309   6.811
 4078SOL     OW13132   0.274   5.336   1.325
 4078SOL    HW113133   0.229   5.252   1.294
 4078SOL    HW213134   0.204   5.407   1.339
 4079SOL     OW13135   1.882   0.897   3.468
 4079SOL    HW113136   1.806   0.846   3.428
 4079SOL    HW213137   1.956   0.835   3.491
 4080SOL     OW13138   4.265   4.150   6.267
 4080SOL    HW113139   4.286   4.248   6.266
 4080SOL    HW213140   4.167   4.137   6.256
 4081SOL     OW13141   2.180   3.015   4.271
 4081SOL    HW113142   2.156   3.108   4.297
 4081SOL    HW213143   2.199   2.961   4.354
 4082SOL     OW13144   0.743   3.767   0.361
 4082SOL    HW113145   0.767   3.755   0.265
 4082SOL    HW213146   0.687   3.690   0.391
 4083SOL     OW13147   6.831   3.201   1.999
 4083SOL    HW113148   6.825   3.110   2.038
 4083SOL    HW213149   6.775   3.265   2.053
 4084SOL     OW13150   5.706   2.174   3.768
 4084SOL    HW113151   5.678   2.096   3.711
 4084SOL    HW213152   5.706   2.147   3.864
 4085SOL     OW13153   2.998   5.793   1.922
 4085SOL    HW113154   2.949   5.837   1.998
 4085SOL    HW213155   3.003   5.857   1.845
 4086SOL     OW13156   1.623   5.706   1.854
 4086SOL    HW113157   1.644   5.795   1.894
 4086SOL    HW213158   1.524   5.699   1.837
 4087SOL     OW13159   1.868   1.707   3.509
 4087SOL    HW113160   1.841   1.800   3.483
 4087SOL    HW213161   1.905   1.660   3.429
 4088SOL     OW13162   0.014   1.429   0.249
 4088SOL    HW113163   6.979   1.380   0.310
 4088SOL    HW213164   0.024   1.379   0.164
 4089SOL     OW13165   5.920   6.445   4.224
 4089SOL    HW113166   5.961   6.536   4.228
 4089SOL    HW213167   5.882   6.430   4.132
 4090SOL     OW13168   1.199   4.536   6.049
 4090SOL    HW113169   1.253   4.484   5.983
 4090SOL    HW213170   1.237   4.628   6.058
 4091SOL     OW13171   0.262   6.335   0.118
 4091SOL    HW113172   0.321   6.338   0.199
 4091SOL    HW213173   0.218   6.246   0.112
 4092SOL     OW13174   6.629   2.330   5.820
 4092SOL    HW113175   6.533   2.341   5.793
 4092SOL    HW213176   6.680   2.413   5.797
 4093SOL     OW13177   4.700   0.113   2.575
 4093SOL    HW113178   4.735   0.178   2.642
 4093SOL    HW213179   4.767   0.101   2.501
 4094SOL     OW13180   2.555   5.792   4.457
 4094SOL    HW113181   2.608   5.713   4.427
 4094SOL    HW213182   2.462   5.787   4.420
 4095SOL     OW13183   0.518   4.066   0.209
 4095SOL    HW113184   0.546   4.033   0.299
 4095SOL    HW213185   0.533   4.165   0.204
 4096SOL     OW13186   4.614   6.008   6.167
 4096SOL    HW113187   4.580   5.935   6.106
 4096SOL    HW213188   4.663   6.076   6.112
 4097SOL     OW13189   3.468   4.926   5.319
 4097SOL    HW113190   3.409   4.850   5.290
 4097SOL    HW213191   3.420   5.012   5.305
 4098SOL     OW13192   0.633   2.962   1.606
 4098SOL    HW113193   0.648   3.060   1.621
 4098SOL    HW213194   0.627   2.916   1.695
 4099SOL     OW13195   2.583   4.817   1.591
 4099SOL    HW113196   2.494   4.828   1.546
 4099SOL    HW213197   2.580   4.737   1.651
 4100SOL     OW13198   6.698   5.751   4.353
 4100SOL    HW113199   6.636   5.692   4.301
 4100SOL    HW213200   6.782   5.765   4.301
 4101SOL     OW13201   6.252   0.913   0.144
 4101SOL    HW113202   6.346   0.900   0.113
 4101SOL    HW213203   6.213   0.824   0.169
 4102SOL     OW13204   6.589   0.458   1.085
 4102SOL    HW113205   6.576   0.363   1.113
 4102SOL    HW213206   6.554   0.471   0.992
 4103SOL     OW13207   0.255   0.785   0.334
 4103SOL    HW113208   0.237   0.827   0.423
 4103SOL    HW213209   0.352   0.794   0.312
 4104SOL     OW13210   0.755   4.572   2.402
 4104SOL    HW113211   0.666   4.529   2.389
 4104SOL    HW213212   0.820   4.504   2.437
 4105SOL     OW13213   4.480   6.890   1.391
 4105SOL    HW113214   4.557   6.954   1.394
 4105SOL    HW213215   4.447   6.882   1.297
 4106SOL     OW13216   6.647   2.649   3.418
 4106SOL    HW113217   6.668   2.605   3.331
 4106SOL    HW213218   6.706   2.612   3.490
 4107SOL     OW13219   1.039   5.739   1.531
 4107SOL    HW113220   1.096   5.780   1.460
 4107SOL    HW213221   1.016   5.808   1.599
 4108SOL     OW13222   6.128   4.503   5.175
 4108SOL    HW113223   6.072   4.585   5.167
 4108SOL    HW213224   6.098   4.450   5.254
 4109SOL     OW13225   5.845   0.006   5.472
 4109SOL    HW113226   5.801   6.945   5.451
 4109SOL    HW213227   5.895   0.038   5.391
 4110SOL     OW13228   4.269   3.851   6.383
 4110SOL    HW113229   4.232   3.938   6.350
 4110SOL    HW213230   4.220   3.775   6.341
 4111SOL     OW13231   3.858   3.665   6.887
 4111SOL    HW113232   3.901   3.588   6.839
 4111SOL    HW213233   3.865   3.650   6.986
 4112SOL     OW13234   5.007   6.859   5.348
 4112SOL    HW113235   4.937   6.832   5.282
 4112SOL    HW213236   5.053   6.942   5.316
 4113SOL     OW13237   4.942   6.267   4.517
 4113SOL    HW113238   4.963   6.315   4.431
 4113SOL    HW213239   5.008   6.294   4.587
 4114SOL     OW13240   3.281   2.129   4.243
 4114SOL    HW113241   3.373   2.137   4.280
 4114SOL    HW213242   3.216   2.170   4.307
 4115SOL     OW13243   3.711   4.905   2.339
 4115SOL    HW113244   3.780   4.862   2.281
 4115SOL    HW213245   3.646   4.956   2.282
 4116SOL     OW13246   3.770   1.883   1.903
 4116SOL    HW113247   3.703   1.869   1.830
 4116SOL    HW213248   3.724   1.923   1.983
 4117SOL     OW13249   1.115   4.579   2.291
 4117SOL    HW113250   1.140   4.631   2.373
 4117SOL    HW213251   1.158   4.620   2.211
 4118SOL     OW13252   2.757   6.570   0.800
 4118SOL    HW113253   2.698   6.523   0.865
 4118SOL    HW213254   2.786   6.505   0.729
 4119SOL     OW13255   3.553   1.947   4.074
 4119SOL    HW113256   3.549   1.853   4.107
 4119SOL    HW213257   3.461   1.984   4.067
 4120SOL     OW13258   3.740   6.807   0.440
 4120SOL    HW113259   3.833   6.842   0.431
 4120SOL    HW213260   3.675   6.883   0.429
 4121SOL     OW13261   6.362   0.661   5.134
 4121SOL    HW113262   6.397   0.596   5.067
 4121SOL    HW213263   6.303   0.612   5.200
 4122SOL     OW13264   0.814   5.502   5.236
 4122SOL    HW113265   0.830   5.461   5.146
 4122SOL    HW213266   0.902   5.523   5.279
 4123SOL     OW13267   4.170   4.777   5.723
 4123SOL    HW113268   4.218   4.755   5.638
 4123SOL    HW213269   4.172   4.875   5.738
 4124SOL     OW13270   5.710   5.124   6.810
 4124SOL    HW113271   5.634   5.113   6.747
 4124SOL    HW213272   5.747   5.217   6.803
 4125SOL     OW13273   4.638   1.520   2.359
 4125SOL    HW113274   4.626   1.561   2.450
 4125SOL    HW213275   4.656   1.422   2.369
 4126SOL     OW13276   1.495   3.647   4.573
 4126SOL    HW113277   1.429   3.603   4.511
 4126SOL    HW213278   1.482   3.610   4.665
 4127SOL     OW13279   4.379   4.726   4.449
 4127SOL    HW113280   4.328   4.692   4.528
 4127SOL    HW213281   4.415   4.817   4.468
 4128SOL     OW13282   1.792   3.147   1.894
 4128SOL    HW113283   1.881   3.129   1.851
 4128SOL    HW213284   1.768   3.243   1.881
 4129SOL     OW13285   4.402   1.660   6.484
 4129SOL    HW113286   4.387   1.594   6.558
 4129SOL    HW213287   4.442   1.743   6.522
 4130SOL     OW13288   6.652   2.761   5.664
 4130SOL    HW113289   6.594   2.723   5.736
 4130SOL    HW213290   6.663   2.860   5.678
 4131SOL     OW13291   1.933   0.209   3.118
 4131SOL    HW113292   1.943   0.186   3.021
 4131SOL    HW213293   1.838   0.232   3.137
 4132SOL     OW13294   5.043   4.438   3.611
 4132SOL    HW113295   4.958   4.489   3.597
 4132SOL    HW213296   5.054   4.372   3.536
 4133SOL     OW13297   3.063   6.938   1.308
 4133SOL    HW113298   3.140   6.880   1.279
 4133SOL    HW213299   3.018   6.896   1.387
 4134SOL     OW13300   2.623   3.093   0.040
 4134SOL    HW113301   2.700   3.154   0.060
 4134SOL    HW213302   2.618   3.022   0.110
 4135SOL     OW13303   1.457   1.591   3.030
 4135SOL    HW113304   1.555   1.581   3.015
 4135SOL    HW213305   1.425   1.676   2.989
 4136SOL     OW13306   1.389   2.176   2.799
 4136SOL    HW113307   1.420   2.176   2.704
 4136SOL    HW213308   1.458   2.133   2.857
 4137SOL     OW13309   0.643   4.693   0.701
 4137SOL    HW113310   0.699   4.766   0.663
 4137SOL    HW213311   0.559   4.684   0.648
 4138SOL     OW13312   4.135   5.100   3.340
 4138SOL    HW113313   4.071   5.029   3.371
 4138SOL    HW213314   4.095   5.148   3.262
 4139SOL     OW13315   2.270   2.452   4.929
 4139SOL    HW113316   2.207   2.487   4.999
 4139SOL    HW213317   2.245   2.489   4.840
 4140SOL     OW13318   2.764   0.973   5.465
 4140SOL    HW113319   2.798   0.906   5.531
 4140SOL    HW213320   2.669   0.994   5.486
 4141SOL     OW13321   6.019   6.109   1.389
 4141SOL    HW113322   5.934   6.139   1.345
 4141SOL    HW213323   6.009   6.117   1.489
 4142SOL     OW13324   6.450   5.831   0.573
 4142SOL    HW113325   6.362   5.787   0.553
 4142SOL    HW213326   6.517   5.805   0.503
 4143SOL     OW13327   6.794   2.904   0.903
 4143SOL    HW113328   6.821   2.934   0.995
 4143SOL    HW213329   6.695   2.917   0.892
 4144SOL     OW13330   4.803   4.121   5.854
 4144SOL    HW113331   4.858   4.058   5.908
 4144SOL    HW213332   4.773   4.076   5.770
 4145SOL     OW13333   6.627   5.760   1.170
 4145SOL    HW113334   6.665   5.851   1.187
 4145SOL    HW213335   6.533   5.768   1.138
 4146SOL     OW13336   6.813   0.647   5.220
 4146SOL    HW113337   6.867   0.643   5.304
 4146SOL    HW213338   6.767   0.736   5.214
 4147SOL     OW13339   4.596   3.410   5.848
 4147SOL    HW113340   4.525   3.380   5.785
 4147SOL    HW213341   4.562   3.486   5.904
 4148SOL     OW13342   1.164   0.145   5.271
 4148SOL    HW113343   1.225   0.223   5.265
 4148SOL    HW213344   1.096   0.160   5.342
 4149SOL     OW13345   0.102   2.682   0.254
 4149SOL    HW113346   0.195   2.645   0.246
 4149SOL    HW213347   0.036   2.606   0.255
 4150SOL     OW13348   0.522   0.893   5.482
 4150SOL    HW113349   0.622   0.902   5.488
 4150SOL    HW213350   0.484   0.975   5.439
 4151SOL     OW13351   3.748   5.997   5.994
 4151SOL    HW113352   3.820   5.964   5.934
 4151SOL    HW213353   3.702   5.919   6.037
 4152SOL     OW13354   3.127   6.327   1.325
 4152SOL    HW113355   3.178   6.253   1.282
 4152SOL    HW213356   3.076   6.291   1.403
 4153SOL     OW13357   4.799   4.691   6.955
 4153SOL    HW113358   4.741   4.698   0.010
 4153SOL    HW213359   4.881   4.639   6.977
 4154SOL     OW13360   0.721   4.618   4.657
 4154SOL    HW113361   0.819   4.597   4.650
 4154SOL    HW213362   0.673   4.538   4.692
 4155SOL     OW13363   6.729   1.613   1.961
 4155SOL    HW113364   6.675   1.696   1.944
 4155SOL    HW213365   6.805   1.609   1.896
 4156SOL     OW13366   5.540   6.061   4.721
 4156SOL    HW113367   5.543   5.980   4.662
 4156SOL    HW213368   5.445   6.085   4.740
 4157SOL     OW13369   4.475   6.053   4.561
 4157SOL    HW113370   4.420   6.061   4.478
 4157SOL    HW213371   4.451   6.127   4.624
 4158SOL     OW13372   1.694   4.939   3.039
 4158SOL    HW113373   1.732   4.954   2.948
 4158SOL    HW213374   1.749   4.870   3.087
 4159SOL     OW13375   2.086   3.558   4.317
 4159SOL    HW113376   2.064   3.617   4.394
 4159SOL    HW213377   2.118   3.615   4.240
 4160SOL     OW13378   6.176   0.580   0.753
 4160SOL    HW113379   6.167   0.658   0.692
 4160SOL    HW213380   6.143   0.605   0.844
 4161SOL     OW13381   0.665   0.690   0.212
 4161SOL    HW113382   0.620   0.772   0.247
 4161SOL    HW213383   0.599   0.634   0.163
 4162SOL     OW13384   6.104   6.419   5.864
 4162SOL    HW113385   6.178   6.386   5.805
 4162SOL    HW213386   6.133   6.502   5.912
 4163SOL     OW13387   6.204   0.152   3.255
 4163SOL    HW113388   6.206   0.246   3.287
 4163SOL    HW213389   6.235   0.091   3.329
 4164SOL     OW13390   1.321   6.667   6.971
 4164SOL    HW113391   1.348   6.716   6.888
 4164SOL    HW213392   1.372   6.581   6.976
 4165SOL     OW13393   4.034   0.201   6.823
 4165SOL    HW113394   4.069   0.192   6.729
 4165SOL    HW213395   4.105   0.241   6.881
 4166SOL     OW13396   6.053   3.612   1.070
 4166SOL    HW113397   6.123   3.632   1.001
 4166SOL    HW213398   5.963   3.610   1.026
 4167SOL     OW13399   1.212   4.043   0.816
 4167SOL    HW113400   1.149   4.108   0.858
 4167SOL    HW213401   1.258   3.990   0.888
 4168SOL     OW13402   6.496   5.226   1.089
 4168SOL    HW113403   6.456   5.146   1.044
 4168SOL    HW213404   6.460   5.234   1.182
 4169SOL     OW13405   5.873   4.329   3.953
 4169SOL    HW113406   5.865   4.303   4.049
 4169SOL    HW213407   5.966   4.362   3.935
 4170SOL     OW13408   3.238   4.156   4.908
 4170SOL    HW113409   3.232   4.114   4.998
 4170SOL    HW213410   3.182   4.239   4.907
 4171SOL     OW13411   5.205   5.223   1.496
 4171SOL    HW113412   5.112   5.186   1.495
 4171SOL    HW213413   5.262   5.173   1.430
 4172SOL     OW13414   0.572   2.056   6.165
 4172SOL    HW113415   0.544   2.074   6.071
 4172SOL    HW213416   0.570   2.141   6.218
 4173SOL     OW13417   5.282   3.689   5.315
 4173SOL    HW113418   5.183   3.694   5.319
 4173SOL    HW213419   5.318   3.665   5.405
 4174SOL     OW13420   5.327   0.883   3.432
 4174SOL    HW113421   5.267   0.881   3.352
 4174SOL    HW213422   5.395   0.810   3.425
 4175SOL     OW13423   2.032   5.931   4.470
 4175SOL    HW113424   2.047   5.837   4.440
 4175SOL    HW213425   1.978   5.932   4.554
 4176SOL     OW13426   3.078   6.906   1.954
 4176SOL    HW113427   3.147   6.978   1.961
 4176SOL    HW213428   2.988   6.948   1.940
 4177SOL     OW13429   6.981   4.504   4.537
 4177SOL    HW113430   6.893   4.455   4.541
 4177SOL    HW213431   7.001   4.529   4.442
 4178SOL     OW13432   4.515   1.341   4.246
 4178SOL    HW113433   4.514   1.253   4.293
 4178SOL    HW213434   4.445   1.401   4.286
 4179SOL     OW13435   5.500   2.338   3.190
 4179SOL    HW113436   5.457   2.335   3.100
 4179SOL    HW213437   5.553   2.422   3.198
 4180SOL     OW13438   5.335   3.689   1.710
 4180SOL    HW113439   5.433   3.704   1.717
 4180SOL    HW213440   5.288   3.740   1.782
 4181SOL     OW13441   2.287   1.860   6.809
 4181SOL    HW113442   2.201   1.809   6.807
 4181SOL    HW213443   2.355   1.807   6.860
 4182SOL     OW13444   0.205   6.177   2.805
 4182SOL    HW113445   0.165   6.226   2.882
 4182SOL    HW213446   0.269   6.236   2.756
 4183SOL     OW13447   4.417   0.563   0.289
 4183SOL    HW113448   4.349   0.489   0.296
 4183SOL    HW213449   4.418   0.598   0.196
 4184SOL     OW13450   4.582   5.507   1.479
 4184SOL    HW113451   4.551   5.468   1.392
 4184SOL    HW213452   4.538   5.460   1.555
 4185SOL     OW13453   1.170   5.952   2.103
 4185SOL    HW113454   1.229   6.010   2.159
 4185SOL    HW213455   1.106   6.009   2.051
 4186SOL     OW13456   1.990   4.800   1.344
 4186SOL    HW113457   2.054   4.848   1.284
 4186SOL    HW213458   1.963   4.713   1.302
 4187SOL     OW13459   3.265   4.063   5.756
 4187SOL    HW113460   3.277   3.999   5.832
 4187SOL    HW213461   3.350   4.113   5.741
 4188SOL     OW13462   5.469   0.139   4.007
 4188SOL    HW113463   5.500   0.045   4.021
 4188SOL    HW213464   5.509   0.174   3.922
 4189SOL     OW13465   3.351   0.693   5.183
 4189SOL    HW113466   3.292   0.674   5.105
 4189SOL    HW213467   3.400   0.610   5.209
 4190SOL     OW13468   0.715   7.021   0.124
 4190SOL    HW113469   0.782   0.053   0.078
 4190SOL    HW213470   0.662   0.050   0.189
 4191SOL     OW13471   5.604   3.677   3.081
 4191SOL    HW113472   5.571   3.730   3.159
 4191SOL    HW213473   5.568   3.717   2.996
 4192SOL     OW13474   0.289   0.410   3.593
 4192SOL    HW113475   0.320   0.504   3.579
 4192SOL    HW213476   0.345   0.348   3.538
 4193SOL     OW13477   2.470   6.779   2.361
 4193SOL    HW113478   2.476   6.878   2.370
 4193SOL    HW213479   2.551   6.737   2.402
 4194SOL     OW13480   5.904   1.018   5.419
 4194SOL    HW113481   5.924   1.024   5.517
 4194SOL    HW213482   5.864   1.103   5.388
 4195SOL     OW13483   4.066   0.627   1.738
 4195SOL    HW113484   4.084   0.721   1.768
 4195SOL    HW213485   4.031   0.628   1.644
 4196SOL     OW13486   6.204   2.485   4.096
 4196SOL    HW113487   6.243   2.576   4.109
 4196SOL    HW213488   6.177   2.475   4.000
 4197SOL     OW13489   5.369   5.713   5.481
 4197SOL    HW113490   5.380   5.747   5.574
 4197SOL    HW213491   5.404   5.619   5.476
 4198SOL     OW13492   5.487   2.889   6.819
 4198SOL    HW113493   5.535   2.802   6.827
 4198SOL    HW213494   5.462   2.922   6.910
 4199SOL     OW13495   1.923   4.240   6.515
 4199SOL    HW113496   1.927   4.141   6.501
 4199SOL    HW213497   1.843   4.278   6.469
 4200SOL     OW13498   3.333   6.491   4.944
 4200SOL    HW113499   3.433   6.482   4.948
 4200SOL    HW213500   3.304   6.499   4.849
 4201SOL     OW13501   5.977   6.017   4.005
 4201SOL    HW113502   6.044   5.948   3.977
 4201SOL    HW213503   5.893   6.006   3.952
 4202SOL     OW13504   3.962   5.857   5.900
 4202SOL    HW113505   4.003   5.765   5.898
 4202SOL    HW213506   4.035   5.925   5.905
 4203SOL     OW13507   4.831   5.408   1.292
 4203SOL    HW113508   4.760   5.451   1.237
 4203SOL    HW213509   4.847   5.315   1.259
 4204SOL     OW13510   3.825   3.259   2.299
 4204SOL    HW113511   3.889   3.310   2.357
 4204SOL    HW213512   3.853   3.163   2.293
 4205SOL     OW13513   4.105   4.965   4.407
 4205SOL    HW113514   4.015   4.923   4.396
 4205SOL    HW213515   4.107   5.016   4.493
 4206SOL     OW13516   5.973   0.689   5.455
 4206SOL    HW113517   6.014   0.598   5.466
 4206SOL    HW213518   6.045   0.756   5.438
 4207SOL     OW13519   2.487   1.596   1.688
 4207SOL    HW113520   2.498   1.505   1.728
 4207SOL    HW213521   2.396   1.631   1.709
 4208SOL     OW13522   1.623   2.521   6.247
 4208SOL    HW113523   1.674   2.456   6.191
 4208SOL    HW213524   1.688   2.576   6.300
 4209SOL     OW13525   0.771   1.681   5.237
 4209SOL    HW113526   0.834   1.616   5.194
 4209SOL    HW213527   0.758   1.759   5.177
 4210SOL     OW13528   2.862   3.556   1.945
 4210SOL    HW113529   2.864   3.610   1.861
 4210SOL    HW213530   2.844   3.460   1.923
 4211SOL     OW13531   3.855   5.893   5.196
 4211SOL    HW113532   3.845   5.922   5.101
 4211SOL    HW213533   3.851   5.794   5.202
 4212SOL     OW13534   5.932   2.157   2.462
 4212SOL    HW113535   5.996   2.226   2.495
 4212SOL    HW213536   5.857   2.147   2.528
 4213SOL     OW13537   2.631   1.151   2.822
 4213SOL    HW113538   2.604   1.062   2.857
 4213SOL    HW213539   2.646   1.146   2.724
 4214SOL     OW13540   0.702   4.154   6.028
 4214SOL    HW113541   0.626   4.218   6.016
 4214SOL    HW213542   0.784   4.204   6.054
 4215SOL     OW13543   6.414   5.745   4.427
 4215SOL    HW113544   6.408   5.794   4.340
 4215SOL    HW213545   6.446   5.651   4.410
 4216SOL     OW13546   1.948   1.697   2.922
 4216SOL    HW113547   1.902   1.686   3.010
 4216SOL    HW213548   2.036   1.648   2.923
 4217SOL     OW13549   6.322   0.062   2.405
 4217SOL    HW113550   6.383   0.119   2.458
 4217SOL    HW213551   6.227   0.079   2.433
 4218SOL     OW13552   4.705   0.031   1.354
 4218SOL    HW113553   4.668   0.093   1.285
 4218SOL    HW213554   4.743   6.977   1.308
 4219SOL     OW13555   2.681   5.283   4.579
 4219SOL    HW113556   2.605   5.289   4.642
 4219SOL    HW213557   2.763   5.251   4.627
 4220SOL     OW13558   6.267   2.668   3.011
 4220SOL    HW113559   6.328   2.747   3.013
 4220SOL    HW213560   6.249   2.637   3.104
 4221SOL     OW13561   6.012   5.640   6.514
 4221SOL    HW113562   5.943   5.572   6.488
 4221SOL    HW213563   6.101   5.613   6.477
 4222SOL     OW13564   6.241   2.147   2.563
 4222SOL    HW113565   6.201   2.153   2.472
 4222SOL    HW213566   6.324   2.202   2.567
 4223SOL     OW13567   2.869   3.715   4.208
 4223SOL    HW113568   2.885   3.799   4.260
 4223SOL    HW213569   2.876   3.636   4.269
 4224SOL     OW13570   4.829   3.136   3.692
 4224SOL    HW113571   4.831   3.037   3.705
 4224SOL    HW213572   4.863   3.158   3.600
 4225SOL     OW13573   4.949   0.240   5.264
 4225SOL    HW113574   4.957   0.339   5.276
 4225SOL    HW213575   4.953   0.195   5.353
 4226SOL     OW13576   1.021   0.761   3.176
 4226SOL    HW113577   1.012   0.700   3.097
 4226SOL    HW213578   0.944   0.748   3.238
 4227SOL     OW13579   3.328   4.838   6.812
 4227SOL    HW113580   3.319   4.765   6.744
 4227SOL    HW213581   3.241   4.848   6.862
 4228SOL     OW13582   6.915   4.053   3.000
 4228SOL    HW113583   6.917   4.105   2.915
 4228SOL    HW213584   6.829   4.001   3.006
 4229SOL     OW13585   4.691   4.778   5.511
 4229SOL    HW113586   4.703   4.679   5.502
 4229SOL    HW213587   4.604   4.797   5.556
 4230SOL     OW13588   2.173   0.946   4.697
 4230SOL    HW113589   2.273   0.949   4.704
 4230SOL    HW213590   2.147   0.924   4.603
 4231SOL     OW13591   5.642   6.588   4.851
 4231SOL    HW113592   5.633   6.513   4.785
 4231SOL    HW213593   5.641   6.551   4.944
 4232SOL     OW13594   0.504   4.725   2.105
 4232SOL    HW113595   0.499   4.627   2.086
 4232SOL    HW213596   0.420   4.770   2.074
 4233SOL     OW13597   6.737   0.046   6.788
 4233SOL    HW113598   6.688   7.023   6.716
 4233SOL    HW213599   6.683   0.125   6.817
 4234SOL     OW13600   1.191   0.306   6.098
 4234SOL    HW113601   1.106   0.259   6.072
 4234SOL    HW213602   1.203   0.300   6.197
 4235SOL     OW13603   6.613   3.418   5.576
 4235SOL    HW113604   6.545   3.367   5.629
 4235SOL    HW213605   6.635   3.503   5.624
 4236SOL     OW13606   0.238   3.187   3.286
 4236SOL    HW113607   0.239   3.260   3.218
 4236SOL    HW213608   0.152   3.136   3.280
 4237SOL     OW13609   6.141   4.686   4.042
 4237SOL    HW113610   6.139   4.774   4.089
 4237SOL    HW213611   6.162   4.700   3.945
 4238SOL     OW13612   4.641   4.857   3.767
 4238SOL    HW113613   4.692   4.860   3.681
 4238SOL    HW213614   4.555   4.908   3.757
 4239SOL     OW13615   5.868   0.785   3.717
 4239SOL    HW113616   5.858   0.791   3.817
 4239SOL    HW213617   5.965   0.792   3.693
 4240SOL     OW13618   1.947   6.835   6.765
 4240SOL    HW113619   2.023   6.860   6.706
 4240SOL    HW213620   1.983   6.801   6.853
 4241SOL     OW13621   4.939   0.710   0.793
 4241SOL    HW113622   4.855   0.748   0.830
 4241SOL    HW213623   4.944   0.613   0.814
 4242SOL     OW13624   1.613   0.643   2.905
 4242SOL    HW113625   1.620   0.675   2.810
 4242SOL    HW213626   1.655   0.552   2.913
 4243SOL     OW13627   0.904   3.616   3.454
 4243SOL    HW113628   0.906   3.517   3.443
 4243SOL    HW213629   0.946   3.641   3.542
 4244SOL     OW13630   4.676   5.276   0.964
 4244SOL    HW113631   4.605   5.342   0.988
 4244SOL    HW213632   4.723   5.306   0.881
 4245SOL     OW13633   0.159   1.493   6.871
 4245SOL    HW113634   0.121   1.579   6.905
 4245SOL    HW213635   0.258   1.493   6.884
 4246SOL     OW13636   5.864   2.801   3.649
 4246SOL    HW113637   5.861   2.864   3.571
 4246SOL    HW213638   5.900   2.848   3.729
 4247SOL     OW13639   2.364   5.158   4.253
 4247SOL    HW113640   2.371   5.255   4.279
 4247SOL    HW213641   2.273   5.124   4.278
 4248SOL     OW13642   1.112   1.180   3.228
 4248SOL    HW113643   1.118   1.106   3.161
 4248SOL    HW213644   1.064   1.258   3.188
 4249SOL     OW13645   6.504   1.394   3.321
 4249SOL    HW113646   6.488   1.336   3.241
 4249SOL    HW213647   6.419   1.406   3.372
 4250SOL     OW13648   0.070   5.893   3.709
 4250SOL    HW113649   0.127   5.955   3.655
 4250SOL    HW213650   0.030   5.943   3.786
 4251SOL     OW13651   6.710   2.887   0.336
 4251SOL    HW113652   6.678   2.977   0.363
 4251SOL    HW213653   6.743   2.837   0.416
 4252SOL     OW13654   5.584   6.129   6.403
 4252SOL    HW113655   5.673   6.084   6.392
 4252SOL    HW213656   5.586   6.219   6.359
 4253SOL     OW13657   3.742   5.873   2.140
 4253SOL    HW113658   3.777   5.791   2.094
 4253SOL    HW213659   3.798   5.893   2.220
 4254SOL     OW13660   2.093   4.347   2.044
 4254SOL    HW113661   2.126   4.402   2.121
 4254SOL    HW213662   2.013   4.391   2.004
 4255SOL     OW13663   0.505   3.996   4.112
 4255SOL    HW113664   0.526   3.901   4.136
 4255SOL    HW213665   0.589   4.049   4.109
 4256SOL     OW13666   1.266   5.972   1.789
 4256SOL    HW113667   1.242   6.068   1.780
 4256SOL    HW213668   1.344   5.963   1.851
 4257SOL     OW13669   5.709   1.074   4.378
 4257SOL    HW113670   5.737   1.009   4.308
 4257SOL    HW213671   5.618   1.111   4.355
 4258SOL     OW13672   2.999   5.929   1.286
 4258SOL    HW113673   2.968   6.018   1.252
 4258SOL    HW213674   3.037   5.876   1.210
 4259SOL     OW13675   1.724   6.146   1.047
 4259SOL    HW113676   1.768   6.108   1.128
 4259SOL    HW213677   1.682   6.234   1.070
 4260SOL     OW13678   5.563   6.812   3.703
 4260SOL    HW113679   5.483   6.870   3.687
 4260SOL    HW213680   5.631   6.828   3.632
 4261SOL     OW13681   1.453   0.871   3.005
 4261SOL    HW113682   1.474   0.786   2.957
 4261SOL    HW213683   1.522   0.940   2.984
 4262SOL     OW13684   1.390   4.235   6.031
 4262SOL    HW113685   1.397   4.306   5.960
 4262SOL    HW213686   1.446   4.156   6.005
 4263SOL     OW13687   2.472   1.168   3.405
 4263SOL    HW113688   2.556   1.216   3.428
 4263SOL    HW213689   2.463   1.161   3.306
 4264SOL     OW13690   6.254   1.783   3.854
 4264SOL    HW113691   6.323   1.799   3.925
 4264SOL    HW213692   6.200   1.702   3.878
 4265SOL     OW13693   3.701   0.825   0.677
 4265SOL    HW113694   3.783   0.814   0.733
 4265SOL    HW213695   3.696   0.919   0.644
 4266SOL     OW13696   1.249   6.633   0.307
 4266SOL    HW113697   1.189   6.685   0.367
 4266SOL    HW213698   1.206   6.622   0.218
 4267SOL     OW13699   1.882   3.579   3.740
 4267SOL    HW113700   1.974   3.608   3.713
 4267SOL    HW213701   1.881   3.480   3.754
 4268SOL     OW13702   2.037   5.528   6.912
 4268SOL    HW113703   1.953   5.493   6.871
 4268SOL    HW213704   2.116   5.487   6.867
 4269SOL     OW13705   2.885   0.995   3.861
 4269SOL    HW113706   2.874   1.048   3.945
 4269SOL    HW213707   2.796   0.959   3.832
 4270SOL     OW13708   3.194   2.856   1.798
 4270SOL    HW113709   3.271   2.845   1.861
 4270SOL    HW213710   3.155   2.766   1.777
 4271SOL     OW13711   6.932   0.549   0.004
 4271SOL    HW113712   7.016   0.598   0.026
 4271SOL    HW213713   6.867   0.611   6.986
 4272SOL     OW13714   6.906   3.140   5.154
 4272SOL    HW113715   6.986   3.081   5.169
 4272SOL    HW213716   6.878   3.181   5.241
 4273SOL     OW13717   4.869   6.009   5.134
 4273SOL    HW113718   4.922   5.935   5.176
 4273SOL    HW213719   4.829   5.978   5.048
 4274SOL     OW13720   0.943   6.980   2.056
 4274SOL    HW113721   0.993   6.935   2.130
 4274SOL    HW213722   0.925   0.049   2.081
 4275SOL     OW13723   0.519   2.187   4.197
 4275SOL    HW113724   0.468   2.242   4.130
 4275SOL    HW213725   0.558   2.107   4.151
 4276SOL     OW13726   3.016   5.297   3.770
 4276SOL    HW113727   2.959   5.220   3.798
 4276SOL    HW213728   3.005   5.311   3.671
 4277SOL     OW13729   0.072   4.194   2.533
 4277SOL    HW113730   7.008   4.174   2.571
 4277SOL    HW213731   0.120   4.258   2.593
 4278SOL     OW13732   0.688   6.753   3.641
 4278SOL    HW113733   0.588   6.750   3.634
 4278SOL    HW213734   0.720   6.846   3.627
 4279SOL     OW13735   1.120   1.327   2.199
 4279SOL    HW113736   1.159   1.418   2.182
 4279SOL    HW213737   1.099   1.318   2.296
 4280SOL     OW13738   6.141   6.892   5.912
 4280SOL    HW113739   6.206   6.917   5.840
 4280SOL    HW213740   6.127   6.971   5.972
 4281SOL     OW13741   5.303   4.823   3.659
 4281SOL    HW113742   5.225   4.873   3.698
 4281SOL    HW213743   5.343   4.765   3.729
 4282SOL     OW13744   2.979   4.829   1.028
 4282SOL    HW113745   3.037   4.888   0.972
 4282SOL    HW213746   2.983   4.859   1.124
 4283SOL     OW13747   4.501   1.196   3.645
 4283SOL    HW113748   4.521   1.191   3.743
 4283SOL    HW213749   4.574   1.247   3.598
 4284SOL     OW13750   4.688   5.521   0.421
 4284SOL    HW113751   4.660   5.596   0.482
 4284SOL    HW213752   4.668   5.547   0.327
 4285SOL     OW13753   2.872   1.021   6.218
 4285SOL    HW113754   2.788   1.064   6.251
 4285SOL    HW213755   2.871   1.016   6.118
 4286SOL     OW13756   5.892   0.070   6.386
 4286SOL    HW113757   5.870   0.162   6.354
 4286SOL    HW213758   5.857   0.003   6.320
 4287SOL     OW13759   4.786   1.150   6.042
 4287SOL    HW113760   4.694   1.113   6.030
 4287SOL    HW213761   4.817   1.135   6.135
 4288SOL     OW13762   0.296   6.033   3.013
 4288SOL    HW113763   0.254   6.082   2.936
 4288SOL    HW213764   0.377   6.083   3.044
 4289SOL     OW13765   1.365   2.576   6.318
 4289SOL    HW113766   1.341   2.549   6.411
 4289SOL    HW213767   1.461   2.551   6.300
 4290SOL     OW13768   0.474   6.724   4.857
 4290SOL    HW113769   0.567   6.752   4.882
 4290SOL    HW213770   0.469   6.624   4.855
 4291SOL     OW13771   5.065   3.901   5.978
 4291SOL    HW113772   5.049   3.962   6.055
 4291SOL    HW213773   5.104   3.952   5.901
 4292SOL     OW13774   6.229   3.113   6.810
 4292SOL    HW113775   6.156   3.095   6.876
 4292SOL    HW213776   6.197   3.091   6.718
 4293SOL     OW13777   3.540   4.249   6.795
 4293SOL    HW113778   3.538   4.232   6.697
 4293SOL    HW213779   3.618   4.308   6.817
 4294SOL     OW13780   2.128   1.766   6.051
 4294SOL    HW113781   2.220   1.741   6.023
 4294SOL    HW213782   2.121   1.866   6.056
 4295SOL     OW13783   4.610   6.472   3.042
 4295SOL    HW113784   4.561   6.518   2.968
 4295SOL    HW213785   4.626   6.536   3.117
 4296SOL     OW13786   3.622   6.698   0.673
 4296SOL    HW113787   3.709   6.660   0.705
 4296SOL    HW213788   3.634   6.736   0.581
 4297SOL     OW13789   6.652   6.599   2.624
 4297SOL    HW113790   6.643   6.525   2.692
 4297SOL    HW213791   6.579   6.666   2.638
 4298SOL     OW13792   3.319   6.303   2.063
 4298SOL    HW113793   3.358   6.308   2.154
 4298SOL    HW213794   3.391   6.284   1.996
 4299SOL     OW13795   1.159   3.134   0.124
 4299SOL    HW113796   1.240   3.134   0.065
 4299SOL    HW213797   1.110   3.048   0.115
 4300SOL     OW13798   2.954   6.859   0.437
 4300SOL    HW113799   2.899   6.869   0.521
 4300SOL    HW213800   3.043   6.903   0.451
 4301SOL     OW13801   4.034   0.359   1.836
 4301SOL    HW113802   4.055   0.455   1.817
 4301SOL    HW213803   3.987   0.319   1.758
 4302SOL     OW13804   6.381   0.156   6.756
 4302SOL    HW113805   6.328   0.129   6.676
 4302SOL    HW213806   6.361   0.093   6.832
 4303SOL     OW13807   0.190   4.890   3.664
 4303SOL    HW113808   0.237   4.871   3.751
 4303SOL    HW213809   0.257   4.919   3.596
 4304SOL     OW13810   3.592   3.953   1.881
 4304SOL    HW113811   3.605   3.919   1.974
 4304SOL    HW213812   3.522   3.898   1.834
 4305SOL     OW13813   0.737   6.674   5.695
 4305SOL    HW113814   0.755   6.741   5.767
 4305SOL    HW213815   0.734   6.721   5.607
 4306SOL     OW13816   5.128   4.951   4.500
 4306SOL    HW113817   5.155   4.914   4.590
 4306SOL    HW213818   5.045   4.905   4.469
 4307SOL     OW13819   5.552   3.476   5.275
 4307SOL    HW113820   5.593   3.495   5.364
 4307SOL    HW213821   5.529   3.563   5.230
 4308SOL     OW13822   5.554   4.998   1.380
 4308SOL    HW113823   5.631   4.980   1.319
 4308SOL    HW213824   5.575   4.965   1.472
 4309SOL     OW13825   1.594   2.751   0.402
 4309SOL    HW113826   1.662   2.730   0.473
 4309SOL    HW213827   1.512   2.696   0.416
 4310SOL     OW13828   1.559   3.044   2.005
 4310SOL    HW113829   1.508   3.016   1.924
 4310SOL    HW213830   1.653   3.066   1.979
 4311SOL     OW13831   1.199   6.346   2.067
 4311SOL    HW113832   1.132   6.313   2.001
 4311SOL    HW213833   1.186   6.299   2.155
 4312SOL     OW13834   1.695   5.655   2.929
 4312SOL    HW113835   1.792   5.637   2.912
 4312SOL    HW213836   1.666   5.606   3.011
 4313SOL     OW13837   3.800   2.237   0.286
 4313SOL    HW113838   3.787   2.206   0.192
 4313SOL    HW213839   3.817   2.335   0.287
 4314SOL     OW13840   6.133   1.751   5.048
 4314SOL    HW113841   6.065   1.683   5.021
 4314SOL    HW213842   6.135   1.824   4.980
 4315SOL     OW13843   1.795   1.061   3.230
 4315SOL    HW113844   1.770   1.027   3.320
 4315SOL    HW213845   1.877   1.119   3.237
 4316SOL     OW13846   5.309   0.338   2.540
 4316SOL    HW113847   5.261   0.269   2.486
 4316SOL    HW213848   5.336   0.299   2.628
 4317SOL     OW13849   4.556   1.386   5.538
 4317SOL    HW113850   4.546   1.471   5.487
 4317SOL    HW213851   4.653   1.371   5.560
 4318SOL     OW13852   0.953   1.260   4.625
 4318SOL    HW113853   1.026   1.301   4.681
 4318SOL    HW213854   0.987   1.177   4.582
 4319SOL     OW13855   2.048   1.822   1.100
 4319SOL    HW113856   2.065   1.915   1.133
 4319SOL    HW213857   2.049   1.821   1.001
 4320SOL     OW13858   3.835   6.179   1.430
 4320SOL    HW113859   3.923   6.219   1.458
 4320SOL    HW213860   3.798   6.232   1.353
 4321SOL     OW13861   0.043   5.064   3.398
 4321SOL    HW113862   0.024   4.997   3.470
 4321SOL    HW213863   0.087   5.144   3.438
 4322SOL     OW13864   6.766   2.930   5.889
 4322SOL    HW113865   6.719   3.016   5.867
 4322SOL    HW213866   6.829   2.945   5.965
 4323SOL     OW13867   4.490   5.054   7.015
 4323SOL    HW113868   4.576   5.089   0.024
 4323SOL    HW213869   4.436   5.015   0.063
 4324SOL     OW13870   6.599   4.288   5.355
 4324SOL    HW113871   6.619   4.215   5.290
 4324SOL    HW213872   6.565   4.248   5.440
 4325SOL     OW13873   2.956   1.774   2.464
 4325SOL    HW113874   2.937   1.868   2.492
 4325SOL    HW213875   2.946   1.766   2.365
 4326SOL     OW13876   5.754   3.783   2.000
 4326SOL    HW113877   5.712   3.868   1.968
 4326SOL    HW213878   5.701   3.705   1.967
 4327SOL     OW13879   4.279   5.955   3.067
 4327SOL    HW113880   4.309   5.860   3.059
 4327SOL    HW213881   4.340   6.014   3.014
 4328SOL     OW13882   5.894   4.427   4.889
 4328SOL    HW113883   5.864   4.483   4.811
 4328SOL    HW213884   5.984   4.390   4.870
 4329SOL     OW13885   6.161   3.122   5.699
 4329SOL    HW113886   6.065   3.106   5.721
 4329SOL    HW213887   6.217   3.046   5.732
 4330SOL     OW13888   2.090   6.835   4.090
 4330SOL    HW113889   2.078   6.808   3.995
 4330SOL    HW213890   2.001   6.837   4.136
 4331SOL     OW13891   6.719   0.358   1.379
 4331SOL    HW113892   6.782   0.323   1.311
 4331SOL    HW213893   6.702   0.455   1.361
 4332SOL     OW13894   6.456   3.330   3.071
 4332SOL    HW113895   6.451   3.382   2.986
 4332SOL    HW213896   6.551   3.327   3.103
 4333SOL     OW13897   4.256   1.959   4.877
 4333SOL    HW113898   4.290   1.956   4.783
 4333SOL    HW213899   4.238   2.053   4.903
 4334SOL     OW13900   1.657   2.649   2.301
 4334SOL    HW113901   1.756   2.651   2.312
 4334SOL    HW213902   1.624   2.741   2.283
 4335SOL     OW13903   3.753   2.871   1.934
 4335SOL    HW113904   3.828   2.854   1.870
 4335SOL    HW213905   3.689   2.936   1.893
 4336SOL     OW13906   2.292   5.078   5.699
 4336SOL    HW113907   2.351   5.123   5.766
 4336SOL    HW213908   2.262   4.989   5.734
 4337SOL     OW13909   1.870   5.209   1.494
 4337SOL    HW113910   1.817   5.286   1.527
 4337SOL    HW213911   1.892   5.148   1.570
 4338SOL     OW13912   5.935   0.339   6.359
 4338SOL    HW113913   5.932   0.364   6.456
 4338SOL    HW213914   5.888   0.408   6.305
 4339SOL     OW13915   3.200   2.588   6.393
 4339SOL    HW113916   3.290   2.629   6.382
 4339SOL    HW213917   3.151   2.588   6.306
 4340SOL     OW13918   5.550   3.038   1.182
 4340SOL    HW113919   5.458   3.005   1.159
 4340SOL    HW213920   5.615   3.000   1.116
 4341SOL     OW13921   1.266   5.208   2.066
 4341SOL    HW113922   1.340   5.240   2.125
 4341SOL    HW213923   1.179   5.243   2.101
 4342SOL     OW13924   5.263   3.410   3.078
 4342SOL    HW113925   5.301   3.432   2.988
 4342SOL    HW213926   5.321   3.449   3.149
 4343SOL     OW13927   2.856   6.085   5.422
 4343SOL    HW113928   2.851   6.166   5.362
 4343SOL    HW213929   2.951   6.067   5.446
 4344SOL     OW13930   1.030   2.902   3.279
 4344SOL    HW113931   1.118   2.934   3.243
 4344SOL    HW213932   1.045   2.861   3.370
 4345SOL     OW13933   3.024   3.450   3.719
 4345SOL    HW113934   3.101   3.511   3.735
 4345SOL    HW213935   2.965   3.449   3.799
 4346SOL     OW13936   2.319   2.725   2.326
 4346SOL    HW113937   2.388   2.666   2.284
 4346SOL    HW213938   2.267   2.771   2.254
 4347SOL     OW13939   6.161   6.287   2.562
 4347SOL    HW113940   6.163   6.374   2.610
 4347SOL    HW213941   6.253   6.265   2.530
 4348SOL     OW13942   0.849   5.850   4.533
 4348SOL    HW113943   0.752   5.839   4.509
 4348SOL    HW213944   0.897   5.890   4.455
 4349SOL     OW13945   0.062   3.346   4.133
 4349SOL    HW113946   0.036   3.341   4.229
 4349SOL    HW213947   0.004   3.283   4.080
 4350SOL     OW13948   5.155   2.003   4.044
 4350SOL    HW113949   5.096   2.072   4.085
 4350SOL    HW213950   5.236   2.048   4.005
 4351SOL     OW13951   1.192   5.833   1.351
 4351SOL    HW113952   1.280   5.787   1.363
 4351SOL    HW213953   1.205   5.915   1.294
 4352SOL     OW13954   6.201   3.937   2.011
 4352SOL    HW113955   6.261   3.937   1.931
 4352SOL    HW213956   6.235   4.004   2.077
 4353SOL     OW13957   2.973   3.856   0.093
 4353SOL    HW113958   2.957   3.882   7.024
 4353SOL    HW213959   3.071   3.856   0.112
 4354SOL     OW13960   0.632   1.678   5.999
 4354SOL    HW113961   0.646   1.768   5.958
 4354SOL    HW213962   0.690   1.611   5.953
 4355SOL     OW13963   1.617   0.057   2.807
 4355SOL    HW113964   1.603   7.004   2.747
 4355SOL    HW213965   1.552   0.053   2.882
 4356SOL     OW13966   4.376   3.287   5.389
 4356SOL    HW113967   4.349   3.358   5.454
 4356SOL    HW213968   4.462   3.313   5.345
 4357SOL     OW13969   0.182   1.424   1.297
 4357SOL    HW113970   0.084   1.411   1.288
 4357SOL    HW213971   0.221   1.351   1.353
 4358SOL     OW13972   0.117   6.920   0.208
 4358SOL    HW113973   0.167   6.863   0.273
 4358SOL    HW213974   0.097   6.866   0.126
 4359SOL     OW13975   1.695   0.876   6.554
 4359SOL    HW113976   1.659   0.809   6.619
 4359SOL    HW213977   1.619   0.917   6.503
 4360SOL     OW13978   0.921   2.510   3.914
 4360SOL    HW113979   0.910   2.595   3.966
 4360SOL    HW213980   0.857   2.511   3.837
 4361SOL     OW13981   2.190   3.258   1.246
 4361SOL    HW113982   2.165   3.161   1.246
 4361SOL    HW213983   2.159   3.300   1.331
 4362SOL     OW13984   0.470   5.925   4.186
 4362SOL    HW113985   0.548   5.958   4.240
 4362SOL    HW213986   0.504   5.872   4.109
 4363SOL     OW13987   4.476   1.087   1.748
 4363SOL    HW113988   4.465   1.168   1.806
 4363SOL    HW213989   4.386   1.059   1.714
 4364SOL     OW13990   3.165   3.743   2.840
 4364SOL    HW113991   3.132   3.816   2.900
 4364SOL    HW213992   3.246   3.700   2.881
 4365SOL     OW13993   3.005   1.352   1.860
 4365SOL    HW113994   2.959   1.366   1.772
 4365SOL    HW213995   3.084   1.291   1.847
 4366SOL     OW13996   5.866   6.431   6.498
 4366SOL    HW113997   5.926   6.363   6.455
 4366SOL    HW213998   5.833   6.395   6.585
 4367SOL     OW13999   3.051   4.983   3.536
 4367SOL    HW114000   3.020   4.904   3.588
 4367SOL    HW214001   3.113   5.039   3.592
 4368SOL     OW14002   3.867   5.251   2.600
 4368SOL    HW114003   3.908   5.198   2.526
 4368SOL    HW214004   3.927   5.329   2.621
 4369SOL     OW14005   5.048   5.836   3.272
 4369SOL    HW114006   5.129   5.807   3.221
 4369SOL    HW214007   4.971   5.777   3.249
 4370SOL     OW14008   3.572   3.952   1.518
 4370SOL    HW114009   3.523   3.953   1.431
 4370SOL    HW214010   3.517   3.907   1.587
 4371SOL     OW14011   2.152   1.487   2.850
 4371SOL    HW114012   2.203   1.458   2.769
 4371SOL    HW214013   2.217   1.513   2.922
 4372SOL     OW14014   2.153   3.432   3.905
 4372SOL    HW114015   2.131   3.354   3.963
 4372SOL    HW214016   2.111   3.514   3.943
 4373SOL     OW14017   4.217   1.407   6.319
 4373SOL    HW114018   4.314   1.404   6.296
 4373SOL    HW214019   4.205   1.421   6.417
 4374SOL     OW14020   1.789   1.657   1.207
 4374SOL    HW114021   1.845   1.729   1.165
 4374SOL    HW214022   1.767   1.683   1.301
 4375SOL     OW14023   3.878   6.303   2.739
 4375SOL    HW114024   3.792   6.259   2.765
 4375SOL    HW214025   3.871   6.339   2.646
 4376SOL     OW14026   6.664   0.032   1.911
 4376SOL    HW114027   6.740   0.071   1.963
 4376SOL    HW214028   6.678   0.049   1.814
 4377SOL     OW14029   6.279   5.093   0.335
 4377SOL    HW114030   6.191   5.097   0.381
 4377SOL    HW214031   6.331   5.177   0.354
 4378SOL     OW14032   1.170   4.441   2.885
 4378SOL    HW114033   1.088   4.393   2.917
 4378SOL    HW214034   1.195   4.406   2.794
 4379SOL     OW14035   2.353   0.780   2.059
 4379SOL    HW114036   2.303   0.856   2.016
 4379SOL    HW214037   2.317   0.693   2.025
 4380SOL     OW14038   1.832   5.974   4.707
 4380SOL    HW114039   1.781   6.059   4.717
 4380SOL    HW214040   1.770   5.901   4.677
 4381SOL     OW14041   2.250   4.331   4.948
 4381SOL    HW114042   2.291   4.245   4.916
 4381SOL    HW214043   2.282   4.350   5.041
 4382SOL     OW14044   6.367   4.187   5.973
 4382SOL    HW114045   6.310   4.169   5.893
 4382SOL    HW214046   6.456   4.223   5.944
 4383SOL     OW14047   0.374   2.311   5.182
 4383SOL    HW114048   0.357   2.398   5.136
 4383SOL    HW214049   0.350   2.236   5.119
 4384SOL     OW14050   5.219   1.404   0.221
 4384SOL    HW114051   5.316   1.426   0.219
 4384SOL    HW214052   5.202   1.334   0.291
 4385SOL     OW14053   6.942   2.914   4.222
 4385SOL    HW114054   6.933   2.859   4.139
 4385SOL    HW214055   0.011   2.940   4.235
 4386SOL     OW14056   1.458   3.389   6.570
 4386SOL    HW114057   1.497   3.323   6.505
 4386SOL    HW214058   1.463   3.351   6.663
 4387SOL     OW14059   0.792   2.522   1.860
 4387SOL    HW114060   0.792   2.425   1.885
 4387SOL    HW214061   0.806   2.530   1.761
 4388SOL     OW14062   4.292   1.459   6.639
 4388SOL    HW114063   4.201   1.498   6.625
 4388SOL    HW214064   4.304   1.437   6.736
 4389SOL     OW14065   5.742   2.163   0.551
 4389SOL    HW114066   5.682   2.232   0.591
 4389SOL    HW214067   5.706   2.072   0.569
 4390SOL     OW14068   4.072   2.123   2.395
 4390SOL    HW114069   4.134   2.196   2.426
 4390SOL    HW214070   4.126   2.051   2.351
 4391SOL     OW14071   1.579   5.754   6.241
 4391SOL    HW114072   1.535   5.667   6.262
 4391SOL    HW214073   1.663   5.763   6.294
 4392SOL     OW14074   5.856   4.077   5.220
 4392SOL    HW114075   5.916   4.037   5.289
 4392SOL    HW214076   5.904   4.082   5.132
 4393SOL     OW14077   5.115   6.311   2.925
 4393SOL    HW114078   5.139   6.267   2.839
 4393SOL    HW214079   5.019   6.294   2.946
 4394SOL     OW14080   6.490   5.197   3.299
 4394SOL    HW114081   6.425   5.225   3.370
 4394SOL    HW214082   6.462   5.234   3.211
 4395SOL     OW14083   4.341   1.950   1.685
 4395SOL    HW114084   4.247   1.924   1.665
 4395SOL    HW214085   4.403   1.885   1.641
 4396SOL     OW14086   2.634   1.651   4.061
 4396SOL    HW114087   2.615   1.672   4.156
 4396SOL    HW214088   2.684   1.727   4.019
 4397SOL     OW14089   0.444   1.762   4.308
 4397SOL    HW114090   0.490   1.789   4.392
 4397SOL    HW214091   0.355   1.807   4.302
 4398SOL     OW14092   1.082   4.330   5.156
 4398SOL    HW114093   1.003   4.287   5.113
 4398SOL    HW214094   1.163   4.273   5.143
 4399SOL     OW14095   1.971   0.793   1.719
 4399SOL    HW114096   1.994   0.701   1.688
 4399SOL    HW214097   1.906   0.835   1.655
 4400SOL     OW14098   2.193   6.919   4.800
 4400SOL    HW114099   2.219   7.007   4.761
 4400SOL    HW214100   2.172   6.930   4.897
 4401SOL     OW14101   5.476   6.089   6.132
 4401SOL    HW114102   5.542   6.066   6.204
 4401SOL    HW214103   5.401   6.141   6.171
 4402SOL     OW14104   2.030   6.278   2.512
 4402SOL    HW114105   2.127   6.253   2.515
 4402SOL    HW214106   1.995   6.291   2.605
 4403SOL     OW14107   0.004   6.668   3.469
 4403SOL    HW114108   0.082   6.692   3.527
 4403SOL    HW214109   0.026   6.690   3.373
 4404SOL     OW14110   1.460   3.649   5.375
 4404SOL    HW114111   1.478   3.730   5.430
 4404SOL    HW214112   1.384   3.597   5.415
 4405SOL     OW14113   3.116   4.327   0.217
 4405SOL    HW114114   3.042   4.387   0.246
 4405SOL    HW214115   3.083   4.267   0.143
 4406SOL     OW14116   5.380   4.625   1.358
 4406SOL    HW114117   5.458   4.571   1.388
 4406SOL    HW214118   5.296   4.572   1.370
 4407SOL     OW14119   0.255   4.836   0.824
 4407SOL    HW114120   0.295   4.880   0.904
 4407SOL    HW214121   0.287   4.742   0.818
 4408SOL     OW14122   5.187   0.793   0.746
 4408SOL    HW114123   5.273   0.743   0.740
 4408SOL    HW214124   5.113   0.729   0.764
 4409SOL     OW14125   3.961   0.634   2.233
 4409SOL    HW114126   4.020   0.676   2.163
 4409SOL    HW214127   3.882   0.592   2.188
 4410SOL     OW14128   1.998   4.667   0.151
 4410SOL    HW114129   1.922   4.635   0.209
 4410SOL    HW214130   1.986   4.632   0.059
 4411SOL     OW14131   4.083   3.583   3.554
 4411SOL    HW114132   4.055   3.491   3.583
 4411SOL    HW214133   4.106   3.638   3.635
 4412SOL     OW14134   3.429   1.870   4.422
 4412SOL    HW114135   3.506   1.827   4.468
 4412SOL    HW214136   3.427   1.967   4.446
 4413SOL     OW14137   5.085   5.781   5.033
 4413SOL    HW114138   5.151   5.736   4.972
 4413SOL    HW214139   5.107   5.757   5.128
 4414SOL     OW14140   4.325   4.986   2.017
 4414SOL    HW114141   4.313   4.972   2.116
 4414SOL    HW214142   4.421   5.005   1.998
 4415SOL     OW14143   4.236   3.575   6.820
 4415SOL    HW114144   4.161   3.636   6.845
 4415SOL    HW214145   4.222   3.485   6.861
 4416SOL     OW14146   2.670   0.696   4.468
 4416SOL    HW114147   2.598   0.643   4.512
 4416SOL    HW214148   2.648   0.793   4.474
 4417SOL     OW14149   6.890   4.157   2.724
 4417SOL    HW114150   6.872   4.248   2.762
 4417SOL    HW214151   6.805   4.118   2.690
 4418SOL     OW14152   4.945   0.292   4.254
 4418SOL    HW114153   4.937   0.214   4.192
 4418SOL    HW214154   5.039   0.301   4.285
 4419SOL     OW14155   5.649   5.991   0.450
 4419SOL    HW114156   5.610   5.966   0.362
 4419SOL    HW214157   5.639   6.089   0.465
 4420SOL     OW14158   4.877   2.141   0.439
 4420SOL    HW114159   4.936   2.073   0.395
 4420SOL    HW214160   4.801   2.095   0.485
 4421SOL     OW14161   1.630   0.775   3.367
 4421SOL    HW114162   1.639   0.706   3.296
 4421SOL    HW214163   1.570   0.848   3.336
 4422SOL     OW14164   2.336   3.705   5.759
 4422SOL    HW114165   2.414   3.758   5.793
 4422SOL    HW214166   2.353   3.607   5.774
 4423SOL     OW14167   1.511   2.808   5.991
 4423SOL    HW114168   1.560   2.742   6.048
 4423SOL    HW214169   1.576   2.862   5.938
 4424SOL     OW14170   5.770   6.792   3.514
 4424SOL    HW114171   5.850   6.735   3.536
 4424SOL    HW214172   5.762   6.802   3.415
 4425SOL     OW14173   3.660   5.767   6.117
 4425SOL    HW114174   3.599   5.730   6.047
 4425SOL    HW214175   3.630   5.736   6.207
 4426SOL     OW14176   6.773   1.841   4.438
 4426SOL    HW114177   6.840   1.794   4.495
 4426SOL    HW214178   6.801   1.936   4.424
 4427SOL     OW14179   6.996   6.655   2.805
 4427SOL    HW114180   6.951   6.744   2.811
 4427SOL    HW214181   6.964   6.607   2.723
 4428SOL     OW14182   2.900   5.540   2.799
 4428SOL    HW114183   2.976   5.487   2.837
 4428SOL    HW214184   2.935   5.608   2.735
 4429SOL     OW14185   2.879   0.356   3.922
 4429SOL    HW114186   2.830   0.286   3.974
 4429SOL    HW214187   2.814   0.413   3.872
 4430SOL     OW14188   5.402   3.271   4.034
 4430SOL    HW114189   5.399   3.332   4.113
 4430SOL    HW214190   5.471   3.303   3.970
 4431SOL     OW14191   1.539   1.346   1.986
 4431SOL    HW114192   1.620   1.388   2.026
 4431SOL    HW214193   1.500   1.281   2.051
 4432SOL     OW14194   3.438   4.141   3.500
 4432SOL    HW114195   3.393   4.223   3.462
 4432SOL    HW214196   3.415   4.062   3.443
 4433SOL     OW14197   6.320   0.444   4.762
 4433SOL    HW114198   6.396   0.444   4.826
 4433SOL    HW214199   6.240   0.486   4.805
 4434SOL     OW14200   4.746   1.874   3.872
 4434SOL    HW114201   4.732   1.955   3.815
 4434SOL    HW214202   4.839   1.874   3.907
 4435SOL     OW14203   4.330   3.678   1.028
 4435SOL    HW114204   4.266   3.609   0.994
 4435SOL    HW214205   4.405   3.633   1.077
 4436SOL     OW14206   3.184   2.445   0.474
 4436SOL    HW114207   3.136   2.460   0.388
 4436SOL    HW214208   3.175   2.349   0.501
 4437SOL     OW14209   5.424   1.800   3.506
 4437SOL    HW114210   5.355   1.763   3.444
 4437SOL    HW214211   5.437   1.737   3.583
 4438SOL     OW14212   4.013   1.597   6.599
 4438SOL    HW114213   4.018   1.651   6.515
 4438SOL    HW214214   3.917   1.577   6.619
 4439SOL     OW14215   0.187   6.135   1.490
 4439SOL    HW114216   0.240   6.107   1.571
 4439SOL    HW214217   0.248   6.178   1.424
 4440SOL     OW14218   1.709   4.650   0.214
 4440SOL    HW114219   1.704   4.718   0.140
 4440SOL    HW214220   1.716   4.698   0.302
 4441SOL     OW14221   6.971   1.235   2.046
 4441SOL    HW114222   7.009   1.202   1.959
 4441SOL    HW214223   6.938   1.328   2.035
 4442SOL     OW14224   3.369   6.468   4.035
 4442SOL    HW114225   3.437   6.395   4.042
 4442SOL    HW214226   3.292   6.437   3.980
 4443SOL     OW14227   0.189   2.873   0.462
 4443SOL    HW114228   0.158   2.835   0.374
 4443SOL    HW214229   0.278   2.833   0.485
 4444SOL     OW14230   3.726   6.392   6.501
 4444SOL    HW114231   3.784   6.458   6.549
 4444SOL    HW214232   3.777   6.307   6.488
 4445SOL     OW14233   6.969   0.315   0.894
 4445SOL    HW114234   6.980   0.237   0.833
 4445SOL    HW214235   0.027   0.328   0.947
 4446SOL     OW14236   5.358   1.392   1.849
 4446SOL    HW114237   5.334   1.297   1.866
 4446SOL    HW214238   5.362   1.408   1.750
 4447SOL     OW14239   5.527   3.499   6.107
 4447SOL    HW114240   5.531   3.575   6.172
 4447SOL    HW214241   5.439   3.501   6.059
 4448SOL     OW14242   3.089   4.198   0.879
 4448SOL    HW114243   3.187   4.186   0.869
 4448SOL    HW214244   3.054   4.134   0.947
 4449SOL     OW14245   4.550   0.486   5.832
 4449SOL    HW114246   4.581   0.497   5.927
 4449SOL    HW214247   4.451   0.471   5.831
 4450SOL     OW14248   3.860   3.007   4.291
 4450SOL    HW114249   3.886   2.983   4.384
 4450SOL    HW214250   3.824   3.100   4.289
 4451SOL     OW14251   5.878   3.785   3.009
 4451SOL    HW114252   5.974   3.789   3.036
 4451SOL    HW214253   5.823   3.838   3.074
 4452SOL     OW14254   5.964   6.800   4.933
 4452SOL    HW114255   5.999   6.784   5.025
 4452SOL    HW214256   5.965   6.898   4.913
 4453SOL     OW14257   6.411   2.694   0.726
 4453SOL    HW114258   6.445   2.648   0.644
 4453SOL    HW214259   6.378   2.785   0.701
 4454SOL     OW14260   5.299   2.567   0.376
 4454SOL    HW114261   5.351   2.492   0.417
 4454SOL    HW214262   5.252   2.618   0.448
 4455SOL     OW14263   3.283   0.358   6.514
 4455SOL    HW114264   3.326   0.421   6.578
 4455SOL    HW214265   3.212   0.406   6.463
 4456SOL     OW14266   2.494   5.129   2.524
 4456SOL    HW114267   2.549   5.047   2.533
 4456SOL    HW214268   2.526   5.198   2.589
 4457SOL     OW14269   3.851   2.531   0.300
 4457SOL    HW114270   3.849   2.522   0.201
 4457SOL    HW214271   3.900   2.615   0.325
 4458SOL     OW14272   1.251   3.952   6.767
 4458SOL    HW114273   1.230   3.869   6.818
 4458SOL    HW214274   1.237   4.032   6.826
 4459SOL     OW14275   5.669   0.477   3.280
 4459SOL    HW114276   5.741   0.474   3.211
 4459SOL    HW214277   5.650   0.385   3.313
 4460SOL     OW14278   2.622   3.188   5.627
 4460SOL    HW114279   2.584   3.099   5.654
 4460SOL    HW214280   2.624   3.194   5.527
 4461SOL     OW14281   0.654   0.856   2.834
 4461SOL    HW114282   0.651   0.786   2.763
 4461SOL    HW214283   0.691   0.816   2.918
 4462SOL     OW14284   7.002   3.444   1.568
 4462SOL    HW114285   0.027   3.444   1.654
 4462SOL    HW214286   0.033   3.480   1.495
 4463SOL     OW14287   3.007   2.599   6.853
 4463SOL    HW114288   2.949   2.663   6.802
 4463SOL    HW214289   2.950   2.532   6.900
 4464SOL     OW14290   5.905   4.907   6.823
 4464SOL    HW114291   5.911   4.962   6.740
 4464SOL    HW214292   5.818   4.924   6.869
 4465SOL     OW14293   2.121   6.233   3.537
 4465SOL    HW114294   2.114   6.179   3.621
 4465SOL    HW214295   2.151   6.174   3.462
 4466SOL     OW14296   1.327   0.419   2.111
 4466SOL    HW114297   1.302   0.470   2.193
 4466SOL    HW214298   1.266   0.340   2.101
 4467SOL     OW14299   1.215   6.372   3.599
 4467SOL    HW114300   1.164   6.297   3.642
 4467SOL    HW214301   1.192   6.458   3.644
 4468SOL     OW14302   1.167   2.355   0.080
 4468SOL    HW114303   1.238   2.422   0.101
 4468SOL    HW214304   1.077   2.398   0.094
 4469SOL     OW14305   3.449   0.314   1.274
 4469SOL    HW114306   3.445   0.363   1.187
 4469SOL    HW214307   3.539   0.326   1.315
 4470SOL     OW14308   6.108   3.702   1.949
 4470SOL    HW114309   6.056   3.741   1.872
 4470SOL    HW214310   6.155   3.775   1.998
 4471SOL     OW14311   0.366   2.359   0.467
 4471SOL    HW114312   0.396   2.353   0.563
 4471SOL    HW214313   0.278   2.313   0.457
 4472SOL     OW14314   1.655   2.922   4.003
 4472SOL    HW114315   1.631   2.951   3.911
 4472SOL    HW214316   1.755   2.924   4.014
 4473SOL     OW14317   6.752   2.259   3.744
 4473SOL    HW114318   6.655   2.267   3.722
 4473SOL    HW214319   6.775   2.164   3.762
 4474SOL     OW14320   2.715   1.163   1.643
 4474SOL    HW114321   2.801   1.212   1.659
 4474SOL    HW214322   2.690   1.171   1.547
 4475SOL     OW14323   1.483   3.956   2.636
 4475SOL    HW114324   1.567   3.913   2.605
 4475SOL    HW214325   1.503   4.043   2.680
 4476SOL     OW14326   5.150   6.673   3.854
 4476SOL    HW114327   5.090   6.684   3.775
 4476SOL    HW214328   5.098   6.638   3.932
 4477SOL     OW14329   1.825   6.958   5.781
 4477SOL    HW114330   1.827   6.984   5.685
 4477SOL    HW214331   1.832   6.858   5.789
 4478SOL     OW14332   2.833   5.840   2.486
 4478SOL    HW114333   2.800   5.931   2.463
 4478SOL    HW214334   2.756   5.776   2.485
 4479SOL     OW14335   0.730   0.442   1.205
 4479SOL    HW114336   0.635   0.409   1.201
 4479SOL    HW214337   0.789   0.379   1.155
 4480SOL     OW14338   1.675   3.601   5.155
 4480SOL    HW114339   1.616   3.600   5.236
 4480SOL    HW214340   1.770   3.585   5.184
 4481SOL     OW14341   2.784   6.735   5.193
 4481SOL    HW114342   2.702   6.678   5.195
 4481SOL    HW214343   2.782   6.794   5.112
 4482SOL     OW14344   0.753   4.100   4.115
 4482SOL    HW114345   0.782   4.159   4.190
 4482SOL    HW214346   0.827   4.036   4.093
 4483SOL     OW14347   5.708   3.231   1.283
 4483SOL    HW114348   5.696   3.314   1.229
 4483SOL    HW214349   5.632   3.169   1.267
 4484SOL     OW14350   3.015   2.197   5.320
 4484SOL    HW114351   2.921   2.222   5.295
 4484SOL    HW214352   3.078   2.264   5.282
 4485SOL     OW14353   5.237   2.305   6.196
 4485SOL    HW114354   5.237   2.209   6.225
 4485SOL    HW214355   5.147   2.345   6.213
 4486SOL     OW14356   5.664   3.661   4.196
 4486SOL    HW114357   5.575   3.649   4.152
 4486SOL    HW214358   5.651   3.693   4.289
 4487SOL     OW14359   2.555   3.212   6.489
 4487SOL    HW114360   2.562   3.305   6.451
 4487SOL    HW214361   2.575   3.146   6.417
 4488SOL     OW14362   5.855   2.818   5.312
 4488SOL    HW114363   5.800   2.736   5.299
 4488SOL    HW214364   5.815   2.894   5.261
 4489SOL     OW14365   5.092   6.358   4.702
 4489SOL    HW114366   5.175   6.383   4.651
 4489SOL    HW214367   5.045   6.441   4.732
 4490SOL     OW14368   5.830   2.393   2.040
 4490SOL    HW114369   5.739   2.404   2.000
 4490SOL    HW214370   5.831   2.438   2.130
 4491SOL     OW14371   0.523   2.935   3.920
 4491SOL    HW114372   0.488   2.970   4.006
 4491SOL    HW214373   0.453   2.881   3.874
 4492SOL     OW14374   5.195   3.485   0.951
 4492SOL    HW114375   5.267   3.416   0.947
 4492SOL    HW214376   5.135   3.476   0.871
 4493SOL     OW14377   4.772   5.774   5.647
 4493SOL    HW114378   4.711   5.849   5.674
 4493SOL    HW214379   4.719   5.691   5.635
 4494SOL     OW14380   0.323   1.897   6.143
 4494SOL    HW114381   0.312   1.815   6.198
 4494SOL    HW214382   0.415   1.935   6.157
 4495SOL     OW14383   4.987   6.400   3.753
 4495SOL    HW114384   5.017   6.483   3.706
 4495SOL    HW214385   4.998   6.413   3.852
 4496SOL     OW14386   4.630   5.755   0.641
 4496SOL    HW114387   4.621   5.773   0.739
 4496SOL    HW214388   4.679   5.830   0.597
 4497SOL     OW14389   4.708   0.211   0.185
 4497SOL    HW114390   4.737   0.142   0.119
 4497SOL    HW214391   4.707   0.171   0.277
 4498SOL     OW14392   0.299   2.869   6.218
 4498SOL    HW114393   0.338   2.802   6.282
 4498SOL    HW214394   0.332   2.849   6.126
 4499SOL     OW14395   0.161   3.667   3.885
 4499SOL    HW114396   0.175   3.643   3.981
 4499SOL    HW214397   0.242   3.642   3.832
 4500SOL     OW14398   2.893   3.406   3.956
 4500SOL    HW114399   2.944   3.344   4.016
 4500SOL    HW214400   2.795   3.394   3.972
 4501SOL     OW14401   0.521   3.326   6.126
 4501SOL    HW114402   0.489   3.241   6.168
 4501SOL    HW214403   0.601   3.306   6.070
 4502SOL     OW14404   1.783   1.970   6.654
 4502SOL    HW114405   1.855   2.037   6.634
 4502SOL    HW214406   1.724   2.005   6.727
 4503SOL     OW14407   3.086   0.549   2.847
 4503SOL    HW114408   3.118   0.633   2.803
 4503SOL    HW214409   2.998   0.522   2.806
 4504SOL     OW14410   6.459   1.845   4.978
 4504SOL    HW114411   6.417   1.780   5.042
 4504SOL    HW214412   6.407   1.846   4.893
 4505SOL     OW14413   6.674   5.771   3.433
 4505SOL    HW114414   6.629   5.858   3.454
 4505SOL    HW214415   6.723   5.739   3.514
 4506SOL     OW14416   4.724   2.474   4.326
 4506SOL    HW114417   4.794   2.532   4.367
 4506SOL    HW214418   4.759   2.436   4.240
 4507SOL     OW14419   5.254   4.426   1.983
 4507SOL    HW114420   5.180   4.485   2.014
 4507SOL    HW214421   5.332   4.434   2.045
 4508SOL     OW14422   0.815   5.107   5.755
 4508SOL    HW114423   0.786   5.065   5.669
 4508SOL    HW214424   0.734   5.131   5.809
 4509SOL     OW14425   5.545   3.007   3.910
 4509SOL    HW114426   5.597   2.941   3.856
 4509SOL    HW214427   5.599   3.090   3.921
 4510SOL     OW14428   5.619   6.834   5.822
 4510SOL    HW114429   5.624   6.776   5.904
 4510SOL    HW214430   5.528   6.874   5.815
 4511SOL     OW14431   6.799   3.688   6.483
 4511SOL    HW114432   6.870   3.617   6.489
 4511SOL    HW214433   6.791   3.719   6.388
 4512SOL     OW14434   2.206   6.611   5.798
 4512SOL    HW114435   2.237   6.551   5.872
 4512SOL    HW214436   2.202   6.705   5.831
 4513SOL     OW14437   5.056   6.242   0.292
 4513SOL    HW114438   5.074   6.315   0.227
 4513SOL    HW214439   4.977   6.267   0.348
 4514SOL     OW14440   4.948   1.211   5.171
 4514SOL    HW114441   4.960   1.306   5.201
 4514SOL    HW214442   4.897   1.160   5.240
 4515SOL     OW14443   6.911   4.113   5.719
 4515SOL    HW114444   6.839   4.047   5.738
 4515SOL    HW214445   6.923   4.174   5.797
 4516SOL     OW14446   1.353   1.043   6.082
 4516SOL    HW114447   1.276   1.070   6.141
 4516SOL    HW214448   1.424   1.114   6.086
 4517SOL     OW14449   2.235   0.435   0.062
 4517SOL    HW114450   2.278   0.507   0.116
 4517SOL    HW214451   2.233   0.350   0.114
 4518SOL     OW14452   6.722   1.708   3.485
 4518SOL    HW114453   6.633   1.675   3.517
 4518SOL    HW214454   6.794   1.647   3.517
 4519SOL     OW14455   5.593   0.375   1.497
 4519SOL    HW114456   5.536   0.402   1.419
 4519SOL    HW214457   5.537   0.322   1.561
 4520SOL     OW14458   5.343   5.724   3.428
 4520SOL    HW114459   5.310   5.774   3.348
 4520SOL    HW214460   5.294   5.638   3.436
 4521SOL     OW14461   5.183   1.926   4.334
 4521SOL    HW114462   5.207   1.923   4.237
 4521SOL    HW214463   5.217   2.011   4.374
 4522SOL     OW14464   5.396   0.196   3.449
 4522SOL    HW114465   5.336   0.250   3.508
 4522SOL    HW214466   5.486   0.240   3.445
 4523SOL     OW14467   1.077   4.308   0.162
 4523SOL    HW114468   1.151   4.276   0.102
 4523SOL    HW214469   1.114   4.370   0.231
 4524SOL     OW14470   5.080   2.242   4.864
 4524SOL    HW114471   5.153   2.180   4.893
 4524SOL    HW214472   5.064   2.231   4.765
 4525SOL     OW14473   6.260   1.261   3.529
 4525SOL    HW114474   6.233   1.357   3.529
 4525SOL    HW214475   6.178   1.203   3.528
 4526SOL     OW14476   4.678   0.771   0.863
 4526SOL    HW114477   4.626   0.826   0.798
 4526SOL    HW214478   4.623   0.693   0.893
 4527SOL     OW14479   4.331   1.372   4.012
 4527SOL    HW114480   4.390   1.385   4.092
 4527SOL    HW214481   4.272   1.293   4.026
 4528SOL     OW14482   4.622   6.519   0.052
 4528SOL    HW114483   4.616   6.472   0.140
 4528SOL    HW214484   4.666   6.608   0.064
 4529SOL     OW14485   3.633   1.384   4.187
 4529SOL    HW114486   3.577   1.319   4.239
 4529SOL    HW214487   3.679   1.446   4.250
 4530SOL     OW14488   0.341   3.129   5.654
 4530SOL    HW114489   0.403   3.054   5.680
 4530SOL    HW214490   0.338   3.136   5.555
 4531SOL     OW14491   0.491   3.240   3.683
 4531SOL    HW114492   0.557   3.283   3.745
 4531SOL    HW214493   0.491   3.287   3.595
 4532SOL     OW14494   0.273   0.967   2.274
 4532SOL    HW114495   0.334   0.988   2.351
 4532SOL    HW214496   0.260   1.050   2.218
 4533SOL     OW14497   1.014   0.355   2.658
 4533SOL    HW114498   1.011   0.404   2.571
 4533SOL    HW214499   1.040   0.419   2.731
 4534SOL     OW14500   6.331   3.909   4.317
 4534SOL    HW114501   6.417   3.860   4.314
 4534SOL    HW214502   6.270   3.875   4.246
 4535SOL     OW14503   4.674   1.765   2.914
 4535SOL    HW114504   4.734   1.748   2.836
 4535SOL    HW214505   4.701   1.851   2.959
 4536SOL     OW14506   4.700   2.464   4.042
 4536SOL    HW114507   4.654   2.534   3.987
 4536SOL    HW214508   4.648   2.379   4.038
 4537SOL     OW14509   3.796   2.973   6.093
 4537SOL    HW114510   3.762   2.978   5.999
 4537SOL    HW214511   3.766   3.054   6.143
 4538SOL     OW14512   2.600   1.127   4.268
 4538SOL    HW114513   2.631   1.057   4.204
 4538SOL    HW214514   2.643   1.214   4.245
 4539SOL     OW14515   2.153   1.067   4.445
 4539SOL    HW114516   2.165   1.166   4.433
 4539SOL    HW214517   2.221   1.019   4.390
 4540SOL     OW14518   3.494   2.945   4.387
 4540SOL    HW114519   3.524   2.910   4.298
 4540SOL    HW214520   3.516   2.878   4.458
 4541SOL     OW14521   5.814   1.374   0.234
 4541SOL    HW114522   5.727   1.327   0.245
 4541SOL    HW214523   5.889   1.309   0.243
 4542SOL     OW14524   5.900   6.753   1.644
 4542SOL    HW114525   5.988   6.774   1.601
 4542SOL    HW214526   5.907   6.666   1.694
 4543SOL     OW14527   5.086   2.225   0.112
 4543SOL    HW114528   5.002   2.266   0.148
 4543SOL    HW214529   5.121   2.158   0.178
 4544SOL     OW14530   2.639   6.374   5.721
 4544SOL    HW114531   2.645   6.419   5.631
 4544SOL    HW214532   2.624   6.276   5.708
 4545SOL     OW14533   5.133   2.660   4.594
 4545SOL    HW114534   5.123   2.598   4.672
 4545SOL    HW214535   5.212   2.720   4.609
 4546SOL     OW14536   1.332   1.342   6.479
 4546SOL    HW114537   1.403   1.283   6.517
 4546SOL    HW214538   1.373   1.428   6.448
 4547SOL     OW14539   6.521   2.741   2.826
 4547SOL    HW114540   6.456   2.744   2.901
 4547SOL    HW214541   6.593   2.675   2.846
 4548SOL     OW14542   1.456   4.368   4.804
 4548SOL    HW114543   1.521   4.351   4.730
 4548SOL    HW214544   1.477   4.456   4.847
 4549SOL     OW14545   6.107   3.716   2.400
 4549SOL    HW114546   6.057   3.765   2.328
 4549SOL    HW214547   6.044   3.656   2.448
 4550SOL     OW14548   0.836   6.131   2.544
 4550SOL    HW114549   0.892   6.196   2.492
 4550SOL    HW214550   0.745   6.125   2.503
 4551SOL     OW14551   6.775   2.149   5.297
 4551SOL    HW114552   6.732   2.209   5.364
 4551SOL    HW214553   6.812   2.068   5.343
 4552SOL     OW14554   6.462   2.673   6.418
 4552SOL    HW114555   6.557   2.692   6.444
 4552SOL    HW214556   6.459   2.646   6.322
 4553SOL     OW14557   4.072   4.543   0.537
 4553SOL    HW114558   4.108   4.451   0.524
 4553SOL    HW214559   4.004   4.563   0.466
 4554SOL     OW14560   3.849   1.125   1.706
 4554SOL    HW114561   3.791   1.206   1.711
 4554SOL    HW214562   3.945   1.152   1.701
 4555SOL     OW14563   3.229   1.906   5.734
 4555SOL    HW114564   3.197   1.824   5.781
 4555SOL    HW214565   3.152   1.949   5.686
 4556SOL     OW14566   4.947   2.682   3.148
 4556SOL    HW114567   4.875   2.751   3.158
 4556SOL    HW214568   4.975   2.651   3.239
 4557SOL     OW14569   5.546   6.861   5.357
 4557SOL    HW114570   5.506   6.806   5.283
 4557SOL    HW214571   5.530   6.958   5.338
 4558SOL     OW14572   6.862   3.936   6.022
 4558SOL    HW114573   6.919   3.884   5.959
 4558SOL    HW214574   6.918   3.972   6.097
 4559SOL     OW14575   1.058   4.599   0.941
 4559SOL    HW114576   1.029   4.670   1.004
 4559SOL    HW214577   1.145   4.626   0.898
 4560SOL     OW14578   5.479   4.785   3.397
 4560SOL    HW114579   5.457   4.792   3.494
 4560SOL    HW214580   5.414   4.724   3.352
 4561SOL     OW14581   2.745   0.969   1.399
 4561SOL    HW114582   2.648   0.946   1.396
 4561SOL    HW214583   2.775   0.975   1.495
 4562SOL     OW14584   2.865   5.763   4.787
 4562SOL    HW114585   2.878   5.703   4.866
 4562SOL    HW214586   2.849   5.856   4.818
 4563SOL     OW14587   6.903   4.032   0.061
 4563SOL    HW114588   6.843   3.952   0.058
 4563SOL    HW214589   6.947   4.038   0.150
 4564SOL     OW14590   0.632   6.621   1.082
 4564SOL    HW114591   0.628   6.705   1.029
 4564SOL    HW214592   0.727   6.600   1.105
 4565SOL     OW14593   0.137   1.335   5.339
 4565SOL    HW114594   0.093   1.247   5.319
 4565SOL    HW214595   0.071   1.409   5.330
 4566SOL     OW14596   6.300   1.100   0.890
 4566SOL    HW114597   6.241   1.077   0.967
 4566SOL    HW214598   6.371   1.164   0.920
 4567SOL     OW14599   0.574   1.032   0.055
 4567SOL    HW114600   0.627   1.046   6.998
 4567SOL    HW214601   0.572   1.117   0.108
 4568SOL     OW14602   1.132   4.699   5.408
 4568SOL    HW114603   1.154   4.795   5.423
 4568SOL    HW214604   1.102   4.657   5.493
 4569SOL     OW14605   2.287   1.485   3.090
 4569SOL    HW114606   2.239   1.573   3.095
 4569SOL    HW214607   2.278   1.437   3.177
 4570SOL     OW14608   0.417   4.863   3.189
 4570SOL    HW114609   0.420   4.826   3.096
 4570SOL    HW214610   0.323   4.862   3.223
 4571SOL     OW14611   3.521   3.239   5.703
 4571SOL    HW114612   3.534   3.173   5.629
 4571SOL    HW214613   3.502   3.329   5.664
 4572SOL     OW14614   1.111   6.288   6.173
 4572SOL    HW114615   1.057   6.234   6.109
 4572SOL    HW214616   1.099   6.385   6.154
 4573SOL     OW14617   6.212   6.103   0.533
 4573SOL    HW114618   6.297   6.124   0.484
 4573SOL    HW214619   6.227   6.025   0.594
 4574SOL     OW14620   6.407   4.194   1.102
 4574SOL    HW114621   6.418   4.104   1.144
 4574SOL    HW214622   6.329   4.241   1.143
 4575SOL     OW14623   6.632   1.817   6.693
 4575SOL    HW114624   6.575   1.895   6.667
 4575SOL    HW214625   6.575   1.747   6.736
 4576SOL     OW14626   2.343   6.077   6.607
 4576SOL    HW114627   2.259   6.118   6.570
 4576SOL    HW214628   2.323   5.984   6.638
 4577SOL     OW14629   0.484   3.055   3.330
 4577SOL    HW114630   0.521   3.142   3.362
 4577SOL    HW214631   0.398   3.071   3.282
 4578SOL     OW14632   0.265   3.131   4.052
 4578SOL    HW114633   0.252   3.044   4.099
 4578SOL    HW214634   0.214   3.202   4.100
 4579SOL     OW14635   5.836   1.567   2.841
 4579SOL    HW114636   5.910   1.563   2.773
 4579SOL    HW214637   5.748   1.568   2.794
 4580SOL     OW14638   5.073   5.435   6.701
 4580SOL    HW114639   5.002   5.378   6.742
 4580SOL    HW214640   5.092   5.513   6.762
 4581SOL     OW14641   2.937   5.615   3.215
 4581SOL    HW114642   2.850   5.570   3.192
 4581SOL    HW214643   3.009   5.547   3.225
 4582SOL     OW14644   5.919   6.669   4.718
 4582SOL    HW114645   5.826   6.658   4.683
 4582SOL    HW214646   5.917   6.718   4.805
 4583SOL     OW14647   2.861   1.436   4.746
 4583SOL    HW114648   2.926   1.360   4.742
 4583SOL    HW214649   2.813   1.444   4.659
 4584SOL     OW14650   0.223   5.220   4.990
 4584SOL    HW114651   0.278   5.153   5.040
 4584SOL    HW214652   0.275   5.253   4.911
 4585SOL     OW14653   2.697   6.873   2.854
 4585SOL    HW114654   2.623   6.840   2.795
 4585SOL    HW214655   2.674   6.854   2.949
 4586SOL     OW14656   3.743   5.260   0.688
 4586SOL    HW114657   3.691   5.301   0.613
 4586SOL    HW214658   3.689   5.187   0.730
 4587SOL     OW14659   4.270   3.249   1.694
 4587SOL    HW114660   4.347   3.307   1.666
 4587SOL    HW214661   4.237   3.279   1.784
 4588SOL     OW14662   3.856   4.082   5.521
 4588SOL    HW114663   3.804   4.056   5.440
 4588SOL    HW214664   3.844   4.012   5.591
 4589SOL     OW14665   5.826   1.715   1.706
 4589SOL    HW114666   5.747   1.764   1.743
 4589SOL    HW214667   5.797   1.656   1.631
 4590SOL     OW14668   4.443   6.163   2.064
 4590SOL    HW114669   4.453   6.064   2.052
 4590SOL    HW214670   4.347   6.189   2.051
 4591SOL     OW14671   0.670   6.139   4.901
 4591SOL    HW114672   0.743   6.086   4.857
 4591SOL    HW214673   0.689   6.149   4.998
 4592SOL     OW14674   4.108   2.387   1.756
 4592SOL    HW114675   4.149   2.343   1.676
 4592SOL    HW214676   4.091   2.483   1.736
 4593SOL     OW14677   4.065   5.844   4.123
 4593SOL    HW114678   4.113   5.793   4.052
 4593SOL    HW214679   4.102   5.821   4.212
 4594SOL     OW14680   3.534   2.061   1.396
 4594SOL    HW114681   3.448   2.083   1.350
 4594SOL    HW214682   3.515   2.019   1.485
 4595SOL     OW14683   3.439   2.846   5.806
 4595SOL    HW114684   3.432   2.869   5.709
 4595SOL    HW214685   3.465   2.749   5.816
 4596SOL     OW14686   6.306   6.612   2.151
 4596SOL    HW114687   6.220   6.569   2.179
 4596SOL    HW214688   6.286   6.698   2.104
 4597SOL     OW14689   5.321   4.710   7.019
 4597SOL    HW114690   5.330   4.775   6.944
 4597SOL    HW214691   5.365   4.624   6.994
 4598SOL     OW14692   1.706   5.493   6.907
 4598SOL    HW114693   1.761   5.431   6.851
 4598SOL    HW214694   1.623   5.446   6.937
 4599SOL     OW14695   1.800   4.231   0.499
 4599SOL    HW114696   1.857   4.274   0.429
 4599SOL    HW214697   1.856   4.212   0.580
 4600SOL     OW14698   1.813   6.027   6.090
 4600SOL    HW114699   1.894   6.019   6.032
 4600SOL    HW214700   1.830   6.092   6.164
 4601SOL     OW14701   1.536   0.328   5.261
 4601SOL    HW114702   1.556   0.426   5.259
 4601SOL    HW214703   1.603   0.280   5.204
 4602SOL     OW14704   1.032   5.791   0.799
 4602SOL    HW114705   1.083   5.843   0.731
 4602SOL    HW214706   0.939   5.828   0.807
 4603SOL     OW14707   3.579   6.384   1.045
 4603SOL    HW114708   3.602   6.295   1.085
 4603SOL    HW214709   3.553   6.447   1.118
 4604SOL     OW14710   4.959   0.784   1.760
 4604SOL    HW114711   4.949   0.826   1.670
 4604SOL    HW214712   4.896   0.827   1.824
 4605SOL     OW14713   5.010   1.403   3.136
 4605SOL    HW114714   5.083   1.434   3.076
 4605SOL    HW214715   4.951   1.480   3.160
 4606SOL     OW14716   0.565   0.134   1.693
 4606SOL    HW114717   0.599   0.199   1.626
 4606SOL    HW214718   0.495   0.076   1.650
 4607SOL     OW14719   2.721   2.961   0.394
 4607SOL    HW114720   2.629   2.936   0.425
 4607SOL    HW214721   2.789   2.906   0.443
 4608SOL     OW14722   1.051   5.675   3.637
 4608SOL    HW114723   1.097   5.599   3.681
 4608SOL    HW214724   1.118   5.727   3.583
 4609SOL     OW14725   4.036   5.600   5.966
 4609SOL    HW114726   3.994   5.546   5.893
 4609SOL    HW214727   3.969   5.617   6.039
 4610SOL     OW14728   5.736   2.475   0.550
 4610SOL    HW114729   5.805   2.405   0.531
 4610SOL    HW214730   5.648   2.431   0.566
 4611SOL     OW14731   5.992   5.756   6.069
 4611SOL    HW114732   5.988   5.785   6.164
 4611SOL    HW214733   6.020   5.660   6.064
 4612SOL     OW14734   1.238   6.514   0.884
 4612SOL    HW114735   1.266   6.418   0.873
 4612SOL    HW214736   1.280   6.569   0.813
 4613SOL     OW14737   2.699   5.327   2.427
 4613SOL    HW114738   2.762   5.322   2.504
 4613SOL    HW214739   2.649   5.414   2.429
 4614SOL     OW14740   0.958   3.998   5.369
 4614SOL    HW114741   1.006   3.983   5.455
 4614SOL    HW214742   0.925   4.093   5.365
 4615SOL     OW14743   1.593   0.720   0.090
 4615SOL    HW114744   1.585   0.621   0.081
 4615SOL    HW214745   1.688   0.744   0.115
 4616SOL     OW14746   5.989   0.257   6.051
 4616SOL    HW114747   5.988   0.307   6.138
 4616SOL    HW214748   5.979   0.159   6.070
 4617SOL     OW14749   1.221   2.300   2.343
 4617SOL    HW114750   1.144   2.338   2.292
 4617SOL    HW214751   1.287   2.373   2.361
 4618SOL     OW14752   1.997   2.327   5.331
 4618SOL    HW114753   2.031   2.412   5.372
 4618SOL    HW214754   2.000   2.334   5.232
 4619SOL     OW14755   3.720   6.277   3.051
 4619SOL    HW114756   3.657   6.299   3.125
 4619SOL    HW214757   3.726   6.355   2.989
 4620SOL     OW14758   2.913   4.299   6.850
 4620SOL    HW114759   2.973   4.224   6.877
 4620SOL    HW214760   2.932   4.323   6.754
 4621SOL     OW14761   5.869   1.631   3.151
 4621SOL    HW114762   5.789   1.586   3.190
 4621SOL    HW214763   5.879   1.603   3.055
 4622SOL     OW14764   1.216   3.424   0.786
 4622SOL    HW114765   1.250   3.378   0.868
 4622SOL    HW214766   1.134   3.477   0.809
 4623SOL     OW14767   0.341   6.047   0.654
 4623SOL    HW114768   0.320   6.026   0.749
 4623SOL    HW214769   0.259   6.036   0.598
 4624SOL     OW14770   5.247   6.580   2.912
 4624SOL    HW114771   5.225   6.483   2.907
 4624SOL    HW214772   5.342   6.591   2.941
 4625SOL     OW14773   1.742   4.772   6.978
 4625SOL    HW114774   1.716   4.855   6.928
 4625SOL    HW214775   1.825   4.733   6.937
 4626SOL     OW14776   5.877   5.597   2.027
 4626SOL    HW114777   5.855   5.539   1.948
 4626SOL    HW214778   5.976   5.605   2.036
 4627SOL     OW14779   3.652   6.093   3.832
 4627SOL    HW114780   3.562   6.098   3.788
 4627SOL    HW214781   3.686   5.999   3.829
 4628SOL     OW14782   6.157   4.163   3.822
 4628SOL    HW114783   6.203   4.094   3.876
 4628SOL    HW214784   6.184   4.254   3.853
 4629SOL     OW14785   2.040   5.019   5.170
 4629SOL    HW114786   2.085   5.057   5.251
 4629SOL    HW214787   1.954   4.977   5.196
 4630SOL     OW14788   3.510   5.603   2.961
 4630SOL    HW114789   3.448   5.668   3.005
 4630SOL    HW214790   3.600   5.645   2.949
 4631SOL     OW14791   2.231   6.305   3.877
 4631SOL    HW114792   2.180   6.222   3.852
 4631SOL    HW214793   2.324   6.298   3.843
 4632SOL     OW14794   4.325   4.604   3.447
 4632SOL    HW114795   4.392   4.641   3.382
 4632SOL    HW214796   4.282   4.523   3.407
 4633SOL     OW14797   6.084   2.435   3.832
 4633SOL    HW114798   6.090   2.335   3.827
 4633SOL    HW214799   6.067   2.472   3.741
 4634SOL     OW14800   2.108   4.646   6.633
 4634SOL    HW114801   2.069   4.568   6.583
 4634SOL    HW214802   2.200   4.665   6.600
 4635SOL     OW14803   5.587   3.522   1.944
 4635SOL    HW114804   5.503   3.490   1.900
 4635SOL    HW214805   5.665   3.472   1.909
 4636SOL     OW14806   2.095   5.354   0.221
 4636SOL    HW114807   2.057   5.405   0.144
 4636SOL    HW214808   2.177   5.305   0.191
 4637SOL     OW14809   1.869   0.922   0.339
 4637SOL    HW114810   1.878   0.823   0.345
 4637SOL    HW214811   1.865   0.949   0.242
 4638SOL     OW14812   3.869   3.381   6.369
 4638SOL    HW114813   3.833   3.474   6.365
 4638SOL    HW214814   3.858   3.345   6.462
 4639SOL     OW14815   2.076   4.579   5.188
 4639SOL    HW114816   2.008   4.652   5.187
 4639SOL    HW214817   2.128   4.580   5.103
 4640SOL     OW14818   5.188   5.385   3.634
 4640SOL    HW114819   5.278   5.342   3.631
 4640SOL    HW214820   5.118   5.315   3.648
 4641SOL     OW14821   3.073   6.384   4.305
 4641SOL    HW114822   3.107   6.323   4.233
 4641SOL    HW214823   3.130   6.374   4.386
 4642SOL     OW14824   0.838   6.462   5.587
 4642SOL    HW114825   0.801   6.546   5.626
 4642SOL    HW214826   0.892   6.414   5.656
 4643SOL     OW14827   5.715   2.276   1.256
 4643SOL    HW114828   5.715   2.249   1.352
 4643SOL    HW214829   5.637   2.337   1.239
 4644SOL     OW14830   1.279   5.041   4.949
 4644SOL    HW114831   1.353   5.028   5.015
 4644SOL    HW214832   1.237   4.953   4.928
 4645SOL     OW14833   1.344   0.483   4.148
 4645SOL    HW114834   1.246   0.489   4.126
 4645SOL    HW214835   1.362   0.535   4.231
 4646SOL     OW14836   2.736   6.780   3.139
 4646SOL    HW114837   2.713   6.690   3.176
 4646SOL    HW214838   2.828   6.806   3.169
 4647SOL     OW14839   0.834   6.707   3.345
 4647SOL    HW114840   0.759   6.771   3.356
 4647SOL    HW214841   0.817   6.625   3.400
 4648SOL     OW14842   4.187   0.517   1.131
 4648SOL    HW114843   4.235   0.429   1.133
 4648SOL    HW214844   4.194   0.561   1.220
 4649SOL     OW14845   5.160   6.661   5.842
 4649SOL    HW114846   5.202   6.687   5.755
 4649SOL    HW214847   5.203   6.712   5.916
 4650SOL     OW14848   4.199   6.021   3.937
 4650SOL    HW114849   4.284   5.970   3.947
 4650SOL    HW214850   4.134   5.992   4.008
 4651SOL     OW14851   0.286   1.421   0.912
 4651SOL    HW114852   0.261   1.508   0.869
 4651SOL    HW214853   0.381   1.398   0.888
 4652SOL     OW14854   0.354   0.843   4.122
 4652SOL    HW114855   0.311   0.760   4.089
 4652SOL    HW214856   0.452   0.842   4.100
 4653SOL     OW14857   6.047   5.711   6.775
 4653SOL    HW114858   6.146   5.697   6.777
 4653SOL    HW214859   6.012   5.691   6.683
 4654SOL     OW14860   0.579   6.841   6.966
 4654SOL    HW114861   0.602   6.906   0.012
 4654SOL    HW214862   0.591   6.885   6.877
 4655SOL     OW14863   6.635   5.587   1.844
 4655SOL    HW114864   6.566   5.517   1.826
 4655SOL    HW214865   6.620   5.626   1.935
 4656SOL     OW14866   1.118   6.948   3.582
 4656SOL    HW114867   1.169   7.017   3.633
 4656SOL    HW214868   1.028   6.984   3.558
 4657SOL     OW14869   4.790   6.640   1.387
 4657SOL    HW114870   4.787   6.541   1.398
 4657SOL    HW214871   4.866   6.677   1.440
 4658SOL     OW14872   3.640   1.099   2.096
 4658SOL    HW114873   3.703   1.027   2.124
 4658SOL    HW214874   3.691   1.174   2.053
 4659SOL     OW14875   2.694   3.673   6.096
 4659SOL    HW114876   2.663   3.712   6.009
 4659SOL    HW214877   2.737   3.744   6.151
 4660SOL     OW14878   0.887   2.800   5.095
 4660SOL    HW114879   0.914   2.762   5.183
 4660SOL    HW214880   0.969   2.823   5.042
 4661SOL     OW14881   3.515   4.114   5.594
 4661SOL    HW114882   3.567   4.196   5.615
 4661SOL    HW214883   3.499   4.109   5.495
 4662SOL     OW14884   4.658   0.401   5.153
 4662SOL    HW114885   4.659   0.301   5.154
 4662SOL    HW214886   4.673   0.434   5.060
 4663SOL     OW14887   0.708   1.965   2.154
 4663SOL    HW114888   0.805   1.943   2.141
 4663SOL    HW214889   0.682   1.946   2.248
 4664SOL     OW14890   2.117   1.862   0.564
 4664SOL    HW114891   2.212   1.867   0.533
 4664SOL    HW214892   2.066   1.801   0.504
 4665SOL     OW14893   4.338   6.957   0.381
 4665SOL    HW114894   4.370   7.000   0.466
 4665SOL    HW214895   4.410   6.898   0.345
 4666SOL     OW14896   1.485   1.570   0.587
 4666SOL    HW114897   1.564   1.573   0.526
 4666SOL    HW214898   1.468   1.661   0.624
 4667SOL     OW14899   6.297   4.563   1.249
 4667SOL    HW114900   6.245   4.648   1.247
 4667SOL    HW214901   6.395   4.583   1.256
 4668SOL     OW14902   6.530   2.360   3.064
 4668SOL    HW114903   6.530   2.260   3.065
 4668SOL    HW214904   6.506   2.394   3.155
 4669SOL     OW14905   3.206   7.000   0.453
 4669SOL    HW114906   3.270   0.030   0.505
 4669SOL    HW214907   3.237   6.905   0.453
 4670SOL     OW14908   3.312   1.597   5.065
 4670SOL    HW114909   3.311   1.521   5.130
 4670SOL    HW214910   3.229   1.594   5.009
 4671SOL     OW14911   6.981   2.567   2.115
 4671SOL    HW114912   6.934   2.479   2.109
 4671SOL    HW214913   0.054   2.551   2.115
 4672SOL     OW14914   2.598   5.213   6.229
 4672SOL    HW114915   2.637   5.306   6.231
 4672SOL    HW214916   2.570   5.186   6.321
 4673SOL     OW14917   4.871   6.560   0.743
 4673SOL    HW114918   4.876   6.573   0.842
 4673SOL    HW214919   4.963   6.546   0.707
 4674SOL     OW14920   5.004   6.844   6.898
 4674SOL    HW114921   5.056   6.836   6.984
 4674SOL    HW214922   5.036   6.924   6.848
 4675SOL     OW14923   0.901   3.144   6.840
 4675SOL    HW114924   0.907   3.152   6.741
 4675SOL    HW214925   0.928   3.230   6.882
 4676SOL     OW14926   6.784   6.078   3.702
 4676SOL    HW114927   6.721   6.102   3.629
 4676SOL    HW214928   6.877   6.104   3.676
 4677SOL     OW14929   2.504   2.382   1.042
 4677SOL    HW114930   2.512   2.287   1.072
 4677SOL    HW214931   2.456   2.435   1.112
 4678SOL     OW14932   2.119   4.768   2.971
 4678SOL    HW114933   2.168   4.715   2.901
 4678SOL    HW214934   2.060   4.706   3.023
 4679SOL     OW14935   4.401   0.170   1.700
 4679SOL    HW114936   4.469   0.155   1.771
 4679SOL    HW214937   4.366   0.082   1.668
 4680SOL     OW14938   3.894   0.921   6.508
 4680SOL    HW114939   3.978   0.961   6.471
 4680SOL    HW214940   3.905   0.903   6.605
 4681SOL     OW14941   5.342   4.796   0.276
 4681SOL    HW114942   5.420   4.755   0.324
 4681SOL    HW214943   5.338   4.762   0.182
 4682SOL     OW14944   4.568   4.527   5.557
 4682SOL    HW114945   4.625   4.446   5.569
 4682SOL    HW214946   4.570   4.555   5.461
 4683SOL     OW14947   5.527   5.416   2.709
 4683SOL    HW114948   5.459   5.418   2.636
 4683SOL    HW214949   5.488   5.373   2.790
 4684SOL     OW14950   5.072   6.917   5.646
 4684SOL    HW114951   5.003   6.893   5.715
 4684SOL    HW214952   5.112   6.833   5.609
 4685SOL     OW14953   2.164   5.014   6.510
 4685SOL    HW114954   2.167   5.059   6.600
 4685SOL    HW214955   2.226   4.936   6.510
 4686SOL     OW14956   3.962   5.914   6.926
 4686SOL    HW114957   3.983   5.886   6.833
 4686SOL    HW214958   3.923   6.006   6.926
 4687SOL     OW14959   4.801   3.001   4.263
 4687SOL    HW114960   4.798   2.989   4.362
 4687SOL    HW214961   4.757   3.087   4.238
 4688SOL     OW14962   6.275   2.680   5.143
 4688SOL    HW114963   6.317   2.740   5.075
 4688SOL    HW214964   6.346   2.644   5.204
 4689SOL     OW14965   5.639   1.003   0.686
 4689SOL    HW114966   5.556   1.046   0.721
 4689SOL    HW214967   5.659   1.041   0.595
 4690SOL     OW14968   1.952   0.472   0.665
 4690SOL    HW114969   1.910   0.397   0.716
 4690SOL    HW214970   1.991   0.438   0.580
 4691SOL     OW14971   3.001   3.750   0.946
 4691SOL    HW114972   2.978   3.763   1.043
 4691SOL    HW214973   3.088   3.701   0.939
 4692SOL     OW14974   5.737   5.182   2.904
 4692SOL    HW114975   5.739   5.282   2.915
 4692SOL    HW214976   5.712   5.159   2.811
 4693SOL     OW14977   1.303   0.403   3.695
 4693SOL    HW114978   1.261   0.491   3.718
 4693SOL    HW214979   1.377   0.383   3.760
 4694SOL     OW14980   2.183   1.495   6.982
 4694SOL    HW114981   2.189   1.396   6.993
 4694SOL    HW214982   2.249   1.540   0.015
 4695SOL     OW14983   1.291   4.743   0.848
 4695SOL    HW114984   1.268   4.837   0.873
 4695SOL    HW214985   1.367   4.743   0.782
 4696SOL     OW14986   0.328   5.529   6.058
 4696SOL    HW114987   0.337   5.557   5.962
 4696SOL    HW214988   0.258   5.586   6.102
 4697SOL     OW14989   1.163   3.859   2.357
 4697SOL    HW114990   1.244   3.838   2.302
 4697SOL    HW214991   1.081   3.827   2.310
 4698SOL     OW14992   4.329   6.180   3.250
 4698SOL    HW114993   4.328   6.140   3.342
 4698SOL    HW214994   4.339   6.108   3.182
 4699SOL     OW14995   0.517   6.344   2.551
 4699SOL    HW114996   0.419   6.340   2.568
 4699SOL    HW214997   0.533   6.355   2.453
 4700SOL     OW14998   6.204   2.149   2.279
 4700SOL    HW114999   6.294   2.133   2.320
 4700SOL    HW215000   6.179   2.070   2.223
 4701SOL     OW15001   3.469   2.098   0.137
 4701SOL    HW115002   3.423   2.052   0.213
 4701SOL    HW215003   3.504   2.029   0.073
 4702SOL     OW15004   4.662   4.883   6.817
 4702SOL    HW115005   4.573   4.913   6.851
 4702SOL    HW215006   4.701   4.817   6.881
 4703SOL     OW15007   1.265   6.783   2.897
 4703SOL    HW115008   1.300   6.693   2.923
 4703SOL    HW215009   1.222   6.777   2.808
 4704SOL     OW15010   6.490   5.948   6.461
 4704SOL    HW115011   6.403   5.949   6.410
 4704SOL    HW215012   6.520   5.853   6.472
 4705SOL     OW15013   4.353   2.629   1.029
 4705SOL    HW115014   4.275   2.688   1.050
 4705SOL    HW215015   4.355   2.553   1.094
 4706SOL     OW15016   1.783   0.704   0.593
 4706SOL    HW115017   1.848   0.680   0.521
 4706SOL    HW215018   1.810   0.659   0.678
 4707SOL     OW15019   0.894   6.597   1.804
 4707SOL    HW115020   0.908   6.641   1.715
 4707SOL    HW215021   0.873   6.667   1.873
 4708SOL     OW15022   1.457   1.849   5.647
 4708SOL    HW115023   1.429   1.875   5.555
 4708SOL    HW215024   1.557   1.851   5.654
 4709SOL     OW15025   4.842   5.328   5.025
 4709SOL    HW115026   4.863   5.250   4.965
 4709SOL    HW215027   4.834   5.296   5.119
 4710SOL     OW15028   5.258   7.025   6.256
 4710SOL    HW115029   5.235   0.070   6.191
 4710SOL    HW215030   5.195   0.003   6.334
 4711SOL     OW15031   6.256   1.577   1.808
 4711SOL    HW115032   6.212   1.508   1.751
 4711SOL    HW215033   6.355   1.568   1.800
 4712SOL     OW15034   3.085   4.876   6.657
 4712SOL    HW115035   3.061   4.780   6.672
 4712SOL    HW215036   3.150   4.884   6.582
 4713SOL     OW15037   3.986   4.957   1.182
 4713SOL    HW115038   3.954   5.018   1.110
 4713SOL    HW215039   4.029   4.877   1.140
 4714SOL     OW15040   0.340   1.284   6.327
 4714SOL    HW115041   0.387   1.196   6.334
 4714SOL    HW215042   0.402   1.352   6.289
 4715SOL     OW15043   6.002   3.227   1.281
 4715SOL    HW115044   5.991   3.128   1.289
 4715SOL    HW215045   5.913   3.270   1.265
 4716SOL     OW15046   4.151   6.369   5.451
 4716SOL    HW115047   4.208   6.288   5.465
 4716SOL    HW215048   4.079   6.372   5.519
 4717SOL     OW15049   1.003   5.838   4.973
 4717SOL    HW115050   1.032   5.743   4.962
 4717SOL    HW215051   1.079   5.892   5.008
 4718SOL     OW15052   5.493   1.898   0.916
 4718SOL    HW115053   5.504   1.987   0.960
 4718SOL    HW215054   5.577   1.845   0.925
 4719SOL     OW15055   5.112   3.617   2.353
 4719SOL    HW115056   5.103   3.610   2.452
 4719SOL    HW215057   5.090   3.529   2.311
 4720SOL     OW15058   1.735   5.247   6.030
 4720SOL    HW115059   1.815   5.236   5.970
 4720SOL    HW215060   1.688   5.332   6.007
 4721SOL     OW15061   6.648   1.738   1.679
 4721SOL    HW115062   6.621   1.804   1.609
 4721SOL    HW215063   6.639   1.781   1.769
 4722SOL     OW15064   1.025   6.257   6.753
 4722SOL    HW115065   0.965   6.197   6.806
 4722SOL    HW215066   1.023   6.230   6.657
 4723SOL     OW15067   2.893   3.396   5.281
 4723SOL    HW115068   2.939   3.483   5.298
 4723SOL    HW215069   2.936   3.324   5.334
 4724SOL     OW15070   0.092   7.006   4.337
 4724SOL    HW115071   0.022   0.005   4.404
 4724SOL    HW215072   0.084   6.909   4.316
 4725SOL     OW15073   6.614   5.038   0.375
 4725SOL    HW115074   6.552   4.977   0.326
 4725SOL    HW215075   6.569   5.070   0.458
 4726SOL     OW15076   1.683   3.037   6.185
 4726SOL    HW115077   1.652   3.094   6.110
 4726SOL    HW215078   1.776   3.064   6.211
 4727SOL     OW15079   0.709   6.411   1.301
 4727SOL    HW115080   0.713   6.328   1.356
 4727SOL    HW215081   0.616   6.448   1.303
 4728SOL     OW15082   6.416   0.794   2.897
 4728SOL    HW115083   6.423   0.867   2.965
 4728SOL    HW215084   6.495   0.798   2.835
 4729SOL     OW15085   5.057   0.933   0.559
 4729SOL    HW115086   5.122   0.898   0.626
 4729SOL    HW215087   5.015   0.857   0.510
 4730SOL     OW15088   3.008   5.898   5.255
 4730SOL    HW115089   2.924   5.865   5.298
 4730SOL    HW215090   3.085   5.883   5.317
 4731SOL     OW15091   2.940   1.035   0.660
 4731SOL    HW115092   2.910   1.113   0.605
 4731SOL    HW215093   2.893   1.037   0.748
 4732SOL     OW15094   0.650   3.482   5.122
 4732SOL    HW115095   0.742   3.517   5.136
 4732SOL    HW215096   0.584   3.554   5.142
 4733SOL     OW15097   1.522   3.773   3.889
 4733SOL    HW115098   1.606   3.769   3.836
 4733SOL    HW215099   1.456   3.832   3.842
 4734SOL     OW15100   4.433   3.239   0.421
 4734SOL    HW115101   4.410   3.230   0.518
 4734SOL    HW215102   4.352   3.218   0.366
 4735SOL     OW15103   6.876   5.839   4.049
 4735SOL    HW115104   6.779   5.821   4.030
 4735SOL    HW215105   6.904   5.921   4.001
 4736SOL     OW15106   5.463   1.698   5.877
 4736SOL    HW115107   5.498   1.715   5.785
 4736SOL    HW215108   5.533   1.723   5.944
 4737SOL     OW15109   2.663   4.528   0.891
 4737SOL    HW115110   2.646   4.439   0.932
 4737SOL    HW215111   2.622   4.532   0.800
 4738SOL     OW15112   2.798   6.436   3.440
 4738SOL    HW115113   2.745   6.352   3.447
 4738SOL    HW215114   2.739   6.509   3.404
 4739SOL     OW15115   5.410   1.545   3.025
 4739SOL    HW115116   5.460   1.492   2.956
 4739SOL    HW215117   5.394   1.637   2.992
 4740SOL     OW15118   0.185   0.382   1.037
 4740SOL    HW115119   0.163   0.473   1.072
 4740SOL    HW215120   0.266   0.387   0.979
 4741SOL     OW15121   4.444   3.388   1.296
 4741SOL    HW115122   4.395   3.429   1.373
 4741SOL    HW215123   4.512   3.324   1.330
 4742SOL     OW15124   2.536   6.736   1.389
 4742SOL    HW115125   2.497   6.778   1.306
 4742SOL    HW215126   2.629   6.704   1.370
 4743SOL     OW15127   1.646   2.826   5.326
 4743SOL    HW115128   1.648   2.903   5.389
 4743SOL    HW215129   1.683   2.855   5.237
 4744SOL     OW15130   2.581   3.790   5.836
 4744SOL    HW115131   2.564   3.888   5.846
 4744SOL    HW215132   2.641   3.774   5.758
 4745SOL     OW15133   2.426   5.398   5.511
 4745SOL    HW115134   2.420   5.299   5.496
 4745SOL    HW215135   2.415   5.446   5.424
 4746SOL     OW15136   5.903   6.207   2.486
 4746SOL    HW115137   5.900   6.122   2.539
 4746SOL    HW215138   5.992   6.251   2.498
 4747SOL     OW15139   1.341   3.866   0.144
 4747SOL    HW115140   1.386   3.836   0.060
 4747SOL    HW215141   1.399   3.844   0.222
 4748SOL     OW15142   1.541   5.197   0.567
 4748SOL    HW115143   1.587   5.280   0.535
 4748SOL    HW215144   1.443   5.204   0.549
 4749SOL     OW15145   2.575   6.118   5.350
 4749SOL    HW115146   2.578   6.207   5.304
 4749SOL    HW215147   2.644   6.116   5.423
 4750SOL     OW15148   0.288   3.543   4.428
 4750SOL    HW115149   0.334   3.627   4.457
 4750SOL    HW215150   0.333   3.465   4.471
 4751SOL     OW15151   2.492   2.711   0.315
 4751SOL    HW115152   2.451   2.751   0.233
 4751SOL    HW215153   2.568   2.652   0.289
 4752SOL     OW15154   2.980   0.181   0.078
 4752SOL    HW115155   3.080   0.188   0.077
 4752SOL    HW215156   2.952   0.124   0.154
 4753SOL     OW15157   5.720   0.272   4.288
 4753SOL    HW115158   5.819   0.271   4.296
 4753SOL    HW215159   5.688   0.179   4.267
 4754SOL     OW15160   5.810   0.379   5.243
 4754SOL    HW115161   5.731   0.407   5.298
 4754SOL    HW215162   5.888   0.438   5.265
 4755SOL     OW15163   2.869   0.635   0.812
 4755SOL    HW115164   2.816   0.690   0.748
 4755SOL    HW215165   2.809   0.602   0.885
 4756SOL     OW15166   5.971   2.949   1.308
 4756SOL    HW115167   5.874   2.952   1.329
 4756SOL    HW215168   6.024   2.970   1.391
 4757SOL     OW15169   1.579   2.402   1.795
 4757SOL    HW115170   1.663   2.392   1.848
 4757SOL    HW215171   1.561   2.498   1.778
 4758SOL     OW15172   2.986   6.140   4.624
 4758SOL    HW115173   3.018   6.100   4.538
 4758SOL    HW215174   2.886   6.145   4.623
 4759SOL     OW15175   5.710   5.368   4.508
 4759SOL    HW115176   5.788   5.391   4.566
 4759SOL    HW215177   5.694   5.270   4.511
 4760SOL     OW15178   3.743   2.190   0.824
 4760SOL    HW115179   3.742   2.190   0.724
 4760SOL    HW215180   3.786   2.107   0.857
 4761SOL     OW15181   0.897   6.480   6.338
 4761SOL    HW115182   0.833   6.414   6.300
 4761SOL    HW215183   0.889   6.567   6.288
 4762SOL     OW15184   2.170   5.186   3.042
 4762SOL    HW115185   2.184   5.247   3.120
 4762SOL    HW215186   2.200   5.230   2.958
 4763SOL     OW15187   6.025   6.362   3.654
 4763SOL    HW115188   6.010   6.334   3.559
 4763SOL    HW215189   6.080   6.293   3.701
 4764SOL     OW15190   5.127   4.040   5.463
 4764SOL    HW115191   5.222   4.063   5.484
 4764SOL    HW215192   5.116   3.940   5.465
 4765SOL     OW15193   5.363   0.482   4.505
 4765SOL    HW115194   5.348   0.445   4.597
 4765SOL    HW215195   5.363   0.582   4.509
 4766SOL     OW15196   4.631   0.205   3.937
 4766SOL    HW115197   4.546   0.238   3.977
 4766SOL    HW215198   4.649   0.112   3.971
 4767SOL     OW15199   3.974   5.154   5.938
 4767SOL    HW115200   3.882   5.170   5.903
 4767SOL    HW215201   4.034   5.128   5.862
 4768SOL     OW15202   4.359   1.718   4.986
 4768SOL    HW115203   4.408   1.754   5.066
 4768SOL    HW215204   4.314   1.793   4.938
 4769SOL     OW15205   4.873   4.699   0.363
 4769SOL    HW115206   4.837   4.779   0.315
 4769SOL    HW215207   4.955   4.725   0.413
 4770SOL     OW15208   0.713   0.517   4.310
 4770SOL    HW115209   0.701   0.436   4.253
 4770SOL    HW215210   0.733   0.490   4.404
 4771SOL     OW15211   3.430   5.339   5.376
 4771SOL    HW115212   3.369   5.417   5.386
 4771SOL    HW215213   3.440   5.291   5.463
 4772SOL     OW15214   2.735   5.156   1.707
 4772SOL    HW115215   2.643   5.176   1.739
 4772SOL    HW215216   2.794   5.135   1.786
 4773SOL     OW15217   6.656   5.623   4.853
 4773SOL    HW115218   6.558   5.605   4.852
 4773SOL    HW215219   6.683   5.667   4.767
 4774SOL     OW15220   1.128   2.681   1.726
 4774SOL    HW115221   1.200   2.618   1.696
 4774SOL    HW215222   1.044   2.663   1.675
 4775SOL     OW15223   5.264   6.926   2.337
 4775SOL    HW115224   5.237   6.936   2.433
 4775SOL    HW215225   5.350   6.876   2.332
 4776SOL     OW15226   1.048   6.498   4.881
 4776SOL    HW115227   1.138   6.463   4.909
 4776SOL    HW215228   0.999   6.531   4.962
 4777SOL     OW15229   2.839   4.678   1.464
 4777SOL    HW115230   2.819   4.590   1.421
 4777SOL    HW215231   2.787   4.750   1.418
 4778SOL     OW15232   5.990   2.411   2.534
 4778SOL    HW115233   5.921   2.445   2.598
 4778SOL    HW215234   6.055   2.484   2.512
 4779SOL     OW15235   6.440   6.517   2.426
 4779SOL    HW115236   6.384   6.550   2.350
 4779SOL    HW215237   6.536   6.515   2.399
 4780SOL     OW15238   6.802   0.571   0.662
 4780SOL    HW115239   6.733   0.579   0.590
 4780SOL    HW215240   6.832   0.662   0.691
 4781SOL     OW15241   2.984   6.663   2.023
 4781SOL    HW115242   3.004   6.761   2.022
 4781SOL    HW215243   3.045   6.615   1.960
 4782SOL     OW15244   4.467   6.166   0.207
 4782SOL    HW115245   4.531   6.152   0.132
 4782SOL    HW215246   4.424   6.079   0.230
 4783SOL     OW15247   4.656   4.608   6.690
 4783SOL    HW115248   4.648   4.705   6.713
 4783SOL    HW215249   4.742   4.571   6.725
 4784SOL     OW15250   6.419   4.130   6.365
 4784SOL    HW115251   6.440   4.201   6.298
 4784SOL    HW215252   6.323   4.138   6.393
 4785SOL     OW15253   5.824   5.472   1.768
 4785SOL    HW115254   5.881   5.526   1.706
 4785SOL    HW215255   5.774   5.402   1.716
 4786SOL     OW15256   2.503   2.266   1.544
 4786SOL    HW115257   2.551   2.354   1.537
 4786SOL    HW215258   2.565   2.192   1.516
 4787SOL     OW15259   3.096   2.159   3.436
 4787SOL    HW115260   3.011   2.146   3.385
 4787SOL    HW215261   3.173   2.158   3.373
 4788SOL     OW15262   1.124   5.074   5.774
 4788SOL    HW115263   1.025   5.089   5.775
 4788SOL    HW215264   1.169   5.142   5.832
 4789SOL     OW15265   5.890   0.927   0.260
 4789SOL    HW115266   5.834   0.957   0.183
 4789SOL    HW215267   5.901   0.827   0.256
 4790SOL     OW15268   0.421   2.735   5.991
 4790SOL    HW115269   0.520   2.751   5.986
 4790SOL    HW215270   0.405   2.640   6.019
 4791SOL     OW15271   6.361   1.672   1.022
 4791SOL    HW115272   6.356   1.772   1.013
 4791SOL    HW215273   6.437   1.648   1.082
 4792SOL     OW15274   2.165   3.063   2.797
 4792SOL    HW115275   2.163   3.163   2.796
 4792SOL    HW215276   2.186   3.029   2.705
 4793SOL     OW15277   1.848   2.827   6.114
 4793SOL    HW115278   1.785   2.899   6.146
 4793SOL    HW215279   1.939   2.845   6.150
 4794SOL     OW15280   4.827   0.486   3.293
 4794SOL    HW115281   4.755   0.547   3.326
 4794SOL    HW215282   4.816   0.396   3.336
 4795SOL     OW15283   6.857   1.531   3.249
 4795SOL    HW115284   6.857   1.556   3.152
 4795SOL    HW215285   6.817   1.606   3.303
 4796SOL     OW15286   4.995   1.962   6.596
 4796SOL    HW115287   4.956   2.035   6.540
 4796SOL    HW215288   5.021   1.998   6.685
 4797SOL     OW15289   1.787   6.379   5.685
 4797SOL    HW115290   1.833   6.321   5.618
 4797SOL    HW215291   1.777   6.330   5.771
 4798SOL     OW15292   0.309   2.956   4.930
 4798SOL    HW115293   0.213   2.981   4.929
 4798SOL    HW215294   0.352   2.993   5.012
 4799SOL     OW15295   4.652   2.386   6.579
 4799SOL    HW115296   4.560   2.396   6.617
 4799SOL    HW215297   4.681   2.473   6.538
 4800SOL     OW15298   2.459   3.444   5.766
 4800SOL    HW115299   2.484   3.363   5.819
 4800SOL    HW215300   2.539   3.479   5.718
 4801SOL     OW15301   2.722   2.322   1.304
 4801SOL    HW115302   2.812   2.320   1.262
 4801SOL    HW215303   2.691   2.417   1.313
 4802SOL     OW15304   1.179   6.260   2.334
 4802SOL    HW115305   1.172   6.175   2.385
 4802SOL    HW215306   1.257   6.313   2.368
 4803SOL     OW15307   1.515   6.125   0.859
 4803SOL    HW115308   1.564   6.194   0.913
 4803SOL    HW215309   1.439   6.168   0.811
 4804SOL     OW15310   4.905   5.653   6.589
 4804SOL    HW115311   4.932   5.566   6.630
 4804SOL    HW215312   4.961   5.670   6.507
 4805SOL     OW15313   6.049   0.545   1.299
 4805SOL    HW115314   6.042   0.609   1.222
 4805SOL    HW215315   6.102   0.465   1.271
 4806SOL     OW15316   1.032   4.687   2.845
 4806SOL    HW115317   1.047   4.598   2.801
 4806SOL    HW215318   1.105   4.702   2.912
 4807SOL     OW15319   1.066   4.967   0.254
 4807SOL    HW115320   1.122   5.009   0.326
 4807SOL    HW215321   0.969   4.975   0.278
 4808SOL     OW15322   6.012   3.784   6.469
 4808SOL    HW115323   6.102   3.821   6.491
 4808SOL    HW215324   5.946   3.814   6.538
 4809SOL     OW15325   3.584   4.308   0.167
 4809SOL    HW115326   3.630   4.396   0.155
 4809SOL    HW215327   3.498   4.308   0.115
 4810SOL     OW15328   0.916   4.928   2.199
 4810SOL    HW115329   1.012   4.909   2.183
 4810SOL    HW215330   0.892   4.901   2.293
 4811SOL     OW15331   1.851   4.624   2.292
 4811SOL    HW115332   1.873   4.636   2.195
 4811SOL    HW215333   1.812   4.533   2.307
 4812SOL     OW15334   6.984   5.110   4.901
 4812SOL    HW115335   0.029   5.122   4.970
 4812SOL    HW215336   6.953   5.014   4.901
 4813SOL     OW15337   5.625   1.742   0.420
 4813SOL    HW115338   5.715   1.769   0.387
 4813SOL    HW215339   5.612   1.777   0.513
 4814SOL     OW15340   5.923   4.121   0.718
 4814SOL    HW115341   5.967   4.073   0.642
 4814SOL    HW215342   5.872   4.056   0.774
 4815SOL     OW15343   5.920   4.314   3.290
 4815SOL    HW115344   6.019   4.304   3.275
 4815SOL    HW215345   5.895   4.411   3.284
 4816SOL     OW15346   0.636   5.291   1.854
 4816SOL    HW115347   0.725   5.280   1.811
 4816SOL    HW215348   0.618   5.388   1.869
 4817SOL     OW15349   1.198   2.462   6.506
 4817SOL    HW115350   1.136   2.387   6.532
 4817SOL    HW215351   1.167   2.547   6.549
 4818SOL     OW15352   1.187   0.618   5.107
 4818SOL    HW115353   1.191   0.519   5.094
 4818SOL    HW215354   1.280   0.655   5.110
 4819SOL     OW15355   1.210   2.534   6.883
 4819SOL    HW115356   1.244   2.626   6.861
 4819SOL    HW215357   1.287   2.475   6.905
 4820SOL     OW15358   6.646   2.546   0.910
 4820SOL    HW115359   6.551   2.515   0.915
 4820SOL    HW215360   6.654   2.636   0.952
 4821SOL     OW15361   1.419   6.353   2.414
 4821SOL    HW115362   1.473   6.298   2.478
 4821SOL    HW215363   1.478   6.419   2.368
 4822SOL     OW15364   1.799   3.093   4.534
 4822SOL    HW115365   1.836   3.008   4.573
 4822SOL    HW215366   1.779   3.079   4.437
 4823SOL     OW15367   1.651   1.237   4.071
 4823SOL    HW115368   1.714   1.172   4.028
 4823SOL    HW215369   1.684   1.259   4.163
 4824SOL     OW15370   4.877   2.570   5.296
 4824SOL    HW115371   4.945   2.500   5.314
 4824SOL    HW215372   4.901   2.619   5.212
 4825SOL     OW15373   1.340   2.663   4.432
 4825SOL    HW115374   1.400   2.707   4.364
 4825SOL    HW215375   1.396   2.619   4.502
 4826SOL     OW15376   5.532   0.492   0.228
 4826SOL    HW115377   5.605   0.541   0.181
 4826SOL    HW215378   5.559   0.398   0.244
 4827SOL     OW15379   6.209   1.466   0.547
 4827SOL    HW115380   6.244   1.372   0.547
 4827SOL    HW215381   6.159   1.483   0.462
 4828SOL     OW15382   4.873   1.270   0.406
 4828SOL    HW115383   4.846   1.323   0.326
 4828SOL    HW215384   4.816   1.297   0.484
 4829SOL     OW15385   2.995   0.197   5.765
 4829SOL    HW115386   3.067   0.155   5.820
 4829SOL    HW215387   3.002   0.296   5.772
 4830SOL     OW15388   3.598   5.714   4.019
 4830SOL    HW115389   3.520   5.774   3.998
 4830SOL    HW215390   3.582   5.623   3.981
 4831SOL     OW15391   1.368   4.397   5.825
 4831SOL    HW115392   1.415   4.343   5.755
 4831SOL    HW215393   1.392   4.493   5.814
 4832SOL     OW15394   3.164   4.086   3.738
 4832SOL    HW115395   3.236   4.089   3.669
 4832SOL    HW215396   3.125   3.994   3.741
 4833SOL     OW15397   6.236   1.546   3.143
 4833SOL    HW115398   6.206   1.575   3.053
 4833SOL    HW215399   6.184   1.595   3.213
 4834SOL     OW15400   2.698   5.615   1.898
 4834SOL    HW115401   2.756   5.606   1.979
 4834SOL    HW215402   2.755   5.616   1.816
 4835SOL     OW15403   5.548   2.850   5.608
 4835SOL    HW115404   5.550   2.755   5.639
 4835SOL    HW215405   5.517   2.853   5.513
 4836SOL     OW15406   5.273   1.715   4.772
 4836SOL    HW115407   5.281   1.621   4.804
 4836SOL    HW215408   5.239   1.716   4.678
 4837SOL     OW15409   6.975   3.269   2.976
 4837SOL    HW115410   0.000   3.349   2.945
 4837SOL    HW215411   6.948   3.214   2.898
 4838SOL     OW15412   2.135   6.158   0.484
 4838SOL    HW115413   2.061   6.157   0.552
 4838SOL    HW215414   2.104   6.208   0.402
 4839SOL     OW15415   0.801   3.203   0.258
 4839SOL    HW115416   0.853   3.206   0.344
 4839SOL    HW215417   0.724   3.267   0.264
 4840SOL     OW15418   6.587   4.683   6.098
 4840SOL    HW115419   6.639   4.654   6.179
 4840SOL    HW215420   6.646   4.736   6.038
 4841SOL     OW15421   2.629   5.050   2.973
 4841SOL    HW115422   2.668   5.014   3.058
 4841SOL    HW215423   2.614   4.975   2.908
 4842SOL     OW15424   2.684   4.962   3.259
 4842SOL    HW115425   2.584   4.964   3.256
 4842SOL    HW215426   2.716   4.873   3.228
 4843SOL     OW15427   6.235   2.274   1.564
 4843SOL    HW115428   6.285   2.270   1.477
 4843SOL    HW215429   6.237   2.184   1.608
 4844SOL     OW15430   0.132   4.028   5.974
 4844SOL    HW115431   0.195   4.042   6.050
 4844SOL    HW215432   0.108   3.931   5.968
 4845SOL     OW15433   4.750   4.764   6.333
 4845SOL    HW115434   4.764   4.863   6.333
 4845SOL    HW215435   4.704   4.737   6.249
 4846SOL     OW15436   0.133   2.414   3.625
 4846SOL    HW115437   0.201   2.393   3.554
 4846SOL    HW215438   0.053   2.355   3.614
 4847SOL     OW15439   2.359   1.427   6.059
 4847SOL    HW115440   2.433   1.361   6.060
 4847SOL    HW215441   2.393   1.516   6.029
 4848SOL     OW15442   2.747   1.061   4.713
 4848SOL    HW115443   2.787   0.985   4.764
 4848SOL    HW215444   2.697   1.121   4.776
 4849SOL     OW15445   1.766   5.512   1.300
 4849SOL    HW115446   1.711   5.572   1.241
 4849SOL    HW215447   1.713   5.487   1.381
 4850SOL     OW15448   4.960   0.920   1.518
 4850SOL    HW115449   4.979   0.852   1.447
 4850SOL    HW215450   4.918   1.001   1.478
 4851SOL     OW15451   2.864   5.589   5.569
 4851SOL    HW115452   2.871   5.560   5.664
 4851SOL    HW215453   2.892   5.514   5.509
 4852SOL     OW15454   2.189   5.879   5.274
 4852SOL    HW115455   2.132   5.863   5.194
 4852SOL    HW215456   2.150   5.952   5.329
 4853SOL     OW15457   3.937   1.313   3.190
 4853SOL    HW115458   3.844   1.328   3.223
 4853SOL    HW215459   3.947   1.218   3.160
 4854SOL     OW15460   4.990   0.409   2.326
 4854SOL    HW115461   5.020   0.479   2.392
 4854SOL    HW215462   4.890   0.405   2.325
 4855SOL     OW15463   6.226   3.403   5.631
 4855SOL    HW115464   6.201   3.392   5.535
 4855SOL    HW215465   6.170   3.342   5.687
 4856SOL     OW15466   1.444   3.083   2.828
 4856SOL    HW115467   1.392   3.159   2.790
 4856SOL    HW215468   1.539   3.111   2.841
 4857SOL     OW15469   2.711   2.265   3.611
 4857SOL    HW115470   2.772   2.267   3.690
 4857SOL    HW215471   2.628   2.214   3.634
 4858SOL     OW15472   6.893   6.593   5.123
 4858SOL    HW115473   6.844   6.508   5.104
 4858SOL    HW215474   6.924   6.635   5.038
 4859SOL     OW15475   0.238   4.740   1.764
 4859SOL    HW115476   0.264   4.658   1.712
 4859SOL    HW215477   0.306   4.811   1.749
 4860SOL     OW15478   4.499   4.528   0.096
 4860SOL    HW115479   4.471   4.514   0.001
 4860SOL    HW215480   4.419   4.515   0.156
 4861SOL     OW15481   5.788   5.428   6.436
 4861SOL    HW115482   5.690   5.412   6.438
 4861SOL    HW215483   5.824   5.407   6.345
 4862SOL     OW15484   2.417   4.626   5.246
 4862SOL    HW115485   2.390   4.721   5.230
 4862SOL    HW215486   2.514   4.615   5.223
 4863SOL     OW15487   4.993   2.769   2.487
 4863SOL    HW115488   4.908   2.721   2.467
 4863SOL    HW215489   5.027   2.814   2.405
 4864SOL     OW15490   3.527   1.450   1.906
 4864SOL    HW115491   3.460   1.509   1.863
 4864SOL    HW215492   3.522   1.359   1.865
 4865SOL     OW15493   2.286   5.716   4.748
 4865SOL    HW115494   2.363   5.780   4.751
 4865SOL    HW215495   2.203   5.762   4.780
 4866SOL     OW15496   5.962   4.365   1.039
 4866SOL    HW115497   5.921   4.429   0.973
 4866SOL    HW215498   5.917   4.276   1.029
 4867SOL     OW15499   4.614   5.636   3.421
 4867SOL    HW115500   4.637   5.544   3.388
 4867SOL    HW215501   4.576   5.630   3.513
 4868SOL     OW15502   0.054   5.244   1.687
 4868SOL    HW115503   7.018   5.309   1.732
 4868SOL    HW215504   0.135   5.293   1.655
 4869SOL     OW15505   0.115   2.559   0.918
 4869SOL    HW115506   0.208   2.557   0.955
 4869SOL    HW215507   0.052   2.590   0.989
 4870SOL     OW15508   5.147   5.338   1.837
 4870SOL    HW115509   5.078   5.403   1.805
 4870SOL    HW215510   5.220   5.331   1.769
 4871SOL     OW15511   0.171   1.177   4.485
 4871SOL    HW115512   0.192   1.083   4.457
 4871SOL    HW215513   0.199   1.240   4.412
 4872SOL     OW15514   0.704   6.178   4.172
 4872SOL    HW115515   0.641   6.127   4.231
 4872SOL    HW215516   0.703   6.274   4.198
 4873SOL     OW15517   6.960   5.137   4.149
 4873SOL    HW115518   0.010   5.176   4.098
 4873SOL    HW215519   6.994   5.084   4.226
 4874SOL     OW15520   5.957   3.561   2.586
 4874SOL    HW115521   5.944   3.621   2.665
 4874SOL    HW215522   5.893   3.587   2.514
 4875SOL     OW15523   5.231   2.385   1.106
 4875SOL    HW115524   5.132   2.395   1.115
 4875SOL    HW215525   5.262   2.305   1.158
 4876SOL     OW15526   6.202   0.705   4.356
 4876SOL    HW115527   6.267   0.653   4.411
 4876SOL    HW215528   6.234   0.710   4.261
 4877SOL     OW15529   6.850   1.463   0.759
 4877SOL    HW115530   6.756   1.473   0.727
 4877SOL    HW215531   6.912   1.458   0.680
 4878SOL     OW15532   6.037   1.887   2.398
 4878SOL    HW115533   5.994   1.977   2.406
 4878SOL    HW215534   6.046   1.863   2.301
 4879SOL     OW15535   4.335   5.376   3.320
 4879SOL    HW115536   4.260   5.442   3.313
 4879SOL    HW215537   4.325   5.325   3.406
 4880SOL     OW15538   5.167   3.174   6.588
 4880SOL    HW115539   5.264   3.182   6.611
 4880SOL    HW215540   5.135   3.082   6.608
 4881SOL     OW15541   2.214   5.933   0.344
 4881SOL    HW115542   2.194   5.843   0.381
 4881SOL    HW215543   2.181   6.003   0.408
 4882SOL     OW15544   6.237   1.415   4.714
 4882SOL    HW115545   6.289   1.484   4.763
 4882SOL    HW215546   6.288   1.329   4.712
 4883SOL     OW15547   5.361   4.775   2.226
 4883SOL    HW115548   5.397   4.842   2.291
 4883SOL    HW215549   5.400   4.790   2.136
 4884SOL     OW15550   4.430   0.093   0.580
 4884SOL    HW115551   4.478   0.163   0.526
 4884SOL    HW215552   4.495   0.022   0.607
 4885SOL     OW15553   2.909   6.436   2.581
 4885SOL    HW115554   2.830   6.421   2.641
 4885SOL    HW215555   2.990   6.397   2.624
 4886SOL     OW15556   0.091   5.670   6.183
 4886SOL    HW115557   0.029   5.732   6.136
 4886SOL    HW215558   0.167   5.722   6.222
 4887SOL     OW15559   0.282   1.740   2.574
 4887SOL    HW115560   0.369   1.768   2.533
 4887SOL    HW215561   0.211   1.735   2.503
 4888SOL     OW15562   2.155   6.321   4.164
 4888SOL    HW115563   2.181   6.293   4.071
 4888SOL    HW215564   2.238   6.335   4.218
 4889SOL     OW15565   0.413   1.675   6.799
 4889SOL    HW115566   0.499   1.626   6.788
 4889SOL    HW215567   0.419   1.764   6.753
 4890SOL     OW15568   0.632   2.390   4.988
 4890SOL    HW115569   0.579   2.455   4.934
 4890SOL    HW215570   0.674   2.438   5.066
 4891SOL     OW15571   1.240   5.824   0.180
 4891SOL    HW115572   1.276   5.816   0.273
 4891SOL    HW215573   1.147   5.861   0.184
 4892SOL     OW15574   2.620   6.000   2.310
 4892SOL    HW115575   2.636   5.902   2.301
 4892SOL    HW215576   2.665   6.048   2.234
 4893SOL     OW15577   6.273   4.675   6.650
 4893SOL    HW115578   6.242   4.661   6.744
 4893SOL    HW215579   6.235   4.761   6.615
 4894SOL     OW15580   2.531   0.824   1.818
 4894SOL    HW115581   2.498   0.856   1.906
 4894SOL    HW215582   2.620   0.866   1.799
 4895SOL     OW15583   0.118   4.617   1.142
 4895SOL    HW115584   0.106   4.658   1.233
 4895SOL    HW215585   0.051   4.544   1.129
 4896SOL     OW15586   2.470   5.447   2.717
 4896SOL    HW115587   2.460   5.470   2.620
 4896SOL    HW215588   2.535   5.372   2.727
 4897SOL     OW15589   2.666   5.469   6.307
 4897SOL    HW115590   2.765   5.455   6.299
 4897SOL    HW215591   2.646   5.566   6.321
 4898SOL     OW15592   5.918   1.563   5.154
 4898SOL    HW115593   5.926   1.466   5.130
 4898SOL    HW215594   5.833   1.599   5.116
 4899SOL     OW15595   6.448   4.461   2.719
 4899SOL    HW115596   6.423   4.514   2.799
 4899SOL    HW215597   6.497   4.520   2.654
 4900SOL     OW15598   1.796   6.214   5.291
 4900SOL    HW115599   1.727   6.185   5.357
 4900SOL    HW215600   1.846   6.293   5.326
 4901SOL     OW15601   2.345   6.785   5.117
 4901SOL    HW115602   2.327   6.870   5.067
 4901SOL    HW215603   2.334   6.707   5.056
 4902SOL     OW15604   2.218   2.598   4.402
 4902SOL    HW115605   2.270   2.651   4.468
 4902SOL    HW215606   2.233   2.635   4.310
 4903SOL     OW15607   3.202   6.732   0.235
 4903SOL    HW115608   3.159   6.656   0.186
 4903SOL    HW215609   3.257   6.696   0.310
 4904SOL     OW15610   1.819   0.426   3.767
 4904SOL    HW115611   1.773   0.441   3.679
 4904SOL    HW215612   1.775   0.482   3.837
 4905SOL     OW15613   4.218   2.253   2.653
 4905SOL    HW115614   4.298   2.300   2.693
 4905SOL    HW215615   4.177   2.194   2.722
 4906SOL     OW15616   3.316   0.958   6.621
 4906SOL    HW115617   3.260   1.036   6.593
 4906SOL    HW215618   3.302   0.882   6.558
 4907SOL     OW15619   4.155   5.846   2.428
 4907SOL    HW115620   4.104   5.905   2.491
 4907SOL    HW215621   4.253   5.856   2.445
 4908SOL     OW15622   3.829   5.220   7.002
 4908SOL    HW115623   3.779   5.217   6.915
 4908SOL    HW215624   3.826   5.312   0.013
 4909SOL     OW15625   6.172   6.763   6.290
 4909SOL    HW115626   6.113   6.703   6.344
 4909SOL    HW215627   6.266   6.731   6.296
 4910SOL     OW15628   5.502   6.984   5.004
 4910SOL    HW115629   5.546   6.946   4.923
 4910SOL    HW215630   5.470   6.909   5.063
 4911SOL     OW15631   6.801   2.533   5.736
 4911SOL    HW115632   6.897   2.548   5.757
 4911SOL    HW215633   6.755   2.620   5.721
 4912SOL     OW15634   5.304   1.612   1.066
 4912SOL    HW115635   5.294   1.707   1.096
 4912SOL    HW215636   5.292   1.607   0.966
 4913SOL     OW15637   3.763   3.457   3.572
 4913SOL    HW115638   3.821   3.441   3.652
 4913SOL    HW215639   3.667   3.460   3.600
 4914SOL     OW15640   3.752   0.727   5.108
 4914SOL    HW115641   3.689   0.717   5.032
 4914SOL    HW215642   3.761   0.640   5.156
 4915SOL     OW15643   4.763   0.824   4.828
 4915SOL    HW115644   4.767   0.777   4.740
 4915SOL    HW215645   4.848   0.875   4.842
 4916SOL     OW15646   1.704   1.316   3.002
 4916SOL    HW115647   1.620   1.286   2.957
 4916SOL    HW215648   1.760   1.368   2.938
 4917SOL     OW15649   1.970   3.805   0.300
 4917SOL    HW115650   2.031   3.865   0.353
 4917SOL    HW215651   1.923   3.742   0.362
 4918SOL     OW15652   3.164   0.290   2.858
 4918SOL    HW115653   3.255   0.296   2.898
 4918SOL    HW215654   3.126   0.382   2.845
 4919SOL     OW15655   2.688   2.004   1.530
 4919SOL    HW115656   2.700   1.931   1.463
 4919SOL    HW215657   2.753   1.992   1.605
 4920SOL     OW15658   4.060   0.561   6.835
 4920SOL    HW115659   4.042   0.498   6.760
 4920SOL    HW215660   4.121   0.518   6.901
 4921SOL     OW15661   1.900   4.090   1.776
 4921SOL    HW115662   1.874   4.108   1.681
 4921SOL    HW215663   1.957   4.008   1.779
 4922SOL     OW15664   1.035   3.201   5.061
 4922SOL    HW115665   0.965   3.247   5.006
 4922SOL    HW215666   1.119   3.254   5.059
 4923SOL     OW15667   4.425   0.708   1.183
 4923SOL    HW115668   4.460   0.781   1.242
 4923SOL    HW215669   4.346   0.666   1.226
 4924SOL     OW15670   2.325   2.975   5.941
 4924SOL    HW115671   2.256   3.040   5.972
 4924SOL    HW215672   2.343   2.908   6.013
 4925SOL     OW15673   6.500   6.457   0.493
 4925SOL    HW115674   6.559   6.479   0.415
 4925SOL    HW215675   6.523   6.365   0.526
 4926SOL     OW15676   5.370   2.958   1.558
 4926SOL    HW115677   5.349   2.999   1.647
 4926SOL    HW215678   5.301   2.987   1.491
 4927SOL     OW15679   3.838   3.170   3.750
 4927SOL    HW115680   3.848   3.093   3.814
 4927SOL    HW215681   3.789   3.139   3.668
 4928SOL     OW15682   0.452   6.835   6.599
 4928SOL    HW115683   0.497   6.749   6.623
 4928SOL    HW215684   0.385   6.818   6.526
 4929SOL     OW15685   1.138   4.267   5.418
 4929SOL    HW115686   1.100   4.299   5.332
 4929SOL    HW215687   1.161   4.170   5.411
 4930SOL     OW15688   6.701   0.014   1.356
 4930SOL    HW115689   6.669   0.006   1.451
 4930SOL    HW215690   6.795   0.045   1.355
 4931SOL     OW15691   0.794   6.560   0.559
 4931SOL    HW115692   0.797   6.629   0.632
 4931SOL    HW215693   0.873   6.499   0.568
 4932SOL     OW15694   2.213   3.348   1.734
 4932SOL    HW115695   2.287   3.405   1.769
 4932SOL    HW215696   2.170   3.299   1.809
 4933SOL     OW15697   2.537   0.543   4.268
 4933SOL    HW115698   2.537   0.537   4.168
 4933SOL    HW215699   2.631   0.549   4.301
 4934SOL     OW15700   1.420   5.186   3.980
 4934SOL    HW115701   1.494   5.129   4.014
 4934SOL    HW215702   1.332   5.144   4.003
 4935SOL     OW15703   0.970   0.998   7.013
 4935SOL    HW115704   0.931   1.052   0.061
 4935SOL    HW215705   1.014   1.058   6.947
 4936SOL     OW15706   2.035   5.285   2.117
 4936SOL    HW115707   2.020   5.220   2.042
 4936SOL    HW215708   2.120   5.335   2.101
 4937SOL     OW15709   0.676   3.849   5.937
 4937SOL    HW115710   0.584   3.809   5.934
 4937SOL    HW215711   0.668   3.947   5.955
 4938SOL     OW15712   3.544   5.108   1.542
 4938SOL    HW115713   3.494   5.189   1.574
 4938SOL    HW215714   3.533   5.034   1.608
 4939SOL     OW15715   1.353   2.217   3.290
 4939SOL    HW115716   1.326   2.307   3.323
 4939SOL    HW215717   1.389   2.225   3.197
 4940SOL     OW15718   6.863   1.341   5.477
 4940SOL    HW115719   6.915   1.325   5.560
 4940SOL    HW215720   6.767   1.318   5.493
 4941SOL     OW15721   4.098   2.711   5.427
 4941SOL    HW115722   4.052   2.794   5.395
 4941SOL    HW215723   4.115   2.651   5.349
 4942SOL     OW15724   5.161   2.916   4.280
 4942SOL    HW115725   5.141   2.818   4.275
 4942SOL    HW215726   5.224   2.934   4.356
 4943SOL     OW15727   4.957   4.045   6.178
 4943SOL    HW115728   5.023   4.075   6.247
 4943SOL    HW215729   4.870   4.093   6.193
 4944SOL     OW15730   2.478   4.135   1.689
 4944SOL    HW115731   2.432   4.142   1.777
 4944SOL    HW215732   2.527   4.220   1.670
 4945SOL     OW15733   1.066   0.168   4.793
 4945SOL    HW115734   1.056   0.205   4.886
 4945SOL    HW215735   0.979   0.130   4.762
 4946SOL     OW15736   1.079   5.290   0.309
 4946SOL    HW115737   1.006   5.235   0.268
 4946SOL    HW215738   1.168   5.258   0.274
 4947SOL     OW15739   2.439   1.300   1.477
 4947SOL    HW115740   2.439   1.256   1.566
 4947SOL    HW215741   2.527   1.287   1.432
 4948SOL     OW15742   1.854   2.584   3.367
 4948SOL    HW115743   1.921   2.519   3.402
 4948SOL    HW215744   1.878   2.609   3.273
 4949SOL     OW15745   0.349   3.914   5.094
 4949SOL    HW115746   0.254   3.886   5.109
 4949SOL    HW215747   0.353   4.014   5.088
 4950SOL     OW15748   2.258   4.354   5.634
 4950SOL    HW115749   2.159   4.341   5.631
 4950SOL    HW215750   2.283   4.436   5.582
 4951SOL     OW15751   6.393   6.548   4.687
 4951SOL    HW115752   6.479   6.540   4.637
 4951SOL    HW215753   6.317   6.525   4.627
 4952SOL     OW15754   0.615   6.858   6.258
 4952SOL    HW115755   0.658   6.919   6.326
 4952SOL    HW215756   0.574   6.912   6.185
 4953SOL     OW15757   1.555   7.019   3.199
 4953SOL    HW115758   1.459   6.988   3.201
 4953SOL    HW215759   1.598   7.000   3.287
 4954SOL     OW15760   2.990   3.687   6.499
 4954SOL    HW115761   2.891   3.685   6.483
 4954SOL    HW215762   3.018   3.780   6.524
 4955SOL     OW15763   2.980   6.331   0.376
 4955SOL    HW115764   2.993   6.232   0.381
 4955SOL    HW215765   2.890   6.351   0.336
 4956SOL     OW15766   2.782   0.183   5.075
 4956SOL    HW115767   2.861   0.127   5.050
 4956SOL    HW215768   2.792   0.214   5.170
 4957SOL     OW15769   5.383   3.352   0.579
 4957SOL    HW115770   5.284   3.345   0.590
 4957SOL    HW215771   5.408   3.330   0.484
 4958SOL     OW15772   1.626   5.779   5.973
 4958SOL    HW115773   1.603   5.765   6.069
 4958SOL    HW215774   1.667   5.870   5.962
 4959SOL     OW15775   5.959   1.356   1.200
 4959SOL    HW115776   5.947   1.313   1.111
 4959SOL    HW215777   5.881   1.336   1.259
 4960SOL     OW15778   4.241   4.709   3.960
 4960SOL    HW115779   4.333   4.669   3.951
 4960SOL    HW215780   4.211   4.701   4.055
 4961SOL     OW15781   2.678   0.268   6.219
 4961SOL    HW115782   2.691   0.367   6.224
 4961SOL    HW215783   2.582   0.245   6.238
 4962SOL     OW15784   5.513   2.548   0.983
 4962SOL    HW115785   5.456   2.520   1.061
 4962SOL    HW215786   5.607   2.564   1.014
 4963SOL     OW15787   1.277   5.215   0.525
 4963SOL    HW115788   1.247   5.122   0.548
 4963SOL    HW215789   1.289   5.222   0.426
 4964SOL     OW15790   2.564   0.014   4.610
 4964SOL    HW115791   2.621   0.079   4.560
 4964SOL    HW215792   2.536   0.054   4.698
 4965SOL     OW15793   1.419   6.677   2.611
 4965SOL    HW115794   1.337   6.629   2.642
 4965SOL    HW215795   1.480   6.612   2.564
 4966SOL     OW15796   2.747   6.280   5.196
 4966SOL    HW115797   2.839   6.244   5.186
 4966SOL    HW215798   2.750   6.371   5.236
 4967SOL     OW15799   2.717   5.348   5.624
 4967SOL    HW115800   2.645   5.416   5.639
 4967SOL    HW215801   2.743   5.307   5.712
 4968SOL     OW15802   0.341   1.425   3.548
 4968SOL    HW115803   0.413   1.435   3.616
 4968SOL    HW215804   0.373   1.462   3.460
 4969SOL     OW15805   1.324   6.000   2.486
 4969SOL    HW115806   1.306   6.052   2.570
 4969SOL    HW215807   1.239   5.957   2.456
 4970SOL     OW15808   2.284   1.451   1.322
 4970SOL    HW115809   2.235   1.524   1.370
 4970SOL    HW215810   2.337   1.398   1.389
 4971SOL     OW15811   6.403   5.692   3.053
 4971SOL    HW115812   6.481   5.634   3.031
 4971SOL    HW215813   6.428   5.788   3.039
 4972SOL     OW15814   0.629   4.143   0.845
 4972SOL    HW115815   0.631   4.220   0.907
 4972SOL    HW215816   0.612   4.175   0.752
 4973SOL     OW15817   0.682   0.184   1.933
 4973SOL    HW115818   0.624   0.173   1.852
 4973SOL    HW215819   0.731   0.099   1.951
 4974SOL     OW15820   6.074   4.979   0.641
 4974SOL    HW115821   6.052   5.016   0.551
 4974SOL    HW215822   6.144   5.037   0.684
 4975SOL     OW15823   5.640   4.136   6.976
 4975SOL    HW115824   5.644   4.036   6.974
 4975SOL    HW215825   5.546   4.166   6.963
 4976SOL     OW15826   1.144   1.306   4.349
 4976SOL    HW115827   1.214   1.307   4.277
 4976SOL    HW215828   1.066   1.251   4.319
 4977SOL     OW15829   4.344   5.326   6.975
 4977SOL    HW115830   4.291   5.344   0.031
 4977SOL    HW215831   4.378   5.232   6.976
 4978SOL     OW15832   5.414   4.909   4.408
 4978SOL    HW115833   5.467   4.943   4.329
 4978SOL    HW215834   5.317   4.928   4.394
 4979SOL     OW15835   6.948   6.532   5.933
 4979SOL    HW115836   6.928   6.624   5.899
 4979SOL    HW215837   6.885   6.510   6.007
 4980SOL     OW15838   5.396   5.427   3.202
 4980SOL    HW115839   5.306   5.433   3.244
 4980SOL    HW215840   5.447   5.351   3.243
 4981SOL     OW15841   3.932   5.047   2.425
 4981SOL    HW115842   3.961   5.102   2.347
 4981SOL    HW215843   3.865   4.979   2.396
 4982SOL     OW15844   2.993   2.312   5.949
 4982SOL    HW115845   2.908   2.365   5.947
 4982SOL    HW215846   3.047   2.332   5.867
 4983SOL     OW15847   5.896   3.806   4.861
 4983SOL    HW115848   5.935   3.875   4.922
 4983SOL    HW215849   5.850   3.851   4.785
 4984SOL     OW15850   4.889   3.479   2.824
 4984SOL    HW115851   4.911   3.483   2.921
 4984SOL    HW215852   4.855   3.388   2.800
 4985SOL     OW15853   5.755   6.806   3.254
 4985SOL    HW115854   5.660   6.774   3.246
 4985SOL    HW215855   5.807   6.776   3.174
 4986SOL     OW15856   6.506   5.111   0.629
 4986SOL    HW115857   6.571   5.178   0.666
 4986SOL    HW215858   6.413   5.144   0.643
 4987SOL     OW15859   1.171   6.620   2.354
 4987SOL    HW115860   1.177   6.588   2.259
 4987SOL    HW215861   1.236   6.569   2.410
 4988SOL     OW15862   6.310   0.910   2.523
 4988SOL    HW115863   6.328   0.972   2.447
 4988SOL    HW215864   6.215   0.880   2.519
 4989SOL     OW15865   5.545   6.920   1.190
 4989SOL    HW115866   5.453   6.888   1.169
 4989SOL    HW215867   5.541   7.003   1.245
 4990SOL     OW15868   2.896   2.078   6.078
 4990SOL    HW115869   2.921   2.166   6.037
 4990SOL    HW215870   2.969   2.048   6.139
 4991SOL     OW15871   6.223   5.370   3.906
 4991SOL    HW115872   6.276   5.404   3.829
 4991SOL    HW215873   6.171   5.288   3.878
 4992SOL     OW15874   5.245   0.535   2.173
 4992SOL    HW115875   5.343   0.517   2.165
 4992SOL    HW215876   5.205   0.470   2.238
 4993SOL     OW15877   3.621   6.385   4.915
 4993SOL    HW115878   3.651   6.408   4.822
 4993SOL    HW215879   3.674   6.437   4.981
 4994SOL     OW15880   2.248   6.904   4.430
 4994SOL    HW115881   2.192   6.858   4.361
 4994SOL    HW215882   2.287   6.837   4.492
 4995SOL     OW15883   0.828   1.881   5.733
 4995SOL    HW115884   0.885   1.821   5.788
 4995SOL    HW215885   0.767   1.826   5.676
 4996SOL     OW15886   0.182   0.853   2.687
 4996SOL    HW115887   0.132   0.883   2.606
 4996SOL    HW215888   0.168   0.755   2.702
 4997SOL     OW15889   4.272   2.354   2.154
 4997SOL    HW115890   4.338   2.390   2.088
 4997SOL    HW215891   4.306   2.268   2.192
 4998SOL     OW15892   1.827   3.994   4.564
 4998SOL    HW115893   1.758   3.995   4.637
 4998SOL    HW215894   1.823   3.906   4.516
 4999SOL     OW15895   6.947   3.261   4.898
 4999SOL    HW115896   6.948   3.237   4.995
 4999SOL    HW215897   6.934   3.360   4.889
 5000SOL     OW15898   2.867   0.233   3.395
 5000SOL    HW115899   2.949   0.238   3.451
 5000SOL    HW215900   2.788   0.214   3.453
 5001SOL     OW15901   1.036   5.367   2.173
 5001SOL    HW115902   1.028   5.444   2.109
 5001SOL    HW215903   0.969   5.297   2.149
 5002SOL     OW15904   0.625   3.810   1.986
 5002SOL    HW115905   0.592   3.726   2.029
 5002SOL    HW215906   0.695   3.851   2.044
 5003SOL     OW15907   3.089   6.088   3.305
 5003SOL    HW115908   3.025   6.127   3.238
 5003SOL    HW215909   3.051   6.004   3.343
 5004SOL     OW15910   2.402   4.716   5.915
 5004SOL    HW115911   2.424   4.649   5.844
 5004SOL    HW215912   2.435   4.683   6.004
 5005SOL     OW15913   3.492   3.266   6.942
 5005SOL    HW115914   3.481   3.284   6.844
 5005SOL    HW215915   3.526   3.349   6.987
 5006SOL     OW15916   5.466   0.624   1.834
 5006SOL    HW115917   5.511   0.623   1.922
 5006SOL    HW215918   5.370   0.651   1.846
 5007SOL     OW15919   0.423   6.995   1.497
 5007SOL    HW115920   0.341   6.989   1.440
 5007SOL    HW215921   0.505   6.991   1.439
 5008SOL     OW15922   5.991   5.922   2.026
 5008SOL    HW115923   5.971   5.883   1.936
 5008SOL    HW215924   5.908   5.923   2.082
 5009SOL     OW15925   0.159   2.361   7.004
 5009SOL    HW115926   0.151   2.453   6.968
 5009SOL    HW215927   0.252   2.327   6.989
 5010SOL     OW15928   4.498   2.745   0.839
 5010SOL    HW115929   4.454   2.700   0.916
 5010SOL    HW215930   4.468   2.701   0.754
 5011SOL     OW15931   1.218   4.747   1.729
 5011SOL    HW115932   1.243   4.789   1.817
 5011SOL    HW215933   1.217   4.817   1.658
 5012SOL     OW15934   6.293   2.960   5.005
 5012SOL    HW115935   6.220   2.918   4.952
 5012SOL    HW215936   6.278   3.059   5.008
 5013SOL     OW15937   5.055   1.822   6.245
 5013SOL    HW115938   5.090   1.760   6.315
 5013SOL    HW215939   4.996   1.891   6.288
 5014SOL     OW15940   5.844   4.122   1.053
 5014SOL    HW115941   5.869   4.060   1.126
 5014SOL    HW215942   5.826   4.070   0.969
 5015SOL     OW15943   5.100   1.649   5.004
 5015SOL    HW115944   5.176   1.686   4.950
 5015SOL    HW215945   5.032   1.720   5.020
 5016SOL     OW15946   2.046   3.112   5.350
 5016SOL    HW115947   2.013   3.096   5.443
 5016SOL    HW215948   2.146   3.116   5.350
 5017SOL     OW15949   2.152   2.653   1.338
 5017SOL    HW115950   2.054   2.639   1.356
 5017SOL    HW215951   2.196   2.687   1.422
 5018SOL     OW15952   1.139   4.754   2.551
 5018SOL    HW115953   1.175   4.682   2.610
 5018SOL    HW215954   1.042   4.768   2.571
 5019SOL     OW15955   1.479   5.735   5.765
 5019SOL    HW115956   1.539   5.751   5.844
 5019SOL    HW215957   1.386   5.717   5.798
 5020SOL     OW15958   5.796   6.950   6.155
 5020SOL    HW115959   5.806   6.967   6.057
 5020SOL    HW215960   5.814   6.853   6.174
 5021SOL     OW15961   0.953   1.357   0.260
 5021SOL    HW115962   0.912   1.386   0.346
 5021SOL    HW215963   1.042   1.400   0.249
 5022SOL     OW15964   2.321   2.493   1.223
 5022SOL    HW115965   2.259   2.566   1.254
 5022SOL    HW215966   2.273   2.406   1.224
 5023SOL     OW15967   0.326   3.351   1.571
 5023SOL    HW115968   0.350   3.254   1.566
 5023SOL    HW215969   0.246   3.369   1.514
 5024SOL     OW15970   6.008   5.646   1.629
 5024SOL    HW115971   6.034   5.674   1.537
 5024SOL    HW215972   5.960   5.720   1.675
 5025SOL     OW15973   4.258   2.064   3.628
 5025SOL    HW115974   4.316   2.018   3.695
 5025SOL    HW215975   4.162   2.040   3.645
 5026SOL     OW15976   6.652   6.256   5.566
 5026SOL    HW115977   6.635   6.170   5.615
 5026SOL    HW215978   6.712   6.314   5.620
 5027SOL     OW15979   6.363   6.584   1.448
 5027SOL    HW115980   6.299   6.523   1.401
 5027SOL    HW215981   6.454   6.572   1.409
 5028SOL     OW15982   0.783   1.935   2.748
 5028SOL    HW115983   0.801   1.837   2.746
 5028SOL    HW215984   0.733   1.962   2.666
 5029SOL     OW15985   6.158   2.617   2.514
 5029SOL    HW115986   6.074   2.669   2.502
 5029SOL    HW215987   6.233   2.664   2.467
 5030SOL     OW15988   0.463   6.226   6.301
 5030SOL    HW115989   0.405   6.305   6.277
 5030SOL    HW215990   0.501   6.239   6.392
 5031SOL     OW15991   6.595   1.249   5.960
 5031SOL    HW115992   6.640   1.169   5.999
 5031SOL    HW215993   6.502   1.225   5.933
 5032SOL     OW15994   2.461   2.265   5.665
 5032SOL    HW115995   2.366   2.281   5.692
 5032SOL    HW215996   2.505   2.204   5.731
 5033SOL     OW15997   2.186   6.879   5.874
 5033SOL    HW115998   2.282   6.907   5.881
 5033SOL    HW215999   2.148   6.870   5.966
 5034SOL     OW16000   5.929   7.016   3.309
 5034SOL    HW116001   5.848   6.960   3.293
 5034SOL    HW216002   6.011   6.961   3.292
 5035SOL     OW16003   0.187   4.146   6.284
 5035SOL    HW116004   0.221   4.067   6.234
 5035SOL    HW216005   0.256   4.176   6.350
 5036SOL     OW16006   0.441   5.133   6.566
 5036SOL    HW116007   0.478   5.143   6.659
 5036SOL    HW216008   0.408   5.039   6.554
 5037SOL     OW16009   4.943   4.518   1.778
 5037SOL    HW116010   5.026   4.465   1.768
 5037SOL    HW216011   4.875   4.465   1.830
 5038SOL     OW16012   3.337   3.816   5.554
 5038SOL    HW116013   3.377   3.797   5.644
 5038SOL    HW216014   3.411   3.835   5.489
 5039SOL     OW16015   2.363   4.390   5.931
 5039SOL    HW116016   2.271   4.387   5.971
 5039SOL    HW216017   2.357   4.387   5.832
 5040SOL     OW16018   1.368   6.817   6.381
 5040SOL    HW116019   1.399   6.750   6.449
 5040SOL    HW216020   1.286   6.783   6.334
 5041SOL     OW16021   1.208   1.723   2.460
 5041SOL    HW116022   1.236   1.764   2.547
 5041SOL    HW216023   1.221   1.624   2.464
 5042SOL     OW16024   6.419   3.487   0.059
 5042SOL    HW116025   6.323   3.499   0.085
 5042SOL    HW216026   6.439   3.390   0.046
 5043SOL     OW16027   3.221   6.751   6.676
 5043SOL    HW116028   3.310   6.748   6.631
 5043SOL    HW216029   3.215   6.832   6.734
 5044SOL     OW16030   0.751   6.176   0.492
 5044SOL    HW116031   0.837   6.200   0.446
 5044SOL    HW216032   0.683   6.152   0.423
 5045SOL     OW16033   5.747   6.859   6.544
 5045SOL    HW116034   5.738   6.956   6.523
 5045SOL    HW216035   5.834   6.825   6.508
 5046SOL     OW16036   3.352   4.129   2.625
 5046SOL    HW116037   3.433   4.176   2.589
 5046SOL    HW216038   3.277   4.138   2.559
 5047SOL     OW16039   1.245   4.309   2.643
 5047SOL    HW116040   1.199   4.254   2.573
 5047SOL    HW216041   1.281   4.392   2.602
 5048SOL     OW16042   1.190   1.446   2.513
 5048SOL    HW116043   1.113   1.385   2.526
 5048SOL    HW216044   1.270   1.394   2.484
 5049SOL     OW16045   5.044   2.122   6.865
 5049SOL    HW116046   4.945   2.127   6.873
 5049SOL    HW216047   5.086   2.133   6.956
 5050SOL     OW16048   2.036   0.665   1.394
 5050SOL    HW116049   1.955   0.628   1.440
 5050SOL    HW216050   2.017   0.759   1.364
 5051SOL     OW16051   4.035   4.469   0.967
 5051SOL    HW116052   4.112   4.488   1.029
 5051SOL    HW216053   4.035   4.537   0.893
 5052SOL     OW16054   2.529   0.972   5.922
 5052SOL    HW116055   2.512   1.031   6.000
 5052SOL    HW216056   2.453   0.981   5.857
 5053SOL     OW16057   1.999   3.946   4.004
 5053SOL    HW116058   1.960   3.926   3.914
 5053SOL    HW216059   1.928   3.981   4.064
 5054SOL     OW16060   3.538   4.970   4.317
 5054SOL    HW116061   3.472   4.897   4.296
 5054SOL    HW216062   3.545   5.032   4.238
 5055SOL     OW16063   1.459   2.689   5.463
 5055SOL    HW116064   1.528   2.740   5.411
 5055SOL    HW216065   1.387   2.657   5.401
 5056SOL     OW16066   5.360   4.111   6.950
 5056SOL    HW116067   5.311   4.184   6.902
 5056SOL    HW216068   5.312   4.089   0.009
 5057SOL     OW16069   7.024   6.192   3.634
 5057SOL    HW116070   0.095   6.180   3.616
 5057SOL    HW216071   6.995   6.283   3.603
 5058SOL     OW16072   3.365   4.147   5.348
 5058SOL    HW116073   3.291   4.214   5.339
 5058SOL    HW216074   3.413   4.138   5.261
 5059SOL     OW16075   6.689   1.291   3.019
 5059SOL    HW116076   6.759   1.289   2.948
 5059SOL    HW216077   6.611   1.346   2.987
 5060SOL     OW16078   0.516   2.111   5.919
 5060SOL    HW116079   0.599   2.097   5.864
 5060SOL    HW216080   0.446   2.046   5.890
 5061SOL     OW16081   4.908   2.910   0.958
 5061SOL    HW116082   4.832   2.910   0.893
 5061SOL    HW216083   4.995   2.912   0.909
 5062SOL     OW16084   5.981   0.262   2.876
 5062SOL    HW116085   5.967   0.217   2.964
 5062SOL    HW216086   5.900   0.247   2.818
 5063SOL     OW16087   0.936   6.797   2.343
 5063SOL    HW116088   0.931   6.859   2.421
 5063SOL    HW216089   1.029   6.764   2.332
 5064SOL     OW16090   5.083   3.856   0.968
 5064SOL    HW116091   5.016   3.782   0.965
 5064SOL    HW216092   5.106   3.877   1.063
 5065SOL     OW16093   2.370   0.963   4.299
 5065SOL    HW116094   2.360   0.895   4.227
 5065SOL    HW216095   2.459   1.009   4.289
 5066SOL     OW16096   5.312   4.550   2.456
 5066SOL    HW116097   5.349   4.622   2.396
 5066SOL    HW216098   5.276   4.592   2.539
 5067SOL     OW16099   4.543   0.872   1.384
 5067SOL    HW116100   4.615   0.925   1.339
 5067SOL    HW216101   4.582   0.820   1.460
 5068SOL     OW16102   2.392   3.737   1.025
 5068SOL    HW116103   2.464   3.684   0.980
 5068SOL    HW216104   2.414   3.834   1.018
 5069SOL     OW16105   1.795   3.828   5.727
 5069SOL    HW116106   1.771   3.926   5.724
 5069SOL    HW216107   1.894   3.818   5.731
 5070SOL     OW16108   5.072   4.061   4.255
 5070SOL    HW116109   5.051   4.081   4.351
 5070SOL    HW216110   5.046   3.967   4.235
 5071SOL     OW16111   4.480   2.334   4.417
 5071SOL    HW116112   4.531   2.406   4.370
 5071SOL    HW216113   4.495   2.247   4.369
 5072SOL     OW16114   1.223   6.938   1.041
 5072SOL    HW116115   1.235   6.839   1.047
 5072SOL    HW216116   1.268   6.982   1.119
 5073SOL     OW16117   6.892   5.956   2.564
 5073SOL    HW116118   6.837   6.039   2.559
 5073SOL    HW216119   6.987   5.977   2.540
 5074SOL     OW16120   3.016   3.063   0.912
 5074SOL    HW116121   2.927   3.074   0.957
 5074SOL    HW216122   3.060   3.153   0.904
 5075SOL     OW16123   1.399   1.894   6.744
 5075SOL    HW116124   1.418   1.989   6.716
 5075SOL    HW216125   1.321   1.894   6.807
 5076SOL     OW16126   3.743   1.080   0.576
 5076SOL    HW116127   3.807   1.155   0.591
 5076SOL    HW216128   3.757   1.042   0.484
 5077SOL     OW16129   0.798   3.700   5.562
 5077SOL    HW116130   0.706   3.663   5.575
 5077SOL    HW216131   0.807   3.785   5.613
 5078SOL     OW16132   1.610   1.756   3.847
 5078SOL    HW116133   1.664   1.840   3.857
 5078SOL    HW216134   1.608   1.728   3.751
 5079SOL     OW16135   2.069   3.732   5.731
 5079SOL    HW116136   2.031   3.658   5.677
 5079SOL    HW216137   2.168   3.718   5.742
 5080SOL     OW16138   6.246   6.641   5.964
 5080SOL    HW116139   6.244   6.642   6.064
 5080SOL    HW216140   6.203   6.724   5.929
 5081SOL     OW16141   3.375   2.903   4.035
 5081SOL    HW116142   3.395   2.847   3.954
 5081SOL    HW216143   3.461   2.932   4.077
 5082SOL     OW16144   5.144   6.024   6.452
 5082SOL    HW116145   5.057   6.020   6.501
 5082SOL    HW216146   5.142   5.959   6.375
 5083SOL     OW16147   2.636   0.391   2.992
 5083SOL    HW116148   2.605   0.484   3.014
 5083SOL    HW216149   2.729   0.378   3.028
 5084SOL     OW16150   0.744   4.604   4.167
 5084SOL    HW116151   0.694   4.682   4.129
 5084SOL    HW216152   0.680   4.540   4.208
 5085SOL     OW16153   4.640   3.342   6.461
 5085SOL    HW116154   4.709   3.413   6.448
 5085SOL    HW216155   4.562   3.361   6.402
 5086SOL     OW16156   0.080   5.744   3.257
 5086SOL    HW116157   7.019   5.793   3.256
 5086SOL    HW216158   0.096   5.706   3.348
 5087SOL     OW16159   0.324   5.140   2.978
 5087SOL    HW116160   0.240   5.116   3.026
 5087SOL    HW216161   0.403   5.119   3.036
 5088SOL     OW16162   6.096   1.913   4.732
 5088SOL    HW116163   6.022   1.974   4.703
 5088SOL    HW216164   6.116   1.849   4.658
 5089SOL     OW16165   5.196   3.302   3.498
 5089SOL    HW116166   5.254   3.221   3.512
 5089SOL    HW216167   5.245   3.383   3.530
 5090SOL     OW16168   1.903   3.266   2.925
 5090SOL    HW116169   1.941   3.205   2.995
 5090SOL    HW216170   1.949   3.355   2.930
 5091SOL     OW16171   1.852   6.633   2.437
 5091SOL    HW116172   1.884   6.666   2.349
 5091SOL    HW216173   1.931   6.617   2.497
 5092SOL     OW16174   3.636   3.176   1.562
 5092SOL    HW116175   3.705   3.108   1.538
 5092SOL    HW216176   3.680   3.262   1.588
 5093SOL     OW16177   3.023   1.530   1.206
 5093SOL    HW116178   3.101   1.556   1.148
 5093SOL    HW216179   2.945   1.507   1.148
 5094SOL     OW16180   1.390   6.227   5.380
 5094SOL    HW116181   1.307   6.283   5.385
 5094SOL    HW216182   1.467   6.277   5.418
 5095SOL     OW16183   0.300   2.684   4.831
 5095SOL    HW116184   0.291   2.780   4.860
 5095SOL    HW216185   0.315   2.680   4.733
 5096SOL     OW16186   4.288   3.506   0.719
 5096SOL    HW116187   4.316   3.410   0.722
 5096SOL    HW216188   4.222   3.523   0.792
 5097SOL     OW16189   1.562   0.450   0.091
 5097SOL    HW116190   1.521   0.399   0.167
 5097SOL    HW216191   1.610   0.387   0.031
 5098SOL     OW16192   1.490   0.780   1.271
 5098SOL    HW116193   1.498   0.879   1.281
 5098SOL    HW216194   1.475   0.739   1.361
 5099SOL     OW16195   1.104   6.528   6.520
 5099SOL    HW116196   1.062   6.591   6.585
 5099SOL    HW216197   1.033   6.473   6.475
 5100SOL     OW16198   4.487   6.238   5.307
 5100SOL    HW116199   4.586   6.228   5.298
 5100SOL    HW216200   4.457   6.320   5.259
 5101SOL     OW16201   4.047   6.607   0.334
 5101SOL    HW116202   4.119   6.584   0.268
 5101SOL    HW216203   4.044   6.706   0.347
 5102SOL     OW16204   6.445   0.412   5.026
 5102SOL    HW116205   6.380   0.351   5.070
 5102SOL    HW216206   6.538   0.383   5.048
 5103SOL     OW16207   0.475   0.569   3.851
 5103SOL    HW116208   0.395   0.520   3.885
 5103SOL    HW216209   0.446   0.653   3.806
 5104SOL     OW16210   2.201   6.715   2.422
 5104SOL    HW116211   2.296   6.701   2.393
 5104SOL    HW216212   2.162   6.793   2.373
 5105SOL     OW16213   3.709   2.610   6.916
 5105SOL    HW116214   3.763   2.576   6.839
 5105SOL    HW216215   3.723   2.708   6.926
 5106SOL     OW16216   3.194   0.757   1.330
 5106SOL    HW116217   3.265   0.739   1.262
 5106SOL    HW216218   3.150   0.845   1.309
 5107SOL     OW16219   4.369   0.970   0.916
 5107SOL    HW116220   4.338   0.879   0.946
 5107SOL    HW216221   4.410   0.963   0.824
 5108SOL     OW16222   3.063   3.844   3.806
 5108SOL    HW116223   3.086   3.765   3.861
 5108SOL    HW216224   2.994   3.899   3.853
 5109SOL     OW16225   1.019   0.899   0.745
 5109SOL    HW116226   1.088   0.928   0.679
 5109SOL    HW216227   0.946   0.850   0.698
 5110SOL     OW16228   0.764   0.339   6.305
 5110SOL    HW116229   0.706   0.410   6.263
 5110SOL    HW216230   0.716   0.297   6.381
 5111SOL     OW16231   1.850   0.709   5.708
 5111SOL    HW116232   1.915   0.690   5.635
 5111SOL    HW216233   1.798   0.792   5.686
 5112SOL     OW16234   0.995   6.947   2.571
 5112SOL    HW116235   1.092   6.926   2.584
 5112SOL    HW216236   0.967   7.018   2.636
 5113SOL     OW16237   2.295   0.229   2.225
 5113SOL    HW116238   2.367   0.264   2.165
 5113SOL    HW216239   2.209   0.273   2.202
 5114SOL     OW16240   3.459   2.510   0.004
 5114SOL    HW116241   3.377   2.565   7.014
 5114SOL    HW216242   3.535   2.546   6.978
 5115SOL     OW16243   2.108   4.989   4.910
 5115SOL    HW116244   2.069   5.018   4.998
 5115SOL    HW216245   2.034   4.957   4.850
 5116SOL     OW16246   5.403   6.335   6.565
 5116SOL    HW116247   5.346   6.268   6.612
 5116SOL    HW216248   5.348   6.416   6.543
 5117SOL     OW16249   2.044   4.683   4.779
 5117SOL    HW116250   1.993   4.744   4.717
 5117SOL    HW216251   1.979   4.635   4.839
 5118SOL     OW16252   4.487   6.807   0.628
 5118SOL    HW116253   4.391   6.781   0.639
 5118SOL    HW216254   4.531   6.813   0.718
 5119SOL     OW16255   5.290   1.063   1.869
 5119SOL    HW116256   5.247   1.096   1.786
 5119SOL    HW216257   5.222   1.056   1.942
 5120SOL     OW16258   4.743   1.249   3.482
 5120SOL    HW116259   4.735   1.334   3.534
 5120SOL    HW216260   4.817   1.194   3.521
 5121SOL     OW16261   2.298   2.551   0.001
 5121SOL    HW116262   2.246   2.621   0.051
 5121SOL    HW216263   2.249   2.464   0.004
 5122SOL     OW16264   3.621   0.538   3.977
 5122SOL    HW116265   3.543   0.586   4.016
 5122SOL    HW216266   3.620   0.442   4.005
 5123SOL     OW16267   5.636   2.739   4.550
 5123SOL    HW116268   5.699   2.769   4.479
 5123SOL    HW216269   5.557   2.693   4.507
 5124SOL     OW16270   2.640   5.215   5.085
 5124SOL    HW116271   2.644   5.269   5.169
 5124SOL    HW216272   2.589   5.130   5.102
 5125SOL     OW16273   6.258   3.314   4.585
 5125SOL    HW116274   6.236   3.224   4.623
 5125SOL    HW216275   6.176   3.371   4.584
 5126SOL     OW16276   6.058   5.485   6.021
 5126SOL    HW116277   6.016   5.394   6.026
 5126SOL    HW216278   6.155   5.477   6.042
 5127SOL     OW16279   6.816   3.757   7.000
 5127SOL    HW116280   6.781   3.677   0.023
 5127SOL    HW216281   6.772   3.763   6.911
 5128SOL     OW16282   0.312   6.727   6.948
 5128SOL    HW116283   0.304   6.670   6.866
 5128SOL    HW216284   0.402   6.772   6.948
 5129SOL     OW16285   4.877   0.200   2.964
 5129SOL    HW116286   4.962   0.233   3.005
 5129SOL    HW216287   4.880   0.215   2.865
 5130SOL     OW16288   1.620   6.148   4.012
 5130SOL    HW116289   1.668   6.230   4.044
 5130SOL    HW216290   1.547   6.174   3.950
 5131SOL     OW16291   2.943   4.813   3.730
 5131SOL    HW116292   2.884   4.799   3.651
 5131SOL    HW216293   2.918   4.750   3.803
 5132SOL     OW16294   3.442   1.600   5.947
 5132SOL    HW116295   3.411   1.684   5.993
 5132SOL    HW216296   3.481   1.538   6.015
 5133SOL     OW16297   2.759   5.926   6.635
 5133SOL    HW116298   2.712   5.972   6.559
 5133SOL    HW216299   2.757   5.986   6.715
 5134SOL     OW16300   6.935   6.938   2.894
 5134SOL    HW116301   6.983   6.933   2.807
 5134SOL    HW216302   6.981   7.005   2.954
 5135SOL     OW16303   5.782   3.795   3.624
 5135SOL    HW116304   5.881   3.798   3.615
 5135SOL    HW216305   5.758   3.786   3.721
 5136SOL     OW16306   5.833   0.750   5.873
 5136SOL    HW116307   5.788   0.801   5.799
 5136SOL    HW216308   5.827   0.804   5.957
 5137SOL     OW16309   5.318   3.372   5.183
 5137SOL    HW116310   5.407   3.405   5.214
 5137SOL    HW216311   5.331   3.301   5.114
 5138SOL     OW16312   3.973   3.897   4.284
 5138SOL    HW116313   3.912   3.974   4.270
 5138SOL    HW216314   4.010   3.867   4.195
 5139SOL     OW16315   0.947   6.865   4.711
 5139SOL    HW116316   0.917   6.961   4.705
 5139SOL    HW216317   0.877   6.806   4.672
 5140SOL     OW16318   3.200   1.837   5.236
 5140SOL    HW116319   3.131   1.883   5.293
 5140SOL    HW216320   3.191   1.738   5.246
 5141SOL     OW16321   6.451   3.457   1.089
 5141SOL    HW116322   6.510   3.378   1.106
 5141SOL    HW216323   6.401   3.480   1.173
 5142SOL     OW16324   5.665   6.726   5.578
 5142SOL    HW116325   5.607   6.759   5.503
 5142SOL    HW216326   5.645   6.779   5.660
 5143SOL     OW16327   1.051   3.939   5.123
 5143SOL    HW116328   1.017   4.005   5.057
 5143SOL    HW216329   1.011   3.958   5.213
 5144SOL     OW16330   2.015   4.002   6.074
 5144SOL    HW116331   1.993   4.063   5.998
 5144SOL    HW216332   2.043   3.913   6.039
 5145SOL     OW16333   3.987   6.322   6.108
 5145SOL    HW116334   4.008   6.383   6.185
 5145SOL    HW216335   3.983   6.228   6.140
 5146SOL     OW16336   3.974   4.077   5.123
 5146SOL    HW116337   3.928   4.060   5.037
 5146SOL    HW216338   3.981   4.176   5.138
 5147SOL     OW16339   6.152   5.019   3.533
 5147SOL    HW116340   6.214   5.098   3.523
 5147SOL    HW216341   6.196   4.938   3.495
 5148SOL     OW16342   0.306   1.180   2.097
 5148SOL    HW116343   0.387   1.133   2.060
 5148SOL    HW216344   0.326   1.277   2.108
 5149SOL     OW16345   5.906   5.460   4.664
 5149SOL    HW116346   5.991   5.409   4.660
 5149SOL    HW216347   5.923   5.557   4.643
 5150SOL     OW16348   2.036   4.371   4.056
 5150SOL    HW116349   2.016   4.310   4.132
 5150SOL    HW216350   2.123   4.345   4.014
 5151SOL     OW16351   6.858   3.718   2.024
 5151SOL    HW116352   6.861   3.781   2.101
 5151SOL    HW216353   6.768   3.723   1.980
 5152SOL     OW16354   2.013   5.804   6.589
 5152SOL    HW116355   1.982   5.718   6.630
 5152SOL    HW216356   2.106   5.824   6.620
 5153SOL     OW16357   0.521   2.470   0.794
 5153SOL    HW116358   0.549   2.514   0.709
 5153SOL    HW216359   0.490   2.377   0.775
 5154SOL     OW16360   1.134   2.665   6.196
 5154SOL    HW116361   1.216   2.623   6.234
 5154SOL    HW216362   1.160   2.736   6.131
 5155SOL     OW16363   4.088   1.066   1.271
 5155SOL    HW116364   4.025   0.989   1.264
 5155SOL    HW216365   4.167   1.039   1.326
 5156SOL     OW16366   5.896   4.579   4.663
 5156SOL    HW116367   5.985   4.622   4.646
 5156SOL    HW216368   5.846   4.569   4.577
 5157SOL     OW16369   3.285   2.055   2.160
 5157SOL    HW116370   3.330   1.967   2.144
 5157SOL    HW216371   3.339   2.109   2.225
 5158SOL     OW16372   3.483   2.353   0.552
 5158SOL    HW116373   3.387   2.355   0.526
 5158SOL    HW216374   3.491   2.368   0.651
 5159SOL     OW16375   5.874   3.723   6.243
 5159SOL    HW116376   5.934   3.744   6.320
 5159SOL    HW216377   5.804   3.794   6.236
 5160SOL     OW16378   0.266   5.392   3.194
 5160SOL    HW116379   0.271   5.296   3.167
 5160SOL    HW216380   0.327   5.409   3.271
 5161SOL     OW16381   0.924   3.422   0.443
 5161SOL    HW116382   0.954   3.331   0.470
 5161SOL    HW216383   0.993   3.464   0.384
 5162SOL     OW16384   1.182   5.348   2.401
 5162SOL    HW116385   1.183   5.252   2.428
 5162SOL    HW216386   1.127   5.359   2.318
 5163SOL     OW16387   3.469   6.612   0.887
 5163SOL    HW116388   3.514   6.644   0.804
 5163SOL    HW216389   3.512   6.528   0.919
 5164SOL     OW16390   3.253   2.983   6.474
 5164SOL    HW116391   3.178   3.048   6.461
 5164SOL    HW216392   3.283   2.987   6.570
 5165SOL     OW16393   0.990   4.419   6.743
 5165SOL    HW116394   1.052   4.350   6.782
 5165SOL    HW216395   1.043   4.482   6.687
 5166SOL     OW16396   1.699   5.133   2.653
 5166SOL    HW116397   1.701   5.233   2.652
 5166SOL    HW216398   1.609   5.101   2.625
 5167SOL     OW16399   6.690   4.323   4.737
 5167SOL    HW116400   6.701   4.326   4.637
 5167SOL    HW216401   6.679   4.415   4.772
 5168SOL     OW16402   5.445   2.645   2.866
 5168SOL    HW116403   5.361   2.686   2.831
 5168SOL    HW216404   5.479   2.578   2.800
 5169SOL     OW16405   4.379   2.110   3.387
 5169SOL    HW116406   4.367   2.058   3.303
 5169SOL    HW216407   4.303   2.091   3.449
 5170SOL     OW16408   1.404   3.127   5.393
 5170SOL    HW116409   1.444   3.179   5.318
 5170SOL    HW216410   1.476   3.101   5.457
 5171SOL     OW16411   6.969   4.736   5.591
 5171SOL    HW116412   6.976   4.682   5.507
 5171SOL    HW216413   6.959   4.832   5.567
 5172SOL     OW16414   1.235   4.297   3.313
 5172SOL    HW116415   1.281   4.239   3.245
 5172SOL    HW216416   1.158   4.248   3.352
 5173SOL     OW16417   4.464   4.844   5.654
 5173SOL    HW116418   4.491   4.922   5.710
 5173SOL    HW216419   4.458   4.762   5.711
 5174SOL     OW16420   2.162   5.400   3.629
 5174SOL    HW116421   2.080   5.440   3.670
 5174SOL    HW216422   2.185   5.315   3.677
 5175SOL     OW16423   2.862   4.077   0.243
 5175SOL    HW116424   2.787   4.118   0.190
 5175SOL    HW216425   2.909   4.009   0.187
 5176SOL     OW16426   5.140   4.434   6.291
 5176SOL    HW116427   5.094   4.520   6.267
 5176SOL    HW216428   5.205   4.410   6.219
 5177SOL     OW16429   4.691   6.827   0.877
 5177SOL    HW116430   4.677   6.784   0.967
 5177SOL    HW216431   4.746   6.767   0.819
 5178SOL     OW16432   1.449   4.425   2.234
 5178SOL    HW116433   1.403   4.341   2.206
 5178SOL    HW216434   1.464   4.484   2.154
 5179SOL     OW16435   4.811   4.157   4.115
 5179SOL    HW116436   4.859   4.072   4.137
 5179SOL    HW216437   4.772   4.196   4.199
 5180SOL     OW16438   3.728   0.877   1.001
 5180SOL    HW116439   3.707   0.959   0.948
 5180SOL    HW216440   3.655   0.861   1.068
 5181SOL     OW16441   6.336   6.990   1.555
 5181SOL    HW116442   6.346   0.063   1.553
 5181SOL    HW216443   6.403   6.948   1.494
 5182SOL     OW16444   4.475   4.566   2.060
 5182SOL    HW116445   4.541   4.620   2.007
 5182SOL    HW216446   4.494   4.469   2.048
 5183SOL     OW16447   4.149   1.692   2.511
 5183SOL    HW116448   4.079   1.757   2.540
 5183SOL    HW216449   4.179   1.638   2.590
 5184SOL     OW16450   2.559   1.737   3.465
 5184SOL    HW116451   2.569   1.672   3.390
 5184SOL    HW216452   2.594   1.826   3.438
 5185SOL     OW16453   5.526   0.662   2.448
 5185SOL    HW116454   5.496   0.627   2.359
 5185SOL    HW216455   5.452   0.713   2.490
 5186SOL     OW16456   6.378   2.665   6.144
 5186SOL    HW116457   6.290   2.630   6.113
 5186SOL    HW216458   6.424   2.712   6.070
 5187SOL     OW16459   1.320   5.365   5.573
 5187SOL    HW116460   1.221   5.374   5.584
 5187SOL    HW216461   1.366   5.385   5.659
 5188SOL     OW16462   5.691   5.785   1.995
 5188SOL    HW116463   5.757   5.711   2.003
 5188SOL    HW216464   5.607   5.751   1.952
 5189SOL     OW16465   5.228   5.997   0.125
 5189SOL    HW116466   5.293   6.072   0.138
 5189SOL    HW216467   5.150   6.009   0.186
 5190SOL     OW16468   1.128   3.654   3.651
 5190SOL    HW116469   1.203   3.589   3.642
 5190SOL    HW216470   1.152   3.739   3.604
 5191SOL     OW16471   3.599   5.624   2.542
 5191SOL    HW116472   3.608   5.527   2.522
 5191SOL    HW216473   3.503   5.646   2.558
 5192SOL     OW16474   1.442   5.697   1.331
 5192SOL    HW116475   1.502   5.758   1.279
 5192SOL    HW216476   1.399   5.632   1.268
 5193SOL     OW16477   4.594   5.556   5.465
 5193SOL    HW116478   4.600   5.583   5.369
 5193SOL    HW216479   4.523   5.487   5.476
 5194SOL     OW16480   3.321   2.324   6.833
 5194SOL    HW116481   3.368   2.355   6.915
 5194SOL    HW216482   3.289   2.404   6.781
 5195SOL     OW16483   0.214   0.924   4.332
 5195SOL    HW116484   0.269   0.890   4.255
 5195SOL    HW216485   0.117   0.911   4.311
 5196SOL     OW16486   4.515   6.985   2.456
 5196SOL    HW116487   4.572   0.019   2.512
 5196SOL    HW216488   4.478   0.011   2.378
 5197SOL     OW16489   1.674   3.756   6.756
 5197SOL    HW116490   1.700   3.785   6.848
 5197SOL    HW216491   1.755   3.725   6.706
 5198SOL     OW16492   4.644   5.544   2.997
 5198SOL    HW116493   4.699   5.618   3.036
 5198SOL    HW216494   4.701   5.488   2.938
 5199SOL     OW16495   0.947   5.297   0.541
 5199SOL    HW116496   0.969   5.382   0.588
 5199SOL    HW216497   0.984   5.299   0.448
 5200SOL     OW16498   6.758   3.658   5.126
 5200SOL    HW116499   6.775   3.705   5.039
 5200SOL    HW216500   6.835   3.597   5.146
 5201SOL     OW16501   1.301   6.903   3.162
 5201SOL    HW116502   1.207   6.899   3.195
 5201SOL    HW216503   1.307   6.856   3.074
 5202SOL     OW16504   5.464   3.132   6.600
 5202SOL    HW116505   5.550   3.175   6.627
 5202SOL    HW216506   5.439   3.062   6.667
 5203SOL     OW16507   2.029   1.761   6.772
 5203SOL    HW116508   2.017   1.703   6.692
 5203SOL    HW216509   1.963   1.837   6.769
 5204SOL     OW16510   4.016   5.064   0.359
 5204SOL    HW116511   4.004   5.137   0.426
 5204SOL    HW216512   3.946   5.071   0.288
 5205SOL     OW16513   1.813   6.639   1.044
 5205SOL    HW116514   1.838   6.735   1.031
 5205SOL    HW216515   1.770   6.603   0.961
 5206SOL     OW16516   0.423   4.038   5.484
 5206SOL    HW116517   0.352   4.029   5.414
 5206SOL    HW216518   0.402   3.977   5.561
 5207SOL     OW16519   1.144   5.713   4.216
 5207SOL    HW116520   1.050   5.696   4.185
 5207SOL    HW216521   1.140   5.756   4.307
 5208SOL     OW16522   3.993   2.088   7.004
 5208SOL    HW116523   3.900   2.113   0.005
 5208SOL    HW216524   4.036   2.036   0.050
 5209SOL     OW16525   5.729   5.917   3.877
 5209SOL    HW116526   5.639   5.878   3.893
 5209SOL    HW216527   5.747   5.921   3.778
 5210SOL     OW16528   5.912   2.480   5.287
 5210SOL    HW116529   5.988   2.546   5.287
 5210SOL    HW216530   5.882   2.463   5.194
 5211SOL     OW16531   3.970   3.129   4.799
 5211SOL    HW116532   4.031   3.206   4.820
 5211SOL    HW216533   3.956   3.075   4.882
 5212SOL     OW16534   6.506   1.387   0.774
 5212SOL    HW116535   6.546   1.368   0.864
 5212SOL    HW216536   6.407   1.374   0.779
 5213SOL     OW16537   5.122   4.154   6.383
 5213SOL    HW116538   5.109   4.140   6.481
 5213SOL    HW216539   5.099   4.248   6.359
 5214SOL     OW16540   4.679   1.403   6.495
 5214SOL    HW116541   4.741   1.334   6.457
 5214SOL    HW216542   4.668   1.478   6.429
 5215SOL     OW16543   5.572   5.468   3.773
 5215SOL    HW116544   5.618   5.490   3.859
 5215SOL    HW216545   5.545   5.552   3.726
 5216SOL     OW16546   4.208   5.511   1.650
 5216SOL    HW116547   4.112   5.484   1.642
 5216SOL    HW216548   4.266   5.429   1.652
 5217SOL     OW16549   3.867   5.419   3.947
 5217SOL    HW116550   3.799   5.352   3.918
 5217SOL    HW216551   3.846   5.507   3.906
 5218SOL     OW16552   1.141   0.611   3.802
 5218SOL    HW116553   1.098   0.673   3.867
 5218SOL    HW216554   1.073   0.576   3.738
 5219SOL     OW16555   3.281   0.482   5.919
 5219SOL    HW116556   3.321   0.402   5.965
 5219SOL    HW216557   3.353   0.549   5.901
 5220SOL     OW16558   1.598   6.011   2.584
 5220SOL    HW116559   1.623   5.932   2.640
 5220SOL    HW216560   1.516   5.989   2.530
 5221SOL     OW16561   5.382   2.118   3.970
 5221SOL    HW116562   5.433   2.106   4.055
 5221SOL    HW216563   5.419   2.197   3.919
 5222SOL     OW16564   2.698   6.958   3.640
 5222SOL    HW116565   2.740   6.921   3.557
 5222SOL    HW216566   2.602   6.929   3.644
 5223SOL     OW16567   5.671   0.701   0.920
 5223SOL    HW116568   5.671   0.611   0.963
 5223SOL    HW216569   5.678   0.691   0.821
 5224SOL     OW16570   0.757   2.306   4.281
 5224SOL    HW116571   0.834   2.258   4.323
 5224SOL    HW216572   0.683   2.240   4.264
 5225SOL     OW16573   6.548   0.389   2.918
 5225SOL    HW116574   6.509   0.431   3.000
 5225SOL    HW216575   6.556   0.457   2.846
 5226SOL     OW16576   0.548   5.828   5.143
 5226SOL    HW116577   0.453   5.810   5.118
 5226SOL    HW216578   0.573   5.775   5.224
 5227SOL     OW16579   1.674   4.851   3.462
 5227SOL    HW116580   1.668   4.941   3.417
 5227SOL    HW216581   1.752   4.851   3.524
 5228SOL     OW16582   6.662   2.066   0.904
 5228SOL    HW116583   6.583   2.090   0.847
 5228SOL    HW216584   6.706   2.149   0.937
 5229SOL     OW16585   1.477   3.779   0.370
 5229SOL    HW116586   1.529   3.849   0.419
 5229SOL    HW216587   1.503   3.688   0.404
 5230SOL     OW16588   0.210   6.667   1.254
 5230SOL    HW116589   0.221   6.655   1.156
 5230SOL    HW216590   0.146   6.742   1.272
 5231SOL     OW16591   4.085   3.872   4.678
 5231SOL    HW116592   4.163   3.931   4.658
 5231SOL    HW216593   4.104   3.779   4.644
 5232SOL     OW16594   3.243   2.175   6.057
 5232SOL    HW116595   3.183   2.236   6.006
 5232SOL    HW216596   3.312   2.137   5.995
 5233SOL     OW16597   6.065   0.455   1.672
 5233SOL    HW116598   6.138   0.394   1.703
 5233SOL    HW216599   6.034   0.427   1.581
 5234SOL     OW16600   2.325   0.442   6.639
 5234SOL    HW116601   2.382   0.361   6.630
 5234SOL    HW216602   2.246   0.422   6.698
 5235SOL     OW16603   2.155   2.973   1.209
 5235SOL    HW116604   2.120   2.882   1.188
 5235SOL    HW216605   2.218   2.968   1.286
 5236SOL     OW16606   5.838   3.387   2.289
 5236SOL    HW116607   5.775   3.387   2.367
 5236SOL    HW216608   5.788   3.417   2.207
 5237SOL     OW16609   2.628   0.727   5.583
 5237SOL    HW116610   2.625   0.719   5.483
 5237SOL    HW216611   2.721   0.712   5.614
 5238SOL     OW16612   1.745   4.773   0.432
 5238SOL    HW116613   1.828   4.820   0.461
 5238SOL    HW216614   1.667   4.836   0.439
 5239SOL     OW16615   4.128   3.471   4.021
 5239SOL    HW116616   4.200   3.407   3.992
 5239SOL    HW216617   4.098   3.448   4.113
 5240SOL     OW16618   2.946   1.749   6.227
 5240SOL    HW116619   3.018   1.680   6.219
 5240SOL    HW216620   2.889   1.747   6.145
 5241SOL     OW16621   1.430   5.610   6.557
 5241SOL    HW116622   1.342   5.588   6.514
 5241SOL    HW216623   1.464   5.531   6.607
 5242SOL     OW16624   0.051   6.775   5.730
 5242SOL    HW116625   7.024   6.771   5.646
 5242SOL    HW216626   7.024   6.822   5.801
 5243SOL     OW16627   1.006   5.876   1.752
 5243SOL    HW116628   0.945   5.832   1.818
 5243SOL    HW216629   1.067   5.938   1.800
 5244SOL     OW16630   3.649   4.219   6.001
 5244SOL    HW116631   3.729   4.188   5.949
 5244SOL    HW216632   3.604   4.140   6.044
 5245SOL     OW16633   4.263   4.544   0.238
 5245SOL    HW116634   4.239   4.447   0.230
 5245SOL    HW216635   4.180   4.600   0.232
 5246SOL     OW16636   5.855   4.305   2.721
 5246SOL    HW116637   5.793   4.384   2.730
 5246SOL    HW216638   5.872   4.266   2.812
 5247SOL     OW16639   1.269   6.239   0.746
 5247SOL    HW116640   1.199   6.192   0.800
 5247SOL    HW216641   1.263   6.209   0.650
 5248SOL     OW16642   6.325   0.221   4.582
 5248SOL    HW116643   6.297   0.286   4.653
 5248SOL    HW216644   6.344   0.132   4.624
 5249SOL     OW16645   0.773   5.095   4.985
 5249SOL    HW116646   0.813   5.004   4.996
 5249SOL    HW216647   0.684   5.098   5.031
 5250SOL     OW16648   0.209   1.113   6.008
 5250SOL    HW116649   0.269   1.035   5.991
 5250SOL    HW216650   0.228   1.150   6.099
 5251SOL     OW16651   0.479   3.233   1.148
 5251SOL    HW116652   0.542   3.235   1.225
 5251SOL    HW216653   0.509   3.164   1.082
 5252SOL     OW16654   1.962   5.112   0.935
 5252SOL    HW116655   1.922   5.052   1.005
 5252SOL    HW216656   1.945   5.208   0.960
 5253SOL     OW16657   6.073   4.013   5.364
 5253SOL    HW116658   6.066   3.959   5.447
 5253SOL    HW216659   6.156   3.986   5.313
 5254SOL     OW16660   5.633   1.198   3.687
 5254SOL    HW116661   5.598   1.105   3.697
 5254SOL    HW216662   5.562   1.263   3.713
 5255SOL     OW16663   4.626   0.332   5.455
 5255SOL    HW116664   4.717   0.357   5.489
 5255SOL    HW216665   4.585   0.410   5.409
 5256SOL     OW16666   4.661   0.703   3.340
 5256SOL    HW116667   4.679   0.734   3.246
 5256SOL    HW216668   4.686   0.777   3.403
 5257SOL     OW16669   4.162   0.292   2.076
 5257SOL    HW116670   4.148   0.304   1.978
 5257SOL    HW216671   4.251   0.330   2.101
 5258SOL     OW16672   5.139   3.597   1.255
 5258SOL    HW116673   5.084   3.517   1.276
 5258SOL    HW216674   5.195   3.580   1.175
 5259SOL     OW16675   4.516   6.287   1.356
 5259SOL    HW116676   4.541   6.202   1.402
 5259SOL    HW216677   4.462   6.344   1.418
 5260SOL     OW16678   5.593   3.800   1.662
 5260SOL    HW116679   5.629   3.861   1.592
 5260SOL    HW216680   5.568   3.853   1.743
 5261SOL     OW16681   1.920   3.259   6.435
 5261SOL    HW116682   1.920   3.251   6.535
 5261SOL    HW216683   1.996   3.318   6.406
 5262SOL     OW16684   3.016   0.900   2.854
 5262SOL    HW116685   3.091   0.965   2.838
 5262SOL    HW216686   2.938   0.948   2.895
 5263SOL     OW16687   0.905   1.236   5.348
 5263SOL    HW116688   0.877   1.148   5.309
 5263SOL    HW216689   0.935   1.222   5.443
 5264SOL     OW16690   6.658   0.342   2.572
 5264SOL    HW116691   6.561   0.325   2.592
 5264SOL    HW216692   6.709   0.257   2.582
 5265SOL     OW16693   4.851   4.570   2.993
 5265SOL    HW116694   4.763   4.611   2.970
 5265SOL    HW216695   4.837   4.478   3.030
 5266SOL     OW16696   2.785   0.899   2.350
 5266SOL    HW116697   2.761   0.953   2.431
 5266SOL    HW216698   2.847   0.825   2.377
 5267SOL     OW16699   4.822   4.482   6.071
 5267SOL    HW116700   4.851   4.545   5.999
 5267SOL    HW216701   4.762   4.412   6.032
 5268SOL     OW16702   6.100   5.981   5.978
 5268SOL    HW116703   6.053   5.901   6.018
 5268SOL    HW216704   6.137   6.038   6.051
 5269SOL     OW16705   2.336   6.255   4.560
 5269SOL    HW116706   2.239   6.247   4.539
 5269SOL    HW216707   2.378   6.164   4.563
 5270SOL     OW16708   5.041   1.346   1.768
 5270SOL    HW116709   5.073   1.333   1.674
 5270SOL    HW216710   5.069   1.436   1.801
 5271SOL     OW16711   4.520   4.890   4.716
 5271SOL    HW116712   4.590   4.886   4.645
 5271SOL    HW216713   4.479   4.981   4.718
 5272SOL     OW16714   2.002   6.209   3.163
 5272SOL    HW116715   2.092   6.178   3.195
 5272SOL    HW216716   1.940   6.217   3.241
 5273SOL     OW16717   0.385   3.524   3.806
 5273SOL    HW116718   0.413   3.431   3.784
 5273SOL    HW216719   0.405   3.584   3.728
 5274SOL     OW16720   5.865   5.122   2.231
 5274SOL    HW116721   5.888   5.137   2.328
 5274SOL    HW216722   5.940   5.075   2.186
 5275SOL     OW16723   3.841   1.271   6.101
 5275SOL    HW116724   3.898   1.194   6.071
 5275SOL    HW216725   3.899   1.347   6.130
 5276SOL     OW16726   1.082   6.736   1.406
 5276SOL    HW116727   1.163   6.724   1.464
 5276SOL    HW216728   1.043   6.646   1.383
 5277SOL     OW16729   1.313   2.864   3.083
 5277SOL    HW116730   1.384   2.850   3.014
 5277SOL    HW216731   1.224   2.836   3.046
 5278SOL     OW16732   5.097   6.866   4.169
 5278SOL    HW116733   5.047   6.951   4.156
 5278SOL    HW216734   5.046   6.790   4.128
 5279SOL     OW16735   1.509   5.360   6.548
 5279SOL    HW116736   1.606   5.382   6.535
 5279SOL    HW216737   1.499   5.298   6.626
 5280SOL     OW16738   2.515   5.683   5.850
 5280SOL    HW116739   2.509   5.779   5.875
 5280SOL    HW216740   2.456   5.629   5.910
 5281SOL     OW16741   1.048   1.123   3.500
 5281SOL    HW116742   1.076   1.163   3.412
 5281SOL    HW216743   1.082   1.180   3.575
 5282SOL     OW16744   1.594   1.034   2.705
 5282SOL    HW116745   1.604   1.065   2.610
 5282SOL    HW216746   1.557   1.108   2.761
 5283SOL     OW16747   2.838   0.476   2.796
 5283SOL    HW116748   2.826   0.383   2.832
 5283SOL    HW216749   2.748   0.520   2.787
 5284SOL     OW16750   4.714   2.814   2.572
 5284SOL    HW116751   4.694   2.730   2.622
 5284SOL    HW216752   4.664   2.813   2.485
 5285SOL     OW16753   1.559   3.973   4.301
 5285SOL    HW116754   1.543   3.974   4.399
 5285SOL    HW216755   1.501   3.905   4.258
 5286SOL     OW16756   6.642   3.993   1.443
 5286SOL    HW116757   6.664   4.090   1.457
 5286SOL    HW216758   6.620   3.977   1.346
 5287SOL     OW16759   2.273   6.129   1.363
 5287SOL    HW116760   2.329   6.172   1.434
 5287SOL    HW216761   2.251   6.035   1.391
 5288SOL     OW16762   3.744   1.093   2.377
 5288SOL    HW116763   3.759   1.178   2.326
 5288SOL    HW216764   3.761   1.015   2.317
 5289SOL     OW16765   1.500   5.495   6.291
 5289SOL    HW116766   1.417   5.439   6.285
 5289SOL    HW216767   1.546   5.477   6.378
 5290SOL     OW16768   0.738   4.579   5.817
 5290SOL    HW116769   0.803   4.594   5.890
 5290SOL    HW216770   0.701   4.667   5.786
 5291SOL     OW16771   2.955   5.164   6.207
 5291SOL    HW116772   2.868   5.173   6.256
 5291SOL    HW216773   2.957   5.226   6.129
 5292SOL     OW16774   6.073   4.475   6.590
 5292SOL    HW116775   6.132   4.547   6.555
 5292SOL    HW216776   5.982   4.512   6.609
 5293SOL     OW16777   1.379   0.307   4.424
 5293SOL    HW116778   1.336   0.264   4.503
 5293SOL    HW216779   1.312   0.317   4.351
 5294SOL     OW16780   5.792   2.896   4.954
 5294SOL    HW116781   5.774   2.955   5.033
 5294SOL    HW216782   5.859   2.940   4.894
 5295SOL     OW16783   3.872   1.053   2.948
 5295SOL    HW116784   3.863   0.968   2.895
 5295SOL    HW216785   3.900   1.030   3.042
 5296SOL     OW16786   3.318   5.244   6.987
 5296SOL    HW116787   3.293   5.338   7.011
 5296SOL    HW216788   3.361   5.243   6.897
 5297SOL     OW16789   1.879   2.514   0.689
 5297SOL    HW116790   1.931   2.471   0.615
 5297SOL    HW216791   1.922   2.600   0.714
 5298SOL     OW16792   0.893   6.176   0.245
 5298SOL    HW116793   0.841   6.182   0.160
 5298SOL    HW216794   0.969   6.241   0.242
 5299SOL     OW16795   2.658   3.264   0.643
 5299SOL    HW116796   2.721   3.186   0.640
 5299SOL    HW216797   2.579   3.241   0.701
 5300SOL     OW16798   0.904   5.745   1.250
 5300SOL    HW116799   0.911   5.801   1.332
 5300SOL    HW216800   0.994   5.708   1.226
 5301SOL     OW16801   3.535   2.391   6.620
 5301SOL    HW116802   3.467   2.460   6.644
 5301SOL    HW216803   3.609   2.434   6.568
 5302SOL     OW16804   6.059   5.605   3.949
 5302SOL    HW116805   6.110   5.524   3.920
 5302SOL    HW216806   6.085   5.628   4.043
 5303SOL     OW16807   0.147   5.675   3.527
 5303SOL    HW116808   0.128   5.729   3.609
 5303SOL    HW216809   0.241   5.690   3.497
 5304SOL     OW16810   5.473   0.831   0.381
 5304SOL    HW116811   5.418   0.893   0.437
 5304SOL    HW216812   5.455   0.737   0.407
 5305SOL     OW16813   0.649   5.130   2.814
 5305SOL    HW116814   0.686   5.210   2.861
 5305SOL    HW216815   0.559   5.151   2.777
 5306SOL     OW16816   1.259   4.182   4.841
 5306SOL    HW116817   1.279   4.108   4.906
 5306SOL    HW216818   1.340   4.239   4.830
 5307SOL     OW16819   4.264   2.013   0.477
 5307SOL    HW116820   4.282   1.989   0.572
 5307SOL    HW216821   4.175   2.057   0.470
 5308SOL     OW16822   0.930   5.378   3.652
 5308SOL    HW116823   0.928   5.301   3.716
 5308SOL    HW216824   0.845   5.431   3.661
 5309SOL     OW16825   4.149   4.645   1.432
 5309SOL    HW116826   4.106   4.650   1.523
 5309SOL    HW216827   4.134   4.554   1.394
 5310SOL     OW16828   6.337   3.639   2.165
 5310SOL    HW116829   6.270   3.571   2.134
 5310SOL    HW216830   6.413   3.592   2.209
 5311SOL     OW16831   6.365   5.643   6.808
 5311SOL    HW116832   6.348   5.557   6.760
 5311SOL    HW216833   6.451   5.683   6.777
 5312SOL     OW16834   6.873   5.396   1.813
 5312SOL    HW116835   6.810   5.319   1.802
 5312SOL    HW216836   6.822   5.482   1.808
 5313SOL     OW16837   1.416   3.795   6.154
 5313SOL    HW116838   1.332   3.822   6.108
 5313SOL    HW216839   1.406   3.808   6.253
 5314SOL     OW16840   3.163   6.379   0.935
 5314SOL    HW116841   3.178   6.397   0.837
 5314SOL    HW216842   3.079   6.426   0.964
 5315SOL     OW16843   5.112   3.617   1.581
 5315SOL    HW116844   5.191   3.646   1.635
 5315SOL    HW216845   5.086   3.689   1.517
 5316SOL     OW16846   0.642   4.077   4.978
 5316SOL    HW116847   0.615   4.048   4.886
 5316SOL    HW216848   0.568   4.129   5.020
 5317SOL     OW16849   6.461   6.925   4.405
 5317SOL    HW116850   6.428   6.948   4.497
 5317SOL    HW216851   6.406   6.973   4.337
 5318SOL     OW16852   0.574   2.972   6.452
 5318SOL    HW116853   0.546   2.886   6.409
 5318SOL    HW216854   0.673   2.972   6.467
 5319SOL     OW16855   3.570   6.599   0.275
 5319SOL    HW116856   3.611   6.690   0.283
 5319SOL    HW216857   3.502   6.599   0.202
 5320SOL     OW16858   5.497   5.278   0.307
 5320SOL    HW116859   5.444   5.195   0.289
 5320SOL    HW216860   5.549   5.304   0.226
 5321SOL     OW16861   1.273   4.755   4.425
 5321SOL    HW116862   1.227   4.806   4.497
 5321SOL    HW216863   1.325   4.680   4.465
 5322SOL     OW16864   4.930   6.280   6.363
 5322SOL    HW116865   4.841   6.297   6.406
 5322SOL    HW216866   5.002   6.288   6.431
 5323SOL     OW16867   3.880   1.853   6.868
 5323SOL    HW116868   3.942   1.931   6.877
 5323SOL    HW216869   3.829   1.861   6.783
 5324SOL     OW16870   4.086   2.600   0.823
 5324SOL    HW116871   4.071   2.629   0.918
 5324SOL    HW216872   3.998   2.589   0.777
 5325SOL     OW16873   4.854   0.979   4.540
 5325SOL    HW116874   4.794   0.899   4.534
 5325SOL    HW216875   4.934   0.956   4.597
 5326SOL     OW16876   0.023   4.606   3.348
 5326SOL    HW116877   0.097   4.542   3.368
 5326SOL    HW216878   6.972   4.587   3.408
 5327SOL     OW16879   5.619   3.195   5.340
 5327SOL    HW116880   5.552   3.121   5.340
 5327SOL    HW216881   5.576   3.279   5.305
 5328SOL     OW16882   4.545   3.050   5.364
 5328SOL    HW116883   4.633   3.083   5.401
 5328SOL    HW216884   4.481   3.126   5.359
 5329SOL     OW16885   0.160   4.849   0.151
 5329SOL    HW116886   0.088   4.874   0.086
 5329SOL    HW216887   0.202   4.932   0.187
 5330SOL     OW16888   3.625   4.658   5.754
 5330SOL    HW116889   3.724   4.646   5.762
 5330SOL    HW216890   3.592   4.605   5.676
 5331SOL     OW16891   5.324   1.410   0.786
 5331SOL    HW116892   5.357   1.504   0.779
 5331SOL    HW216893   5.227   1.408   0.762
 5332SOL     OW16894   0.577   3.657   1.346
 5332SOL    HW116895   0.485   3.636   1.311
 5332SOL    HW216896   0.630   3.703   1.275
 5333SOL     OW16897   0.938   0.614   3.622
 5333SOL    HW116898   0.973   0.642   3.533
 5333SOL    HW216899   0.864   0.548   3.610
 5334SOL     OW16900   4.324   0.215   4.371
 5334SOL    HW116901   4.356   0.264   4.453
 5334SOL    HW216902   4.290   0.281   4.305
 5335SOL     OW16903   5.998   5.818   2.413
 5335SOL    HW116904   6.073   5.878   2.386
 5335SOL    HW216905   5.958   5.852   2.498
 5336SOL     OW16906   2.584   2.052   3.314
 5336SOL    HW116907   2.679   2.060   3.343
 5336SOL    HW216908   2.576   2.086   3.220
 5337SOL     OW16909   5.226   3.912   1.478
 5337SOL    HW116910   5.261   3.986   1.536
 5337SOL    HW216911   5.303   3.859   1.442
 5338SOL     OW16912   5.560   1.905   6.286
 5338SOL    HW116913   5.635   1.970   6.273
 5338SOL    HW216914   5.568   1.832   6.219
 5339SOL     OW16915   6.902   2.146   4.370
 5339SOL    HW116916   6.977   2.166   4.432
 5339SOL    HW216917   6.822   2.199   4.396
 5340SOL     OW16918   5.727   2.863   1.049
 5340SOL    HW116919   5.818   2.903   1.039
 5340SOL    HW216920   5.735   2.765   1.063
 5341SOL     OW16921   3.351   3.829   6.522
 5341SOL    HW116922   3.423   3.767   6.554
 5341SOL    HW216923   3.390   3.894   6.457
 5342SOL     OW16924   3.492   6.800   3.741
 5342SOL    HW116925   3.468   6.864   3.813
 5342SOL    HW216926   3.409   6.767   3.696
 5343SOL     OW16927   4.104   3.717   4.916
 5343SOL    HW116928   4.030   3.685   4.857
 5343SOL    HW216929   4.136   3.806   4.886
 5344SOL     OW16930   2.527   2.168   2.263
 5344SOL    HW116931   2.549   2.189   2.167
 5344SOL    HW216932   2.534   2.070   2.278
 5345SOL     OW16933   3.570   6.904   1.569
 5345SOL    HW116934   3.508   6.982   1.575
 5345SOL    HW216935   3.521   6.821   1.596
 5346SOL     OW16936   3.301   5.632   4.189
 5346SOL    HW116937   3.220   5.581   4.219
 5346SOL    HW216938   3.288   5.662   4.094
 5347SOL     OW16939   0.152   2.446   1.354
 5347SOL    HW116940   0.179   2.490   1.267
 5347SOL    HW216941   0.197   2.493   1.430
 5348SOL     OW16942   6.981   1.646   0.997
 5348SOL    HW116943   6.906   1.592   0.958
 5348SOL    HW216944   0.040   1.622   0.950
 5349SOL     OW16945   1.817   2.376   0.112
 5349SOL    HW116946   1.839   2.474   0.102
 5349SOL    HW216947   1.902   2.324   0.121
 5350SOL     OW16948   1.812   0.061   5.541
 5350SOL    HW116949   1.846   0.019   5.457
 5350SOL    HW216950   1.718   0.093   5.526
 5351SOL     OW16951   6.962   4.921   2.169
 5351SOL    HW116952   7.013   5.007   2.176
 5351SOL    HW216953   6.883   4.924   2.230
 5352SOL     OW16954   2.527   4.692   3.350
 5352SOL    HW116955   2.428   4.674   3.352
 5352SOL    HW216956   2.557   4.695   3.254
 5353SOL     OW16957   4.133   4.902   3.797
 5353SOL    HW116958   4.147   4.818   3.849
 5353SOL    HW216959   4.040   4.936   3.813
 5354SOL     OW16960   2.530   5.394   1.848
 5354SOL    HW116961   2.541   5.338   1.930
 5354SOL    HW216962   2.597   5.468   1.850
 5355SOL     OW16963   6.719   4.190   4.018
 5355SOL    HW116964   6.798   4.190   3.957
 5355SOL    HW216965   6.747   4.153   4.107
 5356SOL     OW16966   5.826   4.452   2.061
 5356SOL    HW116967   5.806   4.355   2.049
 5356SOL    HW216968   5.843   4.471   2.157
 5357SOL     OW16969   3.402   5.897   0.520
 5357SOL    HW116970   3.469   5.882   0.592
 5357SOL    HW216971   3.449   5.903   0.432
 5358SOL     OW16972   4.615   0.977   0.339
 5358SOL    HW116973   4.678   1.007   0.267
 5358SOL    HW216974   4.648   1.008   0.428
 5359SOL     OW16975   1.111   1.792   5.550
 5359SOL    HW116976   1.146   1.736   5.475
 5359SOL    HW216977   1.144   1.754   5.637
 5360SOL     OW16978   3.735   6.795   4.900
 5360SOL    HW116979   3.723   6.777   4.803
 5360SOL    HW216980   3.679   6.874   4.927
 5361SOL     OW16981   2.470   0.959   5.559
 5361SOL    HW116982   2.404   0.959   5.635
 5361SOL    HW216983   2.518   0.872   5.556
 5362SOL     OW16984   6.861   5.903   3.283
 5362SOL    HW116985   6.859   6.003   3.287
 5362SOL    HW216986   6.785   5.866   3.336
 5363SOL     OW16987   0.175   0.540   6.752
 5363SOL    HW116988   0.101   0.474   6.766
 5363SOL    HW216989   0.139   0.621   6.705
 5364SOL     OW16990   0.061   6.693   1.984
 5364SOL    HW116991   0.107   6.651   1.906
 5364SOL    HW216992   6.989   6.675   1.978
 5365SOL     OW16993   3.686   3.456   7.001
 5365SOL    HW116994   3.715   3.531   6.942
 5365SOL    HW216995   3.764   3.397   7.022
 5366SOL     OW16996   5.162   5.616   1.712
 5366SOL    HW116997   5.252   5.572   1.716
 5366SOL    HW216998   5.166   5.696   1.652
 5367SOL     OW16999   0.945   6.516   0.925
 5367SOL    HW117000   1.045   6.520   0.918
 5367SOL    HW217001   0.917   6.426   0.960
 5368SOL     OW17002   5.463   0.241   2.772
 5368SOL    HW117003   5.462   0.144   2.794
 5368SOL    HW217004   5.501   0.292   2.849
 5369SOL     OW17005   2.758   0.170   2.085
 5369SOL    HW117006   2.805   0.196   2.169
 5369SOL    HW217007   2.678   0.113   2.107
 5370SOL     OW17008   4.713   2.911   1.541
 5370SOL    HW117009   4.626   2.871   1.571
 5370SOL    HW217010   4.764   2.943   1.620
 5371SOL     OW17011   0.885   3.691   5.296
 5371SOL    HW117012   0.859   3.759   5.227
 5371SOL    HW217013   0.832   3.706   5.379
 5372SOL     OW17014   1.862   6.464   3.877
 5372SOL    HW117015   1.941   6.521   3.898
 5372SOL    HW217016   1.826   6.424   3.961
 5373SOL     OW17017   3.846   6.658   4.426
 5373SOL    HW117018   3.809   6.619   4.342
 5373SOL    HW217019   3.946   6.649   4.426
 5374SOL     OW17020   1.672   3.810   7.008
 5374SOL    HW117021   1.651   3.732   0.041
 5374SOL    HW217022   1.674   3.894   0.035
 5375SOL     OW17023   0.842   5.416   4.985
 5375SOL    HW117024   0.792   5.473   4.920
 5375SOL    HW217025   0.856   5.325   4.946
 5376SOL     OW17026   1.853   2.522   0.998
 5376SOL    HW117027   1.829   2.520   0.901
 5376SOL    HW217028   1.886   2.613   1.023
 5377SOL     OW17029   0.105   6.552   2.399
 5377SOL    HW117030   0.037   6.560   2.472
 5377SOL    HW217031   0.132   6.644   2.369
 5378SOL     OW17032   6.389   0.182   1.946
 5378SOL    HW117033   6.365   0.094   1.988
 5378SOL    HW217034   6.482   0.177   1.909
 5379SOL     OW17035   1.156   4.612   5.139
 5379SOL    HW117036   1.122   4.637   5.230
 5379SOL    HW217037   1.148   4.513   5.126
 5380SOL     OW17038   2.230   1.223   2.983
 5380SOL    HW117039   2.169   1.169   3.041
 5380SOL    HW217040   2.202   1.319   2.987
 5381SOL     OW17041   6.570   4.749   1.900
 5381SOL    HW117042   6.615   4.830   1.939
 5381SOL    HW217043   6.558   4.762   1.802
 5382SOL     OW17044   2.773   1.255   2.002
 5382SOL    HW117045   2.787   1.159   2.027
 5382SOL    HW217046   2.847   1.285   1.943
 5383SOL     OW17047   2.251   2.171   5.370
 5383SOL    HW117048   2.340   2.213   5.349
 5383SOL    HW217049   2.178   2.225   5.327
 5384SOL     OW17050   6.121   6.771   5.222
 5384SOL    HW117051   6.103   6.841   5.292
 5384SOL    HW217052   6.056   6.696   5.232
 5385SOL     OW17053   3.389   3.223   4.365
 5385SOL    HW117054   3.432   3.133   4.378
 5385SOL    HW217055   3.368   3.262   4.455
 5386SOL     OW17056   5.023   1.188   4.764
 5386SOL    HW117057   5.122   1.190   4.772
 5386SOL    HW217058   4.987   1.281   4.762
 5387SOL     OW17059   2.334   0.061   3.362
 5387SOL    HW117060   2.419   0.009   3.369
 5387SOL    HW217061   2.285   0.058   3.449
 5388SOL     OW17062   0.330   1.110   3.770
 5388SOL    HW117063   0.335   1.141   3.865
 5388SOL    HW217064   0.234   1.110   3.740
 5389SOL     OW17065   4.590   1.271   3.075
 5389SOL    HW117066   4.623   1.362   3.100
 5389SOL    HW217067   4.627   1.245   2.986
 5390SOL     OW17068   4.856   3.980   3.212
 5390SOL    HW117069   4.867   4.027   3.124
 5390SOL    HW217070   4.897   3.889   3.206
 5391SOL     OW17071   2.290   1.754   0.785
 5391SOL    HW117072   2.321   1.821   0.852
 5391SOL    HW217073   2.253   1.801   0.705
 5392SOL     OW17074   5.394   3.316   0.880
 5392SOL    HW117075   5.408   3.317   0.781
 5392SOL    HW217076   5.403   3.223   0.914
 5393SOL     OW17077   4.731   6.886   6.332
 5393SOL    HW117078   4.647   6.833   6.336
 5393SOL    HW217079   4.810   6.825   6.339
 5394SOL     OW17080   6.954   5.110   0.164
 5394SOL    HW117081   0.006   5.170   0.156
 5394SOL    HW217082   6.872   5.164   0.185
 5395SOL     OW17083   5.180   1.065   1.624
 5395SOL    HW117084   5.111   1.000   1.655
 5395SOL    HW217085   5.252   1.017   1.576
 5396SOL     OW17086   4.551   4.437   1.725
 5396SOL    HW117087   4.499   4.367   1.775
 5396SOL    HW217088   4.545   4.418   1.627
 5397SOL     OW17089   0.472   2.425   1.254
 5397SOL    HW117090   0.478   2.514   1.210
 5397SOL    HW217091   0.470   2.437   1.353
 5398SOL     OW17092   3.332   1.757   3.668
 5398SOL    HW117093   3.345   1.836   3.727
 5398SOL    HW217094   3.267   1.779   3.596
 5399SOL     OW17095   2.971   5.551   0.757
 5399SOL    HW117096   3.002   5.554   0.852
 5399SOL    HW217097   2.925   5.637   0.734
 5400SOL     OW17098   2.609   3.897   6.847
 5400SOL    HW117099   2.604   3.881   6.945
 5400SOL    HW217100   2.517   3.901   6.809
 5401SOL     OW17101   6.215   3.845   1.497
 5401SOL    HW117102   6.121   3.809   1.491
 5401SOL    HW217103   6.217   3.923   1.559
 5402SOL     OW17104   2.857   5.179   2.000
 5402SOL    HW117105   2.956   5.186   1.989
 5402SOL    HW217106   2.832   5.085   2.021
 5403SOL     OW17107   5.269   2.828   5.922
 5403SOL    HW117108   5.331   2.902   5.946
 5403SOL    HW217109   5.246   2.775   6.004
 5404SOL     OW17110   0.829   0.450   2.323
 5404SOL    HW117111   0.907   0.469   2.383
 5404SOL    HW217112   0.744   0.471   2.372
 5405SOL     OW17113   5.989   6.182   0.373
 5405SOL    HW117114   5.967   6.102   0.317
 5405SOL    HW217115   6.028   6.153   0.460
 5406SOL     OW17116   2.532   6.952   6.459
 5406SOL    HW117117   2.495   6.954   6.552
 5406SOL    HW217118   2.617   7.006   6.455
 5407SOL     OW17119   4.292   2.372   1.221
 5407SOL    HW117120   4.371   2.422   1.258
 5407SOL    HW217121   4.265   2.300   1.285
 5408SOL     OW17122   3.615   1.238   5.884
 5408SOL    HW117123   3.621   1.140   5.867
 5408SOL    HW217124   3.683   1.265   5.951
 5409SOL     OW17125   6.332   2.256   3.979
 5409SOL    HW117126   6.254   2.211   3.935
 5409SOL    HW217127   6.326   2.355   3.964
 5410SOL     OW17128   1.304   3.229   0.392
 5410SOL    HW117129   1.266   3.249   0.301
 5410SOL    HW217130   1.306   3.130   0.405
 5411SOL     OW17131   6.145   5.002   5.535
 5411SOL    HW117132   6.216   5.071   5.524
 5411SOL    HW217133   6.122   4.994   5.632
 5412SOL     OW17134   4.258   0.449   6.990
 5412SOL    HW117135   4.301   0.371   0.010
 5412SOL    HW217136   4.328   0.517   6.968
 5413SOL     OW17137   0.250   0.452   1.317
 5413SOL    HW117138   0.229   0.401   1.400
 5413SOL    HW217139   0.304   0.395   1.255
 5414SOL     OW17140   6.544   2.994   5.497
 5414SOL    HW117141   6.524   3.079   5.448
 5414SOL    HW217142   6.475   2.925   5.473
 5415SOL     OW17143   1.472   6.309   1.510
 5415SOL    HW117144   1.543   6.378   1.525
 5415SOL    HW217145   1.511   6.218   1.522
 5416SOL     OW17146   3.815   5.041   6.460
 5416SOL    HW117147   3.789   5.077   6.549
 5416SOL    HW217148   3.827   4.942   6.465
 5417SOL     OW17149   4.273   6.872   4.638
 5417SOL    HW117150   4.328   6.954   4.649
 5417SOL    HW217151   4.290   6.809   4.714
 5418SOL     OW17152   5.064   0.314   4.603
 5418SOL    HW117153   5.107   0.303   4.514
 5418SOL    HW217154   5.024   0.227   4.632
 5419SOL     OW17155   3.063   5.476   0.490
 5419SOL    HW117156   3.088   5.564   0.448
 5419SOL    HW217157   3.035   5.491   0.584
 5420SOL     OW17158   1.578   2.925   2.265
 5420SOL    HW117159   1.549   2.949   2.172
 5420SOL    HW217160   1.512   2.962   2.331
 5421SOL     OW17161   2.238   4.146   3.082
 5421SOL    HW117162   2.276   4.176   2.994
 5421SOL    HW217163   2.158   4.088   3.065
 5422SOL     OW17164   1.011   5.843   5.882
 5422SOL    HW117165   1.020   5.866   5.785
 5422SOL    HW217166   0.918   5.814   5.902
 5423SOL     OW17167   5.750   3.453   6.948
 5423SOL    HW117168   5.847   3.455   6.925
 5423SOL    HW217169   5.708   3.370   6.910
 5424SOL     OW17170   6.118   3.471   4.012
 5424SOL    HW117171   6.208   3.430   3.993
 5424SOL    HW217172   6.095   3.457   4.108
 5425SOL     OW17173   5.454   1.410   3.736
 5425SOL    HW117174   5.359   1.381   3.729
 5425SOL    HW217175   5.458   1.500   3.779
 5426SOL     OW17176   6.947   5.423   3.950
 5426SOL    HW117177   6.939   5.454   4.045
 5426SOL    HW217178   6.977   5.499   3.893
 5427SOL     OW17179   5.519   4.747   1.146
 5427SOL    HW117180   5.452   4.716   1.214
 5427SOL    HW217181   5.590   4.677   1.137
 5428SOL     OW17182   6.908   0.567   2.217
 5428SOL    HW117183   6.924   0.662   2.245
 5428SOL    HW217184   6.864   0.565   2.128
 5429SOL     OW17185   1.152   0.979   5.126
 5429SOL    HW117186   1.138   1.024   5.038
 5429SOL    HW217187   1.124   1.040   5.200
 5430SOL     OW17188   1.666   3.026   5.518
 5430SOL    HW117189   1.718   3.103   5.480
 5430SOL    HW217190   1.673   3.026   5.617
 5431SOL     OW17191   3.644   5.365   6.373
 5431SOL    HW117192   3.676   5.287   6.319
 5431SOL    HW217193   3.723   5.419   6.403
 5432SOL     OW17194   3.994   6.357   5.674
 5432SOL    HW117195   4.015   6.432   5.736
 5432SOL    HW217196   4.048   6.276   5.700
 5433SOL     OW17197   0.118   1.307   3.734
 5433SOL    HW117198   0.188   1.325   3.665
 5433SOL    HW217199   0.144   1.349   3.821
 5434SOL     OW17200   4.119   0.631   4.683
 5434SOL    HW117201   4.070   0.677   4.757
 5434SOL    HW217202   4.061   0.628   4.602
 5435SOL     OW17203   6.077   1.694   1.101
 5435SOL    HW117204   6.014   1.642   1.043
 5435SOL    HW217205   6.161   1.713   1.050
 5436SOL     OW17206   5.458   3.897   4.718
 5436SOL    HW117207   5.539   3.839   4.718
 5436SOL    HW217208   5.486   3.993   4.727
 5437SOL     OW17209   2.404   5.117   5.447
 5437SOL    HW117210   2.494   5.075   5.458
 5437SOL    HW217211   2.341   5.078   5.514
 5438SOL     OW17212   5.961   3.965   2.757
 5438SOL    HW117213   5.974   3.881   2.811
 5438SOL    HW217214   5.950   4.043   2.819
 5439SOL     OW17215   6.898   2.489   0.236
 5439SOL    HW117216   6.892   2.398   0.195
 5439SOL    HW217217   6.913   2.480   0.334
 5440SOL     OW17218   0.543   0.036   2.580
 5440SOL    HW117219   0.472   0.078   2.523
 5440SOL    HW217220   0.616   0.102   2.598
 5441SOL     OW17221   4.911   3.202   3.433
 5441SOL    HW117222   5.009   3.207   3.415
 5441SOL    HW217223   4.871   3.129   3.378
 5442SOL     OW17224   2.861   6.785   3.461
 5442SOL    HW117225   2.934   6.802   3.394
 5442SOL    HW217226   2.879   6.699   3.508
 5443SOL     OW17227   2.714   6.349   3.721
 5443SOL    HW117228   2.809   6.316   3.729
 5443SOL    HW217229   2.713   6.448   3.729
 5444SOL     OW17230   0.648   0.468   3.381
 5444SOL    HW117231   0.701   0.392   3.342
 5444SOL    HW217232   0.634   0.453   3.479
 5445SOL     OW17233   6.310   4.532   4.196
 5445SOL    HW117234   6.222   4.579   4.185
 5445SOL    HW217235   6.339   4.497   4.107
 5446SOL     OW17236   5.414   5.162   4.795
 5446SOL    HW117237   5.398   5.200   4.886
 5446SOL    HW217238   5.329   5.120   4.761
 5447SOL     OW17239   1.366   1.831   0.673
 5447SOL    HW117240   1.325   1.844   0.763
 5447SOL    HW217241   1.387   1.921   0.633
 5448SOL     OW17242   5.761   4.013   4.703
 5448SOL    HW117243   5.677   4.054   4.667
 5448SOL    HW217244   5.840   4.067   4.673
 5449SOL     OW17245   1.566   1.666   0.092
 5449SOL    HW117246   1.652   1.628   0.058
 5449SOL    HW217247   1.510   1.593   0.131
 5450SOL     OW17248   2.228   0.514   1.970
 5450SOL    HW117249   2.138   0.515   2.014
 5450SOL    HW217250   2.217   0.495   1.872
 5451SOL     OW17251   1.975   5.532   3.295
 5451SOL    HW117252   1.976   5.620   3.341
 5451SOL    HW217253   1.941   5.462   3.358
 5452SOL     OW17254   2.280   3.664   0.461
 5452SOL    HW117255   2.227   3.609   0.397
 5452SOL    HW217256   2.234   3.750   0.478
 5453SOL     OW17257   5.078   4.251   1.391
 5453SOL    HW117258   5.136   4.215   1.464
 5453SOL    HW217259   4.998   4.295   1.431
 5454SOL     OW17260   6.434   4.519   5.338
 5454SOL    HW117261   6.343   4.489   5.310
 5454SOL    HW217262   6.490   4.439   5.361
 5455SOL     OW17263   6.551   2.198   2.059
 5455SOL    HW117264   6.622   2.249   2.011
 5455SOL    HW217265   6.518   2.124   2.001
 5456SOL     OW17266   2.838   7.000   0.203
 5456SOL    HW117267   2.819   6.945   0.121
 5456SOL    HW217268   2.880   6.943   0.273
 5457SOL     OW17269   0.397   2.635   0.957
 5457SOL    HW117270   0.444   2.577   0.890
 5457SOL    HW217271   0.361   2.716   0.910
 5458SOL     OW17272   0.326   4.681   0.309
 5458SOL    HW117273   0.271   4.670   0.392
 5458SOL    HW217274   0.279   4.741   0.244
 5459SOL     OW17275   2.855   3.982   6.515
 5459SOL    HW117276   2.832   3.928   6.596
 5459SOL    HW217277   2.950   3.965   6.490
 5460SOL     OW17278   4.322   0.143   3.154
 5460SOL    HW117279   4.374   0.201   3.092
 5460SOL    HW217280   4.272   0.200   3.219
 5461SOL     OW17281   0.129   0.419   5.766
 5461SOL    HW117282   0.187   0.339   5.781
 5461SOL    HW217283   0.064   0.400   5.692
 5462SOL     OW17284   6.732   6.532   1.103
 5462SOL    HW117285   6.719   6.556   1.200
 5462SOL    HW217286   6.827   6.504   1.088
 5463SOL     OW17287   0.025   1.255   0.673
 5463SOL    HW117288   0.113   1.262   0.625
 5463SOL    HW217289   0.036   1.284   0.768
 5464SOL     OW17290   0.124   0.560   4.430
 5464SOL    HW117291   0.168   0.470   4.424
 5464SOL    HW217292   0.174   0.617   4.495
 5465SOL     OW17293   4.917   0.734   4.296
 5465SOL    HW117294   4.884   0.822   4.329
 5465SOL    HW217295   4.887   0.661   4.359
 5466SOL     OW17296   5.297   3.204   4.961
 5466SOL    HW117297   5.316   3.106   4.955
 5466SOL    HW217298   5.204   3.222   4.929
 5467SOL     OW17299   4.858   3.998   3.484
 5467SOL    HW117300   4.853   3.975   3.387
 5467SOL    HW217301   4.849   3.915   3.539
 5468SOL     OW17302   6.608   2.833   3.722
 5468SOL    HW117303   6.639   2.774   3.648
 5468SOL    HW217304   6.513   2.859   3.706
 5469SOL     OW17305   2.752   5.572   5.965
 5469SOL    HW117306   2.660   5.600   5.937
 5469SOL    HW217307   2.754   5.473   5.979
 5470SOL     OW17308   3.387   5.270   3.372
 5470SOL    HW117309   3.460   5.248   3.437
 5470SOL    HW217310   3.381   5.199   3.302
 5471SOL     OW17311   5.660   6.663   2.772
 5471SOL    HW117312   5.590   6.728   2.742
 5471SOL    HW217313   5.737   6.713   2.812
 5472SOL     OW17314   3.258   4.011   6.720
 5472SOL    HW117315   3.276   4.109   6.726
 5472SOL    HW217316   3.280   3.979   6.628
 5473SOL     OW17317   0.597   3.384   2.540
 5473SOL    HW117318   0.649   3.323   2.480
 5473SOL    HW217319   0.594   3.347   2.632
 5474SOL     OW17320   1.276   4.884   3.901
 5474SOL    HW117321   1.247   4.976   3.926
 5474SOL    HW217322   1.345   4.851   3.965
 5475SOL     OW17323   2.236   2.855   0.809
 5475SOL    HW117324   2.264   2.832   0.716
 5475SOL    HW217325   2.303   2.817   0.874
 5476SOL     OW17326   2.730   4.359   5.708
 5476SOL    HW117327   2.647   4.408   5.733
 5476SOL    HW217328   2.716   4.313   5.620
 5477SOL     OW17329   1.949   4.571   2.748
 5477SOL    HW117330   2.040   4.611   2.733
 5477SOL    HW217331   1.944   4.534   2.840
 5478SOL     OW17332   3.094   5.983   4.415
 5478SOL    HW117333   3.027   5.925   4.370
 5478SOL    HW217334   3.173   5.927   4.442
 5479SOL     OW17335   5.470   1.587   6.407
 5479SOL    HW117336   5.488   1.523   6.482
 5479SOL    HW217337   5.407   1.658   6.439
 5480SOL     OW17338   5.722   4.874   3.650
 5480SOL    HW117339   5.768   4.921   3.574
 5480SOL    HW217340   5.759   4.907   3.737
 5481SOL     OW17341   4.227   1.715   4.300
 5481SOL    HW117342   4.194   1.720   4.206
 5481SOL    HW217343   4.284   1.634   4.312
 5482SOL     OW17344   3.603   4.341   1.737
 5482SOL    HW117345   3.586   4.436   1.764
 5482SOL    HW217346   3.546   4.280   1.791
 5483SOL     OW17347   0.287   1.545   5.423
 5483SOL    HW117348   0.273   1.607   5.346
 5483SOL    HW217349   0.253   1.454   5.400
 5484SOL     OW17350   4.023   1.831   4.902
 5484SOL    HW117351   4.104   1.884   4.876
 5484SOL    HW217352   4.029   1.740   4.863
 5485SOL     OW17353   4.141   0.144   4.647
 5485SOL    HW117354   4.170   0.236   4.671
 5485SOL    HW217355   4.127   0.138   4.548
 5486SOL     OW17356   2.167   6.326   5.311
 5486SOL    HW117357   2.224   6.288   5.383
 5486SOL    HW217358   2.152   6.258   5.239
 5487SOL     OW17359   5.124   2.448   6.983
 5487SOL    HW117360   5.044   2.504   7.009
 5487SOL    HW217361   5.117   2.358   7.026
 5488SOL     OW17362   6.214   0.351   1.171
 5488SOL    HW117363   6.229   0.280   1.102
 5488SOL    HW217364   6.299   0.365   1.222
 5489SOL     OW17365   0.229   4.333   1.743
 5489SOL    HW117366   0.132   4.314   1.725
 5489SOL    HW217367   0.284   4.254   1.715
 5490SOL     OW17368   3.416   0.490   2.429
 5490SOL    HW117369   3.432   0.422   2.500
 5490SOL    HW217370   3.455   0.578   2.457
 5491SOL     OW17371   1.025   3.170   0.460
 5491SOL    HW117372   0.990   3.079   0.436
 5491SOL    HW217373   1.124   3.167   0.467
 5492SOL     OW17374   0.678   3.867   6.492
 5492SOL    HW117375   0.684   3.767   6.497
 5492SOL    HW217376   0.734   3.901   6.417
 5493SOL     OW17377   3.342   4.173   4.236
 5493SOL    HW117378   3.408   4.247   4.250
 5493SOL    HW217379   3.306   4.177   4.143
 5494SOL     OW17380   1.020   3.817   6.275
 5494SOL    HW117381   0.923   3.798   6.260
 5494SOL    HW217382   1.044   3.902   6.227
 5495SOL     OW17383   5.422   1.138   0.759
 5495SOL    HW117384   5.458   1.108   0.847
 5495SOL    HW217385   5.381   1.229   0.768
 5496SOL     OW17386   4.290   0.684   3.325
 5496SOL    HW117387   4.327   0.734   3.247
 5496SOL    HW217388   4.361   0.623   3.362
 5497SOL     OW17389   6.775   1.032   5.019
 5497SOL    HW117390   6.796   1.077   5.106
 5497SOL    HW217391   6.844   0.961   5.001
 5498SOL     OW17392   6.996   5.733   1.451
 5498SOL    HW117393   0.005   5.817   1.411
 5498SOL    HW217394   6.927   5.754   1.520
 5499SOL     OW17395   0.734   0.521   4.625
 5499SOL    HW117396   0.647   0.482   4.594
 5499SOL    HW217397   0.751   0.606   4.576
 5500SOL     OW17398   0.796   0.570   0.412
 5500SOL    HW117399   0.862   0.517   0.359
 5500SOL    HW217400   0.740   0.626   0.350
 5501SOL     OW17401   3.462   1.663   6.635
 5501SOL    HW117402   3.541   1.671   6.575
 5501SOL    HW217403   3.476   1.587   6.699
 5502SOL     OW17404   4.581   3.911   0.470
 5502SOL    HW117405   4.651   3.934   0.537
 5502SOL    HW217406   4.613   3.936   0.378
 5503SOL     OW17407   6.704   4.236   1.435
 5503SOL    HW117408   6.791   4.282   1.420
 5503SOL    HW217409   6.631   4.305   1.445
 5504SOL     OW17410   4.566   1.575   5.329
 5504SOL    HW117411   4.558   1.669   5.295
 5504SOL    HW217412   4.658   1.541   5.311
 5505SOL     OW17413   1.828   5.277   3.832
 5505SOL    HW117414   1.908   5.232   3.871
 5505SOL    HW217415   1.762   5.208   3.803
 5506SOL     OW17416   0.393   3.744   0.510
 5506SOL    HW117417   0.339   3.828   0.522
 5506SOL    HW217418   0.474   3.749   0.568
 5507SOL     OW17419   4.311   1.098   4.730
 5507SOL    HW117420   4.409   1.097   4.710
 5507SOL    HW217421   4.295   1.142   4.818
 5508SOL     OW17422   1.230   0.911   0.508
 5508SOL    HW117423   1.158   0.895   0.440
 5508SOL    HW217424   1.278   0.825   0.526
 5509SOL     OW17425   0.527   6.005   6.151
 5509SOL    HW117426   0.452   5.998   6.086
 5509SOL    HW217427   0.515   6.087   6.208
 5510SOL     OW17428   4.682   5.205   0.099
 5510SOL    HW117429   4.687   5.294   0.053
 5510SOL    HW217430   4.696   5.218   0.198
 5511SOL     OW17431   1.035   0.165   3.899
 5511SOL    HW117432   0.968   0.091   3.905
 5511SOL    HW217433   1.120   0.129   3.859
 5512SOL     OW17434   5.127   2.150   0.624
 5512SOL    HW117435   5.126   2.164   0.723
 5512SOL    HW217436   5.034   2.163   0.588
 5513SOL     OW17437   3.656   5.176   5.926
 5513SOL    HW117438   3.662   5.178   6.026
 5513SOL    HW217439   3.596   5.100   5.898
 5514SOL     OW17440   3.453   0.498   4.701
 5514SOL    HW117441   3.528   0.433   4.717
 5514SOL    HW217442   3.398   0.466   4.624
 5515SOL     OW17443   0.754   5.783   1.836
 5515SOL    HW117444   0.757   5.851   1.910
 5515SOL    HW217445   0.726   5.827   1.751
 5516SOL     OW17446   2.138   3.127   6.057
 5516SOL    HW117447   2.133   3.097   6.152
 5516SOL    HW217448   2.046   3.134   6.019
 5517SOL     OW17449   2.124   3.434   2.224
 5517SOL    HW117450   2.031   3.404   2.202
 5517SOL    HW217451   2.172   3.455   2.139
 5518SOL     OW17452   5.939   5.980   6.680
 5518SOL    HW117453   5.840   5.972   6.693
 5518SOL    HW217454   5.983   5.896   6.709
 5519SOL     OW17455   5.527   3.260   3.214
 5519SOL    HW117456   5.592   3.307   3.154
 5519SOL    HW217457   5.509   3.168   3.178
 5520SOL     OW17458   6.362   6.797   2.401
 5520SOL    HW117459   6.417   6.766   2.478
 5520SOL    HW217460   6.318   6.884   2.424
 5521SOL     OW17461   4.972   6.321   2.328
 5521SOL    HW117462   4.949   6.322   2.425
 5521SOL    HW217463   4.941   6.235   2.287
 5522SOL     OW17464   6.144   4.535   0.429
 5522SOL    HW117465   6.160   4.609   0.364
 5522SOL    HW217466   6.212   4.538   0.502
 5523SOL     OW17467   3.988   1.686   1.795
 5523SOL    HW117468   3.916   1.744   1.833
 5523SOL    HW217469   4.047   1.652   1.868
 5524SOL     OW17470   4.522   0.293   4.551
 5524SOL    HW117471   4.582   0.358   4.504
 5524SOL    HW217472   4.562   0.202   4.548
 5525SOL     OW17473   0.505   2.240   0.214
 5525SOL    HW117474   0.412   2.275   0.215
 5525SOL    HW217475   0.528   2.204   0.305
 5526SOL     OW17476   4.914   4.976   2.770
 5526SOL    HW117477   4.849   5.010   2.837
 5526SOL    HW217478   5.000   4.951   2.816
 5527SOL     OW17479   4.851   3.647   4.013
 5527SOL    HW117480   4.912   3.610   4.082
 5527SOL    HW217481   4.793   3.573   3.977
 5528SOL     OW17482   1.638   1.033   0.511
 5528SOL    HW117483   1.646   1.132   0.527
 5528SOL    HW217484   1.706   1.005   0.444
 5529SOL     OW17485   3.482   6.855   5.382
 5529SOL    HW117486   3.563   6.797   5.379
 5529SOL    HW217487   3.411   6.812   5.437
 5530SOL     OW17488   6.002   1.854   0.699
 5530SOL    HW117489   5.997   1.900   0.610
 5530SOL    HW217490   6.089   1.807   0.708
 5531SOL     OW17491   3.698   3.592   1.788
 5531SOL    HW117492   3.667   3.561   1.878
 5531SOL    HW217493   3.797   3.602   1.788
 5532SOL     OW17494   1.051   3.354   1.119
 5532SOL    HW117495   1.021   3.449   1.108
 5532SOL    HW217496   0.986   3.293   1.073
 5533SOL     OW17497   3.877   1.844   3.070
 5533SOL    HW117498   3.838   1.797   3.149
 5533SOL    HW217499   3.969   1.807   3.051
 5534SOL     OW17500   1.207   1.931   6.936
 5534SOL    HW117501   1.128   1.890   6.980
 5534SOL    HW217502   1.256   1.990   7.000
 5535SOL     OW17503   0.885   1.460   3.171
 5535SOL    HW117504   0.889   1.552   3.131
 5535SOL    HW217505   0.927   1.461   3.262
 5536SOL     OW17506   3.964   0.899   4.299
 5536SOL    HW117507   4.024   0.958   4.353
 5536SOL    HW217508   3.948   0.943   4.210
 5537SOL     OW17509   2.923   1.372   2.435
 5537SOL    HW117510   2.872   1.313   2.497
 5537SOL    HW217511   2.864   1.403   2.361
 5538SOL     OW17512   3.463   5.631   4.917
 5538SOL    HW117513   3.547   5.610   4.868
 5538SOL    HW217514   3.464   5.727   4.945
 5539SOL     OW17515   1.098   4.094   1.965
 5539SOL    HW117516   1.112   4.193   1.967
 5539SOL    HW217517   1.029   4.069   2.033
 5540SOL     OW17518   4.724   4.318   3.911
 5540SOL    HW117519   4.725   4.256   3.833
 5540SOL    HW217520   4.741   4.267   3.995
 5541SOL     OW17521   4.872   0.494   6.712
 5541SOL    HW117522   4.877   0.499   6.612
 5541SOL    HW217523   4.818   0.414   6.738
 5542SOL     OW17524   4.483   3.656   5.944
 5542SOL    HW117525   4.512   3.735   5.998
 5542SOL    HW217526   4.506   3.671   5.848
 5543SOL     OW17527   4.292   4.233   6.550
 5543SOL    HW117528   4.368   4.270   6.496
 5543SOL    HW217529   4.228   4.307   6.572
 5544SOL     OW17530   4.866   5.332   6.850
 5544SOL    HW117531   4.909   5.284   6.927
 5544SOL    HW217532   4.838   5.266   6.781
 5545SOL     OW17533   4.430   0.568   2.705
 5545SOL    HW117534   4.431   0.498   2.634
 5545SOL    HW217535   4.388   0.651   2.670
 5546SOL     OW17536   0.286   4.672   4.257
 5546SOL    HW117537   0.283   4.741   4.329
 5546SOL    HW217538   0.192   4.650   4.228
 5547SOL     OW17539   3.245   6.825   5.499
 5547SOL    HW117540   3.230   6.875   5.585
 5547SOL    HW217541   3.157   6.815   5.452
 5548SOL     OW17542   6.165   2.342   5.421
 5548SOL    HW117543   6.224   2.389   5.487
 5548SOL    HW217544   6.079   2.392   5.412
 5549SOL     OW17545   4.074   4.961   6.778
 5549SOL    HW117546   4.034   4.911   6.855
 5549SOL    HW217547   4.051   5.058   6.786
 5550SOL     OW17548   2.889   5.308   2.622
 5550SOL    HW117549   2.977   5.285   2.581
 5550SOL    HW217550   2.904   5.360   2.706
 5551SOL     OW17551   2.181   1.073   2.721
 5551SOL    HW117552   2.203   1.137   2.795
 5551SOL    HW217553   2.237   0.991   2.730
 5552SOL     OW17554   0.236   1.036   6.897
 5552SOL    HW117555   0.167   0.979   6.853
 5552SOL    HW217556   0.264   1.108   6.833
 5553SOL     OW17557   3.945   6.419   0.491
 5553SOL    HW117558   3.867   6.448   0.546
 5553SOL    HW217559   3.981   6.497   0.439
 5554SOL     OW17560   2.907   1.651   5.571
 5554SOL    HW117561   2.849   1.573   5.548
 5554SOL    HW217562   2.856   1.736   5.556
 5555SOL     OW17563   0.830   4.927   3.773
 5555SOL    HW117564   0.822   4.827   3.778
 5555SOL    HW217565   0.893   4.951   3.699
 5556SOL     OW17566   0.194   2.940   4.205
 5556SOL    HW117567   0.200   2.872   4.131
 5556SOL    HW217568   0.232   2.901   4.289
 5557SOL     OW17569   3.384   4.920   3.537
 5557SOL    HW117570   3.305   4.894   3.481
 5557SOL    HW217571   3.359   4.998   3.595
 5558SOL     OW17572   5.085   3.471   5.495
 5558SOL    HW117573   5.031   3.510   5.421
 5558SOL    HW217574   5.102   3.374   5.478
 5559SOL     OW17575   2.903   0.158   2.508
 5559SOL    HW117576   2.842   0.145   2.586
 5559SOL    HW217577   2.872   0.103   2.432
 5560SOL     OW17578   0.376   6.896   2.741
 5560SOL    HW117579   0.427   6.863   2.820
 5560SOL    HW217580   0.438   6.941   2.677
 5561SOL     OW17581   2.149   1.998   3.712
 5561SOL    HW117582   2.093   1.915   3.718
 5561SOL    HW217583   2.234   1.983   3.761
 5562SOL     OW17584   1.977   2.150   6.604
 5562SOL    HW117585   1.997   2.089   6.527
 5562SOL    HW217586   1.995   2.245   6.577
 5563SOL     OW17587   4.571   6.368   2.585
 5563SOL    HW117588   4.619   6.428   2.521
 5563SOL    HW217589   4.485   6.337   2.545
 5564SOL     OW17590   5.273   1.933   1.241
 5564SOL    HW117591   5.221   1.952   1.157
 5564SOL    HW217592   5.222   1.868   1.298
 5565SOL     OW17593   4.635   1.998   6.266
 5565SOL    HW117594   4.688   2.056   6.205
 5565SOL    HW217595   4.694   1.928   6.306
 5566SOL     OW17596   1.221   5.363   1.500
 5566SOL    HW117597   1.249   5.445   1.450
 5566SOL    HW217598   1.149   5.386   1.565
 5567SOL     OW17599   0.857   4.908   0.733
 5567SOL    HW117600   0.888   4.928   0.826
 5567SOL    HW217601   0.775   4.962   0.713
 5568SOL     OW17602   4.444   2.479   1.802
 5568SOL    HW117603   4.501   2.447   1.877
 5568SOL    HW217604   4.379   2.408   1.776
 5569SOL     OW17605   3.937   1.684   2.153
 5569SOL    HW117606   3.961   1.781   2.160
 5569SOL    HW217607   3.844   1.670   2.188
 5570SOL     OW17608   6.300   4.996   4.590
 5570SOL    HW117609   6.342   5.085   4.572
 5570SOL    HW217610   6.317   4.969   4.685
 5571SOL     OW17611   0.515   6.316   0.281
 5571SOL    HW117612   0.576   6.377   0.331
 5571SOL    HW217613   0.495   6.236   0.336
 5572SOL     OW17614   2.637   2.532   6.577
 5572SOL    HW117615   2.552   2.583   6.563
 5572SOL    HW217616   2.714   2.586   6.545
 5573SOL     OW17617   1.020   2.902   0.687
 5573SOL    HW117618   0.942   2.873   0.742
 5573SOL    HW217619   1.093   2.834   0.694
 5574SOL     OW17620   6.913   1.190   4.458
 5574SOL    HW117621   6.854   1.127   4.407
 5574SOL    HW217622   7.006   1.153   4.463
 5575SOL     OW17623   1.559   0.764   1.752
 5575SOL    HW117624   1.601   0.854   1.745
 5575SOL    HW217625   1.495   0.762   1.828
 5576SOL     OW17626   6.409   5.230   1.932
 5576SOL    HW117627   6.394   5.247   1.834
 5576SOL    HW217628   6.320   5.220   1.978
 5577SOL     OW17629   2.360   3.422   5.337
 5577SOL    HW117630   2.346   3.329   5.303
 5577SOL    HW217631   2.315   3.487   5.275
 5578SOL     OW17632   3.609   2.845   0.636
 5578SOL    HW117633   3.534   2.821   0.574
 5578SOL    HW217634   3.623   2.771   0.702
 5579SOL     OW17635   5.573   3.588   5.818
 5579SOL    HW117636   5.616   3.657   5.877
 5579SOL    HW217637   5.497   3.545   5.867
 5580SOL     OW17638   4.549   1.797   0.698
 5580SOL    HW117639   4.529   1.715   0.752
 5580SOL    HW217640   4.474   1.863   0.710
 5581SOL     OW17641   2.754   0.207   0.641
 5581SOL    HW117642   2.848   0.190   0.667
 5581SOL    HW217643   2.744   0.197   0.542
 5582SOL     OW17644   3.293   3.899   4.222
 5582SOL    HW117645   3.332   3.856   4.141
 5582SOL    HW217646   3.307   3.998   4.217
 5583SOL     OW17647   4.341   6.849   2.659
 5583SOL    HW117648   4.421   6.880   2.609
 5583SOL    HW217649   4.322   6.912   2.734
 5584SOL     OW17650   5.678   4.109   3.612
 5584SOL    HW117651   5.669   4.098   3.711
 5584SOL    HW217652   5.750   4.049   3.578
 5585SOL     OW17653   5.830   0.550   4.093
 5585SOL    HW117654   5.737   0.515   4.104
 5585SOL    HW217655   5.879   0.494   4.026
 5586SOL     OW17656   1.712   2.239   6.390
 5586SOL    HW117657   1.744   2.174   6.320
 5586SOL    HW217658   1.614   2.251   6.381
 5587SOL     OW17659   3.920   0.007   2.361
 5587SOL    HW117660   3.947   7.009   2.454
 5587SOL    HW217661   3.887   0.101   2.359
 5588SOL     OW17662   1.488   6.704   4.337
 5588SOL    HW117663   1.494   6.733   4.432
 5588SOL    HW217664   1.577   6.716   4.293
 5589SOL     OW17665   5.004   2.992   5.695
 5589SOL    HW117666   5.039   3.085   5.709
 5589SOL    HW217667   5.079   2.931   5.670
 5590SOL     OW17668   6.498   5.598   3.314
 5590SOL    HW117669   6.552   5.678   3.338
 5590SOL    HW217670   6.466   5.606   3.219
 5591SOL     OW17671   5.794   0.572   0.102
 5591SOL    HW117672   5.834   0.602   0.015
 5591SOL    HW217673   5.833   0.626   0.177
 5592SOL     OW17674   2.051   3.648   4.013
 5592SOL    HW117675   2.069   3.746   4.010
 5592SOL    HW217676   1.954   3.632   4.029
 5593SOL     OW17677   0.282   2.385   5.739
 5593SOL    HW117678   0.283   2.364   5.642
 5593SOL    HW217679   0.372   2.420   5.767
 5594SOL     OW17680   2.457   0.968   6.827
 5594SOL    HW117681   2.523   1.034   6.865
 5594SOL    HW217682   2.442   0.894   6.892
 5595SOL     OW17683   6.395   0.660   5.688
 5595SOL    HW117684   6.362   0.725   5.619
 5595SOL    HW217685   6.491   0.639   5.671
 5596SOL     OW17686   6.031   6.959   2.597
 5596SOL    HW117687   6.063   0.019   2.559
 5596SOL    HW217688   5.931   6.955   2.591
 5597SOL     OW17689   5.349   2.219   5.929
 5597SOL    HW117690   5.322   2.243   6.022
 5597SOL    HW217691   5.349   2.120   5.919
 5598SOL     OW17692   4.995   2.086   3.679
 5598SOL    HW117693   4.899   2.102   3.704
 5598SOL    HW217694   5.030   2.006   3.727
 5599SOL     OW17695   5.573   3.985   1.877
 5599SOL    HW117696   5.566   4.062   1.815
 5599SOL    HW217697   5.498   3.987   1.943
 5600SOL     OW17698   2.384   0.152   3.130
 5600SOL    HW117699   2.478   0.138   3.098
 5600SOL    HW217700   2.373   0.108   3.219
 5601SOL     OW17701   5.239   2.847   5.648
 5601SOL    HW117702   5.252   2.842   5.747
 5601SOL    HW217703   5.232   2.755   5.610
 5602SOL     OW17704   0.174   1.642   3.692
 5602SOL    HW117705   0.216   1.581   3.625
 5602SOL    HW217706   0.151   1.729   3.648
 5603SOL     OW17707   4.460   2.633   5.100
 5603SOL    HW117708   4.374   2.631   5.049
 5603SOL    HW217709   4.495   2.726   5.104
 5604SOL     OW17710   0.614   0.876   4.087
 5604SOL    HW117711   0.663   0.793   4.116
 5604SOL    HW217712   0.661   0.916   4.007
 5605SOL     OW17713   0.831   0.080   4.688
 5605SOL    HW117714   0.836   0.036   4.598
 5605SOL    HW217715   0.738   0.074   4.722
 5606SOL     OW17716   4.618   1.393   0.139
 5606SOL    HW117717   4.695   1.448   0.108
 5606SOL    HW217718   4.592   1.420   0.232
 5607SOL     OW17719   5.962   2.552   3.581
 5607SOL    HW117720   5.914   2.492   3.517
 5607SOL    HW217721   5.907   2.635   3.595
 5608SOL     OW17722   6.214   0.404   3.371
 5608SOL    HW117723   6.132   0.445   3.412
 5608SOL    HW217724   6.295   0.454   3.402
 5609SOL     OW17725   4.668   6.354   0.298
 5609SOL    HW117726   4.738   6.308   0.353
 5609SOL    HW217727   4.593   6.291   0.278
 5610SOL     OW17728   5.819   4.251   6.752
 5610SOL    HW117729   5.758   4.200   6.813
 5610SOL    HW217730   5.907   4.204   6.747
 5611SOL     OW17731   0.221   4.514   1.995
 5611SOL    HW117732   0.217   4.612   2.016
 5611SOL    HW217733   0.197   4.500   1.899
 5612SOL     OW17734   3.271   3.024   0.286
 5612SOL    HW117735   3.288   2.927   0.305
 5612SOL    HW217736   3.204   3.059   0.352
 5613SOL     OW17737   6.915   5.495   4.188
 5613SOL    HW117738   6.828   5.482   4.235
 5613SOL    HW217739   6.977   5.548   4.245
 5614SOL     OW17740   6.399   1.877   4.064
 5614SOL    HW117741   6.462   1.939   4.019
 5614SOL    HW217742   6.447   1.828   4.137
 5615SOL     OW17743   0.515   2.211   2.368
 5615SOL    HW117744   0.582   2.260   2.311
 5615SOL    HW217745   0.439   2.181   2.310
 5616SOL     OW17746   2.344   1.904   4.665
 5616SOL    HW117747   2.339   1.975   4.595
 5616SOL    HW217748   2.281   1.926   4.739
 5617SOL     OW17749   1.812   5.107   4.703
 5617SOL    HW117750   1.729   5.162   4.702
 5617SOL    HW217751   1.891   5.165   4.684
 5618SOL     OW17752   6.555   5.171   3.743
 5618SOL    HW117753   6.537   5.096   3.679
 5618SOL    HW217754   6.647   5.162   3.780
 5619SOL     OW17755   3.369   3.368   3.897
 5619SOL    HW117756   3.334   3.462   3.898
 5619SOL    HW217757   3.294   3.304   3.916
 5620SOL     OW17758   4.294   4.008   5.961
 5620SOL    HW117759   4.357   3.937   5.993
 5620SOL    HW217760   4.261   4.061   6.039
 5621SOL     OW17761   1.984   3.030   6.306
 5621SOL    HW117762   2.056   2.975   6.348
 5621SOL    HW217763   1.976   3.117   6.355
 5622SOL     OW17764   4.236   5.684   5.213
 5622SOL    HW117765   4.179   5.753   5.256
 5622SOL    HW217766   4.284   5.723   5.135
 5623SOL     OW17767   5.099   6.777   4.474
 5623SOL    HW117768   5.144   6.797   4.388
 5623SOL    HW217769   5.027   6.844   4.491
 5624SOL     OW17770   0.646   5.271   3.348
 5624SOL    HW117771   0.570   5.331   3.375
 5624SOL    HW217772   0.732   5.321   3.356
 5625SOL     OW17773   0.825   5.643   4.697
 5625SOL    HW117774   0.849   5.713   4.629
 5625SOL    HW217775   0.759   5.580   4.656
 5626SOL     OW17776   1.893   4.497   4.299
 5626SOL    HW117777   1.830   4.568   4.267
 5626SOL    HW217778   1.987   4.532   4.296
 5627SOL     OW17779   0.784   5.849   6.194
 5627SOL    HW117780   0.779   5.948   6.200
 5627SOL    HW217781   0.697   5.812   6.161
 5628SOL     OW17782   2.865   3.096   0.693
 5628SOL    HW117783   2.931   3.078   0.765
 5628SOL    HW217784   2.805   3.017   0.681
 5629SOL     OW17785   3.982   3.349   1.306
 5629SOL    HW117786   3.960   3.298   1.389
 5629SOL    HW217787   3.929   3.434   1.304
 5630SOL     OW17788   1.716   3.718   6.371
 5630SOL    HW117789   1.678   3.629   6.346
 5630SOL    HW217790   1.762   3.758   6.292
 5631SOL     OW17791   4.762   0.875   2.090
 5631SOL    HW117792   4.838   0.938   2.103
 5631SOL    HW217793   4.753   0.817   2.170
 5632SOL     OW17794   4.943   0.861   6.128
 5632SOL    HW117795   5.000   0.939   6.152
 5632SOL    HW217796   4.921   0.863   6.031
 5633SOL     OW17797   0.594   4.760   4.396
 5633SOL    HW117798   0.633   4.747   4.487
 5633SOL    HW217799   0.583   4.671   4.352
 5634SOL     OW17800   2.416   5.538   5.283
 5634SOL    HW117801   2.356   5.495   5.216
 5634SOL    HW217802   2.438   5.631   5.253
 5635SOL     OW17803   3.014   0.060   6.853
 5635SOL    HW117804   2.972   0.093   6.938
 5635SOL    HW217805   3.108   0.092   6.847
 5636SOL     OW17806   5.909   1.377   5.769
 5636SOL    HW117807   5.986   1.395   5.708
 5636SOL    HW217808   5.825   1.414   5.729
 5637SOL     OW17809   5.733   6.669   4.077
 5637SOL    HW117810   5.666   6.739   4.053
 5637SOL    HW217811   5.818   6.685   4.026
 5638SOL     OW17812   5.441   5.892   1.643
 5638SOL    HW117813   5.376   5.846   1.583
 5638SOL    HW217814   5.532   5.890   1.602
 5639SOL     OW17815   1.479   0.679   1.512
 5639SOL    HW117816   1.501   0.719   1.601
 5639SOL    HW217817   1.445   0.586   1.525
 5640SOL     OW17818   2.400   0.003   2.723
 5640SOL    HW117819   2.304   0.031   2.728
 5640SOL    HW217820   2.458   0.082   2.739
 5641SOL     OW17821   0.683   4.343   5.710
 5641SOL    HW117822   0.607   4.307   5.765
 5641SOL    HW217823   0.718   4.426   5.753
 5642SOL     OW17824   0.270   4.965   5.924
 5642SOL    HW117825   0.259   4.964   5.824
 5642SOL    HW217826   0.350   4.911   5.948
 5643SOL     OW17827   3.373   0.852   4.843
 5643SOL    HW117828   3.341   0.905   4.764
 5643SOL    HW217829   3.382   0.912   4.922
 5644SOL     OW17830   5.126   1.547   4.098
 5644SOL    HW117831   5.066   1.543   4.018
 5644SOL    HW217832   5.175   1.634   4.099
 5645SOL     OW17833   6.021   4.270   2.500
 5645SOL    HW117834   6.092   4.331   2.534
 5645SOL    HW217835   5.948   4.262   2.567
 5646SOL     OW17836   1.278   5.382   3.791
 5646SOL    HW117837   1.360   5.352   3.840
 5646SOL    HW217838   1.248   5.470   3.827
 5647SOL     OW17839   6.561   6.196   6.402
 5647SOL    HW117840   6.626   6.232   6.469
 5647SOL    HW217841   6.538   6.101   6.424
 5648SOL     OW17842   1.684   1.002   2.980
 5648SOL    HW117843   1.698   1.071   2.909
 5648SOL    HW217844   1.712   1.040   3.069
 5649SOL     OW17845   1.401   0.001   5.313
 5649SOL    HW117846   1.309   0.040   5.310
 5649SOL    HW217847   1.395   6.930   5.337
 5650SOL     OW17848   0.408   4.975   1.269
 5650SOL    HW117849   0.417   4.989   1.170
 5650SOL    HW217850   0.497   4.956   1.309
 5651SOL     OW17851   0.466   1.645   1.576
 5651SOL    HW117852   0.523   1.705   1.633
 5651SOL    HW217853   0.373   1.644   1.613
 5652SOL     OW17854   4.928   6.112   2.181
 5652SOL    HW117855   4.889   6.034   2.132
 5652SOL    HW217856   5.022   6.127   2.150
 5653SOL     OW17857   0.247   6.264   6.508
 5653SOL    HW117858   0.306   6.344   6.518
 5653SOL    HW217859   0.153   6.293   6.488
 5654SOL     OW17860   0.510   0.101   6.172
 5654SOL    HW117861   0.470   0.116   6.262
 5654SOL    HW217862   0.468   0.165   6.107
 5655SOL     OW17863   0.955   2.832   4.312
 5655SOL    HW117864   1.011   2.913   4.292
 5655SOL    HW217865   0.861   2.861   4.329
 5656SOL     OW17866   3.087   5.131   0.744
 5656SOL    HW117867   3.154   5.068   0.785
 5656SOL    HW217868   3.043   5.184   0.817
 5657SOL     OW17869   4.687   6.802   1.194
 5657SOL    HW117870   4.601   6.840   1.229
 5657SOL    HW217871   4.728   6.743   1.264
 5658SOL     OW17872   3.004   6.557   6.018
 5658SOL    HW117873   2.980   6.491   6.090
 5658SOL    HW217874   3.069   6.624   6.056
 5659SOL     OW17875   2.922   3.546   2.910
 5659SOL    HW117876   3.016   3.571   2.887
 5659SOL    HW217877   2.862   3.567   2.832
 5660SOL     OW17878   5.541   0.621   6.732
 5660SOL    HW117879   5.627   0.668   6.754
 5660SOL    HW217880   5.467   0.688   6.729
 5661SOL     OW17881   6.853   5.284   6.048
 5661SOL    HW117882   6.888   5.218   5.981
 5661SOL    HW217883   6.780   5.242   6.102
 5662SOL     OW17884   2.588   5.012   4.282
 5662SOL    HW117885   2.574   4.928   4.335
 5662SOL    HW217886   2.502   5.062   4.277
 5663SOL     OW17887   1.182   4.245   6.877
 5663SOL    HW117888   1.169   4.179   6.950
 5663SOL    HW217889   1.280   4.258   6.862
 5664SOL     OW17890   0.042   3.912   3.828
 5664SOL    HW117891   0.098   3.829   3.835
 5664SOL    HW217892   7.024   3.914   3.738
 5665SOL     OW17893   1.567   1.217   6.586
 5665SOL    HW117894   1.655   1.209   6.539
 5665SOL    HW217895   1.512   1.135   6.569
 5666SOL     OW17896   5.029   5.839   0.729
 5666SOL    HW117897   4.990   5.773   0.794
 5666SOL    HW217898   5.120   5.866   0.760
 5667SOL     OW17899   0.505   4.832   3.721
 5667SOL    HW117900   0.553   4.899   3.777
 5667SOL    HW217901   0.541   4.835   3.627
 5668SOL     OW17902   5.408   2.107   6.499
 5668SOL    HW117903   5.317   2.148   6.508
 5668SOL    HW217904   5.477   2.177   6.516
 5669SOL     OW17905   0.393   3.555   6.426
 5669SOL    HW117906   0.407   3.595   6.516
 5669SOL    HW217907   0.381   3.456   6.435
 5670SOL     OW17908   0.249   2.898   3.488
 5670SOL    HW117909   0.260   2.799   3.479
 5670SOL    HW217910   0.330   2.944   3.451
 5671SOL     OW17911   0.805   0.024   6.379
 5671SOL    HW117912   0.843   0.068   6.297
 5671SOL    HW217913   0.759   0.093   6.435
 5672SOL     OW17914   4.052   5.125   6.338
 5672SOL    HW117915   4.134   5.080   6.374
 5672SOL    HW217916   3.979   5.120   6.406
 5673SOL     OW17917   1.152   6.924   1.873
 5673SOL    HW117918   1.235   6.877   1.906
 5673SOL    HW217919   1.075   6.902   1.933
 5674SOL     OW17920   6.754   3.589   2.354
 5674SOL    HW117921   6.846   3.609   2.390
 5674SOL    HW217922   6.689   3.654   2.393
 5675SOL     OW17923   4.353   2.497   5.739
 5675SOL    HW117924   4.328   2.562   5.811
 5675SOL    HW217925   4.444   2.460   5.759
 5676SOL     OW17926   2.122   1.628   1.775
 5676SOL    HW117927   2.029   1.660   1.755
 5676SOL    HW217928   2.173   1.701   1.821
 5677SOL     OW17929   0.752   2.304   3.215
 5677SOL    HW117930   0.824   2.319   3.147
 5677SOL    HW217931   0.706   2.217   3.196
 5678SOL     OW17932   3.079   6.796   3.290
 5678SOL    HW117933   3.158   6.746   3.327
 5678SOL    HW217934   3.092   6.812   3.193
 5679SOL     OW17935   1.387   6.983   4.028
 5679SOL    HW117936   1.471   7.012   3.982
 5679SOL    HW217937   1.392   7.006   4.125
 5680SOL     OW17938   1.523   5.197   1.091
 5680SOL    HW117939   1.495   5.215   1.186
 5680SOL    HW217940   1.445   5.213   1.030
 5681SOL     OW17941   1.426   3.637   6.854
 5681SOL    HW117942   1.388   3.617   6.764
 5681SOL    HW217943   1.516   3.680   6.844
 5682SOL     OW17944   2.100   4.734   6.116
 5682SOL    HW117945   2.045   4.696   6.190
 5682SOL    HW217946   2.098   4.672   6.038
 5683SOL     OW17947   4.349   1.808   6.267
 5683SOL    HW117948   4.441   1.841   6.248
 5683SOL    HW217949   4.351   1.744   6.343
 5684SOL     OW17950   4.127   3.352   4.902
 5684SOL    HW117951   4.121   3.438   4.851
 5684SOL    HW217952   4.211   3.352   4.956
 5685SOL     OW17953   0.598   4.573   1.486
 5685SOL    HW117954   0.595   4.487   1.435
 5685SOL    HW217955   0.517   4.582   1.544
 5686SOL     OW17956   2.798   0.811   0.282
 5686SOL    HW117957   2.860   0.745   0.324
 5686SOL    HW217958   2.791   0.792   0.184
 5687SOL     OW17959   6.533   3.825   4.924
 5687SOL    HW117960   6.567   3.826   5.019
 5687SOL    HW217961   6.452   3.883   4.917
 5688SOL     OW17962   6.617   1.169   0.084
 5688SOL    HW117963   6.696   1.230   0.077
 5688SOL    HW217964   6.581   1.173   0.177
 5689SOL     OW17965   3.962   0.994   6.869
 5689SOL    HW117966   3.920   0.938   6.941
 5689SOL    HW217967   4.026   0.938   6.817
 5690SOL     OW17968   2.653   6.259   1.363
 5690SOL    HW117969   2.666   6.160   1.371
 5690SOL    HW217970   2.691   6.289   1.275
 5691SOL     OW17971   3.047   6.309   2.373
 5691SOL    HW117972   3.027   6.366   2.293
 5691SOL    HW217973   2.988   6.335   2.449
 5692SOL     OW17974   0.025   2.543   5.827
 5692SOL    HW117975   0.094   2.600   5.781
 5692SOL    HW217976   0.054   2.448   5.824
 5693SOL     OW17977   5.327   2.780   2.013
 5693SOL    HW117978   5.404   2.842   1.995
 5693SOL    HW217979   5.247   2.811   1.961
 5694SOL     OW17980   0.617   1.170   3.666
 5694SOL    HW117981   0.523   1.144   3.687
 5694SOL    HW217982   0.641   1.136   3.575
 5695SOL     OW17983   1.126   2.516   2.984
 5695SOL    HW117984   1.080   2.605   2.991
 5695SOL    HW217985   1.198   2.521   2.915
 5696SOL     OW17986   1.561   0.336   2.923
 5696SOL    HW117987   1.576   0.270   2.849
 5696SOL    HW217988   1.487   0.398   2.897
 5697SOL     OW17989   6.255   1.722   0.734
 5697SOL    HW117990   6.272   1.667   0.816
 5697SOL    HW217991   6.246   1.662   0.655
 5698SOL     OW17992   0.244   2.596   2.085
 5698SOL    HW117993   0.239   2.689   2.048
 5698SOL    HW217994   0.277   2.534   2.014
 5699SOL     OW17995   6.447   2.430   3.321
 5699SOL    HW117996   6.515   2.472   3.381
 5699SOL    HW217997   6.402   2.354   3.369
 5700SOL     OW17998   6.684   6.262   4.745
 5700SOL    HW117999   6.594   6.221   4.754
 5700SOL    HW218000   6.754   6.191   4.751
 5701SOL     OW18001   1.004   5.998   3.410
 5701SOL    HW118002   1.087   6.030   3.364
 5701SOL    HW218003   0.925   6.016   3.351
 5702SOL     OW18004   1.914   0.080   5.999
 5702SOL    HW118005   1.929   0.175   5.972
 5702SOL    HW218006   1.884   0.027   5.919
 5703SOL     OW18007   5.141   4.490   0.391
 5703SOL    HW118008   5.148   4.447   0.481
 5703SOL    HW218009   5.128   4.589   0.402
 5704SOL     OW18010   3.936   5.338   2.267
 5704SOL    HW118011   3.861   5.400   2.244
 5704SOL    HW218012   4.007   5.389   2.317
 5705SOL     OW18013   6.172   1.033   0.382
 5705SOL    HW118014   6.233   0.979   0.324
 5705SOL    HW218015   6.081   1.035   0.339
 5706SOL     OW18016   1.113   1.771   0.811
 5706SOL    HW118017   1.089   1.823   0.729
 5706SOL    HW218018   1.083   1.676   0.800
 5707SOL     OW18019   0.525   6.646   0.186
 5707SOL    HW118020   0.529   6.615   0.282
 5707SOL    HW218021   0.516   6.566   0.126
 5708SOL     OW18022   5.537   6.571   1.261
 5708SOL    HW118023   5.620   6.625   1.269
 5708SOL    HW218024   5.546   6.507   1.185
 5709SOL     OW18025   1.119   6.617   3.721
 5709SOL    HW118026   1.028   6.653   3.740
 5709SOL    HW218027   1.159   6.583   3.806
 5710SOL     OW18028   2.330   3.226   5.613
 5710SOL    HW118029   2.402   3.295   5.628
 5710SOL    HW218030   2.240   3.270   5.620
 5711SOL     OW18031   5.450   0.757   3.035
 5711SOL    HW118032   5.542   0.753   3.074
 5711SOL    HW218033   5.405   0.669   3.048
 5712SOL     OW18034   0.744   6.154   5.885
 5712SOL    HW118035   0.791   6.132   5.799
 5712SOL    HW218036   0.669   6.217   5.866
 5713SOL     OW18037   1.335   1.991   1.076
 5713SOL    HW118038   1.236   1.986   1.061
 5713SOL    HW218039   1.382   1.948   0.999
 5714SOL     OW18040   1.406   6.283   0.201
 5714SOL    HW118041   1.437   6.188   0.202
 5714SOL    HW218042   1.485   6.344   0.207
 5715SOL     OW18043   1.253   6.044   3.278
 5715SOL    HW118044   1.300   6.050   3.190
 5715SOL    HW218045   1.304   6.096   3.346
 5716SOL     OW18046   1.134   3.666   5.650
 5716SOL    HW118047   1.069   3.742   5.642
 5716SOL    HW218048   1.117   3.618   5.736
 5717SOL     OW18049   1.858   5.589   0.503
 5717SOL    HW118050   1.920   5.611   0.427
 5717SOL    HW218051   1.860   5.664   0.570
 5718SOL     OW18052   1.106   4.120   6.115
 5718SOL    HW118053   1.041   4.152   6.184
 5718SOL    HW218054   1.188   4.177   6.118
 5719SOL     OW18055   2.606   1.280   6.077
 5719SOL    HW118056   2.627   1.259   5.982
 5719SOL    HW218057   2.553   1.206   6.118
 5720SOL     OW18058   0.984   4.652   4.573
 5720SOL    HW118059   1.003   4.648   4.475
 5720SOL    HW218060   1.053   4.707   4.619
 5721SOL     OW18061   0.449   3.924   0.852
 5721SOL    HW118062   0.489   4.016   0.859
 5721SOL    HW218063   0.506   3.868   0.793
 5722SOL     OW18064   5.709   1.694   5.020
 5722SOL    HW118065   5.728   1.792   5.032
 5722SOL    HW218066   5.658   1.681   4.935
 5723SOL     OW18067   4.130   4.058   0.247
 5723SOL    HW118068   4.221   4.094   0.269
 5723SOL    HW218069   4.094   4.009   0.326
 5724SOL     OW18070   4.023   2.413   5.342
 5724SOL    HW118071   4.085   2.396   5.419
 5724SOL    HW218072   4.065   2.478   5.279
 5725SOL     OW18073   5.028   6.110   3.313
 5725SOL    HW118074   4.996   6.016   3.324
 5725SOL    HW218075   5.119   6.110   3.272
 5726SOL     OW18076   6.603   3.343   3.347
 5726SOL    HW118077   6.597   3.314   3.443
 5726SOL    HW218078   6.649   3.271   3.294
 5727SOL     OW18079   0.152   3.319   3.516
 5727SOL    HW118080   0.189   3.279   3.599
 5727SOL    HW218081   0.175   3.261   3.438
 5728SOL     OW18082   4.521   1.429   6.183
 5728SOL    HW118083   4.528   1.340   6.230
 5728SOL    HW218084   4.603   1.483   6.202
 5729SOL     OW18085   0.845   1.183   0.661
 5729SOL    HW118086   0.915   1.162   0.593
 5729SOL    HW218087   0.853   1.278   0.690
 5730SOL     OW18088   4.313   5.538   5.774
 5730SOL    HW118089   4.303   5.637   5.785
 5730SOL    HW218090   4.406   5.517   5.746
 5731SOL     OW18091   2.116   6.568   3.944
 5731SOL    HW118092   2.149   6.474   3.935
 5731SOL    HW218093   2.168   6.616   4.015
 5732SOL     OW18094   6.526   4.467   5.002
 5732SOL    HW118095   6.501   4.537   5.069
 5732SOL    HW218096   6.475   4.382   5.021
 5733SOL     OW18097   3.179   0.440   5.584
 5733SOL    HW118098   3.268   0.420   5.625
 5733SOL    HW218099   3.117   0.475   5.654
 5734SOL     OW18100   1.697   6.907   6.840
 5734SOL    HW118101   1.781   6.871   6.800
 5734SOL    HW218102   1.625   6.838   6.833
 5735SOL     OW18103   3.623   1.403   2.953
 5735SOL    HW118104   3.607   1.341   2.876
 5735SOL    HW218105   3.674   1.483   2.920
 5736SOL     OW18106   5.559   4.710   0.404
 5736SOL    HW118107   5.656   4.733   0.399
 5736SOL    HW218108   5.531   4.704   0.500
 5737SOL     OW18109   5.520   6.262   0.564
 5737SOL    HW118110   5.427   6.246   0.532
 5737SOL    HW218111   5.566   6.326   0.502
 5738SOL     OW18112   3.725   1.664   6.997
 5738SOL    HW118113   3.724   1.571   6.961
 5738SOL    HW218114   3.796   1.717   6.950
 5739SOL     OW18115   1.457   6.876   5.622
 5739SOL    HW118116   1.370   6.826   5.618
 5739SOL    HW218117   1.530   6.821   5.582
 5740SOL     OW18118   4.544   3.612   1.193
 5740SOL    HW118119   4.502   3.526   1.225
 5740SOL    HW218120   4.594   3.655   1.268
 5741SOL     OW18121   6.970   3.712   4.206
 5741SOL    HW118122   6.968   3.719   4.306
 5741SOL    HW218123   0.036   3.689   4.176
 5742SOL     OW18124   4.620   6.205   3.191
 5742SOL    HW118125   4.540   6.188   3.249
 5742SOL    HW218126   4.593   6.261   3.113
 5743SOL     OW18127   3.198   5.554   5.392
 5743SOL    HW118128   3.187   5.640   5.442
 5743SOL    HW218129   3.208   5.574   5.294
 5744SOL     OW18130   5.541   0.894   2.253
 5744SOL    HW118131   5.442   0.892   2.263
 5744SOL    HW218132   5.565   0.923   2.160
 5745SOL     OW18133   2.646   0.943   4.092
 5745SOL    HW118134   2.728   0.891   4.115
 5745SOL    HW218135   2.608   0.908   4.006
 5746SOL     OW18136   5.007   6.661   1.559
 5746SOL    HW118137   5.042   6.583   1.610
 5746SOL    HW218138   5.039   6.746   1.601
 5747SOL     OW18139   0.892   5.287   1.774
 5747SOL    HW118140   0.966   5.220   1.763
 5747SOL    HW218141   0.930   5.380   1.769
 5748SOL     OW18142   1.789   0.092   0.728
 5748SOL    HW118143   1.804   0.165   0.795
 5748SOL    HW218144   1.851   0.105   0.651
 5749SOL     OW18145   1.634   6.809   4.857
 5749SOL    HW118146   1.697   6.887   4.852
 5749SOL    HW218147   1.597   6.790   4.767
 5750SOL     OW18148   6.158   6.115   5.561
 5750SOL    HW118149   6.231   6.047   5.552
 5750SOL    HW218150   6.082   6.075   5.613
 5751SOL     OW18151   2.362   2.749   4.910
 5751SOL    HW118152   2.275   2.711   4.940
 5751SOL    HW218153   2.377   2.837   4.955
 5752SOL     OW18154   5.593   0.228   0.540
 5752SOL    HW118155   5.662   0.294   0.570
 5752SOL    HW218156   5.589   0.228   0.440
 5753SOL     OW18157   3.398   4.074   4.683
 5753SOL    HW118158   3.379   3.977   4.667
 5753SOL    HW218159   3.370   4.098   4.777
 5754SOL     OW18160   1.036   5.508   1.673
 5754SOL    HW118161   1.080   5.539   1.758
 5754SOL    HW218162   1.021   5.586   1.613
 5755SOL     OW18163   1.444   2.184   6.387
 5755SOL    HW118164   1.476   2.094   6.356
 5755SOL    HW218165   1.360   2.208   6.337
 5756SOL     OW18166   0.666   0.423   2.832
 5756SOL    HW118167   0.582   0.471   2.857
 5756SOL    HW218168   0.684   0.437   2.735
 5757SOL     OW18169   0.663   5.439   4.362
 5757SOL    HW118170   0.660   5.513   4.294
 5757SOL    HW218171   0.644   5.352   4.316
 5758SOL     OW18172   2.377   1.390   2.631
 5758SOL    HW118173   2.418   1.307   2.593
 5758SOL    HW218174   2.323   1.436   2.560
 5759SOL     OW18175   4.672   0.696   0.343
 5759SOL    HW118176   4.613   0.621   0.313
 5759SOL    HW218177   4.622   0.783   0.337
 5760SOL     OW18178   6.368   1.946   1.003
 5760SOL    HW118179   6.280   1.976   0.965
 5760SOL    HW218180   6.419   2.026   1.035
 5761SOL     OW18181   6.090   4.949   5.824
 5761SOL    HW118182   6.066   4.894   5.905
 5761SOL    HW218183   6.169   5.007   5.845
 5762SOL     OW18184   4.869   4.523   0.996
 5762SOL    HW118185   4.929   4.444   1.001
 5762SOL    HW218186   4.879   4.566   0.906
 5763SOL     OW18187   6.049   6.249   0.865
 5763SOL    HW118188   6.117   6.308   0.822
 5763SOL    HW218189   5.963   6.299   0.876
 5764SOL     OW18190   4.509   4.581   4.222
 5764SOL    HW118191   4.451   4.603   4.300
 5764SOL    HW218192   4.584   4.647   4.217
 5765SOL     OW18193   6.169   3.467   0.131
 5765SOL    HW118194   6.135   3.526   0.204
 5765SOL    HW218195   6.130   3.375   0.141
 5766SOL     OW18196   1.760   1.969   5.330
 5766SOL    HW118197   1.695   1.943   5.258
 5766SOL    HW218198   1.853   1.955   5.298
 5767SOL     OW18199   2.512   0.194   0.797
 5767SOL    HW118200   2.588   0.211   0.733
 5767SOL    HW218201   2.520   0.102   0.834
 5768SOL     OW18202   0.432   6.884   3.638
 5768SOL    HW118203   0.387   6.968   3.670
 5768SOL    HW218204   0.363   6.818   3.610
 5769SOL     OW18205   2.613   5.420   4.299
 5769SOL    HW118206   2.641   5.369   4.380
 5769SOL    HW218207   2.513   5.431   4.300
 5770SOL     OW18208   6.775   6.433   6.123
 5770SOL    HW118209   6.681   6.446   6.094
 5770SOL    HW218210   6.781   6.444   6.223
 5771SOL     OW18211   1.079   0.042   4.156
 5771SOL    HW118212   1.094   0.052   4.057
 5771SOL    HW218213   1.130   0.113   4.205
 5772SOL     OW18214   5.157   0.977   0.932
 5772SOL    HW118215   5.136   0.897   0.876
 5772SOL    HW218216   5.198   1.048   0.875
 5773SOL     OW18217   4.400   1.228   3.410
 5773SOL    HW118218   4.479   1.189   3.363
 5773SOL    HW218219   4.418   1.234   3.508
 5774SOL     OW18220   3.317   0.117   4.152
 5774SOL    HW118221   3.360   0.115   4.243
 5774SOL    HW218222   3.229   0.164   4.158
 5775SOL     OW18223   0.939   0.234   2.182
 5775SOL    HW118224   0.905   0.324   2.207
 5775SOL    HW218225   1.023   0.244   2.128
 5776SOL     OW18226   0.572   6.999   3.905
 5776SOL    HW118227   0.540   6.974   3.813
 5776SOL    HW218228   0.512   6.957   3.973
 5777SOL     OW18229   0.056   0.436   4.838
 5777SOL    HW118230   0.011   0.400   4.756
 5777SOL    HW218231   7.014   0.473   4.901
 5778SOL     OW18232   1.429   0.296   0.266
 5778SOL    HW118233   1.471   0.208   0.243
 5778SOL    HW218234   1.452   0.320   0.360
 5779SOL     OW18235   4.896   2.188   0.903
 5779SOL    HW118236   4.992   2.214   0.915
 5779SOL    HW218237   4.849   2.258   0.848
 5780SOL     OW18238   6.450   6.038   3.770
 5780SOL    HW118239   6.451   6.065   3.866
 5780SOL    HW218240   6.446   5.938   3.763
 5781SOL     OW18241   0.281   5.133   4.273
 5781SOL    HW118242   0.352   5.176   4.329
 5781SOL    HW218243   0.231   5.204   4.222
 5782SOL     OW18244   1.836   1.709   0.819
 5782SOL    HW118245   1.881   1.794   0.791
 5782SOL    HW218246   1.901   1.633   0.814
 5783SOL     OW18247   1.075   0.979   1.425
 5783SOL    HW118248   1.154   0.998   1.367
 5783SOL    HW218249   1.105   0.940   1.512
 5784SOL     OW18250   0.110   6.402   5.568
 5784SOL    HW118251   0.170   6.383   5.490
 5784SOL    HW218252   0.029   6.452   5.536
 5785SOL     OW18253   2.323   2.166   0.225
 5785SOL    HW118254   2.357   2.255   0.254
 5785SOL    HW218255   2.276   2.121   0.301
 5786SOL     OW18256   0.422   4.463   0.547
 5786SOL    HW118257   0.371   4.387   0.508
 5786SOL    HW218258   0.470   4.512   0.474
 5787SOL     OW18259   2.211   1.474   4.519
 5787SOL    HW118260   2.215   1.440   4.613
 5787SOL    HW218261   2.267   1.416   4.460
 5788SOL     OW18262   2.873   1.400   1.624
 5788SOL    HW118263   2.788   1.422   1.670
 5788SOL    HW218264   2.914   1.484   1.588
 5789SOL     OW18265   3.481   4.917   0.501
 5789SOL    HW118266   3.386   4.902   0.471
 5789SOL    HW218267   3.482   4.969   0.586
 5790SOL     OW18268   1.303   4.188   5.143
 5790SOL    HW118269   1.337   4.102   5.105
 5790SOL    HW218270   1.381   4.245   5.171
 5791SOL     OW18271   4.098   1.206   2.349
 5791SOL    HW118272   4.095   1.276   2.421
 5791SOL    HW218273   4.032   1.230   2.278
 5792SOL     OW18274   6.021   3.236   2.129
 5792SOL    HW118275   6.018   3.139   2.155
 5792SOL    HW218276   5.944   3.284   2.171
 5793SOL     OW18277   5.394   1.133   3.910
 5793SOL    HW118278   5.342   1.087   3.982
 5793SOL    HW218279   5.488   1.099   3.910
 5794SOL     OW18280   2.787   1.351   0.263
 5794SOL    HW118281   2.767   1.408   0.183
 5794SOL    HW218282   2.702   1.331   0.311
 5795SOL     OW18283   6.464   6.935   0.127
 5795SOL    HW118284   6.400   6.968   0.196
 5795SOL    HW218285   6.540   7.000   0.119
 5796SOL     OW18286   4.125   1.683   6.939
 5796SOL    HW118287   4.080   1.725   6.861
 5796SOL    HW218288   4.222   1.708   6.939
 5797SOL     OW18289   4.771   2.531   6.251
 5797SOL    HW118290   4.681   2.490   6.265
 5797SOL    HW218291   4.762   2.613   6.194
 5798SOL     OW18292   0.583   4.810   5.501
 5798SOL    HW118293   0.680   4.826   5.481
 5798SOL    HW218294   0.561   4.714   5.481
 5799SOL     OW18295   0.001   0.581   2.762
 5799SOL    HW118296   7.022   0.593   2.663
 5799SOL    HW218297   6.976   0.499   2.789
 5800SOL     OW18298   6.199   6.402   1.866
 5800SOL    HW118299   6.238   6.381   1.776
 5800SOL    HW218300   6.228   6.332   1.932
 5801SOL     OW18301   2.105   1.960   3.198
 5801SOL    HW118302   2.165   1.920   3.268
 5801SOL    HW218303   2.137   2.052   3.176
 5802SOL     OW18304   0.871   4.549   2.142
 5802SOL    HW118305   0.786   4.585   2.180
 5802SOL    HW218306   0.944   4.558   2.209
 5803SOL     OW18307   2.257   4.480   2.254
 5803SOL    HW118308   2.192   4.551   2.281
 5803SOL    HW218309   2.234   4.395   2.300
 5804SOL     OW18310   0.802   5.193   3.823
 5804SOL    HW118311   0.730   5.222   3.760
 5804SOL    HW218312   0.800   5.094   3.833
 5805SOL     OW18313   3.128   3.521   6.718
 5805SOL    HW118314   3.113   3.599   6.657
 5805SOL    HW218315   3.168   3.553   6.803
 5806SOL     OW18316   0.245   5.813   4.752
 5806SOL    HW118317   0.318   5.745   4.763
 5806SOL    HW218318   0.216   5.815   4.657
 5807SOL     OW18319   0.772   3.916   2.371
 5807SOL    HW118320   0.673   3.904   2.376
 5807SOL    HW218321   0.816   3.863   2.443
 5808SOL     OW18322   5.801   5.336   4.922
 5808SOL    HW118323   5.825   5.385   5.006
 5808SOL    HW218324   5.826   5.391   4.842
 5809SOL     OW18325   5.654   1.338   4.577
 5809SOL    HW118326   5.738   1.309   4.531
 5809SOL    HW218327   5.589   1.262   4.578
 5810SOL     OW18328   3.289   1.706   4.613
 5810SOL    HW118329   3.325   1.714   4.706
 5810SOL    HW218330   3.335   1.772   4.554
 5811SOL     OW18331   2.915   0.779   5.601
 5811SOL    HW118332   2.960   0.711   5.543
 5811SOL    HW218333   2.983   0.826   5.657
 5812SOL     OW18334   6.609   2.728   4.173
 5812SOL    HW118335   6.688   2.703   4.229
 5812SOL    HW218336   6.613   2.826   4.150
 5813SOL     OW18337   1.959   1.951   0.779
 5813SOL    HW118338   2.021   1.998   0.842
 5813SOL    HW218339   2.001   1.945   0.689
 5814SOL     OW18340   6.206   4.825   1.307
 5814SOL    HW118341   6.257   4.907   1.331
 5814SOL    HW218342   6.110   4.848   1.290
 5815SOL     OW18343   4.104   2.256   4.408
 5815SOL    HW118344   4.076   2.342   4.366
 5815SOL    HW218345   4.160   2.204   4.343
 5816SOL     OW18346   4.293   5.483   0.398
 5816SOL    HW118347   4.235   5.432   0.335
 5816SOL    HW218348   4.328   5.564   0.352
 5817SOL     OW18349   5.534   3.725   6.262
 5817SOL    HW118350   5.554   3.727   6.360
 5817SOL    HW218351   5.550   3.815   6.223
 5818SOL     OW18352   6.436   6.173   4.757
 5818SOL    HW118353   6.349   6.215   4.781
 5818SOL    HW218354   6.420   6.079   4.725
 5819SOL     OW18355   3.991   6.938   6.937
 5819SOL    HW118356   3.937   6.902   7.013
 5819SOL    HW218357   3.952   7.025   6.906
 5820SOL     OW18358   4.140   5.659   3.876
 5820SOL    HW118359   4.210   5.670   3.805
 5820SOL    HW218360   4.080   5.582   3.852
 5821SOL     OW18361   7.005   6.810   1.313
 5821SOL    HW118362   6.950   6.786   1.393
 5821SOL    HW218363   6.947   6.851   1.243
 5822SOL     OW18364   1.126   2.490   1.947
 5822SOL    HW118365   1.114   2.552   1.869
 5822SOL    HW218366   1.071   2.522   2.024
 5823SOL     OW18367   1.378   1.476   5.628
 5823SOL    HW118368   1.280   1.489   5.618
 5823SOL    HW218369   1.425   1.517   5.550
 5824SOL     OW18370   6.514   5.180   2.823
 5824SOL    HW118371   6.563   5.264   2.801
 5824SOL    HW218372   6.527   5.113   2.750
 5825SOL     OW18373   1.943   1.616   5.685
 5825SOL    HW118374   1.881   1.625   5.607
 5825SOL    HW218375   2.016   1.683   5.677
 5826SOL     OW18376   0.295   4.987   5.156
 5826SOL    HW118377   0.202   4.956   5.137
 5826SOL    HW218378   0.304   5.008   5.253
 5827SOL     OW18379   1.824   4.513   4.896
 5827SOL    HW118380   1.797   4.523   4.801
 5827SOL    HW218381   1.877   4.429   4.907
 5828SOL     OW18382   6.351   2.203   1.290
 5828SOL    HW118383   6.432   2.169   1.337
 5828SOL    HW218384   6.360   2.302   1.277
 5829SOL     OW18385   1.639   0.559   3.172
 5829SOL    HW118386   1.611   0.623   3.100
 5829SOL    HW218387   1.737   0.570   3.190
 5830SOL     OW18388   5.122   6.557   5.136
 5830SOL    HW118389   5.091   6.633   5.080
 5830SOL    HW218390   5.197   6.587   5.195
 5831SOL     OW18391   0.165   1.038   5.405
 5831SOL    HW118392   0.204   1.110   5.463
 5831SOL    HW218393   0.223   1.026   5.324
 5832SOL     OW18394   3.064   4.924   6.335
 5832SOL    HW118395   3.134   4.952   6.400
 5832SOL    HW218396   3.047   4.999   6.270
 5833SOL     OW18397   3.899   3.561   4.748
 5833SOL    HW118398   3.853   3.644   4.717
 5833SOL    HW218399   3.836   3.483   4.738
 5834SOL     OW18400   0.305   3.297   0.040
 5834SOL    HW118401   0.207   3.312   0.033
 5834SOL    HW218402   0.339   3.334   0.127
 5835SOL     OW18403   5.152   3.399   3.822
 5835SOL    HW118404   5.063   3.396   3.868
 5835SOL    HW218405   5.214   3.332   3.865
 5836SOL     OW18406   2.801   0.106   2.755
 5836SOL    HW118407   2.733   0.044   2.796
 5836SOL    HW218408   2.889   0.093   2.802
 5837SOL     OW18409   4.098   4.449   5.860
 5837SOL    HW118410   4.048   4.401   5.787
 5837SOL    HW218411   4.164   4.513   5.819
 5838SOL     OW18412   3.235   2.509   6.644
 5838SOL    HW118413   3.220   2.524   6.546
 5838SOL    HW218414   3.191   2.581   6.696
 5839SOL     OW18415   0.580   2.121   1.948
 5839SOL    HW118416   0.622   2.066   2.020
 5839SOL    HW218417   0.652   2.170   1.898
 5840SOL     OW18418   0.717   5.330   6.173
 5840SOL    HW118419   0.620   5.351   6.174
 5840SOL    HW218420   0.768   5.406   6.214
 5841SOL     OW18421   5.044   1.797   2.491
 5841SOL    HW118422   5.097   1.747   2.422
 5841SOL    HW218423   5.030   1.891   2.461
 5842SOL     OW18424   4.640   3.195   1.385
 5842SOL    HW118425   4.617   3.098   1.397
 5842SOL    HW218426   4.667   3.234   1.473
 5843SOL     OW18427   2.047   3.980   3.012
 5843SOL    HW118428   1.994   4.025   2.941
 5843SOL    HW218429   1.998   3.898   3.043
 5844SOL     OW18430   1.799   6.566   6.350
 5844SOL    HW118431   1.808   6.521   6.439
 5844SOL    HW218432   1.739   6.646   6.358
 5845SOL     OW18433   0.265   0.502   2.365
 5845SOL    HW118434   0.269   0.451   2.279
 5845SOL    HW218435   0.316   0.588   2.355
 5846SOL     OW18436   0.405   2.429   4.059
 5846SOL    HW118437   0.488   2.482   4.075
 5846SOL    HW218438   0.415   2.377   3.974
 5847SOL     OW18439   2.176   2.311   1.886
 5847SOL    HW118440   2.177   2.310   1.986
 5847SOL    HW218441   2.085   2.288   1.853
 5848SOL     OW18442   2.506   5.551   3.341
 5848SOL    HW118443   2.491   5.455   3.364
 5848SOL    HW218444   2.563   5.594   3.412
 5849SOL     OW18445   0.062   0.213   6.422
 5849SOL    HW118446   6.996   0.213   6.460
 5849SOL    HW218447   0.077   0.298   6.372
 5850SOL     OW18448   6.960   2.606   1.515
 5850SOL    HW118449   7.007   2.567   1.435
 5850SOL    HW218450   6.862   2.612   1.496
 5851SOL     OW18451   5.213   3.870   3.133
 5851SOL    HW118452   5.128   3.822   3.152
 5851SOL    HW218453   5.285   3.834   3.193
 5852SOL     OW18454   6.748   5.733   3.104
 5852SOL    HW118455   6.807   5.784   3.167
 5852SOL    HW218456   6.756   5.773   3.012
 5853SOL     OW18457   3.929   6.163   4.143
 5853SOL    HW118458   3.958   6.150   4.238
 5853SOL    HW218459   3.846   6.109   4.126
 5854SOL     OW18460   5.769   4.962   6.067
 5854SOL    HW118461   5.831   4.889   6.096
 5854SOL    HW218462   5.740   4.945   5.973
 5855SOL     OW18463   7.021   1.459   4.386
 5855SOL    HW118464   7.002   1.529   4.454
 5855SOL    HW218465   6.977   1.373   4.412
 5856SOL     OW18466   1.625   5.870   4.112
 5856SOL    HW118467   1.603   5.967   4.116
 5856SOL    HW218468   1.722   5.857   4.133
 5857SOL     OW18469   6.554   1.995   5.646
 5857SOL    HW118470   6.461   2.025   5.670
 5857SOL    HW218471   6.583   2.041   5.562
 5858SOL     OW18472   2.453   2.589   2.563
 5858SOL    HW118473   2.441   2.675   2.513
 5858SOL    HW218474   2.399   2.517   2.519
 5859SOL     OW18475   5.297   6.125   1.811
 5859SOL    HW118476   5.363   6.124   1.736
 5859SOL    HW218477   5.208   6.095   1.778
 5860SOL     OW18478   0.843   4.367   1.663
 5860SOL    HW118479   0.908   4.311   1.715
 5860SOL    HW218480   0.842   4.459   1.701
 5861SOL     OW18481   4.486   1.467   4.620
 5861SOL    HW118482   4.482   1.367   4.624
 5861SOL    HW218483   4.530   1.502   4.702
 5862SOL     OW18484   5.155   5.059   1.865
 5862SOL    HW118485   5.121   5.149   1.889
 5862SOL    HW218486   5.217   5.066   1.786
 5863SOL     OW18487   3.375   1.069   5.043
 5863SOL    HW118488   3.308   1.116   4.984
 5863SOL    HW218489   3.327   1.029   5.122
 5864SOL     OW18490   3.993   3.934   1.580
 5864SOL    HW118491   3.907   3.928   1.529
 5864SOL    HW218492   3.981   3.993   1.659
 5865SOL     OW18493   5.882   0.851   5.191
 5865SOL    HW118494   5.952   0.783   5.170
 5865SOL    HW218495   5.883   0.871   5.289
 5866SOL     OW18496   4.008   4.686   0.787
 5866SOL    HW118497   4.041   4.640   0.705
 5866SOL    HW218498   3.910   4.705   0.777
 5867SOL     OW18499   0.979   3.809   0.831
 5867SOL    HW118500   0.903   3.860   0.791
 5867SOL    HW218501   1.065   3.849   0.802
 5868SOL     OW18502   0.565   1.214   5.236
 5868SOL    HW118503   0.569   1.283   5.308
 5868SOL    HW218504   0.638   1.147   5.250
 5869SOL     OW18505   2.405   6.419   4.357
 5869SOL    HW118506   2.376   6.508   4.393
 5869SOL    HW218507   2.391   6.349   4.426
 5870SOL     OW18508   5.301   6.196   4.784
 5870SOL    HW118509   5.304   6.240   4.695
 5870SOL    HW218510   5.245   6.249   4.847
 5871SOL     OW18511   4.016   2.938   1.308
 5871SOL    HW118512   4.009   3.028   1.264
 5871SOL    HW218513   4.112   2.917   1.326
 5872SOL     OW18514   3.912   5.697   1.453
 5872SOL    HW118515   3.854   5.772   1.422
 5872SOL    HW218516   4.008   5.719   1.432
 5873SOL     OW18517   3.288   2.156   1.280
 5873SOL    HW118518   3.219   2.087   1.259
 5873SOL    HW218519   3.256   2.214   1.355
 5874SOL     OW18520   3.620   4.606   0.117
 5874SOL    HW118521   3.550   4.596   0.046
 5874SOL    HW218522   3.577   4.640   0.201
 5875SOL     OW18523   4.221   1.089   6.832
 5875SOL    HW118524   4.242   1.184   6.854
 5875SOL    HW218525   4.125   1.070   6.856
 5876SOL     OW18526   3.233   3.367   0.569
 5876SOL    HW118527   3.144   3.410   0.584
 5876SOL    HW218528   3.302   3.415   0.624
 5877SOL     OW18529   0.395   0.174   0.655
 5877SOL    HW118530   0.494   0.185   0.661
 5877SOL    HW218531   0.352   0.264   0.644
 5878SOL     OW18532   5.477   5.585   4.097
 5878SOL    HW118533   5.379   5.569   4.091
 5878SOL    HW218534   5.500   5.623   4.186
 5879SOL     OW18535   1.880   3.664   6.580
 5879SOL    HW118536   1.952   3.600   6.553
 5879SOL    HW218537   1.810   3.668   6.510
 5880SOL     OW18538   4.941   4.444   6.781
 5880SOL    HW118539   4.981   4.505   6.850
 5880SOL    HW218540   5.003   4.438   6.703
 5881SOL     OW18541   1.166   0.093   1.674
 5881SOL    HW118542   1.209   0.071   1.586
 5881SOL    HW218543   1.143   0.009   1.722
 5882SOL     OW18544   1.106   6.659   5.995
 5882SOL    HW118545   1.027   6.598   6.003
 5882SOL    HW218546   1.074   6.753   5.983
 5883SOL     OW18547   0.889   1.473   7.011
 5883SOL    HW118548   0.959   1.532   0.024
 5883SOL    HW218549   0.853   1.411   0.055
 5884SOL     OW18550   4.878   1.508   5.007
 5884SOL    HW118551   4.966   1.553   4.994
 5884SOL    HW218552   4.867   1.435   4.939
 5885SOL     OW18553   0.070   5.550   2.380
 5885SOL    HW118554   6.999   5.528   2.371
 5885SOL    HW218555   0.107   5.508   2.462
 5886SOL     OW18556   1.127   1.909   4.081
 5886SOL    HW118557   1.164   1.922   4.173
 5886SOL    HW218558   1.084   1.819   4.074
 5887SOL     OW18559   2.465   2.036   1.796
 5887SOL    HW118560   2.407   2.095   1.851
 5887SOL    HW218561   2.503   2.089   1.720
 5888SOL     OW18562   2.342   0.050   1.369
 5888SOL    HW118563   2.364   7.010   1.298
 5888SOL    HW218564   2.323   0.139   1.326
 5889SOL     OW18565   6.104   1.594   6.215
 5889SOL    HW118566   6.067   1.513   6.259
 5889SOL    HW218567   6.155   1.648   6.282
 5890SOL     OW18568   2.248   0.288   2.939
 5890SOL    HW118569   2.312   0.246   3.003
 5890SOL    HW218570   2.197   0.360   2.985
 5891SOL     OW18571   2.482   4.147   0.822
 5891SOL    HW118572   2.517   4.199   0.900
 5891SOL    HW218573   2.400   4.192   0.785
 5892SOL     OW18574   0.398   5.159   1.896
 5892SOL    HW118575   0.426   5.098   1.971
 5892SOL    HW218576   0.476   5.211   1.865
 5893SOL     OW18577   2.135   4.889   2.018
 5893SOL    HW118578   2.225   4.847   2.025
 5893SOL    HW218579   2.111   4.934   2.104
 5894SOL     OW18580   0.834   5.898   5.213
 5894SOL    HW118581   0.895   5.863   5.142
 5894SOL    HW218582   0.747   5.849   5.208
 5895SOL     OW18583   6.142   3.957   3.405
 5895SOL    HW118584   6.127   3.860   3.388
 5895SOL    HW218585   6.093   3.984   3.488
 5896SOL     OW18586   4.836   1.695   0.951
 5896SOL    HW118587   4.840   1.726   1.046
 5896SOL    HW218588   4.829   1.595   0.948
 5897SOL     OW18589   4.170   0.700   0.929
 5897SOL    HW118590   4.190   0.630   0.860
 5897SOL    HW218591   4.131   0.656   1.010
 5898SOL     OW18592   2.623   0.641   5.060
 5898SOL    HW118593   2.690   0.582   5.105
 5898SOL    HW218594   2.664   0.731   5.043
 5899SOL     OW18595   5.823   6.285   6.780
 5899SOL    HW118596   5.799   6.196   6.741
 5899SOL    HW218597   5.740   6.340   6.792
 5900SOL     OW18598   0.028   4.606   3.069
 5900SOL    HW118599   0.062   4.697   3.043
 5900SOL    HW218600   0.028   4.598   3.169
 5901SOL     OW18601   2.866   0.974   1.107
 5901SOL    HW118602   2.938   0.906   1.100
 5901SOL    HW218603   2.828   0.973   1.199
 5902SOL     OW18604   5.130   3.233   5.744
 5902SOL    HW118605   5.211   3.223   5.687
 5902SOL    HW218606   5.108   3.330   5.756
 5903SOL     OW18607   4.514   3.922   6.864
 5903SOL    HW118608   4.493   3.903   6.768
 5903SOL    HW218609   4.546   4.017   6.872
 5904SOL     OW18610   1.044   4.380   1.123
 5904SOL    HW118611   0.978   4.394   1.197
 5904SOL    HW218612   1.040   4.458   1.060
 5905SOL     OW18613   6.486   0.510   3.500
 5905SOL    HW118614   6.524   0.509   3.408
 5905SOL    HW218615   6.558   0.489   3.566
 5906SOL     OW18616   4.825   2.035   4.550
 5906SOL    HW118617   4.834   1.990   4.639
 5906SOL    HW218618   4.832   1.967   4.477
 5907SOL     OW18619   1.509   6.728   0.953
 5907SOL    HW118620   1.505   6.691   0.861
 5907SOL    HW218621   1.528   6.827   0.949
 5908SOL     OW18622   6.636   4.188   0.000
 5908SOL    HW118623   6.674   4.235   6.947
 5908SOL    HW218624   6.709   4.141   0.050
 5909SOL     OW18625   6.224   5.242   6.278
 5909SOL    HW118626   6.236   5.161   6.221
 5909SOL    HW218627   6.156   5.223   6.349
 5910SOL     OW18628   0.367   4.426   1.299
 5910SOL    HW118629   0.388   4.493   1.227
 5910SOL    HW218630   0.423   4.345   1.286
 5911SOL     OW18631   6.431   4.954   6.526
 5911SOL    HW118632   6.480   4.871   6.551
 5911SOL    HW218633   6.444   5.023   6.598
 5912SOL     OW18634   6.063   3.359   6.661
 5912SOL    HW118635   6.076   3.377   6.758
 5912SOL    HW218636   6.109   3.273   6.636
 5913SOL     OW18637   3.465   3.361   6.677
 5913SOL    HW118638   3.376   3.407   6.677
 5913SOL    HW218639   3.461   3.280   6.619
 5914SOL     OW18640   3.006   5.740   5.963
 5914SOL    HW118641   2.936   5.743   6.034
 5914SOL    HW218642   3.096   5.751   6.005
 5915SOL     OW18643   5.843   4.119   1.821
 5915SOL    HW118644   5.832   4.144   1.725
 5915SOL    HW218645   5.758   4.076   1.854
 5916SOL     OW18646   4.164   6.163   5.739
 5916SOL    HW118647   4.170   6.121   5.829
 5916SOL    HW218648   4.257   6.177   5.703
 5917SOL     OW18649   3.536   3.439   4.275
 5917SOL    HW118650   3.508   3.534   4.283
 5917SOL    HW218651   3.458   3.379   4.293
 5918SOL     OW18652   2.225   3.875   5.353
 5918SOL    HW118653   2.267   3.796   5.397
 5918SOL    HW218654   2.286   3.912   5.284
 5919SOL     OW18655   3.209   2.400   0.773
 5919SOL    HW118656   3.271   2.329   0.739
 5919SOL    HW218657   3.116   2.363   0.779
 5920SOL     OW18658   3.575   7.005   0.405
 5920SOL    HW118659   3.515   0.054   0.432
 5920SOL    HW218660   3.564   6.988   0.307
 5921SOL     OW18661   3.370   5.511   5.788
 5921SOL    HW118662   3.387   5.582   5.719
 5921SOL    HW218663   3.457   5.466   5.811
 5922SOL     OW18664   6.812   5.557   3.614
 5922SOL    HW118665   6.906   5.536   3.641
 5922SOL    HW218666   6.784   5.645   3.653
 5923SOL     OW18667   5.257   0.301   1.180
 5923SOL    HW118668   5.187   0.292   1.251
 5923SOL    HW218669   5.259   0.218   1.124
 5924SOL     OW18670   6.271   2.094   4.887
 5924SOL    HW118671   6.296   2.166   4.823
 5924SOL    HW218672   6.229   2.018   4.837
 5925SOL     OW18673   4.314   5.678   3.258
 5925SOL    HW118674   4.412   5.666   3.272
 5925SOL    HW218675   4.274   5.725   3.336
 5926SOL     OW18676   3.948   4.900   2.152
 5926SOL    HW118677   4.023   4.966   2.157
 5926SOL    HW218678   3.907   4.903   2.061
 5927SOL     OW18679   1.872   4.327   3.201
 5927SOL    HW118680   1.821   4.346   3.285
 5927SOL    HW218681   1.857   4.232   3.174
 5928SOL     OW18682   3.138   0.575   1.507
 5928SOL    HW118683   3.163   0.649   1.444
 5928SOL    HW218684   3.172   0.596   1.598
 5929SOL     OW18685   0.921   6.472   6.006
 5929SOL    HW118686   0.865   6.512   5.933
 5929SOL    HW218687   0.870   6.400   6.052
 5930SOL     OW18688   0.064   1.652   3.119
 5930SOL    HW118689   7.018   1.586   3.100
 5930SOL    HW218690   0.145   1.628   3.066
 5931SOL     OW18691   5.857   5.508   3.631
 5931SOL    HW118692   5.831   5.488   3.725
 5931SOL    HW218693   5.832   5.602   3.608
 5932SOL     OW18694   2.393   6.398   1.315
 5932SOL    HW118695   2.330   6.331   1.275
 5932SOL    HW218696   2.465   6.350   1.364
 5933SOL     OW18697   0.359   5.768   2.772
 5933SOL    HW118698   0.338   5.762   2.869
 5933SOL    HW218699   0.277   5.798   2.722
 5934SOL     OW18700   4.014   3.322   4.235
 5934SOL    HW118701   4.052   3.331   4.327
 5934SOL    HW218702   3.935   3.382   4.225
 5935SOL     OW18703   4.108   3.187   5.281
 5935SOL    HW118704   4.201   3.217   5.300
 5935SOL    HW218705   4.054   3.264   5.246
 5936SOL     OW18706   3.971   3.551   0.476
 5936SOL    HW118707   4.050   3.609   0.494
 5936SOL    HW218708   3.887   3.604   0.488
 5937SOL     OW18709   0.551   4.789   2.367
 5937SOL    HW118710   0.638   4.835   2.350
 5937SOL    HW218711   0.515   4.753   2.281
 5938SOL     OW18712   1.221   5.663   3.946
 5938SOL    HW118713   1.189   5.701   4.033
 5938SOL    HW218714   1.306   5.708   3.919
 5939SOL     OW18715   3.691   0.097   3.178
 5939SOL    HW118716   3.713   0.195   3.177
 5939SOL    HW218717   3.601   0.083   3.137
 5940SOL     OW18718   4.170   5.490   1.341
 5940SOL    HW118719   4.071   5.490   1.326
 5940SOL    HW218720   4.190   5.531   1.430
 5941SOL     OW18721   6.414   2.989   1.735
 5941SOL    HW118722   6.379   2.998   1.642
 5941SOL    HW218723   6.488   3.056   1.749
 5942SOL     OW18724   4.760   3.050   6.679
 5942SOL    HW118725   4.664   3.024   6.691
 5942SOL    HW218726   4.776   3.076   6.584
 5943SOL     OW18727   3.319   5.473   0.934
 5943SOL    HW118728   3.311   5.376   0.959
 5943SOL    HW218729   3.359   5.524   1.011
 5944SOL     OW18730   5.622   2.103   1.034
 5944SOL    HW118731   5.605   2.111   1.132
 5944SOL    HW218732   5.720   2.095   1.017
 5945SOL     OW18733   6.426   5.595   5.519
 5945SOL    HW118734   6.448   5.514   5.573
 5945SOL    HW218735   6.327   5.604   5.511
 5946SOL     OW18736   3.547   3.031   5.524
 5946SOL    HW118737   3.569   3.071   5.435
 5946SOL    HW218738   3.512   2.938   5.511
 5947SOL     OW18739   4.205   3.358   1.944
 5947SOL    HW118740   4.217   3.456   1.957
 5947SOL    HW218741   4.184   3.315   2.032
 5948SOL     OW18742   3.793   5.028   3.588
 5948SOL    HW118743   3.814   4.974   3.669
 5948SOL    HW218744   3.867   5.094   3.573
 5949SOL     OW18745   3.971   3.189   1.521
 5949SOL    HW118746   4.038   3.114   1.515
 5949SOL    HW218747   3.961   3.217   1.616
 5950SOL     OW18748   5.385   3.096   5.928
 5950SOL    HW118749   5.304   3.154   5.940
 5950SOL    HW218750   5.463   3.153   5.900
 5951SOL     OW18751   0.197   5.499   4.543
 5951SOL    HW118752   0.101   5.522   4.523
 5951SOL    HW218753   0.205   5.469   4.638
 5952SOL     OW18754   5.540   5.592   4.458
 5952SOL    HW118755   5.605   5.527   4.498
 5952SOL    HW218756   5.559   5.683   4.495
 5953SOL     OW18757   6.321   2.818   5.471
 5953SOL    HW118758   6.347   2.733   5.425
 5953SOL    HW218759   6.293   2.886   5.403
 5954SOL     OW18760   0.201   4.696   5.400
 5954SOL    HW118761   0.129   4.634   5.371
 5954SOL    HW218762   0.289   4.666   5.361
 5955SOL     OW18763   5.180   5.599   2.541
 5955SOL    HW118764   5.171   5.505   2.508
 5955SOL    HW218765   5.169   5.601   2.640
 5956SOL     OW18766   3.677   1.735   6.488
 5956SOL    HW118767   3.725   1.652   6.462
 5956SOL    HW218768   3.739   1.798   6.534
 5957SOL     OW18769   4.457   0.242   5.640
 5957SOL    HW118770   4.534   0.265   5.580
 5957SOL    HW218771   4.468   0.288   5.728
 5958SOL     OW18772   6.332   5.712   2.528
 5958SOL    HW118773   6.264   5.730   2.457
 5958SOL    HW218774   6.324   5.617   2.558
 5959SOL     OW18775   3.711   2.118   5.093
 5959SOL    HW118776   3.721   2.019   5.099
 5959SOL    HW218777   3.801   2.161   5.099
 5960SOL     OW18778   4.179   6.360   4.832
 5960SOL    HW118779   4.124   6.359   4.748
 5960SOL    HW218780   4.122   6.331   4.909
 5961SOL     OW18781   5.193   1.273   3.743
 5961SOL    HW118782   5.175   1.232   3.653
 5961SOL    HW218783   5.258   1.216   3.793
 5962SOL     OW18784   4.855   6.031   1.402
 5962SOL    HW118785   4.879   5.944   1.358
 5962SOL    HW218786   4.933   6.063   1.455
 5963SOL     OW18787   3.281   3.018   4.530
 5963SOL    HW118788   3.260   2.965   4.612
 5963SOL    HW218789   3.356   2.975   4.480
 5964SOL     OW18790   0.429   5.390   5.454
 5964SOL    HW118791   0.371   5.459   5.410
 5964SOL    HW218792   0.494   5.354   5.387
 5965SOL     OW18793   1.423   2.159   6.688
 5965SOL    HW118794   1.330   2.173   6.723
 5965SOL    HW218795   1.429   2.194   6.595
 5966SOL     OW18796   2.449   5.817   5.224
 5966SOL    HW118797   2.355   5.849   5.216
 5966SOL    HW218798   2.512   5.895   5.216
 5967SOL     OW18799   4.405   6.125   1.156
 5967SOL    HW118800   4.432   6.209   1.204
 5967SOL    HW218801   4.435   6.130   1.061
 5968SOL     OW18802   4.526   1.050   2.148
 5968SOL    HW118803   4.624   1.032   2.140
 5968SOL    HW218804   4.501   1.128   2.091
 5969SOL     OW18805   6.775   1.084   6.104
 5969SOL    HW118806   6.831   1.039   6.034
 5969SOL    HW218807   6.733   1.014   6.162
 5970SOL     OW18808   0.528   4.509   2.619
 5970SOL    HW118809   0.537   4.410   2.622
 5970SOL    HW218810   0.514   4.538   2.524
 5971SOL     OW18811   1.415   0.904   3.274
 5971SOL    HW118812   1.427   0.892   3.175
 5971SOL    HW218813   1.334   0.854   3.304
 5972SOL     OW18814   5.312   6.499   0.063
 5972SOL    HW118815   5.364   6.426   0.019
 5972SOL    HW218816   5.359   6.528   0.146
 5973SOL     OW18817   1.707   4.409   2.373
 5973SOL    HW118818   1.720   4.310   2.382
 5973SOL    HW218819   1.620   4.427   2.327
 5974SOL     OW18820   5.483   4.592   6.535
 5974SOL    HW118821   5.525   4.502   6.524
 5974SOL    HW218822   5.552   4.659   6.560
 5975SOL     OW18823   3.216   1.918   0.658
 5975SOL    HW118824   3.172   1.875   0.580
 5975SOL    HW218825   3.269   1.849   0.709
 5976SOL     OW18826   3.347   3.391   4.644
 5976SOL    HW118827   3.413   3.465   4.631
 5976SOL    HW218828   3.258   3.420   4.609
 5977SOL     OW18829   1.829   4.156   1.512
 5977SOL    HW118830   1.868   4.097   1.441
 5977SOL    HW218831   1.730   4.152   1.508
 5978SOL     OW18832   4.980   5.907   3.732
 5978SOL    HW118833   4.997   5.827   3.674
 5978SOL    HW218834   4.972   5.878   3.827
 5979SOL     OW18835   6.501   6.803   2.708
 5979SOL    HW118836   6.567   6.807   2.782
 5979SOL    HW218837   6.409   6.816   2.744
 5980SOL     OW18838   3.889   3.645   0.131
 5980SOL    HW118839   3.897   3.714   0.204
 5980SOL    HW218840   3.941   3.563   0.156
 5981SOL     OW18841   6.552   0.803   2.421
 5981SOL    HW118842   6.460   0.826   2.453
 5981SOL    HW218843   6.545   0.732   2.350
 5982SOL     OW18844   6.502   2.702   0.278
 5982SOL    HW118845   6.564   2.778   0.300
 5982SOL    HW218846   6.532   2.658   0.194
 5983SOL     OW18847   1.552   0.589   4.640
 5983SOL    HW118848   1.515   0.675   4.674
 5983SOL    HW218849   1.591   0.537   4.716
 5984SOL     OW18850   6.437   6.607   5.200
 5984SOL    HW118851   6.493   6.600   5.117
 5984SOL    HW218852   6.426   6.704   5.224
 5985SOL     OW18853   6.356   3.281   3.964
 5985SOL    HW118854   6.451   3.306   3.981
 5985SOL    HW218855   6.343   3.259   3.867
 5986SOL     OW18856   3.401   3.779   3.982
 5986SOL    HW118857   3.486   3.774   4.035
 5986SOL    HW218858   3.394   3.868   3.938
 5987SOL     OW18859   4.240   0.605   5.077
 5987SOL    HW118860   4.304   0.676   5.109
 5987SOL    HW218861   4.210   0.550   5.154
 5988SOL     OW18862   4.653   6.993   5.007
 5988SOL    HW118863   4.555   6.969   5.008
 5988SOL    HW218864   4.671   0.033   5.080
 5989SOL     OW18865   2.997   5.648   6.998
 5989SOL    HW118866   2.989   5.701   0.056
 5989SOL    HW218867   3.001   5.551   7.019
 5990SOL     OW18868   4.408   4.736   0.421
 5990SOL    HW118869   4.405   4.832   0.448
 5990SOL    HW218870   4.337   4.685   0.469
 5991SOL     OW18871   4.068   5.448   5.662
 5991SOL    HW118872   4.108   5.410   5.578
 5991SOL    HW218873   4.139   5.495   5.714
 5992SOL     OW18874   3.533   0.542   3.705
 5992SOL    HW118875   3.592   0.472   3.666
 5992SOL    HW218876   3.534   0.535   3.805
 5993SOL     OW18877   3.135   6.121   5.456
 5993SOL    HW118878   3.118   6.197   5.517
 5993SOL    HW218879   3.189   6.153   5.377
 5994SOL     OW18880   6.306   2.025   1.623
 5994SOL    HW118881   6.396   1.987   1.600
 5994SOL    HW218882   6.251   1.954   1.668
 5995SOL     OW18883   6.223   4.978   2.771
 5995SOL    HW118884   6.272   4.925   2.840
 5995SOL    HW218885   6.126   4.981   2.793
 5996SOL     OW18886   0.764   5.965   0.872
 5996SOL    HW118887   0.787   6.054   0.831
 5996SOL    HW218888   0.678   5.932   0.835
 5997SOL     OW18889   1.225   6.203   2.679
 5997SOL    HW118890   1.128   6.184   2.694
 5997SOL    HW218891   1.236   6.299   2.652
 5998SOL     OW18892   6.293   1.761   1.358
 5998SOL    HW118893   6.236   1.836   1.391
 5998SOL    HW218894   6.302   1.766   1.259
 5999SOL     OW18895   1.592   1.877   2.758
 5999SOL    HW118896   1.553   1.887   2.666
 5999SOL    HW218897   1.524   1.904   2.826
 6000SOL     OW18898   3.802   6.962   1.944
 6000SOL    HW118899   3.847   0.023   1.959
 6000SOL    HW218900   3.704   6.971   1.961
 6001SOL     OW18901   0.611   4.107   6.574
 6001SOL    HW118902   0.694   4.158   6.552
 6001SOL    HW218903   0.623   4.011   6.549
 6002SOL     OW18904   6.781   0.196   1.099
 6002SOL    HW118905   6.806   0.100   1.086
 6002SOL    HW218906   6.841   0.255   1.044
 6003SOL     OW18907   0.062   2.031   4.164
 6003SOL    HW118908   0.030   1.941   4.133
 6003SOL    HW218909   7.013   2.080   4.206
 6004SOL     OW18910   6.942   4.266   3.228
 6004SOL    HW118911   6.909   4.324   3.154
 6004SOL    HW218912   7.017   4.209   3.195
 6005SOL     OW18913   4.947   5.176   4.508
 6005SOL    HW118914   4.993   5.263   4.495
 6005SOL    HW218915   5.015   5.102   4.514
 6006SOL     OW18916   3.296   6.959   6.856
 6006SOL    HW118917   3.290   0.032   6.858
 6006SOL    HW218918   3.309   6.924   6.949
 6007SOL     OW18919   4.948   3.643   4.698
 6007SOL    HW118920   4.914   3.691   4.779
 6007SOL    HW218921   4.958   3.546   4.718
 6008SOL     OW18922   2.025   5.706   5.910
 6008SOL    HW118923   1.959   5.743   5.845
 6008SOL    HW218924   2.073   5.628   5.869
 6009SOL     OW18925   4.322   0.846   4.829
 6009SOL    HW118926   4.307   0.930   4.777
 6009SOL    HW218927   4.234   0.801   4.845
 6010SOL     OW18928   1.270   4.060   3.075
 6010SOL    HW118929   1.366   4.084   3.060
 6010SOL    HW218930   1.239   3.999   3.002
 6011SOL     OW18931   4.583   2.622   3.007
 6011SOL    HW118932   4.500   2.619   2.951
 6011SOL    HW218933   4.561   2.596   3.101
 6012SOL     OW18934   6.483   1.428   0.030
 6012SOL    HW118935   6.392   1.390   0.050
 6012SOL    HW218936   6.551   1.355   0.030
 6013SOL     OW18937   5.635   2.045   2.877
 6013SOL    HW118938   5.687   2.015   2.957
 6013SOL    HW218939   5.695   2.047   2.797
 6014SOL     OW18940   4.334   2.607   0.659
 6014SOL    HW118941   4.309   2.589   0.563
 6014SOL    HW218942   4.253   2.594   0.717
 6015SOL     OW18943   5.530   2.226   5.286
 6015SOL    HW118944   5.561   2.223   5.382
 6015SOL    HW218945   5.565   2.146   5.238
 6016SOL     OW18946   0.266   1.654   6.258
 6016SOL    HW118947   0.202   1.621   6.188
 6016SOL    HW218948   0.218   1.660   6.346
 6017SOL     OW18949   6.518   4.778   2.585
 6017SOL    HW118950   6.523   4.768   2.685
 6017SOL    HW218951   6.610   4.768   2.547
 6018SOL     OW18952   3.509   1.481   0.106
 6018SOL    HW118953   3.567   1.414   0.152
 6018SOL    HW218954   3.556   1.570   0.103
 6019SOL     OW18955   6.310   1.386   4.319
 6019SOL    HW118956   6.372   1.327   4.372
 6019SOL    HW218957   6.269   1.333   4.244
 6020SOL     OW18958   2.201   5.374   1.703
 6020SOL    HW118959   2.178   5.420   1.617
 6020SOL    HW218960   2.132   5.305   1.725
 6021SOL     OW18961   3.623   0.679   2.327
 6021SOL    HW118962   3.544   0.714   2.278
 6021SOL    HW218963   3.649   0.742   2.400
 6022SOL     OW18964   4.607   1.584   4.833
 6022SOL    HW118965   4.561   1.673   4.843
 6022SOL    HW218966   4.663   1.566   4.914
 6023SOL     OW18967   6.094   1.591   2.386
 6023SOL    HW118968   6.084   1.687   2.410
 6023SOL    HW218969   6.029   1.567   2.314
 6024SOL     OW18970   0.776   4.255   3.608
 6024SOL    HW118971   0.832   4.219   3.534
 6024SOL    HW218972   0.802   4.210   3.694
 6025SOL     OW18973   3.457   1.615   2.148
 6025SOL    HW118974   3.480   1.549   2.077
 6025SOL    HW218975   3.453   1.707   2.108
 6026SOL     OW18976   6.759   4.567   4.219
 6026SOL    HW118977   6.738   4.555   4.122
 6026SOL    HW218978   6.695   4.634   4.258
 6027SOL     OW18979   1.331   4.000   5.796
 6027SOL    HW118980   1.234   3.997   5.818
 6027SOL    HW218981   1.385   3.980   5.877
 6028SOL     OW18982   1.173   3.975   0.365
 6028SOL    HW118983   1.169   3.888   0.414
 6028SOL    HW218984   1.147   3.961   0.270
 6029SOL     OW18985   1.743   6.401   5.026
 6029SOL    HW118986   1.735   6.435   4.932
 6029SOL    HW218987   1.669   6.337   5.045
 6030SOL     OW18988   3.719   6.572   2.891
 6030SOL    HW118989   3.734   6.586   2.793
 6030SOL    HW218990   3.793   6.614   2.943
 6031SOL     OW18991   3.694   5.199   3.890
 6031SOL    HW118992   3.769   5.158   3.838
 6031SOL    HW218993   3.621   5.132   3.901
 6032SOL     OW18994   2.181   3.145   3.328
 6032SOL    HW118995   2.087   3.177   3.325
 6032SOL    HW218996   2.196   3.094   3.413
 6033SOL     OW18997   3.376   1.774   2.384
 6033SOL    HW118998   3.462   1.790   2.431
 6033SOL    HW218999   3.393   1.756   2.287
 6034SOL     OW19000   1.519   5.638   4.747
 6034SOL    HW119001   1.612   5.602   4.747
 6034SOL    HW219002   1.521   5.733   4.780
 6035SOL     OW19003   0.415   0.466   3.238
 6035SOL    HW119004   0.500   0.467   3.291
 6035SOL    HW219005   0.395   0.373   3.208
 6036SOL     OW19006   6.681   6.499   4.155
 6036SOL    HW119007   6.605   6.463   4.209
 6036SOL    HW219008   6.724   6.424   4.104
 6037SOL     OW19009   4.259   4.539   5.563
 6037SOL    HW119010   4.352   4.553   5.597
 6037SOL    HW219011   4.247   4.443   5.538
 6038SOL     OW19012   1.527   2.903   6.341
 6038SOL    HW119013   1.512   2.819   6.288
 6038SOL    HW219014   1.570   2.972   6.283
 6039SOL     OW19015   3.657   2.903   2.482
 6039SOL    HW119016   3.565   2.919   2.448
 6039SOL    HW219017   3.652   2.864   2.574
 6040SOL     OW19018   0.481   2.269   6.468
 6040SOL    HW119019   0.424   2.349   6.487
 6040SOL    HW219020   0.447   2.223   6.386
 6041SOL     OW19021   1.891   0.592   4.877
 6041SOL    HW119022   1.975   0.623   4.830
 6041SOL    HW219023   1.875   0.649   4.957
 6042SOL     OW19024   5.164   5.805   1.958
 6042SOL    HW119025   5.193   5.849   2.042
 6042SOL    HW219026   5.138   5.710   1.977
 6043SOL     OW19027   0.837   4.241   5.519
 6043SOL    HW119028   0.928   4.278   5.541
 6043SOL    HW219029   0.771   4.273   5.587
 6044SOL     OW19030   1.390   2.745   1.368
 6044SOL    HW119031   1.387   2.751   1.269
 6044SOL    HW219032   1.388   2.649   1.397
 6045SOL     OW19033   6.073   5.738   1.395
 6045SOL    HW119034   6.146   5.688   1.347
 6045SOL    HW219035   6.092   5.836   1.392
 6046SOL     OW19036   3.055   1.764   0.106
 6046SOL    HW119037   3.076   1.826   0.030
 6046SOL    HW219038   3.140   1.738   0.152
 6047SOL     OW19039   6.327   1.952   1.959
 6047SOL    HW119040   6.243   1.917   2.000
 6047SOL    HW219041   6.305   2.017   1.887
 6048SOL     OW19042   4.528   6.560   3.750
 6048SOL    HW119043   4.486   6.535   3.663
 6048SOL    HW219044   4.578   6.646   3.740
 6049SOL     OW19045   5.678   3.729   5.522
 6049SOL    HW119046   5.636   3.764   5.606
 6049SOL    HW219047   5.687   3.803   5.456
 6050SOL     OW19048   3.266   4.758   5.280
 6050SOL    HW119049   3.229   4.795   5.195
 6050SOL    HW219050   3.196   4.704   5.327
 6051SOL     OW19051   1.976   1.320   4.236
 6051SOL    HW119052   1.946   1.283   4.324
 6051SOL    HW219053   2.068   1.359   4.246
 6052SOL     OW19054   6.612   6.303   0.188
 6052SOL    HW119055   6.579   6.267   0.101
 6052SOL    HW219056   6.622   6.403   0.180
 6053SOL     OW19057   3.483   0.727   6.330
 6053SOL    HW119058   3.411   0.719   6.398
 6053SOL    HW219059   3.559   0.667   6.353
 6054SOL     OW19060   2.774   4.267   0.551
 6054SOL    HW119061   2.863   4.293   0.586
 6054SOL    HW219062   2.768   4.289   0.453
 6055SOL     OW19063   5.514   1.372   5.619
 6055SOL    HW119064   5.543   1.277   5.607
 6055SOL    HW219065   5.593   1.428   5.644
 6056SOL     OW19066   5.251   3.498   4.867
 6056SOL    HW119067   5.206   3.526   4.951
 6056SOL    HW219068   5.317   3.425   4.887
 6057SOL     OW19069   5.441   2.775   4.326
 6057SOL    HW119070   5.403   2.837   4.395
 6057SOL    HW219071   5.366   2.731   4.276
 6058SOL     OW19072   5.073   2.783   2.202
 6058SOL    HW119073   5.029   2.709   2.151
 6058SOL    HW219074   5.043   2.871   2.165
 6059SOL     OW19075   4.670   5.695   5.240
 6059SOL    HW119076   4.657   5.788   5.206
 6059SOL    HW219077   4.642   5.629   5.170
 6060SOL     OW19078   3.192   4.144   6.222
 6060SOL    HW119079   3.211   4.189   6.135
 6060SOL    HW219080   3.210   4.208   6.297
 6061SOL     OW19081   4.174   1.633   0.813
 6061SOL    HW119082   4.188   1.639   0.714
 6061SOL    HW219083   4.259   1.604   0.857
 6062SOL     OW19084   1.465   1.258   4.813
 6062SOL    HW119085   1.522   1.176   4.818
 6062SOL    HW219086   1.397   1.246   4.741
 6063SOL     OW19087   3.469   1.241   6.652
 6063SOL    HW119088   3.475   1.310   6.724
 6063SOL    HW219089   3.373   1.215   6.639
 6064SOL     OW19090   2.702   6.166   2.085
 6064SOL    HW119091   2.632   6.233   2.112
 6064SOL    HW219092   2.711   6.167   1.985
 6065SOL     OW19093   5.837   6.816   2.020
 6065SOL    HW119094   5.861   6.743   1.956
 6065SOL    HW219095   5.739   6.837   2.011
 6066SOL     OW19096   3.992   1.452   6.991
 6066SOL    HW119097   3.965   1.449   0.060
 6066SOL    HW219098   4.020   1.545   6.967
 6067SOL     OW19099   5.672   1.983   6.573
 6067SOL    HW119100   5.731   1.978   6.493
 6067SOL    HW219101   5.580   2.010   6.546
 6068SOL     OW19102   5.334   2.835   4.725
 6068SOL    HW119103   5.431   2.810   4.723
 6068SOL    HW219104   5.309   2.861   4.818
 6069SOL     OW19105   6.926   3.443   5.250
 6069SOL    HW119106   6.875   3.363   5.281
 6069SOL    HW219107   6.961   3.494   5.329
 6070SOL     OW19108   2.259   1.381   6.288
 6070SOL    HW119109   2.290   1.401   6.195
 6070SOL    HW219110   2.179   1.436   6.309
 6071SOL     OW19111   5.249   5.126   4.304
 6071SOL    HW119112   5.298   5.182   4.371
 6071SOL    HW219113   5.165   5.091   4.346
 6072SOL     OW19114   7.022   0.599   2.500
 6072SOL    HW119115   0.046   0.538   2.439
 6072SOL    HW219116   6.973   0.667   2.446
 6073SOL     OW19117   6.561   4.362   0.371
 6073SOL    HW119118   6.651   4.339   0.334
 6073SOL    HW219119   6.571   4.400   0.463
 6074SOL     OW19120   1.001   6.630   4.353
 6074SOL    HW119121   1.027   6.628   4.450
 6074SOL    HW219122   0.920   6.574   4.339
 6075SOL     OW19123   6.855   2.460   6.664
 6075SOL    HW119124   6.835   2.550   6.701
 6075SOL    HW219125   6.779   2.398   6.682
 6076SOL     OW19126   2.763   6.013   4.910
 6076SOL    HW119127   2.738   5.990   5.004
 6076SOL    HW219128   2.862   6.029   4.905
 6077SOL     OW19129   4.193   5.870   2.139
 6077SOL    HW119130   4.194   5.871   2.239
 6077SOL    HW219131   4.116   5.924   2.106
 6078SOL     OW19132   3.789   4.755   1.708
 6078SOL    HW119133   3.706   4.727   1.755
 6078SOL    HW219134   3.767   4.784   1.614
 6079SOL     OW19135   3.146   3.371   5.991
 6079SOL    HW119136   3.059   3.323   6.001
 6079SOL    HW219137   3.134   3.448   5.929
 6080SOL     OW19138   6.858   1.358   1.792
 6080SOL    HW119139   6.904   1.315   1.714
 6080SOL    HW219140   6.874   1.457   1.789
 6081SOL     OW19141   6.220   3.239   5.003
 6081SOL    HW119142   6.272   3.324   5.007
 6081SOL    HW219143   6.125   3.258   4.978
 6082SOL     OW19144   3.037   1.542   3.047
 6082SOL    HW119145   3.048   1.620   3.109
 6082SOL    HW219146   3.022   1.575   2.954
 6083SOL     OW19147   0.606   5.707   6.015
 6083SOL    HW119148   0.569   5.647   6.087
 6083SOL    HW219149   0.547   5.702   5.935
 6084SOL     OW19150   0.568   5.526   3.942
 6084SOL    HW119151   0.531   5.489   4.026
 6084SOL    HW219152   0.494   5.570   3.889
 6085SOL     OW19153   0.365   4.351   0.013
 6085SOL    HW119154   0.441   4.349   0.078
 6085SOL    HW219155   0.351   4.260   7.001
 6086SOL     OW19156   3.118   1.098   4.936
 6086SOL    HW119157   3.076   1.140   5.016
 6086SOL    HW219158   3.062   1.021   4.905
 6087SOL     OW19159   4.550   5.678   0.050
 6087SOL    HW119160   4.615   5.605   0.033
 6087SOL    HW219161   4.464   5.659   0.003
 6088SOL     OW19162   6.131   6.559   4.540
 6088SOL    HW119163   6.071   6.582   4.616
 6088SOL    HW219164   6.095   6.597   4.456
 6089SOL     OW19165   0.172   3.506   1.392
 6089SOL    HW119166   0.188   3.419   1.346
 6089SOL    HW219167   0.199   3.581   1.332
 6090SOL     OW19168   1.874   6.207   6.297
 6090SOL    HW119169   1.923   6.275   6.241
 6090SOL    HW219170   1.904   6.215   6.392
 6091SOL     OW19171   2.030   2.012   2.289
 6091SOL    HW119172   2.072   2.031   2.200
 6091SOL    HW219173   1.935   2.044   2.289
 6092SOL     OW19174   2.764   0.453   3.673
 6092SOL    HW119175   2.806   0.517   3.608
 6092SOL    HW219176   2.734   0.371   3.624
 6093SOL     OW19177   1.034   2.930   2.779
 6093SOL    HW119178   1.131   2.906   2.781
 6093SOL    HW219179   0.984   2.866   2.722
 6094SOL     OW19180   3.863   0.488   0.785
 6094SOL    HW119181   3.794   0.559   0.803
 6094SOL    HW219182   3.935   0.526   0.726
 6095SOL     OW19183   4.410   3.207   6.621
 6095SOL    HW119184   4.446   3.295   6.590
 6095SOL    HW219185   4.378   3.154   6.542
 6096SOL     OW19186   5.871   0.351   3.609
 6096SOL    HW119187   5.890   0.260   3.573
 6096SOL    HW219188   5.906   0.420   3.545
 6097SOL     OW19189   1.709   6.960   1.860
 6097SOL    HW119190   1.620   6.995   1.831
 6097SOL    HW219191   1.714   6.862   1.841
 6098SOL     OW19192   1.205   2.292   6.292
 6098SOL    HW119193   1.239   2.365   6.351
 6098SOL    HW219194   1.163   2.333   6.211
 6099SOL     OW19195   0.191   6.058   0.176
 6099SOL    HW119196   0.260   5.988   0.159
 6099SOL    HW219197   0.157   6.049   0.270
 6100SOL     OW19198   4.974   3.426   6.918
 6100SOL    HW119199   4.919   3.343   6.923
 6100SOL    HW219200   4.993   3.449   6.823
 6101SOL     OW19201   6.388   2.081   5.146
 6101SOL    HW119202   6.309   2.141   5.161
 6101SOL    HW219203   6.370   2.022   5.068
 6102SOL     OW19204   3.816   0.710   4.084
 6102SOL    HW119205   3.779   0.803   4.092
 6102SOL    HW219206   3.750   0.652   4.037
 6103SOL     OW19207   0.597   2.019   3.009
 6103SOL    HW119208   0.671   2.012   2.943
 6103SOL    HW219209   0.561   2.113   3.010
 6104SOL     OW19210   6.404   2.319   5.666
 6104SOL    HW119211   6.348   2.236   5.663
 6104SOL    HW219212   6.347   2.397   5.690
 6105SOL     OW19213   2.309   0.204   5.688
 6105SOL    HW119214   2.225   0.258   5.683
 6105SOL    HW219215   2.344   0.207   5.782
 6106SOL     OW19216   1.326   4.031   5.416
 6106SOL    HW119217   1.302   3.954   5.476
 6106SOL    HW219218   1.393   4.000   5.348
 6107SOL     OW19219   2.529   4.665   4.371
 6107SOL    HW119220   2.578   4.683   4.456
 6107SOL    HW219221   2.444   4.616   4.391
 6108SOL     OW19222   0.705   2.590   2.508
 6108SOL    HW119223   0.748   2.663   2.561
 6108SOL    HW219224   0.615   2.570   2.547
 6109SOL     OW19225   4.966   2.872   6.383
 6109SOL    HW119226   5.033   2.909   6.318
 6109SOL    HW219227   4.957   2.935   6.460
 6110SOL     OW19228   4.035   2.842   0.016
 6110SOL    HW119229   4.055   2.747   7.018
 6110SOL    HW219230   4.029   2.851   0.115
 6111SOL     OW19231   1.648   4.470   2.631
 6111SOL    HW119232   1.669   4.458   2.534
 6111SOL    HW219233   1.610   4.385   2.668
 6112SOL     OW19234   3.782   0.873   3.708
 6112SOL    HW119235   3.860   0.936   3.703
 6112SOL    HW219236   3.794   0.801   3.640
 6113SOL     OW19237   0.939   1.221   5.630
 6113SOL    HW119238   0.869   1.292   5.640
 6113SOL    HW219239   0.906   1.136   5.670
 6114SOL     OW19240   5.191   4.710   0.993
 6114SOL    HW119241   5.165   4.801   1.027
 6114SOL    HW219242   5.138   4.640   1.041
 6115SOL     OW19243   5.508   6.270   3.208
 6115SOL    HW119244   5.583   6.237   3.151
 6115SOL    HW219245   5.546   6.316   3.289
 6116SOL     OW19246   2.817   1.255   0.528
 6116SOL    HW119247   2.768   1.342   0.519
 6116SOL    HW219248   2.848   1.225   0.438
 6117SOL     OW19249   6.035   0.603   5.970
 6117SOL    HW119250   6.105   0.546   5.927
 6117SOL    HW219251   5.956   0.611   5.910
 6118SOL     OW19252   0.204   0.286   1.537
 6118SOL    HW119253   0.139   0.353   1.573
 6118SOL    HW219254   0.206   0.206   1.596
 6119SOL     OW19255   0.691   3.926   4.546
 6119SOL    HW119256   0.748   3.893   4.471
 6119SOL    HW219257   0.649   4.013   4.521
 6120SOL     OW19258   4.439   6.901   3.589
 6120SOL    HW119259   4.471   6.911   3.683
 6120SOL    HW219260   4.465   6.983   3.537
 6121SOL     OW19261   0.280   2.887   4.467
 6121SOL    HW119262   0.308   2.794   4.490
 6121SOL    HW219263   0.354   2.951   4.487
 6122SOL     OW19264   3.854   7.010   1.640
 6122SOL    HW119265   3.862   7.016   1.739
 6122SOL    HW219266   3.762   6.982   1.615
 6123SOL     OW19267   6.656   0.534   6.478
 6123SOL    HW119268   6.587   0.603   6.459
 6123SOL    HW219269   6.689   0.545   6.572
 6124SOL     OW19270   2.674   0.793   6.054
 6124SOL    HW119271   2.615   0.755   6.125
 6124SOL    HW219272   2.621   0.854   5.996
 6125SOL     OW19273   3.628   5.546   0.547
 6125SOL    HW119274   3.545   5.541   0.603
 6125SOL    HW219275   3.673   5.634   0.562
 6126SOL     OW19276   6.424   6.905   3.668
 6126SOL    HW119277   6.507   6.961   3.668
 6126SOL    HW219278   6.433   6.832   3.737
 6127SOL     OW19279   2.624   0.684   3.024
 6127SOL    HW119280   2.552   0.735   3.071
 6127SOL    HW219281   2.628   0.713   2.928
 6128SOL     OW19282   6.694   3.930   0.761
 6128SOL    HW119283   6.678   4.029   0.752
 6128SOL    HW219284   6.617   3.881   0.720
 6129SOL     OW19285   6.239   4.508   2.993
 6129SOL    HW119286   6.303   4.531   3.067
 6129SOL    HW219287   6.232   4.409   2.985
 6130SOL     OW19288   5.846   1.848   3.985
 6130SOL    HW119289   5.900   1.879   3.906
 6130SOL    HW219290   5.842   1.748   3.985
 6131SOL     OW19291   6.420   1.231   5.211
 6131SOL    HW119292   6.327   1.269   5.204
 6131SOL    HW219293   6.471   1.281   5.281
 6132SOL     OW19294   5.406   1.376   0.509
 6132SOL    HW119295   5.381   1.463   0.466
 6132SOL    HW219296   5.385   1.380   0.607
 6133SOL     OW19297   1.326   2.460   2.789
 6133SOL    HW119298   1.332   2.364   2.815
 6133SOL    HW219299   1.419   2.498   2.782
 6134SOL     OW19300   3.802   4.635   0.377
 6134SOL    HW119301   3.712   4.653   0.418
 6134SOL    HW219302   3.790   4.575   0.298
 6135SOL     OW19303   0.525   6.810   1.641
 6135SOL    HW119304   0.600   6.766   1.592
 6135SOL    HW219305   0.476   6.872   1.579
 6136SOL     OW19306   0.558   2.844   2.209
 6136SOL    HW119307   0.613   2.837   2.125
 6136SOL    HW219308   0.537   2.752   2.242
 6137SOL     OW19309   5.414   1.919   4.612
 6137SOL    HW119310   5.352   1.842   4.596
 6137SOL    HW219311   5.505   1.897   4.577
 6138SOL     OW19312   4.057   6.171   2.343
 6138SOL    HW119313   4.129   6.155   2.276
 6138SOL    HW219314   4.051   6.269   2.362
 6139SOL     OW19315   1.591   2.646   4.827
 6139SOL    HW119316   1.671   2.629   4.770
 6139SOL    HW219317   1.529   2.710   4.780
 6140SOL     OW19318   0.041   6.333   1.879
 6140SOL    HW119319   0.067   6.237   1.876
 6140SOL    HW219320   7.016   6.352   1.963
 6141SOL     OW19321   5.680   5.762   5.452
 6141SOL    HW119322   5.652   5.858   5.447
 6141SOL    HW219323   5.602   5.703   5.429
 6142SOL     OW19324   6.617   5.320   0.764
 6142SOL    HW119325   6.714   5.300   0.769
 6142SOL    HW219326   6.591   5.379   0.840
 6143SOL     OW19327   6.436   4.859   0.282
 6143SOL    HW119328   6.470   4.831   0.372
 6143SOL    HW219329   6.361   4.923   0.293
 6144SOL     OW19330   5.950   4.824   2.405
 6144SOL    HW119331   5.934   4.761   2.481
 6144SOL    HW219332   5.937   4.918   2.436
 6145SOL     OW19333   4.890   6.024   4.387
 6145SOL    HW119334   4.892   5.951   4.455
 6145SOL    HW219335   4.903   6.112   4.432
 6146SOL     OW19336   4.143   1.249   3.564
 6146SOL    HW119337   4.132   1.338   3.608
 6146SOL    HW219338   4.234   1.244   3.522
 6147SOL     OW19339   1.428   3.750   4.149
 6147SOL    HW119340   1.472   3.757   4.060
 6147SOL    HW219341   1.355   3.818   4.156
 6148SOL     OW19342   6.986   0.103   4.616
 6148SOL    HW119343   0.056   0.115   4.640
 6148SOL    HW219344   6.935   0.185   4.639
 6149SOL     OW19345   3.287   4.861   2.826
 6149SOL    HW119346   3.274   4.828   2.733
 6149SOL    HW219347   3.383   4.854   2.851
 6150SOL     OW19348   3.710   4.908   6.841
 6150SOL    HW119349   3.625   4.936   6.885
 6150SOL    HW219350   3.752   4.987   6.796
 6151SOL     OW19351   6.068   3.961   4.429
 6151SOL    HW119352   6.158   3.935   4.395
 6151SOL    HW219353   6.005   3.971   4.353
 6152SOL     OW19354   5.823   5.014   5.569
 6152SOL    HW119355   5.830   4.922   5.607
 6152SOL    HW219356   5.910   5.063   5.584
 6153SOL     OW19357   4.915   3.666   2.045
 6153SOL    HW119358   4.821   3.635   2.058
 6153SOL    HW219359   4.943   3.722   2.123
 6154SOL     OW19360   6.152   1.570   2.860
 6154SOL    HW119361   6.245   1.542   2.838
 6154SOL    HW219362   6.138   1.665   2.832
 6155SOL     OW19363   1.900   2.106   4.820
 6155SOL    HW119364   1.868   2.181   4.879
 6155SOL    HW219365   1.840   2.099   4.741
 6156SOL     OW19366   4.594   4.446   2.488
 6156SOL    HW119367   4.673   4.431   2.549
 6156SOL    HW219368   4.513   4.465   2.543
 6157SOL     OW19369   1.171   1.548   4.498
 6157SOL    HW119370   1.250   1.610   4.501
 6157SOL    HW219371   1.190   1.473   4.435
 6158SOL     OW19372   4.596   0.647   5.598
 6158SOL    HW119373   4.589   0.589   5.679
 6158SOL    HW219374   4.545   0.605   5.522
 6159SOL     OW19375   4.583   2.141   1.130
 6159SOL    HW119376   4.639   2.162   1.210
 6159SOL    HW219377   4.625   2.068   1.077
 6160SOL     OW19378   4.769   6.740   0.032
 6160SOL    HW119379   4.690   6.785   7.017
 6160SOL    HW219380   4.847   6.745   6.997
 6161SOL     OW19381   5.887   1.852   5.452
 6161SOL    HW119382   5.970   1.799   5.434
 6161SOL    HW219383   5.816   1.826   5.387
 6162SOL     OW19384   0.878   5.809   3.853
 6162SOL    HW119385   0.939   5.774   3.782
 6162SOL    HW219386   0.887   5.752   3.935
 6163SOL     OW19387   5.433   6.283   1.606
 6163SOL    HW119388   5.484   6.349   1.662
 6163SOL    HW219389   5.348   6.325   1.574
 6164SOL     OW19390   2.537   3.102   1.596
 6164SOL    HW119391   2.523   3.133   1.502
 6164SOL    HW219392   2.567   3.179   1.652
 6165SOL     OW19393   4.300   6.952   6.226
 6165SOL    HW119394   4.281   0.023   6.222
 6165SOL    HW219395   4.221   6.904   6.264
 6166SOL     OW19396   4.009   1.026   5.967
 6166SOL    HW119397   4.034   1.104   5.910
 6166SOL    HW219398   4.072   1.018   6.043
 6167SOL     OW19399   0.462   4.816   2.609
 6167SOL    HW119400   0.482   4.813   2.511
 6167SOL    HW219401   0.547   4.806   2.661
 6168SOL     OW19402   0.535   3.381   0.703
 6168SOL    HW119403   0.442   3.348   0.685
 6168SOL    HW219404   0.595   3.303   0.722
 6169SOL     OW19405   1.043   3.497   1.948
 6169SOL    HW119406   1.055   3.567   1.877
 6169SOL    HW219407   0.949   3.499   1.982
 6170SOL     OW19408   0.738   3.402   5.462
 6170SOL    HW119409   0.670   3.455   5.512
 6170SOL    HW219410   0.810   3.463   5.428
 6171SOL     OW19411   0.846   1.884   0.347
 6171SOL    HW119412   0.881   1.978   0.350
 6171SOL    HW219413   0.880   1.834   0.427
 6172SOL     OW19414   1.076   3.343   2.794
 6172SOL    HW119415   1.159   3.320   2.743
 6172SOL    HW219416   1.022   3.259   2.810
 6173SOL     OW19417   6.735   5.032   3.271
 6173SOL    HW119418   6.664   5.103   3.273
 6173SOL    HW219419   6.815   5.066   3.221
 6174SOL     OW19420   5.046   5.608   4.144
 6174SOL    HW119421   5.082   5.568   4.060
 6174SOL    HW219422   5.121   5.638   4.203
 6175SOL     OW19423   3.977   0.423   4.107
 6175SOL    HW119424   3.973   0.477   4.023
 6175SOL    HW219425   3.931   0.473   4.180
 6176SOL     OW19426   5.117   3.784   5.631
 6176SOL    HW119427   5.212   3.757   5.645
 6176SOL    HW219428   5.059   3.740   5.700
 6177SOL     OW19429   5.684   2.079   2.011
 6177SOL    HW119430   5.758   2.083   1.944
 6177SOL    HW219431   5.711   2.126   2.094
 6178SOL     OW19432   5.123   4.137   2.359
 6178SOL    HW119433   5.206   4.192   2.362
 6178SOL    HW219434   5.116   4.082   2.442
 6179SOL     OW19435   6.225   4.740   2.211
 6179SOL    HW119436   6.144   4.798   2.204
 6179SOL    HW219437   6.259   4.741   2.305
 6180SOL     OW19438   2.679   4.857   1.312
 6180SOL    HW119439   2.638   4.937   1.356
 6180SOL    HW219440   2.751   4.886   1.249
 6181SOL     OW19441   4.804   6.580   6.544
 6181SOL    HW119442   4.863   6.586   6.625
 6181SOL    HW219443   4.859   6.592   6.461
 6182SOL     OW19444   4.543   3.905   6.053
 6182SOL    HW119445   4.609   3.957   5.998
 6182SOL    HW219446   4.561   3.920   6.150
 6183SOL     OW19447   1.734   2.027   2.229
 6183SOL    HW119448   1.685   2.095   2.284
 6183SOL    HW219449   1.725   1.937   2.271
 6184SOL     OW19450   3.196   6.721   6.142
 6184SOL    HW119451   3.195   6.803   6.200
 6184SOL    HW219452   3.243   6.647   6.190
 6185SOL     OW19453   1.416   4.638   6.327
 6185SOL    HW119454   1.496   4.638   6.267
 6185SOL    HW219455   1.359   4.558   6.306
 6186SOL     OW19456   6.059   1.050   1.109
 6186SOL    HW119457   6.111   1.125   1.149
 6186SOL    HW219458   5.984   1.024   1.170
 6187SOL     OW19459   5.026   3.151   4.432
 6187SOL    HW119460   5.055   3.236   4.387
 6187SOL    HW219461   5.054   3.073   4.376
 6188SOL     OW19462   1.651   1.788   6.130
 6188SOL    HW119463   1.738   1.742   6.108
 6188SOL    HW219464   1.588   1.722   6.170
 6189SOL     OW19465   3.730   4.904   3.126
 6189SOL    HW119466   3.829   4.902   3.112
 6189SOL    HW219467   3.710   4.904   3.224
 6190SOL     OW19468   0.171   3.458   5.417
 6190SOL    HW119469   0.245   3.521   5.394
 6190SOL    HW219470   0.099   3.508   5.465
 6191SOL     OW19471   2.884   3.104   6.220
 6191SOL    HW119472   2.839   3.193   6.222
 6191SOL    HW219473   2.852   3.049   6.297
 6192SOL     OW19474   2.663   1.900   6.613
 6192SOL    HW119475   2.736   1.940   6.557
 6192SOL    HW219476   2.661   1.947   6.702
 6193SOL     OW19477   4.408   5.887   1.300
 6193SOL    HW119478   4.312   5.871   1.323
 6193SOL    HW219479   4.414   5.962   1.234
 6194SOL     OW19480   6.238   0.519   6.263
 6194SOL    HW119481   6.328   0.558   6.282
 6194SOL    HW219482   6.222   0.516   6.165
 6195SOL     OW19483   5.496   6.289   4.354
 6195SOL    HW119484   5.458   6.275   4.262
 6195SOL    HW219485   5.578   6.346   4.347
 6196SOL     OW19486   4.812   3.947   2.636
 6196SOL    HW119487   4.737   4.013   2.628
 6196SOL    HW219488   4.849   3.928   2.546
 6197SOL     OW19489   2.645   5.320   2.159
 6197SOL    HW119490   2.670   5.342   2.253
 6197SOL    HW219491   2.725   5.280   2.113
 6198SOL     OW19492   4.316   6.393   0.938
 6198SOL    HW119493   4.340   6.302   0.905
 6198SOL    HW219494   4.221   6.413   0.915
 6199SOL     OW19495   0.660   1.304   0.473
 6199SOL    HW119496   0.639   1.400   0.493
 6199SOL    HW219497   0.702   1.261   0.553
 6200SOL     OW19498   1.068   2.111   4.566
 6200SOL    HW119499   1.070   2.042   4.639
 6200SOL    HW219500   0.988   2.169   4.578
 6201SOL     OW19501   0.997   3.269   4.557
 6201SOL    HW119502   1.044   3.331   4.619
 6201SOL    HW219503   1.014   3.175   4.585
 6202SOL     OW19504   5.625   1.434   1.840
 6202SOL    HW119505   5.656   1.398   1.752
 6202SOL    HW219506   5.530   1.408   1.855
 6203SOL     OW19507   5.404   5.505   1.736
 6203SOL    HW119508   5.412   5.591   1.786
 6203SOL    HW219509   5.457   5.434   1.783
 6204SOL     OW19510   1.056   6.193   4.893
 6204SOL    HW119511   1.040   6.212   4.990
 6204SOL    HW219512   1.149   6.221   4.869
 6205SOL     OW19513   6.191   4.321   1.183
 6205SOL    HW119514   6.111   4.336   1.125
 6205SOL    HW219515   6.235   4.409   1.202
 6206SOL     OW19516   5.326   1.447   2.607
 6206SOL    HW119517   5.425   1.436   2.613
 6206SOL    HW219518   5.300   1.536   2.642
 6207SOL     OW19519   1.605   6.607   5.309
 6207SOL    HW119520   1.605   6.520   5.358
 6207SOL    HW219521   1.692   6.618   5.261
 6208SOL     OW19522   3.399   2.273   5.603
 6208SOL    HW119523   3.498   2.257   5.602
 6208SOL    HW219524   3.368   2.293   5.511
 6209SOL     OW19525   3.638   5.401   0.285
 6209SOL    HW119526   3.596   5.314   0.310
 6209SOL    HW219527   3.633   5.464   0.363
 6210SOL     OW19528   5.337   3.951   2.898
 6210SOL    HW119529   5.336   3.870   2.839
 6210SOL    HW219530   5.292   3.930   2.984
 6211SOL     OW19531   3.221   6.558   5.434
 6211SOL    HW119532   3.240   6.649   5.471
 6211SOL    HW219533   3.259   6.550   5.342
 6212SOL     OW19534   2.243   4.576   4.074
 6212SOL    HW119535   2.275   4.667   4.045
 6212SOL    HW219536   2.144   4.570   4.063
 6213SOL     OW19537   4.572   6.871   6.900
 6213SOL    HW119538   4.612   6.817   6.826
 6213SOL    HW219539   4.499   6.930   6.863
 6214SOL     OW19540   5.945   5.830   5.444
 6214SOL    HW119541   5.982   5.819   5.536
 6214SOL    HW219542   5.857   5.783   5.438
 6215SOL     OW19543   3.798   2.849   6.532
 6215SOL    HW119544   3.719   2.795   6.503
 6215SOL    HW219545   3.847   2.882   6.451
 6216SOL     OW19546   6.088   2.360   2.131
 6216SOL    HW119547   6.113   2.287   2.194
 6216SOL    HW219548   5.997   2.344   2.095
 6217SOL     OW19549   0.952   4.420   2.475
 6217SOL    HW119550   0.995   4.494   2.424
 6217SOL    HW219551   1.012   4.340   2.475
 6218SOL     OW19552   3.834   6.545   0.162
 6218SOL    HW119553   3.899   6.597   0.218
 6218SOL    HW219554   3.742   6.557   0.198
 6219SOL     OW19555   1.544   0.660   5.058
 6219SOL    HW119556   1.563   0.583   4.998
 6219SOL    HW219557   1.588   0.646   5.146
 6220SOL     OW19558   3.530   1.485   6.167
 6220SOL    HW119559   3.606   1.550   6.169
 6220SOL    HW219560   3.527   1.435   6.253
 6221SOL     OW19561   6.442   6.587   6.614
 6221SOL    HW119562   6.416   6.660   6.677
 6221SOL    HW219563   6.387   6.506   6.633
 6222SOL     OW19564   6.971   0.258   2.780
 6222SOL    HW119565   6.981   0.159   2.786
 6222SOL    HW219566   6.953   0.295   2.871
 6223SOL     OW19567   1.501   5.779   3.331
 6223SOL    HW119568   1.442   5.717   3.280
 6223SOL    HW219569   1.569   5.819   3.269
 6224SOL     OW19570   3.714   1.871   5.651
 6224SOL    HW119571   3.615   1.861   5.638
 6224SOL    HW219572   3.753   1.919   5.573
 6225SOL     OW19573   3.891   2.348   6.410
 6225SOL    HW119574   3.897   2.434   6.359
 6225SOL    HW219575   3.926   2.363   6.503
 6226SOL     OW19576   1.115   1.279   3.728
 6226SOL    HW119577   1.177   1.216   3.774
 6226SOL    HW219578   1.061   1.328   3.796
 6227SOL     OW19579   3.017   5.154   5.290
 6227SOL    HW119580   2.972   5.121   5.207
 6227SOL    HW219581   2.991   5.096   5.367
 6228SOL     OW19582   0.473   2.381   3.180
 6228SOL    HW119583   0.566   2.373   3.216
 6228SOL    HW219584   0.463   2.324   3.099
 6229SOL     OW19585   0.565   2.991   5.195
 6229SOL    HW119586   0.565   3.060   5.268
 6229SOL    HW219587   0.611   3.027   5.115
 6230SOL     OW19588   1.205   2.433   3.338
 6230SOL    HW119589   1.186   2.452   3.241
 6230SOL    HW219590   1.238   2.517   3.382
 6231SOL     OW19591   5.249   5.636   0.661
 6231SOL    HW119592   5.281   5.715   0.713
 6231SOL    HW219593   5.289   5.638   0.569
 6232SOL     OW19594   6.472   1.260   0.299
 6232SOL    HW119595   6.398   1.299   0.355
 6232SOL    HW219596   6.557   1.308   0.320
 6233SOL     OW19597   0.190   3.026   1.430
 6233SOL    HW119598   0.286   2.999   1.431
 6233SOL    HW219599   0.145   2.990   1.512
 6234SOL     OW19600   0.096   0.057   5.549
 6234SOL    HW119601   0.173   0.083   5.607
 6234SOL    HW219602   0.125   7.011   5.486
 6235SOL     OW19603   0.197   0.599   1.955
 6235SOL    HW119604   0.231   0.560   1.869
 6235SOL    HW219605   0.221   0.539   2.031
 6236SOL     OW19606   6.969   4.808   0.395
 6236SOL    HW119607   0.001   4.840   0.320
 6236SOL    HW219608   6.897   4.749   0.358
 6237SOL     OW19609   3.356   6.932   0.111
 6237SOL    HW119610   3.338   7.021   0.154
 6237SOL    HW219611   3.302   6.861   0.157
 6238SOL     OW19612   4.626   6.615   3.275
 6238SOL    HW119613   4.678   6.679   3.331
 6238SOL    HW219614   4.535   6.653   3.257
 6239SOL     OW19615   3.530   0.786   1.175
 6239SOL    HW119616   3.516   0.722   1.250
 6239SOL    HW219617   3.463   0.769   1.103
 6240SOL     OW19618   2.886   3.487   4.910
 6240SOL    HW119619   2.985   3.473   4.904
 6240SOL    HW219620   2.847   3.419   4.972
 6241SOL     OW19621   4.189   0.057   3.990
 6241SOL    HW119622   4.268   0.117   3.976
 6241SOL    HW219623   4.106   0.104   3.959
 6242SOL     OW19624   3.126   0.881   3.963
 6242SOL    HW119625   3.105   0.947   4.035
 6242SOL    HW219626   3.091   0.916   3.876
 6243SOL     OW19627   6.611   0.461   5.894
 6243SOL    HW119628   6.639   0.557   5.899
 6243SOL    HW219629   6.605   0.433   5.798
 6244SOL     OW19630   4.965   3.728   3.220
 6244SOL    HW119631   4.976   3.667   3.142
 6244SOL    HW219632   4.954   3.675   3.304
 6245SOL     OW19633   0.724   4.827   1.753
 6245SOL    HW119634   0.764   4.867   1.671
 6245SOL    HW219635   0.625   4.838   1.751
 6246SOL     OW19636   0.456   0.879   4.485
 6246SOL    HW119637   0.537   0.894   4.428
 6246SOL    HW219638   0.376   0.919   4.441
 6247SOL     OW19639   1.585   6.603   3.158
 6247SOL    HW119640   1.639   6.521   3.177
 6247SOL    HW219641   1.524   6.621   3.234
 6248SOL     OW19642   3.262   3.904   0.185
 6248SOL    HW119643   3.308   3.906   0.274
 6248SOL    HW219644   3.326   3.930   0.113
 6249SOL     OW19645   0.172   2.793   1.248
 6249SOL    HW119646   0.268   2.797   1.221
 6249SOL    HW219647   0.141   2.884   1.275
 6250SOL     OW19648   6.868   6.446   0.718
 6250SOL    HW119649   6.803   6.491   0.779
 6250SOL    HW219650   6.861   6.484   0.626
 6251SOL     OW19651   3.704   5.661   4.624
 6251SOL    HW119652   3.774   5.690   4.557
 6251SOL    HW219653   3.645   5.592   4.582
 6252SOL     OW19654   2.883   5.212   0.014
 6252SOL    HW119655   2.952   5.276   0.048
 6252SOL    HW219656   2.916   5.118   0.026
 6253SOL     OW19657   2.346   5.153   4.911
 6253SOL    HW119658   2.427   5.100   4.934
 6253SOL    HW219659   2.265   5.095   4.915
 6254SOL     OW19660   0.455   6.538   1.288
 6254SOL    HW119661   0.518   6.576   1.222
 6254SOL    HW219662   0.372   6.594   1.292
 6255SOL     OW19663   2.010   2.428   0.456
 6255SOL    HW119664   2.014   2.334   0.422
 6255SOL    HW219665   1.940   2.479   0.407
 6256SOL     OW19666   4.165   5.013   2.260
 6256SOL    HW119667   4.176   4.917   2.286
 6256SOL    HW219668   4.219   5.071   2.321
 6257SOL     OW19669   4.015   2.787   0.291
 6257SOL    HW119670   4.105   2.800   0.334
 6257SOL    HW219671   3.946   2.839   0.340
 6258SOL     OW19672   3.096   0.312   5.353
 6258SOL    HW119673   3.163   0.316   5.279
 6258SOL    HW219674   3.131   0.363   5.432
 6259SOL     OW19675   1.738   0.771   6.210
 6259SOL    HW119676   1.682   0.786   6.129
 6259SOL    HW219677   1.790   0.854   6.231
 6260SOL     OW19678   2.171   0.634   0.738
 6260SOL    HW119679   2.195   0.591   0.824
 6260SOL    HW219680   2.083   0.598   0.706
 6261SOL     OW19681   4.462   6.598   1.034
 6261SOL    HW119682   4.518   6.555   1.105
 6261SOL    HW219683   4.392   6.532   1.003
 6262SOL     OW19684   1.053   5.937   2.471
 6262SOL    HW119685   0.981   6.006   2.473
 6262SOL    HW219686   1.036   5.869   2.543
 6263SOL     OW19687   0.220   6.190   5.276
 6263SOL    HW119688   0.250   6.276   5.317
 6263SOL    HW219689   0.291   6.156   5.214
 6264SOL     OW19690   1.261   0.018   1.420
 6264SOL    HW119691   1.292   6.955   1.389
 6264SOL    HW219692   1.310   0.089   1.370
 6265SOL     OW19693   3.762   2.847   0.979
 6265SOL    HW119694   3.714   2.774   0.932
 6265SOL    HW219695   3.824   2.807   1.047
 6266SOL     OW19696   4.309   6.922   3.293
 6266SOL    HW119697   4.308   6.994   3.224
 6266SOL    HW219698   4.328   6.961   3.383
 6267SOL     OW19699   1.397   0.005   5.018
 6267SOL    HW119700   1.424   7.026   5.115
 6267SOL    HW219701   1.358   6.944   4.989
 6268SOL     OW19702   2.839   1.008   2.076
 6268SOL    HW119703   2.808   0.985   2.169
 6268SOL    HW219704   2.937   0.994   2.070
 6269SOL     OW19705   5.921   6.564   1.387
 6269SOL    HW119706   5.839   6.622   1.384
 6269SOL    HW219707   5.986   6.601   1.453
 6270SOL     OW19708   0.772   6.589   0.264
 6270SOL    HW119709   0.756   6.535   0.347
 6270SOL    HW219710   0.685   6.626   0.231
 6271SOL     OW19711   6.034   2.623   6.337
 6271SOL    HW119712   5.976   2.653   6.262
 6271SOL    HW219713   6.062   2.528   6.321
 6272SOL     OW19714   0.820   0.758   0.645
 6272SOL    HW119715   0.728   0.728   0.671
 6272SOL    HW219716   0.872   0.681   0.608
 6273SOL     OW19717   0.296   5.504   2.955
 6273SOL    HW119718   0.296   5.602   2.978
 6273SOL    HW219719   0.271   5.451   3.035
 6274SOL     OW19720   2.916   6.948   4.697
 6274SOL    HW119721   2.907   0.014   4.733
 6274SOL    HW219722   2.955   6.887   4.767
 6275SOL     OW19723   2.177   5.893   0.774
 6275SOL    HW119724   2.090   5.862   0.811
 6275SOL    HW219725   2.191   5.854   0.682
 6276SOL     OW19726   3.813   5.720   3.643
 6276SOL    HW119727   3.753   5.659   3.694
 6276SOL    HW219728   3.837   5.799   3.700
 6277SOL     OW19729   5.167   2.218   0.877
 6277SOL    HW119730   5.166   2.139   0.938
 6277SOL    HW219731   5.253   2.268   0.888
 6278SOL     OW19732   3.411   0.722   5.826
 6278SOL    HW119733   3.414   0.776   5.742
 6278SOL    HW219734   3.403   0.784   5.904
 6279SOL     OW19735   4.268   5.704   0.987
 6279SOL    HW119736   4.341   5.725   1.052
 6279SOL    HW219737   4.286   5.752   0.901
 6280SOL     OW19738   0.126   0.760   6.605
 6280SOL    HW119739   0.223   0.754   6.627
 6280SOL    HW219740   0.079   0.813   6.675
 6281SOL     OW19741   6.098   4.941   3.813
 6281SOL    HW119742   6.185   4.956   3.861
 6281SOL    HW219743   6.105   4.977   3.720
 6282SOL     OW19744   6.028   3.129   5.357
 6282SOL    HW119745   6.023   3.068   5.436
 6282SOL    HW219746   6.036   3.223   5.387
 6283SOL     OW19747   1.070   4.434   4.136
 6283SOL    HW119748   1.024   4.512   4.179
 6283SOL    HW219749   1.159   4.464   4.100
 6284SOL     OW19750   1.261   5.664   6.807
 6284SOL    HW119751   1.353   5.694   6.780
 6284SOL    HW219752   1.267   5.614   6.894
 6285SOL     OW19753   1.561   3.245   3.705
 6285SOL    HW119754   1.480   3.208   3.751
 6285SOL    HW219755   1.635   3.178   3.708
 6286SOL     OW19756   6.449   3.600   4.075
 6286SOL    HW119757   6.499   3.520   4.043
 6286SOL    HW219758   6.492   3.636   4.157
 6287SOL     OW19759   4.235   5.057   5.100
 6287SOL    HW119760   4.228   4.978   5.039
 6287SOL    HW219761   4.327   5.063   5.137
 6288SOL     OW19762   4.670   4.615   1.428
 6288SOL    HW119763   4.578   4.654   1.419
 6288SOL    HW219764   4.726   4.644   1.350
 6289SOL     OW19765   2.768   4.795   6.658
 6289SOL    HW119766   2.753   4.768   6.563
 6289SOL    HW219767   2.861   4.769   6.687
 6290SOL     OW19768   5.852   5.279   6.225
 6290SOL    HW119769   5.828   5.196   6.276
 6290SOL    HW219770   5.896   5.253   6.139
 6291SOL     OW19771   4.068   3.158   3.170
 6291SOL    HW119772   4.065   3.159   3.270
 6291SOL    HW219773   4.158   3.129   3.139
 6292SOL     OW19774   2.047   2.048   4.544
 6292SOL    HW119775   2.099   1.963   4.541
 6292SOL    HW219776   2.067   2.097   4.629
 6293SOL     OW19777   4.556   1.494   0.384
 6293SOL    HW119778   4.583   1.590   0.377
 6293SOL    HW219779   4.524   1.476   0.477
 6294SOL     OW19780   4.329   0.436   3.196
 6294SOL    HW119781   4.380   0.435   3.282
 6294SOL    HW219782   4.257   0.505   3.201
 6295SOL     OW19783   5.246   4.933   5.065
 6295SOL    HW119784   5.290   4.980   5.142
 6295SOL    HW219785   5.294   4.848   5.046
 6296SOL     OW19786   0.348   4.505   5.690
 6296SOL    HW119787   0.289   4.583   5.666
 6296SOL    HW219788   0.380   4.461   5.606
 6297SOL     OW19789   6.705   0.230   5.436
 6297SOL    HW119790   6.692   0.309   5.377
 6297SOL    HW219791   6.712   0.147   5.380
 6298SOL     OW19792   6.765   4.658   6.303
 6298SOL    HW119793   6.757   4.743   6.251
 6298SOL    HW219794   6.828   4.672   6.380
 6299SOL     OW19795   5.919   2.743   2.190
 6299SOL    HW119796   5.893   2.664   2.245
 6299SOL    HW219797   5.998   2.720   2.133
 6300SOL     OW19798   4.678   0.776   6.913
 6300SOL    HW119799   4.724   0.824   6.838
 6300SOL    HW219800   4.624   0.700   6.876
 6301SOL     OW19801   3.188   6.861   6.428
 6301SOL    HW119802   3.151   6.836   6.518
 6301SOL    HW219803   3.283   6.830   6.422
 6302SOL     OW19804   2.447   1.494   5.500
 6302SOL    HW119805   2.492   1.505   5.412
 6302SOL    HW219806   2.421   1.584   5.536
 6303SOL     OW19807   0.511   6.348   5.967
 6303SOL    HW119808   0.465   6.390   5.889
 6303SOL    HW219809   0.459   6.365   6.050
 6304SOL     OW19810   3.880   1.699   3.583
 6304SOL    HW119811   3.791   1.661   3.611
 6304SOL    HW219812   3.872   1.735   3.490
 6305SOL     OW19813   5.951   5.984   0.160
 6305SOL    HW119814   6.027   5.939   0.112
 6305SOL    HW219815   5.884   6.016   0.094
 6306SOL     OW19816   0.186   3.588   4.156
 6306SOL    HW119817   0.227   3.579   4.247
 6306SOL    HW219818   0.119   3.515   4.143
 6307SOL     OW19819   3.122   2.991   4.221
 6307SOL    HW119820   3.202   2.954   4.174
 6307SOL    HW219821   3.072   2.917   4.265
 6308SOL     OW19822   0.786   2.148   5.793
 6308SOL    HW119823   0.802   2.220   5.725
 6308SOL    HW219824   0.798   2.059   5.751
 6309SOL     OW19825   0.396   0.340   4.186
 6309SOL    HW119826   0.325   0.390   4.137
 6309SOL    HW219827   0.473   0.401   4.206
 6310SOL     OW19828   2.257   6.412   3.046
 6310SOL    HW119829   2.349   6.378   3.068
 6310SOL    HW219830   2.247   6.420   2.947
 6311SOL     OW19831   4.993   1.245   6.861
 6311SOL    HW119832   4.996   1.167   6.924
 6311SOL    HW219833   5.079   1.249   6.810
 6312SOL     OW19834   1.810   0.022   6.602
 6312SOL    HW119835   1.758   0.041   6.519
 6312SOL    HW219836   1.750   7.008   6.671
 6313SOL     OW19837   5.519   6.575   2.997
 6313SOL    HW119838   5.560   6.484   2.989
 6313SOL    HW219839   5.543   6.629   2.916
 6314SOL     OW19840   3.618   0.617   1.903
 6314SOL    HW119841   3.674   0.696   1.882
 6314SOL    HW219842   3.647   0.577   1.990
 6315SOL     OW19843   2.181   2.030   4.846
 6315SOL    HW119844   2.254   2.018   4.913
 6315SOL    HW219845   2.098   2.062   4.893
 6316SOL     OW19846   4.920   1.452   5.921
 6316SOL    HW119847   4.878   1.542   5.933
 6316SOL    HW219848   4.879   1.388   5.985
 6317SOL     OW19849   5.136   3.771   2.774
 6317SOL    HW119850   5.070   3.765   2.849
 6317SOL    HW219851   5.119   3.697   2.709
 6318SOL     OW19852   4.780   0.046   6.971
 6318SOL    HW119853   4.872   0.030   6.935
 6318SOL    HW219854   4.722   6.994   6.952
 6319SOL     OW19855   6.121   2.285   4.412
 6319SOL    HW119856   6.123   2.384   4.398
 6319SOL    HW219857   6.193   2.242   4.357
 6320SOL     OW19858   0.125   6.907   3.795
 6320SOL    HW119859   0.027   6.918   3.812
 6320SOL    HW219860   0.162   6.839   3.858
 6321SOL     OW19861   5.015   3.561   0.115
 6321SOL    HW119862   5.096   3.536   0.167
 6321SOL    HW219863   5.008   3.502   0.034
 6322SOL     OW19864   2.922   1.584   0.517
 6322SOL    HW119865   2.826   1.557   0.507
 6322SOL    HW219866   2.980   1.511   0.481
 6323SOL     OW19867   1.679   1.995   1.307
 6323SOL    HW119868   1.618   1.919   1.329
 6323SOL    HW219869   1.650   2.038   1.222
 6324SOL     OW19870   3.941   1.480   0.853
 6324SOL    HW119871   3.951   1.429   0.938
 6324SOL    HW219872   4.020   1.540   0.840
 6325SOL     OW19873   2.232   2.665   3.111
 6325SOL    HW119874   2.326   2.632   3.100
 6325SOL    HW219875   2.223   2.716   3.196
 6326SOL     OW19876   5.420   5.765   5.746
 6326SOL    HW119877   5.519   5.775   5.737
 6326SOL    HW219878   5.396   5.668   5.749
 6327SOL     OW19879   6.875   1.296   3.705
 6327SOL    HW119880   6.845   1.329   3.616
 6327SOL    HW219881   6.975   1.286   3.705
 6328SOL     OW19882   4.842   3.671   6.916
 6328SOL    HW119883   4.887   3.582   6.929
 6328SOL    HW219884   4.785   3.690   6.996
 6329SOL     OW19885   0.746   3.012   4.976
 6329SOL    HW119886   0.762   3.019   4.878
 6329SOL    HW219887   0.802   2.938   5.014
 6330SOL     OW19888   5.372   0.128   2.175
 6330SOL    HW119889   5.470   0.143   2.165
 6330SOL    HW219890   5.356   0.038   2.216
 6331SOL     OW19891   6.655   3.064   4.764
 6331SOL    HW119892   6.635   3.162   4.765
 6331SOL    HW219893   6.707   3.040   4.846
 6332SOL     OW19894   1.299   2.846   1.613
 6332SOL    HW119895   1.321   2.811   1.522
 6332SOL    HW219896   1.223   2.793   1.651
 6333SOL     OW19897   4.978   6.847   6.566
 6333SOL    HW119898   5.024   6.849   6.655
 6333SOL    HW219899   4.891   6.799   6.574
 6334SOL     OW19900   2.549   1.541   2.386
 6334SOL    HW119901   2.600   1.582   2.461
 6334SOL    HW219902   2.453   1.531   2.412
 6335SOL     OW19903   4.724   1.043   0.582
 6335SOL    HW119904   4.812   1.015   0.542
 6335SOL    HW219905   4.726   1.141   0.603
 6336SOL     OW19906   0.247   3.894   6.615
 6336SOL    HW119907   0.319   3.893   6.685
 6336SOL    HW219908   0.185   3.816   6.631
 6337SOL     OW19909   4.104   5.765   4.854
 6337SOL    HW119910   4.108   5.745   4.756
 6337SOL    HW219911   4.196   5.770   4.892
 6338SOL     OW19912   3.259   1.776   4.226
 6338SOL    HW119913   3.323   1.821   4.288
 6338SOL    HW219914   3.168   1.772   4.269
 6339SOL     OW19915   1.339   3.673   3.353
 6339SOL    HW119916   1.255   3.690   3.300
 6339SOL    HW219917   1.320   3.604   3.424
 6340SOL     OW19918   2.341   3.331   1.042
 6340SOL    HW119919   2.276   3.402   1.015
 6340SOL    HW219920   2.294   3.261   1.095
 6341SOL     OW19921   0.927   3.585   3.825
 6341SOL    HW119922   0.990   3.630   3.763
 6341SOL    HW219923   0.959   3.597   3.919
 6342SOL     OW19924   3.280   1.341   0.598
 6342SOL    HW119925   3.184   1.328   0.573
 6342SOL    HW219926   3.335   1.273   0.549
 6343SOL     OW19927   3.881   6.592   6.632
 6343SOL    HW119928   3.897   6.691   6.629
 6343SOL    HW219929   3.880   6.562   6.728
 6344SOL     OW19930   5.753   2.177   4.311
 6344SOL    HW119931   5.770   2.079   4.300
 6344SOL    HW219932   5.819   2.229   4.256
 6345SOL     OW19933   4.871   2.961   1.739
 6345SOL    HW119934   4.798   2.998   1.797
 6345SOL    HW219935   4.939   3.032   1.721
 6346SOL     OW19936   6.726   4.601   4.845
 6346SOL    HW119937   6.672   4.674   4.803
 6346SOL    HW219938   6.673   4.557   4.917
 6347SOL     OW19939   2.661   1.717   1.493
 6347SOL    HW119940   2.686   1.760   1.580
 6347SOL    HW219941   2.591   1.647   1.509
 6348SOL     OW19942   0.844   2.243   6.058
 6348SOL    HW119943   0.920   2.193   6.099
 6348SOL    HW219944   0.819   2.199   5.972
 6349SOL     OW19945   1.474   0.540   0.493
 6349SOL    HW119946   1.495   0.637   0.497
 6349SOL    HW219947   1.492   0.498   0.582
 6350SOL     OW19948   1.066   5.265   2.826
 6350SOL    HW119949   0.981   5.283   2.777
 6350SOL    HW219950   1.052   5.193   2.893
 6351SOL     OW19951   6.732   4.473   3.795
 6351SOL    HW119952   6.802   4.460   3.865
 6351SOL    HW219953   6.670   4.546   3.823
 6352SOL     OW19954   2.637   0.247   4.035
 6352SOL    HW119955   2.577   0.176   4.072
 6352SOL    HW219956   2.606   0.272   3.943
 6353SOL     OW19957   2.471   5.443   0.271
 6353SOL    HW119958   2.569   5.423   0.269
 6353SOL    HW219959   2.419   5.359   0.258
 6354SOL     OW19960   3.523   6.062   2.983
 6354SOL    HW119961   3.615   6.089   3.010
 6354SOL    HW219962   3.467   6.046   3.065
 6355SOL     OW19963   2.749   5.710   0.598
 6355SOL    HW119964   2.748   5.764   0.514
 6355SOL    HW219965   2.748   5.613   0.574
 6356SOL     OW19966   5.502   5.592   0.124
 6356SOL    HW119967   5.510   5.498   0.093
 6356SOL    HW219968   5.555   5.604   0.208
 6357SOL     OW19969   5.615   2.515   1.901
 6357SOL    HW119970   5.623   2.613   1.917
 6357SOL    HW219971   5.570   2.500   1.813
 6358SOL     OW19972   0.797   2.347   0.145
 6358SOL    HW119973   0.808   2.441   0.115
 6358SOL    HW219974   0.700   2.322   0.143
 6359SOL     OW19975   6.189   6.436   0.737
 6359SOL    HW119976   6.161   6.530   0.757
 6359SOL    HW219977   6.266   6.411   0.795
 6360SOL     OW19978   0.485   3.702   4.162
 6360SOL    HW119979   0.548   3.653   4.102
 6360SOL    HW219980   0.392   3.666   4.150
 6361SOL     OW19981   0.799   0.690   1.131
 6361SOL    HW119982   0.878   0.686   1.069
 6361SOL    HW219983   0.775   0.597   1.159
 6362SOL     OW19984   1.634   6.118   6.956
 6362SOL    HW119985   1.628   6.203   7.008
 6362SOL    HW219986   1.566   6.053   6.989
 6363SOL     OW19987   2.922   4.795   4.103
 6363SOL    HW119988   2.869   4.739   4.041
 6363SOL    HW219989   2.901   4.770   4.197
 6364SOL     OW19990   2.482   2.321   5.364
 6364SOL    HW119991   2.516   2.363   5.448
 6364SOL    HW219992   2.463   2.391   5.296
 6365SOL     OW19993   5.929   5.869   4.935
 6365SOL    HW119994   5.843   5.834   4.897
 6365SOL    HW219995   5.909   5.924   5.016
 6366SOL     OW19996   6.930   6.650   4.826
 6366SOL    HW119997   6.889   6.589   4.759
 6366SOL    HW219998   6.951   6.738   4.783
 6367SOL     OW19999   3.334   1.998   2.713
 6367SOL    HW120000   3.293   1.919   2.761
 6367SOL    HW220001   3.278   2.020   2.634
 6368SOL     OW20002   4.222   4.774   4.225
 6368SOL    HW120003   4.283   4.736   4.295
 6368SOL    HW220004   4.200   4.869   4.249
 6369SOL     OW20005   2.013   0.184   4.411
 6369SOL    HW120006   1.932   0.228   4.449
 6369SOL    HW220007   2.093   0.242   4.428
 6370SOL     OW20008   5.308   4.251   3.487
 6370SOL    HW120009   5.349   4.168   3.524
 6370SOL    HW220010   5.212   4.233   3.464
 6371SOL     OW20011   5.264   3.842   1.920
 6371SOL    HW120012   5.225   3.896   1.994
 6371SOL    HW220013   5.294   3.754   1.956
 6372SOL     OW20014   0.633   1.331   1.657
 6372SOL    HW120015   0.614   1.374   1.568
 6372SOL    HW220016   0.548   1.324   1.708
 6373SOL     OW20017   5.795   3.795   2.500
 6373SOL    HW120018   5.769   3.766   2.593
 6373SOL    HW220019   5.819   3.892   2.501
 6374SOL     OW20020   4.424   2.937   0.305
 6374SOL    HW120021   4.348   3.001   0.318
 6374SOL    HW220022   4.509   2.981   0.334
 6375SOL     OW20023   0.906   2.536   1.598
 6375SOL    HW120024   0.825   2.560   1.545
 6375SOL    HW220025   0.975   2.494   1.538
 6376SOL     OW20026   3.924   1.758   5.360
 6376SOL    HW120027   3.838   1.726   5.320
 6376SOL    HW220028   3.905   1.827   5.430
 6377SOL     OW20029   6.607   1.400   5.325
 6377SOL    HW120030   6.625   1.366   5.417
 6377SOL    HW220031   6.560   1.488   5.330
 6378SOL     OW20032   4.928   5.452   3.270
 6378SOL    HW120033   4.856   5.424   3.333
 6378SOL    HW220034   4.904   5.538   3.227
 6379SOL     OW20035   0.844   4.821   5.454
 6379SOL    HW120036   0.876   4.776   5.370
 6379SOL    HW220037   0.846   4.756   5.530
 6380SOL     OW20038   6.999   3.278   4.383
 6380SOL    HW120039   0.039   3.260   4.455
 6380SOL    HW220040   6.934   3.202   4.378
 6381SOL     OW20041   4.213   3.123   0.297
 6381SOL    HW120042   4.148   3.186   0.339
 6381SOL    HW220043   4.186   3.103   0.203
 6382SOL     OW20044   3.449   1.782   1.167
 6382SOL    HW120045   3.418   1.816   1.256
 6382SOL    HW220046   3.507   1.851   1.123
 6383SOL     OW20047   1.593   2.417   2.156
 6383SOL    HW120048   1.545   2.362   2.224
 6383SOL    HW220049   1.622   2.503   2.197
 6384SOL     OW20050   5.595   2.814   1.903
 6384SOL    HW120051   5.603   2.895   1.962
 6384SOL    HW220052   5.618   2.839   1.809
 6385SOL     OW20053   6.612   3.765   1.881
 6385SOL    HW120054   6.579   3.673   1.902
 6385SOL    HW220055   6.571   3.796   1.795
 6386SOL     OW20056   2.160   3.483   0.254
 6386SOL    HW120057   2.238   3.425   0.277
 6386SOL    HW220058   2.076   3.442   0.289
 6387SOL     OW20059   6.013   1.553   0.360
 6387SOL    HW120060   6.057   1.637   0.329
 6387SOL    HW220061   5.943   1.526   0.294
 6388SOL     OW20062   5.969   4.839   2.135
 6388SOL    HW120063   5.889   4.817   2.080
 6388SOL    HW220064   5.946   4.829   2.232
 6389SOL     OW20065   1.354   6.792   1.308
 6389SOL    HW120066   1.289   6.747   1.248
 6389SOL    HW220067   1.346   6.754   1.400
 6390SOL     OW20068   6.279   0.518   5.901
 6390SOL    HW120069   6.336   0.437   5.916
 6390SOL    HW220070   6.287   0.547   5.805
 6391SOL     OW20071   1.462   1.330   6.110
 6391SOL    HW120072   1.430   1.414   6.155
 6391SOL    HW220073   1.509   1.273   6.177
 6392SOL     OW20074   2.968   6.253   3.754
 6392SOL    HW120075   2.962   6.157   3.725
 6392SOL    HW220076   3.056   6.269   3.798
 6393SOL     OW20077   5.678   5.958   1.527
 6393SOL    HW120078   5.675   6.058   1.524
 6393SOL    HW220079   5.747   5.928   1.592
 6394SOL     OW20080   1.625   4.629   1.200
 6394SOL    HW120081   1.645   4.704   1.137
 6394SOL    HW220082   1.699   4.562   1.196
 6395SOL     OW20083   0.006   3.254   2.410
 6395SOL    HW120084   0.006   3.164   2.365
 6395SOL    HW220085   0.084   3.307   2.379
 6396SOL     OW20086   6.251   3.728   5.648
 6396SOL    HW120087   6.291   3.752   5.737
 6396SOL    HW220088   6.246   3.628   5.641
 6397SOL     OW20089   6.335   1.081   2.301
 6397SOL    HW120090   6.297   1.170   2.277
 6397SOL    HW220091   6.422   1.067   2.252
 6398SOL     OW20092   1.292   6.657   1.562
 6398SOL    HW120093   1.250   6.591   1.625
 6398SOL    HW220094   1.380   6.686   1.598
 6399SOL     OW20095   1.526   0.082   6.867
 6399SOL    HW120096   1.609   0.028   6.860
 6399SOL    HW220097   1.482   0.066   6.955
 6400SOL     OW20098   2.196   5.003   2.660
 6400SOL    HW120099   2.252   5.084   2.673
 6400SOL    HW220100   2.118   5.005   2.723
 6401SOL     OW20101   5.445   4.992   3.221
 6401SOL    HW120102   5.492   4.986   3.133
 6401SOL    HW220103   5.469   4.913   3.277
 6402SOL     OW20104   2.164   3.251   3.705
 6402SOL    HW120105   2.083   3.286   3.658
 6402SOL    HW220106   2.194   3.318   3.773
 6403SOL     OW20107   5.738   6.289   5.951
 6403SOL    HW120108   5.654   6.237   5.940
 6403SOL    HW220109   5.772   6.316   5.861
 6404SOL     OW20110   4.060   1.367   2.592
 6404SOL    HW120111   4.012   1.337   2.674
 6404SOL    HW220112   3.995   1.408   2.528
 6405SOL     OW20113   4.475   1.698   3.721
 6405SOL    HW120114   4.413   1.650   3.784
 6405SOL    HW220115   4.479   1.795   3.747
 6406SOL     OW20116   1.301   3.284   2.291
 6406SOL    HW120117   1.240   3.360   2.271
 6406SOL    HW220118   1.382   3.318   2.339
 6407SOL     OW20119   1.886   6.968   3.188
 6407SOL    HW120120   1.974   6.929   3.162
 6407SOL    HW220121   1.889   0.041   3.178
 6408SOL     OW20122   6.434   0.747   0.919
 6408SOL    HW120123   6.463   0.811   0.847
 6408SOL    HW220124   6.440   0.654   0.883
 6409SOL     OW20125   0.169   4.827   3.292
 6409SOL    HW120126   0.113   4.745   3.301
 6409SOL    HW220127   0.146   4.892   3.365
 6410SOL     OW20128   2.066   0.866   6.822
 6410SOL    HW120129   2.147   0.838   6.770
 6410SOL    HW220130   2.009   0.925   6.766
 6411SOL     OW20131   0.986   3.283   2.443
 6411SOL    HW120132   1.020   3.196   2.479
 6411SOL    HW220133   1.060   3.329   2.393
 6412SOL     OW20134   2.671   0.537   0.085
 6412SOL    HW120135   2.707   0.502   0.171
 6412SOL    HW220136   2.596   0.479   0.053
 6413SOL     OW20137   4.186   4.901   4.701
 6413SOL    HW120138   4.124   4.973   4.731
 6413SOL    HW220139   4.236   4.865   4.780
 6414SOL     OW20140   6.233   6.394   6.632
 6414SOL    HW120141   6.213   6.297   6.638
 6414SOL    HW220142   6.195   6.441   6.712
 6415SOL     OW20143   1.539   3.276   4.057
 6415SOL    HW120144   1.628   3.244   4.026
 6415SOL    HW220145   1.505   3.347   3.996
 6416SOL     OW20146   2.914   7.000   6.424
 6416SOL    HW120147   2.921   0.065   6.386
 6416SOL    HW220148   3.003   6.954   6.415
 6417SOL     OW20149   5.518   2.341   0.620
 6417SOL    HW120150   5.441   2.309   0.566
 6417SOL    HW220151   5.525   2.287   0.704
 6418SOL     OW20152   5.002   4.240   2.844
 6418SOL    HW120153   4.936   4.174   2.879
 6418SOL    HW220154   4.954   4.316   2.800
 6419SOL     OW20155   0.446   5.266   4.795
 6419SOL    HW120156   0.483   5.312   4.714
 6419SOL    HW220157   0.479   5.312   4.877
 6420SOL     OW20158   2.027   1.739   3.742
 6420SOL    HW120159   2.045   1.657   3.797
 6420SOL    HW220160   1.965   1.716   3.667
 6421SOL     OW20161   4.725   0.542   1.205
 6421SOL    HW120162   4.670   0.598   1.144
 6421SOL    HW220163   4.740   0.452   1.164
 6422SOL     OW20164   6.445   1.614   5.392
 6422SOL    HW120165   6.430   1.696   5.448
 6422SOL    HW220166   6.389   1.619   5.310
 6423SOL     OW20167   4.915   5.156   4.792
 6423SOL    HW120168   5.014   5.141   4.801
 6423SOL    HW220169   4.895   5.194   4.702
 6424SOL     OW20170   1.509   3.639   4.860
 6424SOL    HW120171   1.545   3.718   4.908
 6424SOL    HW220172   1.410   3.632   4.877
 6425SOL     OW20173   0.144   5.358   2.566
 6425SOL    HW120174   0.189   5.316   2.487
 6425SOL    HW220175   0.161   5.303   2.647
 6426SOL     OW20176   5.448   5.015   3.787
 6426SOL    HW120177   5.544   5.012   3.815
 6426SOL    HW220178   5.428   4.938   3.727
 6427SOL     OW20179   3.034   3.638   3.150
 6427SOL    HW120180   3.046   3.735   3.171
 6427SOL    HW220181   2.948   3.625   3.100
 6428SOL     OW20182   5.786   3.308   0.344
 6428SOL    HW120183   5.739   3.220   0.348
 6428SOL    HW220184   5.863   3.308   0.409
 6429SOL     OW20185   1.161   0.545   5.479
 6429SOL    HW120186   1.157   0.635   5.524
 6429SOL    HW220187   1.089   0.541   5.409
 6430SOL     OW20188   6.545   0.901   5.069
 6430SOL    HW120189   6.626   0.939   5.026
 6430SOL    HW220190   6.493   0.848   5.002
 6431SOL     OW20191   4.438   5.348   2.611
 6431SOL    HW120192   4.478   5.260   2.636
 6431SOL    HW220193   4.352   5.361   2.660
 6432SOL     OW20194   3.567   4.299   6.502
 6432SOL    HW120195   3.651   4.260   6.465
 6432SOL    HW220196   3.577   4.397   6.513
 6433SOL     OW20197   3.494   5.005   6.986
 6433SOL    HW120198   3.447   4.935   6.933
 6433SOL    HW220199   3.443   5.091   6.980
 6434SOL     OW20200   2.519   6.640   5.818
 6434SOL    HW120201   2.559   6.576   5.753
 6434SOL    HW220202   2.526   6.733   5.782
 6435SOL     OW20203   6.456   0.163   0.903
 6435SOL    HW120204   6.513   0.231   0.857
 6435SOL    HW220205   6.485   0.071   0.876
 6436SOL     OW20206   0.890   3.345   3.451
 6436SOL    HW120207   0.955   3.291   3.503
 6436SOL    HW220208   0.899   3.323   3.354
 6437SOL     OW20209   1.514   2.177   6.043
 6437SOL    HW120210   1.456   2.116   6.097
 6437SOL    HW220211   1.496   2.163   5.946
 6438SOL     OW20212   1.334   4.804   6.567
 6438SOL    HW120213   1.248   4.838   6.529
 6438SOL    HW220214   1.380   4.747   6.500
 6439SOL     OW20215   6.197   0.993   3.186
 6439SOL    HW120216   6.116   1.017   3.238
 6439SOL    HW220217   6.279   1.018   3.237
 6440SOL     OW20218   2.973   0.877   5.938
 6440SOL    HW120219   3.052   0.874   6.000
 6440SOL    HW220220   2.923   0.791   5.944
 6441SOL     OW20221   0.189   1.031   1.907
 6441SOL    HW120222   0.123   0.959   1.931
 6441SOL    HW220223   0.200   1.093   1.985
 6442SOL     OW20224   2.448   2.254   4.965
 6442SOL    HW120225   2.540   2.293   4.963
 6442SOL    HW220226   2.380   2.327   4.960
 6443SOL     OW20227   3.432   2.356   5.848
 6443SOL    HW120228   3.351   2.406   5.878
 6443SOL    HW220229   3.433   2.350   5.748
 6444SOL     OW20230   6.552   2.747   4.800
 6444SOL    HW120231   6.581   2.805   4.876
 6444SOL    HW220232   6.632   2.707   4.756
 6445SOL     OW20233   4.113   3.457   3.297
 6445SOL    HW120234   4.156   3.369   3.316
 6445SOL    HW220235   4.103   3.508   3.383
 6446SOL     OW20236   0.924   2.151   0.364
 6446SOL    HW120237   0.897   2.204   0.283
 6446SOL    HW220238   1.018   2.120   0.354
 6447SOL     OW20239   6.089   4.245   1.890
 6447SOL    HW120240   6.001   4.198   1.892
 6447SOL    HW220241   6.085   4.319   1.823
 6448SOL     OW20242   5.127   4.870   1.404
 6448SOL    HW120243   5.158   4.946   1.347
 6448SOL    HW220244   5.152   4.783   1.361
 6449SOL     OW20245   2.762   4.957   2.084
 6449SOL    HW120246   2.770   4.858   2.067
 6449SOL    HW220247   2.783   4.976   2.180
 6450SOL     OW20248   0.981   3.691   0.529
 6450SOL    HW120249   0.977   3.592   0.517
 6450SOL    HW220250   0.905   3.734   0.479
 6451SOL     OW20251   2.858   1.849   5.918
 6451SOL    HW120252   2.952   1.836   5.886
 6451SOL    HW220253   2.852   1.933   5.971
 6452SOL     OW20254   5.062   3.541   2.613
 6452SOL    HW120255   4.975   3.532   2.662
 6452SOL    HW220256   5.105   3.451   2.606
 6453SOL     OW20257   2.900   6.847   1.548
 6453SOL    HW120258   2.859   6.938   1.546
 6453SOL    HW220259   2.862   6.791   1.475
 6454SOL     OW20260   0.569   1.700   2.199
 6454SOL    HW120261   0.651   1.642   2.202
 6454SOL    HW220262   0.571   1.756   2.116
 6455SOL     OW20263   6.965   3.911   3.570
 6455SOL    HW120264   6.967   4.005   3.536
 6455SOL    HW220265   6.929   3.851   3.499
 6456SOL     OW20266   1.271   0.997   2.805
 6456SOL    HW120267   1.369   0.980   2.814
 6456SOL    HW220268   1.230   1.007   2.896
 6457SOL     OW20269   4.778   6.354   1.411
 6457SOL    HW120270   4.813   6.285   1.474
 6457SOL    HW220271   4.679   6.341   1.398
 6458SOL     OW20272   1.683   5.304   5.020
 6458SOL    HW120273   1.696   5.336   5.114
 6458SOL    HW220274   1.764   5.326   4.966
 6459SOL     OW20275   5.919   2.540   2.926
 6459SOL    HW120276   6.000   2.494   2.891
 6459SOL    HW220277   5.919   2.536   3.026
 6460SOL     OW20278   5.553   6.115   5.876
 6460SOL    HW120279   5.525   6.099   5.970
 6460SOL    HW220280   5.582   6.028   5.835
 6461SOL     OW20281   2.993   4.960   0.063
 6461SOL    HW120282   2.917   4.894   0.064
 6461SOL    HW220283   3.076   4.915   0.029
 6462SOL     OW20284   0.545   3.061   4.571
 6462SOL    HW120285   0.512   3.079   4.664
 6462SOL    HW220286   0.593   3.142   4.536
 6463SOL     OW20287   5.167   6.507   0.750
 6463SOL    HW120288   5.192   6.508   0.654
 6463SOL    HW220289   5.232   6.563   0.802
 6464SOL     OW20290   1.596   6.011   5.369
 6464SOL    HW120291   1.503   6.049   5.366
 6464SOL    HW220292   1.610   5.964   5.456
 6465SOL     OW20293   6.561   2.453   2.407
 6465SOL    HW120294   6.478   2.464   2.463
 6465SOL    HW220295   6.608   2.370   2.434
 6466SOL     OW20296   6.898   1.797   6.729
 6466SOL    HW120297   6.957   1.877   6.724
 6466SOL    HW220298   6.803   1.826   6.728
 6467SOL     OW20299   4.264   0.486   0.756
 6467SOL    HW120300   4.253   0.462   0.660
 6467SOL    HW220301   4.233   0.410   0.813
 6468SOL     OW20302   3.358   6.232   1.713
 6468SOL    HW120303   3.430   6.295   1.740
 6468SOL    HW220304   3.360   6.219   1.614
 6469SOL     OW20305   3.258   1.965   4.015
 6469SOL    HW120306   3.226   1.975   4.109
 6469SOL    HW220307   3.272   1.868   3.995
 6470SOL     OW20308   6.307   2.535   6.899
 6470SOL    HW120309   6.294   2.602   6.825
 6470SOL    HW220310   6.244   2.554   6.973
 6471SOL     OW20311   1.047   6.352   5.170
 6471SOL    HW120312   1.069   6.438   5.123
 6471SOL    HW220313   1.119   6.331   5.236
 6472SOL     OW20314   5.948   5.766   2.906
 6472SOL    HW120315   5.917   5.679   2.945
 6472SOL    HW220316   6.047   5.772   2.909
 6473SOL     OW20317   1.998   1.853   5.201
 6473SOL    HW120318   2.077   1.907   5.230
 6473SOL    HW220319   2.022   1.801   5.118
 6474SOL     OW20320   3.809   5.532   5.612
 6474SOL    HW120321   3.899   5.489   5.610
 6474SOL    HW220322   3.819   5.631   5.603
 6475SOL     OW20323   5.902   5.228   3.637
 6475SOL    HW120324   5.883   5.171   3.557
 6475SOL    HW220325   5.881   5.323   3.615
 6476SOL     OW20326   4.805   3.118   6.401
 6476SOL    HW120327   4.736   3.188   6.423
 6476SOL    HW220328   4.828   3.125   6.304
 6477SOL     OW20329   6.235   5.200   0.731
 6477SOL    HW120330   6.268   5.241   0.816
 6477SOL    HW220331   6.192   5.271   0.675
 6478SOL     OW20332   3.390   6.523   2.405
 6478SOL    HW120333   3.329   6.562   2.337
 6478SOL    HW220334   3.438   6.444   2.367
 6479SOL     OW20335   3.177   4.922   4.093
 6479SOL    HW120336   3.190   4.956   4.187
 6479SOL    HW220337   3.090   4.872   4.088
 6480SOL     OW20338   2.221   1.234   0.083
 6480SOL    HW120339   2.316   1.201   0.083
 6480SOL    HW220340   2.171   1.191   0.157
 6481SOL     OW20341   3.285   2.545   1.668
 6481SOL    HW120342   3.354   2.479   1.695
 6481SOL    HW220343   3.330   2.628   1.634
 6482SOL     OW20344   6.872   2.258   6.010
 6482SOL    HW120345   6.899   2.196   5.936
 6482SOL    HW220346   6.780   2.293   5.992
 6483SOL     OW20347   0.822   6.556   4.059
 6483SOL    HW120348   0.785   6.642   4.095
 6483SOL    HW220349   0.860   6.501   4.133
 6484SOL     OW20350   2.806   1.802   2.911
 6484SOL    HW120351   2.716   1.792   2.867
 6484SOL    HW220352   2.803   1.758   3.001
 6485SOL     OW20353   1.568   5.703   3.876
 6485SOL    HW120354   1.586   5.757   3.959
 6485SOL    HW220355   1.580   5.606   3.896
 6486SOL     OW20356   0.860   5.352   2.674
 6486SOL    HW120357   0.808   5.436   2.656
 6486SOL    HW220358   0.860   5.295   2.592
 6487SOL     OW20359   0.892   6.599   5.086
 6487SOL    HW120360   0.915   6.588   5.183
 6487SOL    HW220361   0.808   6.549   5.066
 6488SOL     OW20362   4.356   5.822   4.995
 6488SOL    HW120363   4.347   5.910   5.041
 6488SOL    HW220364   4.444   5.818   4.947
 6489SOL     OW20365   3.440   3.657   6.229
 6489SOL    HW120366   3.354   3.697   6.198
 6489SOL    HW220367   3.439   3.559   6.211
 6490SOL     OW20368   2.925   1.494   6.446
 6490SOL    HW120369   3.017   1.495   6.485
 6490SOL    HW220370   2.927   1.538   6.356
 6491SOL     OW20371   2.777   0.942   1.827
 6491SOL    HW120372   2.781   1.032   1.784
 6491SOL    HW220373   2.793   0.952   1.925
 6492SOL     OW20374   3.950   3.413   5.272
 6492SOL    HW120375   3.956   3.506   5.236
 6492SOL    HW220376   3.966   3.414   5.371
 6493SOL     OW20377   1.376   4.419   6.574
 6493SOL    HW120378   1.392   4.365   6.491
 6493SOL    HW220379   1.463   4.455   6.607
 6494SOL     OW20380   6.914   6.554   2.571
 6494SOL    HW120381   6.906   6.462   2.533
 6494SOL    HW220382   6.822   6.591   2.586
 6495SOL     OW20383   6.652   0.535   4.275
 6495SOL    HW120384   6.591   0.475   4.326
 6495SOL    HW220385   6.727   0.482   4.236
 6496SOL     OW20386   5.872   7.019   1.563
 6496SOL    HW120387   5.881   6.987   1.468
 6496SOL    HW220388   5.872   6.940   1.624
 6497SOL     OW20389   1.106   0.280   1.254
 6497SOL    HW120390   1.044   0.240   1.321
 6497SOL    HW220391   1.103   0.379   1.260
 6498SOL     OW20392   0.576   4.160   4.454
 6498SOL    HW120393   0.654   4.163   4.391
 6498SOL    HW220394   0.491   4.169   4.401
 6499SOL     OW20395   5.557   3.754   4.472
 6499SOL    HW120396   5.547   3.732   4.569
 6499SOL    HW220397   5.468   3.780   4.434
 6500SOL     OW20398   0.310   3.991   2.198
 6500SOL    HW120399   0.317   4.061   2.128
 6500SOL    HW220400   0.388   3.998   2.261
 6501SOL     OW20401   0.312   1.236   1.521
 6501SOL    HW120402   0.356   1.193   1.600
 6501SOL    HW220403   0.362   1.211   1.438
 6502SOL     OW20404   6.740   3.498   1.534
 6502SOL    HW120405   6.721   3.582   1.483
 6502SOL    HW220406   6.839   3.485   1.542
 6503SOL     OW20407   5.507   0.946   3.668
 6503SOL    HW120408   5.440   0.963   3.741
 6503SOL    HW220409   5.459   0.914   3.586
 6504SOL     OW20410   3.895   5.888   0.298
 6504SOL    HW120411   3.948   5.842   0.226
 6504SOL    HW220412   3.937   5.976   0.319
 6505SOL     OW20413   4.324   6.539   6.219
 6505SOL    HW120414   4.234   6.568   6.251
 6505SOL    HW220415   4.335   6.565   6.123
 6506SOL     OW20416   0.011   3.044   3.502
 6506SOL    HW120417   6.974   3.025   3.427
 6506SOL    HW220418   0.097   2.996   3.485
 6507SOL     OW20419   2.793   5.782   6.124
 6507SOL    HW120420   2.776   5.700   6.069
 6507SOL    HW220421   2.751   5.771   6.214
 6508SOL     OW20422   1.468   0.407   2.501
 6508SOL    HW120423   1.498   0.318   2.467
 6508SOL    HW220424   1.547   0.458   2.535
 6509SOL     OW20425   4.910   1.997   4.817
 6509SOL    HW120426   5.003   2.030   4.800
 6509SOL    HW220427   4.860   2.066   4.869
 6510SOL     OW20428   5.029   5.005   6.635
 6510SOL    HW120429   5.027   5.037   6.729
 6510SOL    HW220430   5.116   5.031   6.593
 6511SOL     OW20431   4.208   1.077   5.016
 6511SOL    HW120432   4.112   1.055   5.034
 6511SOL    HW220433   4.249   1.116   5.098
 6512SOL     OW20434   3.343   6.822   2.597
 6512SOL    HW120435   3.336   6.726   2.625
 6512SOL    HW220436   3.284   6.878   2.654
 6513SOL     OW20437   1.950   5.986   4.101
 6513SOL    HW120438   1.904   6.023   4.020
 6513SOL    HW220439   1.966   6.060   4.166
 6514SOL     OW20440   6.063   0.692   4.660
 6514SOL    HW120441   6.077   0.611   4.603
 6514SOL    HW220442   6.046   0.663   4.755
 6515SOL     OW20443   1.196   3.546   2.550
 6515SOL    HW120444   1.271   3.603   2.518
 6515SOL    HW220445   1.148   3.592   2.624
 6516SOL     OW20446   6.667   3.309   1.181
 6516SOL    HW120447   6.644   3.296   1.277
 6516SOL    HW220448   6.755   3.357   1.173
 6517SOL     OW20449   0.197   1.893   1.069
 6517SOL    HW120450   0.133   1.966   1.093
 6517SOL    HW220451   0.194   1.821   1.138
 6518SOL     OW20452   7.008   0.299   2.200
 6518SOL    HW120453   6.961   0.384   2.175
 6518SOL    HW220454   6.998   0.283   2.298
 6519SOL     OW20455   0.361   1.849   3.004
 6519SOL    HW120456   0.350   1.766   2.949
 6519SOL    HW220457   0.457   1.876   3.006
 6520SOL     OW20458   6.750   5.290   6.829
 6520SOL    HW120459   6.668   5.302   6.885
 6520SOL    HW220460   6.761   5.193   6.806
 6521SOL     OW20461   2.074   2.643   3.779
 6521SOL    HW120462   2.043   2.643   3.874
 6521SOL    HW220463   2.031   2.567   3.730
 6522SOL     OW20464   2.316   4.577   5.509
 6522SOL    HW120465   2.321   4.579   5.409
 6522SOL    HW220466   2.239   4.633   5.539
 6523SOL     OW20467   3.809   0.421   6.963
 6523SOL    HW120468   3.840   0.387   0.025
 6523SOL    HW220469   3.886   0.459   6.912
 6524SOL     OW20470   2.662   2.511   1.560
 6524SOL    HW120471   2.593   2.559   1.506
 6524SOL    HW220472   2.752   2.552   1.542
 6525SOL     OW20473   2.109   5.047   3.276
 6525SOL    HW120474   2.148   5.093   3.196
 6525SOL    HW220475   2.023   5.092   3.302
 6526SOL     OW20476   0.622   0.566   1.503
 6526SOL    HW120477   0.648   0.543   1.409
 6526SOL    HW220478   0.660   0.655   1.527
 6527SOL     OW20479   6.780   2.244   0.397
 6527SOL    HW120480   6.820   2.158   0.428
 6527SOL    HW220481   6.832   2.320   0.436
 6528SOL     OW20482   6.351   1.870   5.430
 6528SOL    HW120483   6.270   1.926   5.414
 6528SOL    HW220484   6.433   1.920   5.401
 6529SOL     OW20485   1.050   0.962   2.301
 6529SOL    HW120486   1.129   0.997   2.351
 6529SOL    HW220487   1.079   0.925   2.213
 6530SOL     OW20488   0.337   1.855   0.721
 6530SOL    HW120489   0.391   1.896   0.794
 6530SOL    HW220490   0.262   1.917   0.697
 6531SOL     OW20491   4.897   3.590   5.330
 6531SOL    HW120492   4.839   3.566   5.253
 6531SOL    HW220493   4.842   3.637   5.399
 6532SOL     OW20494   1.923   1.229   1.105
 6532SOL    HW120495   1.910   1.284   1.188
 6532SOL    HW220496   1.843   1.172   1.090
 6533SOL     OW20497   4.083   5.915   0.752
 6533SOL    HW120498   4.045   5.822   0.748
 6533SOL    HW220499   4.162   5.922   0.690
 6534SOL     OW20500   4.831   5.099   1.984
 6534SOL    HW120501   4.855   5.183   2.034
 6534SOL    HW220502   4.734   5.102   1.959
 6535SOL     OW20503   6.081   4.362   4.462
 6535SOL    HW120504   6.173   4.397   4.480
 6535SOL    HW220505   6.019   4.438   4.443
 6536SOL     OW20506   0.405   1.934   5.071
 6536SOL    HW120507   0.461   2.015   5.085
 6536SOL    HW220508   0.457   1.853   5.097
 6537SOL     OW20509   6.662   5.043   5.193
 6537SOL    HW120510   6.737   4.986   5.228
 6537SOL    HW220511   6.600   4.985   5.139
 6538SOL     OW20512   1.143   3.500   5.881
 6538SOL    HW120513   1.081   3.542   5.947
 6538SOL    HW220514   1.237   3.526   5.902
 6539SOL     OW20515   4.445   0.647   0.030
 6539SOL    HW120516   4.443   0.747   0.031
 6539SOL    HW220517   4.529   0.615   7.013
 6540SOL     OW20518   3.418   2.736   6.117
 6540SOL    HW120519   3.458   2.666   6.057
 6540SOL    HW220520   3.413   2.823   6.068
 6541SOL     OW20521   5.670   2.076   5.959
 6541SOL    HW120522   5.583   2.075   5.909
 6541SOL    HW220523   5.677   2.162   6.011
 6542SOL     OW20524   1.141   3.051   4.325
 6542SOL    HW120525   1.183   3.028   4.412
 6542SOL    HW220526   1.210   3.048   4.252
 6543SOL     OW20527   3.847   2.654   5.547
 6543SOL    HW120528   3.939   2.668   5.509
 6543SOL    HW220529   3.780   2.697   5.486
 6544SOL     OW20530   1.220   6.508   2.674
 6544SOL    HW120531   1.256   6.470   2.759
 6544SOL    HW220532   1.127   6.540   2.689
 6545SOL     OW20533   4.199   0.387   0.278
 6545SOL    HW120534   4.118   0.444   0.270
 6545SOL    HW220535   4.172   0.290   0.277
 6546SOL     OW20536   3.925   3.873   6.302
 6546SOL    HW120537   3.959   3.961   6.336
 6546SOL    HW220538   3.847   3.843   6.357
 6547SOL     OW20539   4.709   0.769   6.269
 6547SOL    HW120540   4.785   0.774   6.205
 6547SOL    HW220541   4.712   0.848   6.331
 6548SOL     OW20542   1.625   3.000   0.284
 6548SOL    HW120543   1.618   3.073   0.353
 6548SOL    HW220544   1.614   2.911   0.329
 6549SOL     OW20545   4.414   0.102   2.232
 6549SOL    HW120546   4.352   0.147   2.296
 6549SOL    HW220547   4.362   0.043   2.170
 6550SOL     OW20548   0.357   6.689   3.870
 6550SOL    HW120549   0.381   6.760   3.935
 6550SOL    HW220550   0.433   6.623   3.864
 6551SOL     OW20551   2.378   3.691   1.681
 6551SOL    HW120552   2.293   3.733   1.651
 6551SOL    HW220553   2.358   3.612   1.739
 6552SOL     OW20554   2.256   6.842   0.858
 6552SOL    HW120555   2.275   6.744   0.870
 6552SOL    HW220556   2.159   6.859   0.878
 6553SOL     OW20557   0.973   2.295   3.039
 6553SOL    HW120558   1.025   2.379   3.023
 6553SOL    HW220559   0.916   2.275   2.959
 6554SOL     OW20560   2.269   0.782   4.484
 6554SOL    HW120561   2.336   0.849   4.451
 6554SOL    HW220562   2.316   0.711   4.536
 6555SOL     OW20563   5.878   2.048   3.487
 6555SOL    HW120564   5.778   2.047   3.492
 6555SOL    HW220565   5.916   2.038   3.579
 6556SOL     OW20566   6.135   3.013   3.079
 6556SOL    HW120567   6.124   3.101   3.033
 6556SOL    HW220568   6.063   2.950   3.050
 6557SOL     OW20569   2.568   0.871   3.448
 6557SOL    HW120570   2.473   0.902   3.442
 6557SOL    HW220571   2.590   0.849   3.543
 6558SOL     OW20572   6.195   5.726   0.539
 6558SOL    HW120573   6.203   5.701   0.442
 6558SOL    HW220574   6.114   5.784   0.552
 6559SOL     OW20575   0.036   3.917   6.261
 6559SOL    HW120576   0.124   3.879   6.291
 6559SOL    HW220577   0.031   4.014   6.286
 6560SOL     OW20578   3.788   4.748   1.174
 6560SOL    HW120579   3.722   4.779   1.243
 6560SOL    HW220580   3.852   4.823   1.155
 6561SOL     OW20581   3.379   4.418   0.978
 6561SOL    HW120582   3.345   4.421   1.072
 6561SOL    HW220583   3.307   4.448   0.916
 6562SOL     OW20584   5.619   1.905   0.623
 6562SOL    HW120585   5.523   1.932   0.622
 6562SOL    HW220586   5.654   1.908   0.716
 6563SOL     OW20587   4.977   6.458   5.856
 6563SOL    HW120588   4.940   6.455   5.949
 6563SOL    HW220589   5.052   6.524   5.851
 6564SOL     OW20590   6.276   3.346   1.649
 6564SOL    HW120591   6.371   3.332   1.676
 6564SOL    HW220592   6.227   3.394   1.722
 6565SOL     OW20593   6.193   6.714   3.031
 6565SOL    HW120594   6.278   6.662   3.035
 6565SOL    HW220595   6.192   6.772   2.950
 6566SOL     OW20596   3.559   6.238   2.750
 6566SOL    HW120597   3.547   6.184   2.833
 6566SOL    HW220598   3.531   6.332   2.766
 6567SOL     OW20599   5.084   1.017   2.063
 6567SOL    HW120600   5.094   1.090   2.131
 6567SOL    HW220601   5.092   0.928   2.108
 6568SOL     OW20602   3.573   1.849   3.506
 6568SOL    HW120603   3.560   1.787   3.584
 6568SOL    HW220604   3.607   1.937   3.539
 6569SOL     OW20605   2.340   2.464   6.743
 6569SOL    HW120606   2.413   2.401   6.770
 6569SOL    HW220607   2.295   2.500   6.825
 6570SOL     OW20608   3.024   1.193   2.825
 6570SOL    HW120609   2.983   1.165   2.912
 6570SOL    HW220610   3.091   1.265   2.841
 6571SOL     OW20611   2.722   4.929   2.549
 6571SOL    HW120612   2.801   4.875   2.578
 6571SOL    HW220613   2.739   4.968   2.458
 6572SOL     OW20614   0.081   4.833   4.032
 6572SOL    HW120615   7.023   4.813   3.982
 6572SOL    HW220616   0.058   4.859   4.126
 6573SOL     OW20617   0.614   1.570   3.032
 6573SOL    HW120618   0.515   1.568   3.049
 6573SOL    HW220619   0.661   1.610   3.110
 6574SOL     OW20620   2.630   5.660   2.859
 6574SOL    HW120621   2.560   5.601   2.818
 6574SOL    HW220622   2.720   5.633   2.825
 6575SOL     OW20623   0.305   6.499   3.314
 6575SOL    HW120624   0.314   6.468   3.219
 6575SOL    HW220625   0.209   6.495   3.342
 6576SOL     OW20626   3.249   6.096   0.958
 6576SOL    HW120627   3.216   6.190   0.948
 6576SOL    HW220628   3.179   6.033   0.923
 6577SOL     OW20629   1.416   1.964   3.373
 6577SOL    HW120630   1.435   1.959   3.471
 6577SOL    HW220631   1.385   2.056   3.350
 6578SOL     OW20632   1.012   6.206   1.954
 6578SOL    HW120633   1.035   6.208   1.857
 6578SOL    HW220634   0.914   6.225   1.966
 6579SOL     OW20635   6.657   3.079   3.878
 6579SOL    HW120636   6.631   2.992   3.837
 6579SOL    HW220637   6.656   3.071   3.978
 6580SOL     OW20638   0.583   2.036   7.014
 6580SOL    HW120639   0.540   2.094   0.056
 6580SOL    HW220640   0.525   2.031   6.932
 6581SOL     OW20641   2.053   0.874   0.821
 6581SOL    HW120642   2.098   0.796   0.777
 6581SOL    HW220643   2.055   0.863   0.920
 6582SOL     OW20644   6.895   0.974   2.817
 6582SOL    HW120645   6.891   1.073   2.811
 6582SOL    HW220646   6.977   0.941   2.769
 6583SOL     OW20647   4.756   6.225   5.263
 6583SOL    HW120648   4.803   6.153   5.212
 6583SOL    HW220649   4.804   6.312   5.249
 6584SOL     OW20650   4.063   1.894   0.149
 6584SOL    HW120651   4.074   1.814   0.089
 6584SOL    HW220652   3.972   1.891   0.190
 6585SOL     OW20653   6.394   6.088   0.079
 6585SOL    HW120654   6.342   6.174   0.076
 6585SOL    HW220655   6.400   6.049   7.013
 6586SOL     OW20656   6.576   1.680   5.810
 6586SOL    HW120657   6.604   1.596   5.764
 6586SOL    HW220658   6.611   1.759   5.760
 6587SOL     OW20659   1.480   4.736   6.782
 6587SOL    HW120660   1.528   4.652   6.758
 6587SOL    HW220661   1.434   4.773   6.702
 6588SOL     OW20662   0.591   2.823   1.815
 6588SOL    HW120663   0.644   2.781   1.888
 6588SOL    HW220664   0.503   2.776   1.806
 6589SOL     OW20665   4.652   0.883   1.823
 6589SOL    HW120666   4.666   0.879   1.922
 6589SOL    HW220667   4.573   0.942   1.803
 6590SOL     OW20668   0.891   0.628   6.161
 6590SOL    HW120669   0.975   0.586   6.198
 6590SOL    HW220670   0.816   0.563   6.170
 6591SOL     OW20671   5.352   6.032   3.956
 6591SOL    HW120672   5.309   6.058   4.043
 6591SOL    HW220673   5.301   6.071   3.880
 6592SOL     OW20674   5.152   5.964   2.985
 6592SOL    HW120675   5.169   6.038   3.050
 6592SOL    HW220676   5.054   5.956   2.968
 6593SOL     OW20677   2.736   2.331   2.338
 6593SOL    HW120678   2.654   2.277   2.319
 6593SOL    HW220679   2.805   2.311   2.269
 6594SOL     OW20680   3.478   1.461   5.710
 6594SOL    HW120681   3.430   1.513   5.640
 6594SOL    HW220682   3.466   1.505   5.799
 6595SOL     OW20683   1.051   4.142   6.548
 6595SOL    HW120684   1.033   4.233   6.512
 6595SOL    HW220685   1.144   4.139   6.585
 6596SOL     OW20686   3.716   6.994   4.201
 6596SOL    HW120687   3.730   0.023   4.119
 6596SOL    HW220688   3.629   6.945   4.193
 6597SOL     OW20689   1.946   5.068   1.973
 6597SOL    HW120690   2.014   4.994   1.977
 6597SOL    HW220691   1.857   5.029   1.948
 6598SOL     OW20692   2.003   4.759   3.308
 6598SOL    HW120693   2.005   4.747   3.407
 6598SOL    HW220694   2.032   4.852   3.285
 6599SOL     OW20695   4.467   6.026   6.634
 6599SOL    HW120696   4.509   5.978   6.711
 6599SOL    HW220697   4.538   6.056   6.570
 6600SOL     OW20698   4.052   6.356   4.551
 6600SOL    HW120699   4.140   6.377   4.510
 6600SOL    HW220700   4.022   6.434   4.607
 6601SOL     OW20701   0.771   2.063   3.943
 6601SOL    HW120702   0.768   1.997   4.018
 6601SOL    HW220703   0.709   2.034   3.871
 6602SOL     OW20704   1.499   0.458   1.213
 6602SOL    HW120705   1.433   0.533   1.226
 6602SOL    HW220706   1.584   0.495   1.175
 6603SOL     OW20707   0.731   3.065   3.762
 6603SOL    HW120708   0.735   3.165   3.764
 6603SOL    HW220709   0.641   3.035   3.793
 6604SOL     OW20710   2.131   6.280   1.694
 6604SOL    HW120711   2.203   6.281   1.625
 6604SOL    HW220712   2.058   6.343   1.667
 6605SOL     OW20713   5.571   5.118   2.368
 6605SOL    HW120714   5.484   5.148   2.329
 6605SOL    HW220715   5.645   5.146   2.308
 6606SOL     OW20716   6.655   4.993   2.210
 6606SOL    HW120717   6.565   4.986   2.252
 6606SOL    HW220718   6.697   5.080   2.237
 6607SOL     OW20719   0.600   4.846   3.464
 6607SOL    HW120720   0.666   4.771   3.477
 6607SOL    HW220721   0.535   4.820   3.392
 6608SOL     OW20722   0.056   6.424   6.742
 6608SOL    HW120723   0.131   6.363   6.766
 6608SOL    HW220724   7.000   6.396   6.791
 6609SOL     OW20725   5.570   1.432   0.075
 6609SOL    HW120726   5.590   1.384   0.161
 6609SOL    HW220727   5.632   1.399   0.004
 6610SOL     OW20728   2.579   6.743   0.201
 6610SOL    HW120729   2.673   6.717   0.179
 6610SOL    HW220730   2.571   6.763   0.299
 6611SOL     OW20731   4.792   3.007   3.296
 6611SOL    HW120732   4.771   2.960   3.210
 6611SOL    HW220733   4.804   2.939   3.369
 6612SOL     OW20734   6.986   2.221   6.314
 6612SOL    HW120735   6.921   2.149   6.338
 6612SOL    HW220736   7.015   2.210   6.219
 6613SOL     OW20737   6.379   6.384   5.769
 6613SOL    HW120738   6.406   6.328   5.691
 6613SOL    HW220739   6.431   6.356   5.850
 6614SOL     OW20740   4.481   6.385   6.861
 6614SOL    HW120741   4.505   6.290   6.878
 6614SOL    HW220742   4.530   6.445   6.924
 6615SOL     OW20743   1.343   5.600   1.820
 6615SOL    HW120744   1.296   5.615   1.907
 6615SOL    HW220745   1.369   5.503   1.813
 6616SOL     OW20746   4.492   0.338   6.401
 6616SOL    HW120747   4.579   0.388   6.394
 6616SOL    HW220748   4.506   0.255   6.455
 6617SOL     OW20749   4.338   6.062   3.486
 6617SOL    HW120750   4.334   6.123   3.564
 6617SOL    HW220751   4.421   6.006   3.492
 6618SOL     OW20752   1.420   1.546   2.737
 6618SOL    HW120753   1.336   1.595   2.758
 6618SOL    HW220754   1.492   1.573   2.801
 6619SOL     OW20755   5.204   0.451   4.075
 6619SOL    HW120756   5.180   0.366   4.027
 6619SOL    HW220757   5.228   0.430   4.170
 6620SOL     OW20758   1.946   3.400   5.244
 6620SOL    HW120759   1.905   3.349   5.169
 6620SOL    HW220760   2.045   3.401   5.234
 6621SOL     OW20761   3.722   3.007   5.295
 6621SOL    HW120762   3.752   3.075   5.362
 6621SOL    HW220763   3.700   3.053   5.208
 6622SOL     OW20764   6.095   6.147   2.160
 6622SOL    HW120765   6.051   6.072   2.110
 6622SOL    HW220766   6.092   6.127   2.258
 6623SOL     OW20767   3.506   3.568   5.205
 6623SOL    HW120768   3.558   3.546   5.123
 6623SOL    HW220769   3.416   3.603   5.180
 6624SOL     OW20770   0.642   4.107   5.360
 6624SOL    HW120771   0.560   4.081   5.411
 6624SOL    HW220772   0.718   4.123   5.423
 6625SOL     OW20773   5.181   1.973   4.877
 6625SOL    HW120774   5.215   1.896   4.823
 6625SOL    HW220775   5.243   1.988   4.954
 6626SOL     OW20776   3.227   6.908   5.753
 6626SOL    HW120777   3.265   6.834   5.808
 6626SOL    HW220778   3.203   6.985   5.813
 6627SOL     OW20779   1.671   6.589   3.749
 6627SOL    HW120780   1.643   6.653   3.820
 6627SOL    HW220781   1.750   6.536   3.781
 6628SOL     OW20782   5.739   4.727   4.247
 6628SOL    HW120783   5.656   4.743   4.193
 6628SOL    HW220784   5.776   4.815   4.276
 6629SOL     OW20785   5.100   5.824   6.248
 6629SOL    HW120786   5.069   5.730   6.260
 6629SOL    HW220787   5.045   5.869   6.177
 6630SOL     OW20788   3.582   2.336   1.446
 6630SOL    HW120789   3.662   2.371   1.495
 6630SOL    HW220790   3.598   2.242   1.418
 6631SOL     OW20791   2.172   5.828   4.146
 6631SOL    HW120792   2.257   5.861   4.106
 6631SOL    HW220793   2.095   5.860   4.092
 6632SOL     OW20794   0.695   0.940   1.163
 6632SOL    HW120795   0.661   0.936   1.257
 6632SOL    HW220796   0.752   0.860   1.145
 6633SOL     OW20797   2.170   5.394   6.214
 6633SOL    HW120798   2.130   5.485   6.199
 6633SOL    HW220799   2.097   5.329   6.234
 6634SOL     OW20800   5.219   1.875   5.203
 6634SOL    HW120801   5.192   1.962   5.245
 6634SOL    HW220802   5.294   1.891   5.139
 6635SOL     OW20803   4.834   4.623   3.856
 6635SOL    HW120804   4.763   4.692   3.863
 6635SOL    HW220805   4.792   4.532   3.848
 6636SOL     OW20806   4.377   1.797   0.342
 6636SOL    HW120807   4.388   1.748   0.255
 6636SOL    HW220808   4.299   1.859   0.336
 6637SOL     OW20809   1.992   6.755   0.008
 6637SOL    HW120810   1.926   6.795   0.072
 6637SOL    HW220811   2.052   6.693   0.057
 6638SOL     OW20812   2.926   3.296   3.024
 6638SOL    HW120813   2.913   3.343   2.937
 6638SOL    HW220814   2.852   3.322   3.087
 6639SOL     OW20815   4.263   4.292   0.111
 6639SOL    HW120816   4.188   4.239   0.149
 6639SOL    HW220817   4.262   4.285   0.011
 6640SOL     OW20818   0.122   2.010   5.357
 6640SOL    HW120819   0.063   1.930   5.363
 6640SOL    HW220820   0.157   2.019   5.264
 6641SOL     OW20821   3.305   1.657   0.256
 6641SOL    HW120822   3.317   1.562   0.227
 6641SOL    HW220823   3.392   1.693   0.290
 6642SOL     OW20824   2.999   5.711   6.585
 6642SOL    HW120825   3.036   5.681   6.497
 6642SOL    HW220826   2.932   5.784   6.570
 6643SOL     OW20827   6.191   6.291   0.079
 6643SOL    HW120828   6.114   6.238   0.115
 6643SOL    HW220829   6.157   6.374   0.036
 6644SOL     OW20830   2.247   5.933   2.330
 6644SOL    HW120831   2.240   5.838   2.361
 6644SOL    HW220832   2.262   5.936   2.231
 6645SOL     OW20833   5.214   3.896   0.732
 6645SOL    HW120834   5.172   3.890   0.823
 6645SOL    HW220835   5.194   3.812   0.681
 6646SOL     OW20836   4.854   1.531   5.276
 6646SOL    HW120837   4.849   1.514   5.177
 6646SOL    HW220838   4.901   1.618   5.292
 6647SOL     OW20839   4.418   0.232   0.069
 6647SOL    HW120840   4.453   0.245   0.162
 6647SOL    HW220841   4.369   0.145   0.064
 6648SOL     OW20842   3.271   6.785   4.647
 6648SOL    HW120843   3.230   6.803   4.558
 6648SOL    HW220844   3.206   6.810   4.719
 6649SOL     OW20845   6.373   2.011   5.929
 6649SOL    HW120846   6.366   1.948   5.851
 6649SOL    HW220847   6.300   2.079   5.924
 6650SOL     OW20848   3.640   1.733   4.853
 6650SOL    HW120849   3.689   1.768   4.932
 6650SOL    HW220850   3.549   1.774   4.848
 6651SOL     OW20851   1.577   1.407   5.871
 6651SOL    HW120852   1.510   1.440   5.805
 6651SOL    HW220853   1.529   1.369   5.951
 6652SOL     OW20854   0.373   4.673   6.646
 6652SOL    HW120855   0.367   4.576   6.673
 6652SOL    HW220856   0.290   4.698   6.595
 6653SOL     OW20857   4.439   2.936   1.077
 6653SOL    HW120858   4.462   2.875   1.002
 6653SOL    HW220859   4.505   2.925   1.152
 6654SOL     OW20860   1.865   5.490   2.087
 6654SOL    HW120861   1.765   5.489   2.095
 6654SOL    HW220862   1.901   5.399   2.106
 6655SOL     OW20863   6.432   6.288   2.830
 6655SOL    HW120864   6.521   6.246   2.852
 6655SOL    HW220865   6.400   6.252   2.743
 6656SOL     OW20866   6.071   2.219   3.061
 6656SOL    HW120867   6.010   2.149   3.099
 6656SOL    HW220868   6.045   2.237   2.966
 6657SOL     OW20869   6.181   3.582   4.813
 6657SOL    HW120870   6.231   3.632   4.743
 6657SOL    HW220871   6.086   3.570   4.783
 6658SOL     OW20872   5.258   0.087   5.767
 6658SOL    HW120873   5.237   0.179   5.734
 6658SOL    HW220874   5.205   0.020   5.716
 6659SOL     OW20875   1.856   2.804   1.130
 6659SOL    HW120876   1.762   2.838   1.131
 6659SOL    HW220877   1.878   2.764   1.219
 6660SOL     OW20878   1.187   5.034   1.586
 6660SOL    HW120879   1.161   5.087   1.667
 6660SOL    HW220880   1.284   5.049   1.566
 6661SOL     OW20881   2.543   0.100   5.194
 6661SOL    HW120882   2.608   0.142   5.131
 6661SOL    HW220883   2.588   0.023   5.241
 6662SOL     OW20884   1.388   1.120   0.440
 6662SOL    HW120885   1.483   1.099   0.463
 6662SOL    HW220886   1.329   1.048   0.477
 6663SOL     OW20887   6.548   6.619   4.944
 6663SOL    HW120888   6.630   6.569   4.971
 6663SOL    HW220889   6.514   6.583   4.857
 6664SOL     OW20890   1.969   6.850   1.007
 6664SOL    HW120891   1.938   6.939   1.039
 6664SOL    HW220892   2.002   6.796   1.085
 6665SOL     OW20893   1.815   0.001   4.843
 6665SOL    HW120894   1.774   0.081   4.799
 6665SOL    HW220895   1.915   0.009   4.840
 6666SOL     OW20896   6.386   5.962   5.549
 6666SOL    HW120897   6.448   5.920   5.482
 6666SOL    HW220898   6.441   6.001   5.623
 6667SOL     OW20899   6.880   6.721   5.544
 6667SOL    HW120900   6.813   6.720   5.619
 6667SOL    HW220901   6.886   6.630   5.504
 6668SOL     OW20902   6.422   6.359   0.870
 6668SOL    HW120903   6.386   6.378   0.961
 6668SOL    HW220904   6.519   6.335   0.876
 6669SOL     OW20905   3.072   2.134   2.020
 6669SOL    HW120906   3.149   2.115   2.081
 6669SOL    HW220907   3.004   2.189   2.067
 6670SOL     OW20908   2.906   1.150   5.865
 6670SOL    HW120909   2.962   1.206   5.926
 6670SOL    HW220910   2.919   1.054   5.886
 6671SOL     OW20911   5.120   6.704   0.105
 6671SOL    HW120912   5.181   6.634   0.068
 6671SOL    HW220913   5.142   6.720   0.201
 6672SOL     OW20914   6.960   1.888   0.388
 6672SOL    HW120915   0.032   1.904   0.391
 6672SOL    HW220916   6.914   1.944   0.457
 6673SOL     OW20917   4.696   4.231   3.437
 6673SOL    HW120918   4.738   4.165   3.374
 6673SOL    HW220919   4.685   4.190   3.527
 6674SOL     OW20920   6.813   4.310   0.294
 6674SOL    HW120921   6.892   4.352   0.340
 6674SOL    HW220922   6.837   4.217   0.266
 6675SOL     OW20923   6.347   2.854   7.007
 6675SOL    HW120924   6.297   2.936   6.979
 6675SOL    HW220925   6.308   2.819   0.066
 6676SOL     OW20926   0.477   3.512   4.860
 6676SOL    HW120927   0.556   3.467   4.902
 6676SOL    HW220928   0.488   3.612   4.868
 6677SOL     OW20929   0.678   1.365   6.707
 6677SOL    HW120930   0.654   1.377   6.611
 6677SOL    HW220931   0.705   1.453   6.746
 6678SOL     OW20932   3.029   4.314   0.620
 6678SOL    HW120933   3.074   4.265   0.545
 6678SOL    HW220934   3.054   4.272   0.707
 6679SOL     OW20935   3.946   0.200   3.958
 6679SOL    HW120936   3.970   0.258   3.879
 6679SOL    HW220937   3.958   0.252   4.042
 6680SOL     OW20938   4.346   6.633   6.606
 6680SOL    HW120939   4.275   6.599   6.544
 6680SOL    HW220940   4.304   6.670   6.689
 6681SOL     OW20941   4.794   5.953   0.521
 6681SOL    HW120942   4.863   6.008   0.567
 6681SOL    HW220943   4.821   5.936   0.426
 6682SOL     OW20944   2.045   4.974   0.093
 6682SOL    HW120945   2.064   5.028   0.176
 6682SOL    HW220946   2.111   4.899   0.087
 6683SOL     OW20947   5.802   3.074   5.177
 6683SOL    HW120948   5.892   3.069   5.222
 6683SOL    HW220949   5.740   3.130   5.231
 6684SOL     OW20950   3.939   6.566   2.215
 6684SOL    HW120951   3.890   6.653   2.206
 6684SOL    HW220952   3.975   6.558   2.308
 6685SOL     OW20953   4.687   2.788   6.194
 6685SOL    HW120954   4.640   2.804   6.280
 6685SOL    HW220955   4.749   2.865   6.175
 6686SOL     OW20956   5.472   5.786   3.887
 6686SOL    HW120957   5.416   5.869   3.896
 6686SOL    HW220958   5.458   5.728   3.967
 6687SOL     OW20959   0.699   3.132   2.068
 6687SOL    HW120960   0.782   3.078   2.082
 6687SOL    HW220961   0.619   3.072   2.065
 6688SOL     OW20962   3.716   5.140   1.226
 6688SOL    HW120963   3.750   5.174   1.314
 6688SOL    HW220964   3.789   5.143   1.158
 6689SOL     OW20965   5.040   4.220   5.683
 6689SOL    HW120966   5.051   4.159   5.606
 6689SOL    HW220967   4.950   4.205   5.724
 6690SOL     OW20968   0.629   0.012   0.876
 6690SOL    HW120969   0.540   6.998   0.895
 6690SOL    HW220970   0.683   0.015   0.960
 6691SOL     OW20971   2.036   0.731   2.536
 6691SOL    HW120972   2.038   0.716   2.635
 6691SOL    HW220973   2.130   0.733   2.501
 6692SOL     OW20974   4.050   3.869   3.134
 6692SOL    HW120975   4.090   3.801   3.073
 6692SOL    HW220976   4.067   3.960   3.098
 6693SOL     OW20977   4.523   2.212   5.091
 6693SOL    HW120978   4.469   2.248   5.015
 6693SOL    HW220979   4.540   2.285   5.157
 6694SOL     OW20980   4.131   6.117   1.690
 6694SOL    HW120981   4.116   6.214   1.711
 6694SOL    HW220982   4.043   6.073   1.672
 6695SOL     OW20983   2.693   2.232   6.234
 6695SOL    HW120984   2.659   2.319   6.198
 6695SOL    HW220985   2.754   2.190   6.166
 6696SOL     OW20986   3.646   2.897   4.152
 6696SOL    HW120987   3.665   2.869   4.058
 6696SOL    HW220988   3.732   2.922   4.197
 6697SOL     OW20989   4.698   2.037   3.068
 6697SOL    HW120990   4.784   2.050   3.019
 6697SOL    HW220991   4.715   2.038   3.167
 6698SOL     OW20992   2.776   3.107   1.063
 6698SOL    HW120993   2.785   3.201   1.096
 6698SOL    HW220994   2.683   3.092   1.030
 6699SOL     OW20995   2.017   6.646   5.579
 6699SOL    HW120996   2.067   6.605   5.655
 6699SOL    HW220997   2.081   6.693   5.518
 6700SOL     OW20998   6.931   1.755   1.240
 6700SOL    HW120999   6.945   1.724   1.146
 6700SOL    HW221000   7.017   1.749   1.291
 6701SOL     OW21001   5.338   5.102   1.264
 6701SOL    HW121002   5.391   5.185   1.248
 6701SOL    HW221003   5.396   5.032   1.307
 6702SOL     OW21004   2.036   2.425   1.472
 6702SOL    HW121005   1.948   2.425   1.518
 6702SOL    HW221006   2.110   2.423   1.540
 6703SOL     OW21007   6.670   0.270   0.788
 6703SOL    HW121008   6.756   0.288   0.836
 6703SOL    HW221009   6.670   0.319   0.701
 6704SOL     OW21010   3.763   2.120   3.444
 6704SOL    HW121011   3.731   2.090   3.355
 6704SOL    HW221012   3.842   2.181   3.432
 6705SOL     OW21013   5.852   2.905   0.261
 6705SOL    HW121014   5.863   2.908   0.162
 6705SOL    HW221015   5.834   2.811   0.290
 6706SOL     OW21016   0.675   5.856   1.108
 6706SOL    HW121017   0.692   5.929   1.041
 6706SOL    HW221018   0.761   5.835   1.156
 6707SOL     OW21019   5.585   6.463   3.390
 6707SOL    HW121020   5.559   6.456   3.486
 6707SOL    HW221021   5.563   6.555   3.356
 6708SOL     OW21022   5.715   5.334   1.570
 6708SOL    HW121023   5.630   5.283   1.581
 6708SOL    HW221024   5.730   5.354   1.473
 6709SOL     OW21025   1.374   5.572   2.814
 6709SOL    HW121026   1.329   5.641   2.872
 6709SOL    HW221027   1.309   5.539   2.745
 6710SOL     OW21028   3.770   0.716   6.330
 6710SOL    HW121029   3.710   0.755   6.259
 6710SOL    HW221030   3.808   0.790   6.386
 6711SOL     OW21031   5.108   6.336   5.648
 6711SOL    HW121032   5.078   6.375   5.735
 6711SOL    HW221033   5.208   6.342   5.642
 6712SOL     OW21034   5.551   3.542   1.260
 6712SOL    HW121035   5.522   3.451   1.290
 6712SOL    HW221036   5.649   3.541   1.240
 6713SOL     OW21037   0.989   0.846   3.479
 6713SOL    HW121038   0.909   0.824   3.424
 6713SOL    HW221039   1.000   0.945   3.483
 6714SOL     OW21040   6.878   1.684   6.148
 6714SOL    HW121041   6.964   1.638   6.129
 6714SOL    HW221042   6.873   1.708   6.245
 6715SOL     OW21043   1.710   0.615   1.048
 6715SOL    HW121044   1.662   0.701   1.063
 6715SOL    HW221045   1.798   0.618   1.096
 6716SOL     OW21046   7.023   5.676   1.783
 6716SOL    HW121047   0.063   5.609   1.749
 6716SOL    HW221048   0.016   5.696   1.879
 6717SOL     OW21049   3.081   3.222   6.395
 6717SOL    HW121050   3.040   3.182   6.313
 6717SOL    HW221051   3.101   3.318   6.379
 6718SOL     OW21052   4.531   0.274   0.897
 6718SOL    HW121053   4.547   0.373   0.895
 6718SOL    HW221054   4.434   0.255   0.881
 6719SOL     OW21055   2.327   6.933   0.294
 6719SOL    HW121056   2.319   6.916   0.392
 6719SOL    HW221057   2.417   6.902   0.262
 6720SOL     OW21058   2.021   0.610   3.544
 6720SOL    HW121059   1.938   0.596   3.598
 6720SOL    HW221060   2.046   0.524   3.499
 6721SOL     OW21061   0.220   6.410   0.468
 6721SOL    HW121062   0.140   6.354   0.445
 6721SOL    HW221063   0.295   6.351   0.498
 6722SOL     OW21064   6.535   2.576   0.514
 6722SOL    HW121065   6.522   2.636   0.435
 6722SOL    HW221066   6.477   2.495   0.504
 6723SOL     OW21067   1.338   0.143   4.762
 6723SOL    HW121068   1.243   0.169   4.778
 6723SOL    HW221069   1.378   0.108   4.846
 6724SOL     OW21070   2.256   3.024   6.394
 6724SOL    HW121071   2.294   2.951   6.337
 6724SOL    HW221072   2.289   3.013   6.488
 6725SOL     OW21073   6.753   2.147   1.660
 6725SOL    HW121074   6.714   2.156   1.568
 6725SOL    HW221075   6.703   2.205   1.724
 6726SOL     OW21076   0.585   2.626   3.768
 6726SOL    HW121077   0.530   2.570   3.831
 6726SOL    HW221078   0.532   2.708   3.743
 6727SOL     OW21079   0.310   5.034   5.428
 6727SOL    HW121080   0.384   5.025   5.495
 6727SOL    HW221081   0.222   5.026   5.475
 6728SOL     OW21082   3.790   1.996   2.816
 6728SOL    HW121083   3.858   1.995   2.743
 6728SOL    HW221084   3.830   1.958   2.899
 6729SOL     OW21085   0.281   1.282   0.526
 6729SOL    HW121086   0.312   1.191   0.500
 6729SOL    HW221087   0.285   1.342   0.446
 6730SOL     OW21088   1.744   6.668   1.311
 6730SOL    HW121089   1.734   6.766   1.331
 6730SOL    HW221090   1.781   6.656   1.219
 6731SOL     OW21091   1.536   6.531   1.169
 6731SOL    HW121092   1.495   6.589   1.098
 6731SOL    HW221093   1.597   6.587   1.226
 6732SOL     OW21094   5.963   4.139   4.586
 6732SOL    HW121095   6.018   4.220   4.565
 6732SOL    HW221096   5.991   4.063   4.527
 6733SOL     OW21097   3.778   5.567   6.521
 6733SOL    HW121098   3.722   5.594   6.599
 6733SOL    HW221099   3.816   5.648   6.477
 6734SOL     OW21100   6.084   2.676   5.324
 6734SOL    HW121101   6.152   2.693   5.253
 6734SOL    HW221102   6.017   2.750   5.324
 6735SOL     OW21103   6.040   3.459   4.574
 6735SOL    HW121104   5.955   3.497   4.610
 6735SOL    HW221105   6.087   3.528   4.519
 6736SOL     OW21106   2.858   3.369   6.799
 6736SOL    HW121107   2.834   3.337   6.891
 6736SOL    HW221108   2.887   3.465   6.804
 6737SOL     OW21109   1.919   3.237   0.907
 6737SOL    HW121110   1.880   3.199   0.990
 6737SOL    HW221111   1.992   3.177   0.873
 6738SOL     OW21112   1.835   5.799   3.731
 6738SOL    HW121113   1.859   5.740   3.654
 6738SOL    HW221114   1.745   5.774   3.767
 6739SOL     OW21115   5.391   6.780   4.147
 6739SOL    HW121116   5.381   6.683   4.129
 6739SOL    HW221117   5.323   6.809   4.213
 6740SOL     OW21118   6.859   0.144   5.643
 6740SOL    HW121119   6.943   0.096   5.619
 6740SOL    HW221120   6.809   0.167   5.560
 6741SOL     OW21121   3.379   2.809   5.547
 6741SOL    HW121122   3.337   2.873   5.482
 6741SOL    HW221123   3.403   2.725   5.499
 6742SOL     OW21124   5.781   5.607   3.060
 6742SOL    HW121125   5.748   5.598   3.154
 6742SOL    HW221126   5.725   5.675   3.011
 6743SOL     OW21127   3.599   4.556   6.484
 6743SOL    HW121128   3.632   4.613   6.559
 6743SOL    HW221129   3.641   4.585   6.398
 6744SOL     OW21130   6.827   5.428   5.467
 6744SOL    HW121131   6.916   5.384   5.454
 6744SOL    HW221132   6.756   5.372   5.425
 6745SOL     OW21133   6.801   6.403   3.282
 6745SOL    HW121134   6.853   6.445   3.357
 6745SOL    HW221135   6.809   6.460   3.200
 6746SOL     OW21136   0.582   0.243   3.913
 6746SOL    HW121137   0.509   0.296   3.956
 6746SOL    HW221138   0.554   0.147   3.909
 6747SOL     OW21139   5.958   1.038   6.476
 6747SOL    HW121140   5.879   0.986   6.443
 6747SOL    HW221141   5.931   1.133   6.489
 6748SOL     OW21142   3.740   1.721   3.273
 6748SOL    HW121143   3.741   1.622   3.260
 6748SOL    HW221144   3.672   1.745   3.342
 6749SOL     OW21145   3.629   4.302   0.593
 6749SOL    HW121146   3.664   4.235   0.658
 6749SOL    HW221147   3.599   4.384   0.643
 6750SOL     OW21148   3.687   2.155   4.222
 6750SOL    HW121149   3.669   2.091   4.147
 6750SOL    HW221150   3.604   2.164   4.277
 6751SOL     OW21151   5.225   0.107   3.234
 6751SOL    HW121152   5.154   0.177   3.219
 6751SOL    HW221153   5.295   0.144   3.294
 6752SOL     OW21154   2.064   6.615   2.646
 6752SOL    HW121155   2.125   6.662   2.583
 6752SOL    HW221156   2.021   6.682   2.707
 6753SOL     OW21157   3.268   1.302   6.143
 6753SOL    HW121158   3.286   1.206   6.121
 6753SOL    HW221159   3.346   1.358   6.115
 6754SOL     OW21160   6.808   0.892   0.527
 6754SOL    HW121161   6.902   0.926   0.524
 6754SOL    HW221162   6.763   0.927   0.609
 6755SOL     OW21163   4.308   2.226   1.638
 6755SOL    HW121164   4.366   2.260   1.564
 6755SOL    HW221165   4.325   2.129   1.652
 6756SOL     OW21166   3.768   6.593   5.078
 6756SOL    HW121167   3.861   6.558   5.086
 6756SOL    HW221168   3.763   6.656   5.000
 6757SOL     OW21169   2.965   2.293   0.303
 6757SOL    HW121170   3.004   2.371   0.253
 6757SOL    HW221171   3.014   2.210   0.278
 6758SOL     OW21172   6.127   2.213   1.874
 6758SOL    HW121173   6.143   2.269   1.956
 6758SOL    HW221174   6.140   2.270   1.793
 6759SOL     OW21175   1.256   3.892   2.883
 6759SOL    HW121176   1.223   3.909   2.790
 6759SOL    HW221177   1.201   3.819   2.924
 6760SOL     OW21178   0.185   3.391   2.177
 6760SOL    HW121179   0.161   3.435   2.263
 6760SOL    HW221180   0.115   3.412   2.109
 6761SOL     OW21181   6.439   2.446   5.036
 6761SOL    HW121182   6.345   2.480   5.029
 6761SOL    HW221183   6.457   2.383   4.960
 6762SOL     OW21184   0.981   4.491   4.882
 6762SOL    HW121185   1.012   4.469   4.789
 6762SOL    HW221186   1.048   4.458   4.948
 6763SOL     OW21187   6.739   5.779   3.739
 6763SOL    HW121188   6.648   5.783   3.782
 6763SOL    HW221189   6.778   5.871   3.735
 6764SOL     OW21190   2.056   5.547   1.498
 6764SOL    HW121191   1.970   5.596   1.485
 6764SOL    HW221192   2.132   5.610   1.485
 6765SOL     OW21193   5.728   4.959   3.916
 6765SOL    HW121194   5.708   5.030   3.983
 6765SOL    HW221195   5.746   4.872   3.962
 6766SOL     OW21196   4.953   6.513   5.506
 6766SOL    HW121197   5.027   6.580   5.509
 6766SOL    HW221198   4.980   6.430   5.555
 6767SOL     OW21199   2.062   0.944   1.128
 6767SOL    HW121200   2.034   1.040   1.129
 6767SOL    HW221201   1.987   0.887   1.161
 6768SOL     OW21202   1.609   0.197   4.726
 6768SOL    HW121203   1.512   0.176   4.711
 6768SOL    HW221204   1.646   0.243   4.645
 6769SOL     OW21205   3.022   0.710   6.726
 6769SOL    HW121206   3.036   0.639   6.657
 6769SOL    HW221207   2.934   0.754   6.711
 6770SOL     OW21208   0.020   1.212   2.361
 6770SOL    HW121209   7.009   1.215   2.269
 6770SOL    HW221210   0.068   1.298   2.380
 6771SOL     OW21211   5.153   1.936   3.229
 6771SOL    HW121212   5.166   1.850   3.278
 6771SOL    HW221213   5.098   1.998   3.285
 6772SOL     OW21214   4.001   1.984   2.644
 6772SOL    HW121215   4.077   1.995   2.708
 6772SOL    HW221216   4.022   2.032   2.559
 6773SOL     OW21217   6.236   5.140   2.493
 6773SOL    HW121218   6.221   5.114   2.589
 6773SOL    HW221219   6.265   5.236   2.490
 6774SOL     OW21220   1.008   3.273   5.388
 6774SOL    HW121221   0.977   3.217   5.312
 6774SOL    HW221222   1.043   3.360   5.353
 6775SOL     OW21223   2.425   2.534   2.006
 6775SOL    HW121224   2.515   2.500   1.980
 6775SOL    HW221225   2.354   2.472   1.973
 6776SOL     OW21226   5.110   4.062   0.086
 6776SOL    HW121227   5.055   4.100   0.011
 6776SOL    HW221228   5.103   3.962   0.085
 6777SOL     OW21229   4.519   4.490   0.441
 6777SOL    HW121230   4.480   4.437   0.516
 6777SOL    HW221231   4.459   4.567   0.420
 6778SOL     OW21232   6.146   5.546   2.054
 6778SOL    HW121233   6.205   5.473   2.089
 6778SOL    HW221234   6.192   5.634   2.063
 6779SOL     OW21235   5.458   5.621   6.849
 6779SOL    HW121236   5.430   5.534   6.810
 6779SOL    HW221237   5.455   5.616   6.949
 6780SOL     OW21238   1.006   2.599   2.163
 6780SOL    HW121239   1.083   2.620   2.223
 6780SOL    HW221240   0.925   2.648   2.194
 6781SOL     OW21241   6.721   1.747   3.846
 6781SOL    HW121242   6.713   1.649   3.828
 6781SOL    HW221243   6.629   1.787   3.848
 6782SOL     OW21244   0.189   0.568   2.952
 6782SOL    HW121245   0.163   0.587   3.046
 6782SOL    HW221246   0.113   0.588   2.890
 6783SOL     OW21247   6.067   1.696   5.317
 6783SOL    HW121248   6.001   1.635   5.272
 6783SOL    HW221249   6.105   1.759   5.250
 6784SOL     OW21250   1.840   3.176   0.209
 6784SOL    HW121251   1.763   3.137   0.259
 6784SOL    HW221252   1.881   3.106   0.150
 6785SOL     OW21253   5.887   5.495   4.333
 6785SOL    HW121254   5.934   5.413   4.301
 6785SOL    HW221255   5.801   5.469   4.379
 6786SOL     OW21256   1.434   2.389   0.143
 6786SOL    HW121257   1.509   2.374   0.208
 6786SOL    HW221258   1.467   2.371   0.050
 6787SOL     OW21259   2.226   2.563   0.460
 6787SOL    HW121260   2.144   2.506   0.454
 6787SOL    HW221261   2.257   2.567   0.555
 6788SOL     OW21262   0.983   4.124   1.415
 6788SOL    HW121263   0.978   4.112   1.514
 6788SOL    HW221264   1.034   4.048   1.375
 6789SOL     OW21265   0.461   5.520   2.722
 6789SOL    HW121266   0.404   5.506   2.803
 6789SOL    HW221267   0.444   5.612   2.685
 6790SOL     OW21268   0.150   3.512   0.845
 6790SOL    HW121269   0.240   3.470   0.856
 6790SOL    HW221270   0.137   3.581   0.916
 6791SOL     OW21271   4.049   2.203   1.980
 6791SOL    HW121272   4.088   2.250   1.900
 6791SOL    HW221273   4.008   2.271   2.041
 6792SOL     OW21274   6.276   6.333   5.152
 6792SOL    HW121275   6.294   6.421   5.196
 6792SOL    HW221276   6.253   6.348   5.056
 6793SOL     OW21277   1.777   2.081   0.484
 6793SOL    HW121278   1.758   2.126   0.571
 6793SOL    HW221279   1.703   2.100   0.420
 6794SOL     OW21280   4.497   1.108   6.028
 6794SOL    HW121281   4.463   1.196   5.995
 6794SOL    HW221282   4.498   1.108   6.128
 6795SOL     OW21283   2.422   6.593   1.120
 6795SOL    HW121284   2.427   6.533   1.200
 6795SOL    HW221285   2.377   6.545   1.045
 6796SOL     OW21286   7.007   6.997   2.436
 6796SOL    HW121287   6.910   6.985   2.416
 6796SOL    HW221288   7.026   0.068   2.451
 6797SOL     OW21289   6.532   1.927   1.482
 6797SOL    HW121290   6.461   1.894   1.420
 6797SOL    HW221291   6.574   2.010   1.445
 6798SOL     OW21292   5.123   0.177   2.389
 6798SOL    HW121293   5.067   0.251   2.351
 6798SOL    HW221294   5.170   0.130   2.314
 6799SOL     OW21295   6.802   6.627   2.000
 6799SOL    HW121296   6.841   6.638   2.092
 6799SOL    HW221297   6.703   6.612   2.008
 6800SOL     OW21298   2.123   3.720   2.019
 6800SOL    HW121299   2.164   3.632   1.992
 6800SOL    HW221300   2.143   3.738   2.115
 6801SOL     OW21301   1.071   6.939   3.006
 6801SOL    HW121302   1.009   6.896   3.071
 6801SOL    HW221303   1.129   6.869   2.964
 6802SOL     OW21304   2.903   6.156   1.156
 6802SOL    HW121305   2.915   6.235   1.217
 6802SOL    HW221306   2.806   6.134   1.148
 6803SOL     OW21307   4.397   2.978   5.765
 6803SOL    HW121308   4.452   2.895   5.774
 6803SOL    HW221309   4.328   2.964   5.694
 6804SOL     OW21310   3.267   5.412   3.562
 6804SOL    HW121311   3.304   5.357   3.488
 6804SOL    HW221312   3.333   5.482   3.588
 6805SOL     OW21313   6.981   5.121   5.883
 6805SOL    HW121314   0.009   5.039   5.896
 6805SOL    HW221315   0.014   5.198   5.860
 6806SOL     OW21316   5.650   0.669   3.629
 6806SOL    HW121317   5.581   0.707   3.691
 6806SOL    HW221318   5.740   0.703   3.654
 6807SOL     OW21319   3.403   3.608   1.069
 6807SOL    HW121320   3.340   3.530   1.074
 6807SOL    HW221321   3.435   3.631   1.161
 6808SOL     OW21322   6.698   2.491   5.130
 6808SOL    HW121323   6.604   2.464   5.111
 6808SOL    HW221324   6.719   2.474   5.227
 6809SOL     OW21325   0.870   2.955   1.365
 6809SOL    HW121326   0.810   2.914   1.434
 6809SOL    HW221327   0.960   2.972   1.405
 6810SOL     OW21328   1.289   1.025   2.410
 6810SOL    HW121329   1.292   0.969   2.493
 6810SOL    HW221330   1.324   1.116   2.430
 6811SOL     OW21331   5.833   3.514   1.265
 6811SOL    HW121332   5.875   3.566   1.340
 6811SOL    HW221333   5.881   3.533   1.180
 6812SOL     OW21334   3.018   3.643   4.003
 6812SOL    HW121335   2.957   3.686   4.071
 6812SOL    HW221336   2.977   3.557   3.972
 6813SOL     OW21337   5.171   2.545   2.435
 6813SOL    HW121338   5.265   2.576   2.449
 6813SOL    HW221339   5.110   2.625   2.432
 6814SOL     OW21340   3.514   1.832   6.284
 6814SOL    HW121341   3.527   1.930   6.271
 6814SOL    HW221342   3.568   1.801   6.363
 6815SOL     OW21343   3.323   6.792   1.291
 6815SOL    HW121344   3.381   6.736   1.232
 6815SOL    HW221345   3.304   6.741   1.376
 6816SOL     OW21346   6.583   0.010   6.390
 6816SOL    HW121347   6.498   0.061   6.406
 6816SOL    HW221348   6.631   0.049   6.311
 6817SOL     OW21349   2.513   2.610   3.071
 6817SOL    HW121350   2.540   2.591   3.165
 6817SOL    HW221351   2.561   2.549   3.009
 6818SOL     OW21352   2.484   6.333   2.087
 6818SOL    HW121353   2.396   6.373   2.114
 6818SOL    HW221354   2.550   6.406   2.073
 6819SOL     OW21355   5.154   1.712   3.362
 6819SOL    HW121356   5.081   1.696   3.429
 6819SOL    HW221357   5.202   1.626   3.344
 6820SOL     OW21358   2.386   5.247   2.120
 6820SOL    HW121359   2.482   5.269   2.134
 6820SOL    HW221360   2.335   5.266   2.205
 6821SOL     OW21361   3.491   2.091   4.904
 6821SOL    HW121362   3.575   2.124   4.947
 6821SOL    HW221363   3.424   2.068   4.974
 6822SOL     OW21364   5.202   2.403   6.497
 6822SOL    HW121365   5.135   2.469   6.463
 6822SOL    HW221366   5.278   2.396   6.433
 6823SOL     OW21367   4.352   3.300   5.755
 6823SOL    HW121368   4.336   3.310   5.853
 6823SOL    HW221369   4.346   3.203   5.730
 6824SOL     OW21370   0.835   2.074   6.683
 6824SOL    HW121371   0.909   2.142   6.684
 6824SOL    HW221372   0.747   2.121   6.678
 6825SOL     OW21373   5.207   6.378   1.455
 6825SOL    HW121374   5.129   6.360   1.395
 6825SOL    HW221375   5.175   6.411   1.543
 6826SOL     OW21376   1.767   3.369   3.171
 6826SOL    HW121377   1.826   3.300   3.213
 6826SOL    HW221378   1.673   3.335   3.166
 6827SOL     OW21379   4.509   5.799   5.980
 6827SOL    HW121380   4.524   5.829   5.886
 6827SOL    HW221381   4.539   5.704   5.990
 6828SOL     OW21382   3.013   1.831   1.675
 6828SOL    HW121383   3.098   1.880   1.658
 6828SOL    HW221384   3.002   1.758   1.608
 6829SOL     OW21385   4.597   6.487   5.186
 6829SOL    HW121386   4.560   6.423   5.118
 6829SOL    HW221387   4.694   6.466   5.200
 6830SOL     OW21388   5.019   1.370   3.411
 6830SOL    HW121389   4.944   1.313   3.444
 6830SOL    HW221390   5.013   1.379   3.311
 6831SOL     OW21391   1.191   0.506   6.968
 6831SOL    HW121392   1.193   0.602   6.997
 6831SOL    HW221393   1.130   0.496   6.890
 6832SOL     OW21394   2.650   4.288   1.121
 6832SOL    HW121395   2.712   4.254   1.051
 6832SOL    HW221396   2.619   4.213   1.180
 6833SOL     OW21397   3.192   4.688   6.220
 6833SOL    HW121398   3.206   4.740   6.136
 6833SOL    HW221399   3.164   4.750   6.293
 6834SOL     OW21400   4.883   6.612   1.014
 6834SOL    HW121401   4.978   6.628   1.042
 6834SOL    HW221402   4.829   6.582   1.094
 6835SOL     OW21403   3.991   0.671   4.434
 6835SOL    HW121404   3.909   0.617   4.418
 6835SOL    HW221405   3.986   0.757   4.383
 6836SOL     OW21406   2.508   5.108   0.341
 6836SOL    HW121407   2.526   5.009   0.344
 6836SOL    HW221408   2.502   5.143   0.435
 6837SOL     OW21409   0.340   2.124   2.077
 6837SOL    HW121410   0.353   2.078   2.165
 6837SOL    HW221411   0.429   2.140   2.035
 6838SOL     OW21412   3.563   6.156   0.291
 6838SOL    HW121413   3.517   6.185   0.375
 6838SOL    HW221414   3.643   6.215   0.275
 6839SOL     OW21415   5.349   1.211   6.727
 6839SOL    HW121416   5.356   1.242   6.822
 6839SOL    HW221417   5.303   1.122   6.724
 6840SOL     OW21418   3.577   0.679   4.910
 6840SOL    HW121419   3.516   0.742   4.861
 6840SOL    HW221420   3.573   0.589   4.867
 6841SOL     OW21421   4.170   4.577   6.847
 6841SOL    HW121422   4.246   4.641   6.832
 6841SOL    HW221423   4.202   4.501   6.904
 6842SOL     OW21424   2.414   4.434   1.094
 6842SOL    HW121425   2.496   4.384   1.122
 6842SOL    HW221426   2.375   4.482   1.172
 6843SOL     OW21427   6.159   6.792   1.512
 6843SOL    HW121428   6.226   6.866   1.515
 6843SOL    HW221429   6.205   6.706   1.492
 6844SOL     OW21430   5.498   0.662   3.865
 6844SOL    HW121431   5.414   0.609   3.854
 6844SOL    HW221432   5.518   0.674   3.962
 6845SOL     OW21433   6.324   3.528   2.906
 6845SOL    HW121434   6.315   3.609   2.849
 6845SOL    HW221435   6.282   3.544   2.995
 6846SOL     OW21436   3.784   2.883   6.935
 6846SOL    HW121437   3.866   2.871   6.991
 6846SOL    HW221438   3.801   2.953   6.866
 6847SOL     OW21439   0.432   3.382   4.621
 6847SOL    HW121440   0.450   3.452   4.690
 6847SOL    HW221441   0.418   3.294   4.666
 6848SOL     OW21442   4.978   5.190   3.656
 6848SOL    HW121443   4.886   5.222   3.677
 6848SOL    HW221444   4.975   5.131   3.575
 6849SOL     OW21445   4.865   5.221   5.262
 6849SOL    HW121446   4.917   5.137   5.276
 6849SOL    HW221447   4.786   5.223   5.323
 6850SOL     OW21448   5.434   3.107   2.326
 6850SOL    HW121449   5.496   3.131   2.401
 6850SOL    HW221450   5.376   3.030   2.353
 6851SOL     OW21451   0.141   1.563   2.773
 6851SOL    HW121452   0.193   1.633   2.723
 6851SOL    HW221453   0.125   1.485   2.713
 6852SOL     OW21454   2.560   4.624   1.305
 6852SOL    HW121455   2.602   4.710   1.335
 6852SOL    HW221456   2.462   4.638   1.291
 6853SOL     OW21457   5.560   4.718   6.887
 6853SOL    HW121458   5.513   4.633   6.911
 6853SOL    HW221459   5.658   4.707   6.902
 6854SOL     OW21460   5.162   1.173   5.780
 6854SOL    HW121461   5.064   1.192   5.768
 6854SOL    HW221462   5.211   1.259   5.792
 6855SOL     OW21463   4.495   6.620   4.268
 6855SOL    HW121464   4.496   6.555   4.192
 6855SOL    HW221465   4.419   6.683   4.257
 6856SOL     OW21466   6.949   2.827   5.342
 6856SOL    HW121467   6.991   2.737   5.331
 6856SOL    HW221468   7.012   2.897   5.308
 6857SOL     OW21469   2.380   2.092   6.662
 6857SOL    HW121470   2.426   2.075   6.575
 6857SOL    HW221471   2.369   2.005   6.711
 6858SOL     OW21472   4.082   3.435   2.304
 6858SOL    HW121473   4.082   3.404   2.399
 6858SOL    HW221474   4.110   3.359   2.245
 6859SOL     OW21475   1.105   1.353   0.959
 6859SOL    HW121476   1.109   1.260   0.922
 6859SOL    HW221477   1.196   1.394   0.957
 6860SOL     OW21478   6.814   5.228   1.178
 6860SOL    HW121479   6.767   5.316   1.184
 6860SOL    HW221480   6.773   5.163   1.242
 6861SOL     OW21481   4.070   4.802   0.252
 6861SOL    HW121482   4.041   4.858   0.329
 6861SOL    HW221483   3.990   4.775   0.198
 6862SOL     OW21484   1.215   5.292   6.030
 6862SOL    HW121485   1.296   5.259   6.078
 6862SOL    HW221486   1.162   5.351   6.091
 6863SOL     OW21487   5.362   6.900   5.999
 6863SOL    HW121488   5.334   6.976   5.939
 6863SOL    HW221489   5.316   6.909   6.087
 6864SOL     OW21490   2.259   4.631   4.925
 6864SOL    HW121491   2.283   4.535   4.914
 6864SOL    HW221492   2.200   4.660   4.850
 6865SOL     OW21493   1.181   6.094   4.412
 6865SOL    HW121494   1.175   6.192   4.434
 6865SOL    HW221495   1.138   6.041   4.485
 6866SOL     OW21496   5.628   5.605   3.316
 6866SOL    HW121497   5.632   5.614   3.416
 6866SOL    HW221498   5.537   5.574   3.289
 6867SOL     OW21499   2.066   4.050   2.304
 6867SOL    HW121500   2.083   4.095   2.216
 6867SOL    HW221501   2.004   3.973   2.291
 6868SOL     OW21502   1.677   6.152   6.703
 6868SOL    HW121503   1.588   6.145   6.657
 6868SOL    HW221504   1.663   6.152   6.802
 6869SOL     OW21505   5.041   1.301   6.326
 6869SOL    HW121506   5.060   1.336   6.418
 6869SOL    HW221507   5.073   1.368   6.258
 6870SOL     OW21508   6.904   4.533   1.576
 6870SOL    HW121509   6.896   4.523   1.675
 6870SOL    HW221510   6.978   4.597   1.556
 6871SOL     OW21511   6.343   4.104   3.194
 6871SOL    HW121512   6.294   4.126   3.279
 6871SOL    HW221513   6.373   4.009   3.196
 6872SOL     OW21514   0.660   2.485   1.028
 6872SOL    HW121515   0.595   2.487   0.951
 6872SOL    HW221516   0.670   2.578   1.064
 6873SOL     OW21517   6.677   3.734   3.715
 6873SOL    HW121518   6.771   3.718   3.746
 6873SOL    HW221519   6.679   3.779   3.625
 6874SOL     OW21520   6.741   5.363   2.769
 6874SOL    HW121521   6.732   5.457   2.735
 6874SOL    HW221522   6.780   5.306   2.697
 6875SOL     OW21523   2.272   2.849   2.633
 6875SOL    HW121524   2.295   2.791   2.711
 6875SOL    HW221525   2.322   2.818   2.552
 6876SOL     OW21526   4.221   0.418   4.207
 6876SOL    HW121527   4.130   0.405   4.168
 6876SOL    HW221528   4.235   0.515   4.227
 6877SOL     OW21529   2.809   4.257   0.893
 6877SOL    HW121530   2.821   4.219   0.801
 6877SOL    HW221531   2.896   4.297   0.923
 6878SOL     OW21532   4.127   1.177   4.018
 6878SOL    HW121533   4.034   1.178   4.055
 6878SOL    HW221534   4.136   1.103   3.952
 6879SOL     OW21535   1.176   3.027   1.025
 6879SOL    HW121536   1.227   2.952   0.983
 6879SOL    HW221537   1.081   3.026   0.994
 6880SOL     OW21538   2.019   5.513   5.533
 6880SOL    HW121539   2.100   5.567   5.509
 6880SOL    HW221540   2.022   5.425   5.485
 6881SOL     OW21541   2.092   3.652   1.411
 6881SOL    HW121542   2.024   3.656   1.338
 6881SOL    HW221543   2.183   3.665   1.373
 6882SOL     OW21544   3.074   0.906   0.155
 6882SOL    HW121545   3.125   0.822   0.173
 6882SOL    HW221546   2.977   0.892   0.178
 6883SOL     OW21547   4.846   1.607   6.903
 6883SOL    HW121548   4.818   1.521   6.860
 6883SOL    HW221549   4.837   1.682   6.838
 6884SOL     OW21550   1.155   4.357   3.754
 6884SOL    HW121551   1.135   4.314   3.666
 6884SOL    HW221552   1.184   4.452   3.739
 6885SOL     OW21553   4.461   4.533   3.964
 6885SOL    HW121554   4.532   4.466   3.943
 6885SOL    HW221555   4.450   4.540   4.063
 6886SOL     OW21556   6.571   1.402   4.128
 6886SOL    HW121557   6.533   1.369   4.214
 6886SOL    HW221558   6.640   1.472   4.146
 6887SOL     OW21559   5.013   5.509   6.058
 6887SOL    HW121560   5.084   5.438   6.057
 6887SOL    HW221561   5.053   5.597   6.032
 6888SOL     OW21562   5.516   5.346   6.409
 6888SOL    HW121563   5.438   5.391   6.454
 6888SOL    HW221564   5.500   5.345   6.310
 6889SOL     OW21565   1.263   2.916   6.045
 6889SOL    HW121566   1.348   2.869   6.025
 6889SOL    HW221567   1.279   3.015   6.048
 6890SOL     OW21568   3.515   6.319   2.276
 6890SOL    HW121569   3.553   6.243   2.329
 6890SOL    HW221570   3.578   6.344   2.203
 6891SOL     OW21571   2.118   3.746   2.737
 6891SOL    HW121572   2.103   3.677   2.666
 6891SOL    HW221573   2.122   3.703   2.827
 6892SOL     OW21574   3.648   2.097   3.734
 6892SOL    HW121575   3.728   2.057   3.778
 6892SOL    HW221576   3.677   2.144   3.650
 6893SOL     OW21577   4.258   4.187   6.889
 6893SOL    HW121578   4.218   4.223   6.805
 6893SOL    HW221579   4.341   4.136   6.867
 6894SOL     OW21580   5.990   5.085   0.378
 6894SOL    HW121581   5.946   5.170   0.351
 6894SOL    HW221582   5.944   5.008   0.334
 6895SOL     OW21583   2.454   4.719   1.001
 6895SOL    HW121584   2.445   4.624   0.970
 6895SOL    HW221585   2.490   4.719   1.094
 6896SOL     OW21586   2.886   1.175   4.080
 6896SOL    HW121587   2.985   1.164   4.086
 6896SOL    HW221588   2.858   1.260   4.126
 6897SOL     OW21589   4.876   3.806   4.898
 6897SOL    HW121590   4.834   3.726   4.940
 6897SOL    HW221591   4.925   3.859   4.967
 6898SOL     OW21592   4.132   1.719   1.141
 6898SOL    HW121593   4.141   1.704   1.240
 6898SOL    HW221594   4.192   1.655   1.092
 6899SOL     OW21595   4.664   6.223   1.727
 6899SOL    HW121596   4.763   6.234   1.715
 6899SOL    HW221597   4.630   6.293   1.790
 6900SOL     OW21598   5.931   5.696   5.179
 6900SOL    HW121599   5.924   5.756   5.099
 6900SOL    HW221600   5.960   5.749   5.259
 6901SOL     OW21601   6.244   5.939   6.328
 6901SOL    HW121602   6.150   5.907   6.332
 6901SOL    HW221603   6.294   5.891   6.256
 6902SOL     OW21604   6.784   6.046   6.980
 6902SOL    HW121605   6.815   5.976   6.915
 6902SOL    HW221606   6.849   6.122   6.981
 6903SOL     OW21607   2.968   5.000   5.550
 6903SOL    HW121608   2.952   4.982   5.648
 6903SOL    HW221609   3.065   4.987   5.529
 6904SOL     OW21610   6.186   0.447   5.222
 6904SOL    HW121611   6.251   0.371   5.214
 6904SOL    HW221612   6.129   0.435   5.303
 6905SOL     OW21613   5.716   6.060   0.006
 6905SOL    HW121614   5.663   5.983   6.996
 6905SOL    HW221615   5.653   6.132   0.037
 6906SOL     OW21616   3.886   1.479   4.326
 6906SOL    HW121617   3.868   1.483   4.424
 6906SOL    HW221618   3.945   1.401   4.306
 6907SOL     OW21619   5.629   2.227   1.503
 6907SOL    HW121620   5.538   2.196   1.528
 6907SOL    HW221621   5.678   2.256   1.585
 6908SOL     OW21622   1.472   5.394   7.000
 6908SOL    HW121623   1.478   5.318   6.935
 6908SOL    HW221624   1.377   5.427   7.004
 6909SOL     OW21625   4.709   4.090   1.402
 6909SOL    HW121626   4.788   4.114   1.460
 6909SOL    HW221627   4.642   4.164   1.406
 6910SOL     OW21628   0.942   3.043   3.579
 6910SOL    HW121629   0.958   2.944   3.569
 6910SOL    HW221630   0.867   3.058   3.643
 6911SOL     OW21631   4.412   6.561   4.573
 6911SOL    HW121632   4.328   6.532   4.528
 6911SOL    HW221633   4.446   6.644   4.530
 6912SOL     OW21634   3.242   3.853   6.093
 6912SOL    HW121635   3.224   3.920   6.166
 6912SOL    HW221636   3.156   3.810   6.065
 6913SOL     OW21637   5.819   6.355   3.958
 6913SOL    HW121638   5.788   6.425   3.893
 6913SOL    HW221639   5.739   6.310   3.998
 6914SOL     OW21640   6.153   4.606   3.404
 6914SOL    HW121641   6.188   4.516   3.380
 6914SOL    HW221642   6.067   4.596   3.454
 6915SOL     OW21643   5.977   2.423   1.521
 6915SOL    HW121644   6.073   2.420   1.547
 6915SOL    HW221645   5.946   2.332   1.495
 6916SOL     OW21646   5.255   1.932   6.854
 6916SOL    HW121647   5.223   2.025   6.836
 6916SOL    HW221648   5.206   1.895   6.933
 6917SOL     OW21649   3.368   6.474   1.404
 6917SOL    HW121650   3.423   6.505   1.326
 6917SOL    HW221651   3.285   6.430   1.370
 6918SOL     OW21652   0.754   2.539   4.401
 6918SOL    HW121653   0.777   2.455   4.352
 6918SOL    HW221654   0.837   2.590   4.423
 6919SOL     OW21655   5.613   6.049   4.388
 6919SOL    HW121656   5.582   6.143   4.398
 6919SOL    HW221657   5.700   6.048   4.337
 6920SOL     OW21658   4.607   6.719   5.964
 6920SOL    HW121659   4.571   6.811   5.979
 6920SOL    HW221660   4.635   6.709   5.869
 6921SOL     OW21661   4.679   5.970   4.204
 6921SOL    HW121662   4.729   5.991   4.288
 6921SOL    HW221663   4.609   6.040   4.188
 6922SOL     OW21664   1.500   6.555   4.692
 6922SOL    HW121665   1.442   6.489   4.739
 6922SOL    HW221666   1.443   6.627   4.652
 6923SOL     OW21667   5.124   5.575   2.875
 6923SOL    HW121668   5.197   5.624   2.922
 6923SOL    HW221669   5.111   5.485   2.918
 6924SOL     OW21670   2.175   4.159   6.712
 6924SOL    HW121671   2.200   4.216   6.790
 6924SOL    HW221672   2.080   4.179   6.686
 6925SOL     OW21673   5.243   6.139   4.187
 6925SOL    HW121674   5.209   6.059   4.238
 6925SOL    HW221675   5.169   6.206   4.180
 6926SOL     OW21676   2.696   2.677   0.730
 6926SOL    HW121677   2.748   2.658   0.814
 6926SOL    HW221678   2.747   2.645   0.651
 6927SOL     OW21679   3.791   2.860   5.721
 6927SOL    HW121680   3.800   2.776   5.666
 6927SOL    HW221681   3.694   2.874   5.742
 6928SOL     OW21682   5.682   5.911   0.700
 6928SOL    HW121683   5.762   5.968   0.719
 6928SOL    HW221684   5.661   5.913   0.602
 6929SOL     OW21685   4.920   5.729   1.536
 6929SOL    HW121686   4.978   5.721   1.455
 6929SOL    HW221687   4.834   5.775   1.512
 6930SOL     OW21688   1.321   0.967   1.794
 6930SOL    HW121689   1.373   0.999   1.714
 6930SOL    HW221690   1.247   1.032   1.812
 6931SOL     OW21691   2.075   1.409   2.473
 6931SOL    HW121692   2.101   1.435   2.380
 6931SOL    HW221693   2.026   1.485   2.517
 6932SOL     OW21694   4.295   7.002   6.888
 6932SOL    HW121695   4.276   7.012   6.986
 6932SOL    HW221696   4.269   6.911   6.858
 6933SOL     OW21697   3.597   6.093   5.547
 6933SOL    HW121698   3.632   6.096   5.454
 6933SOL    HW221699   3.592   5.998   5.578
 6934SOL     OW21700   4.430   3.134   6.128
 6934SOL    HW121701   4.518   3.147   6.081
 6934SOL    HW221702   4.369   3.082   6.069
 6935SOL     OW21703   4.548   5.580   2.472
 6935SOL    HW121704   4.521   5.507   2.535
 6935SOL    HW221705   4.487   5.659   2.483
 6936SOL     OW21706   6.194   2.760   3.629
 6936SOL    HW121707   6.272   2.760   3.566
 6936SOL    HW221708   6.128   2.690   3.601
 6937SOL     OW21709   6.092   6.430   0.478
 6937SOL    HW121710   6.121   6.414   0.572
 6937SOL    HW221711   6.098   6.345   0.426
 6938SOL     OW21712   6.560   2.941   5.046
 6938SOL    HW121713   6.465   2.914   5.027
 6938SOL    HW221714   6.564   3.040   5.056
 6939SOL     OW21715   0.751   5.486   2.320
 6939SOL    HW121716   0.791   5.400   2.287
 6939SOL    HW221717   0.656   5.469   2.349
 6940SOL     OW21718   3.440   0.284   6.072
 6940SOL    HW121719   3.525   0.325   6.107
 6940SOL    HW221720   3.381   0.260   6.149
 6941SOL     OW21721   3.148   4.050   1.658
 6941SOL    HW121722   3.118   3.984   1.590
 6941SOL    HW221723   3.129   4.015   1.750
 6942SOL     OW21724   6.036   6.629   1.949
 6942SOL    HW121725   6.028   6.615   2.048
 6942SOL    HW221726   6.077   6.547   1.908
 6943SOL     OW21727   3.594   5.659   0.868
 6943SOL    HW121728   3.501   5.633   0.841
 6943SOL    HW221729   3.656   5.582   0.852
 6944SOL     OW21730   0.573   4.822   6.591
 6944SOL    HW121731   0.607   4.848   6.682
 6944SOL    HW221732   0.506   4.749   6.601
 6945SOL     OW21733   6.622   1.466   0.418
 6945SOL    HW121734   6.602   1.501   0.509
 6945SOL    HW221735   6.719   1.477   0.398
 6946SOL     OW21736   3.891   6.510   1.071
 6946SOL    HW121737   3.811   6.459   1.102
 6946SOL    HW221738   3.861   6.593   1.023
 6947SOL     OW21739   3.287   5.527   6.985
 6947SOL    HW121740   3.246   5.578   6.909
 6947SOL    HW221741   3.267   5.573   0.044
 6948SOL     OW21742   0.790   6.768   0.873
 6948SOL    HW121743   0.830   6.680   0.897
 6948SOL    HW221744   0.862   6.833   0.848
 6949SOL     OW21745   4.251   0.244   3.439
 6949SOL    HW121746   4.186   0.182   3.483
 6949SOL    HW221747   4.233   0.338   3.468
 6950SOL     OW21748   1.178   1.738   4.911
 6950SOL    HW121749   1.190   1.752   5.009
 6950SOL    HW221750   1.221   1.651   4.884
 6951SOL     OW21751   6.532   5.727   5.751
 6951SOL    HW121752   6.625   5.754   5.723
 6951SOL    HW221753   6.477   5.706   5.671
 6952SOL     OW21754   0.777   6.069   3.205
 6952SOL    HW121755   0.779   6.169   3.206
 6952SOL    HW221756   0.768   6.037   3.110
 6953SOL     OW21757   4.104   6.384   1.714
 6953SOL    HW121758   4.139   6.478   1.715
 6953SOL    HW221759   4.022   6.379   1.770
 6954SOL     OW21760   0.147   3.800   1.841
 6954SOL    HW121761   0.086   3.876   1.865
 6954SOL    HW221762   0.235   3.837   1.809
 6955SOL     OW21763   5.658   0.620   1.637
 6955SOL    HW121764   5.637   0.530   1.598
 6955SOL    HW221765   5.584   0.648   1.698
 6956SOL     OW21766   5.336   6.039   3.530
 6956SOL    HW121767   5.278   6.116   3.558
 6956SOL    HW221768   5.282   5.975   3.476
 6957SOL     OW21769   5.940   5.616   0.973
 6957SOL    HW121770   5.983   5.526   0.976
 6957SOL    HW221771   5.872   5.619   0.900
 6958SOL     OW21772   3.767   3.315   4.741
 6958SOL    HW121773   3.686   3.281   4.789
 6958SOL    HW221774   3.839   3.247   4.745
 6959SOL     OW21775   2.200   2.987   3.570
 6959SOL    HW121776   2.215   3.079   3.607
 6959SOL    HW221777   2.234   2.919   3.635
 6960SOL     OW21778   1.185   3.900   1.294
 6960SOL    HW121779   1.215   3.824   1.236
 6960SOL    HW221780   1.221   3.986   1.256
 6961SOL     OW21781   6.106   0.914   4.510
 6961SOL    HW121782   6.090   0.841   4.577
 6961SOL    HW221783   6.181   0.888   4.450
 6962SOL     OW21784   4.593   5.958   1.779
 6962SOL    HW121785   4.534   5.931   1.702
 6962SOL    HW221786   4.632   6.048   1.761
 6963SOL     OW21787   5.298   5.822   1.405
 6963SOL    HW121788   5.350   5.872   1.336
 6963SOL    HW221789   5.314   5.724   1.395
 6964SOL     OW21790   3.742   1.587   5.532
 6964SOL    HW121791   3.711   1.638   5.451
 6964SOL    HW221792   3.787   1.650   5.595
 6965SOL     OW21793   1.254   0.972   6.683
 6965SOL    HW121794   1.203   0.940   6.603
 6965SOL    HW221795   1.279   0.893   6.740
 6966SOL     OW21796   1.023   2.063   2.169
 6966SOL    HW121797   1.116   2.098   2.155
 6966SOL    HW221798   1.017   1.969   2.135
 6967SOL     OW21799   3.078   1.010   6.376
 6967SOL    HW121800   3.011   1.023   6.303
 6967SOL    HW221801   3.145   0.942   6.348
 6968SOL     OW21802   4.147   0.512   3.495
 6968SOL    HW121803   4.133   0.560   3.582
 6968SOL    HW221804   4.173   0.578   3.424
 6969SOL     OW21805   2.996   2.223   1.768
 6969SOL    HW121806   2.953   2.309   1.795
 6969SOL    HW221807   3.004   2.164   1.848
 6970SOL     OW21808   4.128   3.822   5.830
 6970SOL    HW121809   4.180   3.882   5.891
 6970SOL    HW221810   4.146   3.727   5.852
 6971SOL     OW21811   6.324   4.505   0.656
 6971SOL    HW121812   6.268   4.428   0.688
 6971SOL    HW221813   6.287   4.590   0.693
 6972SOL     OW21814   5.734   4.544   3.302
 6972SOL    HW121815   5.690   4.519   3.388
 6972SOL    HW221816   5.760   4.641   3.305
 6973SOL     OW21817   0.635   3.272   3.162
 6973SOL    HW121818   0.574   3.240   3.090
 6973SOL    HW221819   0.713   3.209   3.170
 6974SOL     OW21820   2.992   3.797   2.408
 6974SOL    HW121821   2.962   3.761   2.320
 6974SOL    HW221822   3.038   3.724   2.460
 6975SOL     OW21823   1.454   6.486   5.721
 6975SOL    HW121824   1.417   6.415   5.780
 6975SOL    HW221825   1.436   6.576   5.760
 6976SOL     OW21826   6.312   5.472   6.037
 6976SOL    HW121827   6.387   5.407   6.023
 6976SOL    HW221828   6.307   5.535   5.960
 6977SOL     OW21829   3.608   3.003   1.165
 6977SOL    HW121830   3.665   2.976   1.243
 6977SOL    HW221831   3.650   2.972   1.080
 6978SOL     OW21832   5.735   2.180   2.283
 6978SOL    HW121833   5.820   2.180   2.336
 6978SOL    HW221834   5.711   2.275   2.259
 6979SOL     OW21835   0.901   4.430   1.406
 6979SOL    HW121836   0.946   4.341   1.411
 6979SOL    HW221837   0.823   4.432   1.468
 6980SOL     OW21838   1.226   0.756   3.355
 6980SOL    HW121839   1.154   0.737   3.289
 6980SOL    HW221840   1.186   0.792   3.439
 6981SOL     OW21841   3.796   3.625   5.699
 6981SOL    HW121842   3.767   3.615   5.604
 6981SOL    HW221843   3.846   3.543   5.727
 6982SOL     OW21844   1.125   1.423   4.760
 6982SOL    HW121845   1.152   1.460   4.671
 6982SOL    HW221846   1.204   1.424   4.822
 6983SOL     OW21847   3.840   2.093   3.954
 6983SOL    HW121848   3.794   2.165   4.006
 6983SOL    HW221849   3.840   2.008   4.007
 6984SOL     OW21850   1.756   1.636   3.125
 6984SOL    HW121851   1.715   1.726   3.138
 6984SOL    HW221852   1.721   1.573   3.195
 6985SOL     OW21853   5.930   4.864   1.222
 6985SOL    HW121854   5.957   4.822   1.136
 6985SOL    HW221855   5.840   4.907   1.211
 6986SOL     OW21856   2.735   6.795   6.332
 6986SOL    HW121857   2.795   6.870   6.362
 6986SOL    HW221858   2.642   6.812   6.366
 6987SOL     OW21859   6.126   1.095   5.937
 6987SOL    HW121860   6.096   1.120   6.030
 6987SOL    HW221861   6.168   1.005   5.939
 6988SOL     OW21862   1.037   6.702   6.706
 6988SOL    HW121863   0.981   6.772   6.662
 6988SOL    HW221864   0.984   6.658   6.778
 6989SOL     OW21865   0.963   4.721   3.210
 6989SOL    HW121866   1.041   4.693   3.155
 6989SOL    HW221867   0.950   4.820   3.201
 6990SOL     OW21868   4.562   2.790   1.286
 6990SOL    HW121869   4.623   2.772   1.363
 6990SOL    HW221870   4.518   2.705   1.258
 6991SOL     OW21871   4.749   4.514   3.560
 6991SOL    HW121872   4.676   4.528   3.626
 6991SOL    HW221873   4.739   4.423   3.518
 6992SOL     OW21874   5.362   0.383   6.329
 6992SOL    HW121875   5.435   0.315   6.330
 6992SOL    HW221876   5.290   0.356   6.394
 6993SOL     OW21877   6.239   6.856   2.793
 6993SOL    HW121878   6.199   6.870   2.702
 6993SOL    HW221879   6.223   6.937   2.849
 6994SOL     OW21880   0.346   2.287   3.834
 6994SOL    HW121881   0.284   2.331   3.768
 6994SOL    HW221882   0.432   2.265   3.788
 6995SOL     OW21883   0.632   4.521   6.470
 6995SOL    HW121884   0.546   4.475   6.448
 6995SOL    HW221885   0.634   4.542   6.568
 6996SOL     OW21886   1.688   0.298   6.921
 6996SOL    HW121887   1.622   0.233   6.884
 6996SOL    HW221888   1.703   0.373   6.856
 6997SOL     OW21889   0.402   5.371   5.735
 6997SOL    HW121890   0.411   5.368   5.635
 6997SOL    HW221891   0.387   5.466   5.764
 6998SOL     OW21892   1.759   1.003   1.480
 6998SOL    HW121893   1.736   1.021   1.576
 6998SOL    HW221894   1.855   1.027   1.464
 6999SOL     OW21895   2.362   2.594   6.519
 6999SOL    HW121896   2.334   2.566   6.611
 6999SOL    HW221897   2.281   2.607   6.462
 7000SOL     OW21898   5.544   6.550   1.730
 7000SOL    HW121899   5.451   6.587   1.729
 7000SOL    HW221900   5.606   6.615   1.685
 7001SOL     OW21901   1.724   3.568   5.822
 7001SOL    HW121902   1.640   3.550   5.874
 7001SOL    HW221903   1.717   3.658   5.779
 7002SOL     OW21904   1.408   5.526   4.200
 7002SOL    HW121905   1.330   5.583   4.177
 7002SOL    HW221906   1.449   5.489   4.116
 7003SOL     OW21907   4.468   5.487   0.968
 7003SOL    HW121908   4.373   5.515   0.949
 7003SOL    HW221909   4.487   5.499   1.066
 7004SOL     OW21910   0.460   5.605   1.602
 7004SOL    HW121911   0.550   5.599   1.557
 7004SOL    HW221912   0.472   5.598   1.701
 7005SOL     OW21913   0.902   0.282   1.066
 7005SOL    HW121914   0.989   0.259   1.109
 7005SOL    HW221915   0.857   0.199   1.036
 7006SOL     OW21916   5.028   5.331   3.882
 7006SOL    HW121917   5.121   5.308   3.912
 7006SOL    HW221918   5.008   5.283   3.797
 7007SOL     OW21919   4.721   0.742   4.573
 7007SOL    HW121920   4.797   0.682   4.547
 7007SOL    HW221921   4.653   0.689   4.623
 7008SOL     OW21922   0.534   4.484   4.276
 7008SOL    HW121923   0.522   4.417   4.203
 7008SOL    HW221924   0.454   4.544   4.280
 7009SOL     OW21925   4.317   6.257   2.537
 7009SOL    HW121926   4.283   6.173   2.581
 7009SOL    HW221927   4.318   6.245   2.438
 7010SOL     OW21928   5.854   4.379   3.677
 7010SOL    HW121929   5.896   4.302   3.630
 7010SOL    HW221930   5.863   4.367   3.776
 7011SOL     OW21931   3.225   6.341   6.583
 7011SOL    HW121932   3.160   6.290   6.527
 7011SOL    HW221933   3.296   6.381   6.525
 7012SOL     OW21934   0.979   2.179   1.090
 7012SOL    HW121935   1.014   2.123   1.165
 7012SOL    HW221936   0.908   2.241   1.124
 7013SOL     OW21937   1.053   6.568   0.116
 7013SOL    HW121938   1.094   6.584   0.027
 7013SOL    HW221939   0.954   6.583   0.110
 7014SOL     OW21940   4.626   3.323   0.725
 7014SOL    HW121941   4.639   3.391   0.797
 7014SOL    HW221942   4.528   3.303   0.715
 7015SOL     OW21943   5.774   3.866   1.444
 7015SOL    HW121944   5.743   3.783   1.399
 7015SOL    HW221945   5.852   3.904   1.395
 7016SOL     OW21946   3.503   5.308   1.227
 7016SOL    HW121947   3.545   5.398   1.225
 7016SOL    HW221948   3.574   5.237   1.228
 7017SOL     OW21949   2.790   5.104   3.454
 7017SOL    HW121950   2.871   5.057   3.488
 7017SOL    HW221951   2.753   5.055   3.376
 7018SOL     OW21952   5.429   3.420   4.302
 7018SOL    HW121953   5.373   3.432   4.384
 7018SOL    HW221954   5.501   3.353   4.320
 7019SOL     OW21955   3.864   4.925   0.546
 7019SOL    HW121956   3.923   4.979   0.486
 7019SOL    HW221957   3.784   4.893   0.496
 7020SOL     OW21958   6.651   4.345   5.852
 7020SOL    HW121959   6.576   4.383   5.906
 7020SOL    HW221960   6.679   4.411   5.782
 7021SOL     OW21961   1.681   2.286   4.733
 7021SOL    HW121962   1.694   2.306   4.830
 7021SOL    HW221963   1.637   2.197   4.723
 7022SOL     OW21964   4.561   0.487   6.845
 7022SOL    HW121965   4.503   0.523   6.772
 7022SOL    HW221966   4.580   0.391   6.827
 7023SOL     OW21967   1.653   2.849   2.921
 7023SOL    HW121968   1.688   2.936   2.888
 7023SOL    HW221969   1.719   2.808   2.984
 7024SOL     OW21970   3.455   3.729   4.721
 7024SOL    HW121971   3.510   3.746   4.639
 7024SOL    HW221972   3.358   3.732   4.697
 7025SOL     OW21973   3.615   0.644   0.912
 7025SOL    HW121974   3.675   0.716   0.945
 7025SOL    HW221975   3.597   0.657   0.814
 7026SOL     OW21976   3.641   1.983   2.125
 7026SOL    HW121977   3.634   2.075   2.086
 7026SOL    HW221978   3.686   1.989   2.215
 7027SOL     OW21979   2.320   5.430   4.351
 7027SOL    HW121980   2.313   5.465   4.445
 7027SOL    HW221981   2.236   5.451   4.301
 7028SOL     OW21982   3.575   1.235   2.730
 7028SOL    HW121983   3.528   1.269   2.649
 7028SOL    HW221984   3.646   1.170   2.702
 7029SOL     OW21985   4.090   4.555   5.330
 7029SOL    HW121986   4.141   4.496   5.267
 7029SOL    HW221987   4.146   4.575   5.410
 7030SOL     OW21988   0.544   0.885   4.991
 7030SOL    HW121989   0.531   0.974   5.034
 7030SOL    HW221990   0.637   0.878   4.956
 7031SOL     OW21991   3.683   6.088   6.739
 7031SOL    HW121992   3.593   6.128   6.755
 7031SOL    HW221993   3.745   6.115   6.813
 7032SOL     OW21994   4.548   1.842   4.072
 7032SOL    HW121995   4.598   1.819   4.156
 7032SOL    HW221996   4.611   1.836   3.994
 7033SOL     OW21997   1.289   2.684   3.374
 7033SOL    HW121998   1.309   2.714   3.281
 7033SOL    HW221999   1.311   2.758   3.438
 7034SOL     OW22000   6.897   1.828   2.949
 7034SOL    HW122001   6.964   1.767   2.990
 7034SOL    HW222002   6.807   1.784   2.949
 7035SOL     OW22003   1.458   0.295   0.673
 7035SOL    HW122004   1.527   0.237   0.631
 7035SOL    HW222005   1.487   0.320   0.766
 7036SOL     OW22006   6.803   1.023   2.131
 7036SOL    HW122007   6.788   0.949   2.065
 7036SOL    HW222008   6.870   1.087   2.093
 7037SOL     OW22009   1.054   1.337   6.491
 7037SOL    HW122010   1.145   1.312   6.457
 7037SOL    HW222011   1.064   1.384   6.579
 7038SOL     OW22012   2.124   4.114   5.181
 7038SOL    HW122013   2.190   4.107   5.255
 7038SOL    HW222014   2.160   4.070   5.099
 7039SOL     OW22015   0.549   5.747   2.470
 7039SOL    HW122016   0.451   5.746   2.449
 7039SOL    HW222017   0.595   5.811   2.409
 7040SOL     OW22018   5.741   2.575   5.508
 7040SOL    HW122019   5.644   2.550   5.498
 7040SOL    HW222020   5.795   2.527   5.439
 7041SOL     OW22021   6.583   1.447   1.727
 7041SOL    HW122022   6.601   1.538   1.689
 7041SOL    HW222023   6.668   1.410   1.765
 7042SOL     OW22024   4.384   5.763   4.494
 7042SOL    HW122025   4.432   5.800   4.574
 7042SOL    HW222026   4.298   5.811   4.481
 7043SOL     OW22027   2.280   4.556   3.444
 7043SOL    HW122028   2.271   4.608   3.529
 7043SOL    HW222029   2.193   4.513   3.421
 7044SOL     OW22030   5.818   5.187   5.211
 7044SOL    HW122031   5.781   5.138   5.131
 7044SOL    HW222032   5.804   5.285   5.199
 7045SOL     OW22033   5.048   5.068   2.492
 7045SOL    HW122034   5.129   5.039   2.543
 7045SOL    HW222035   5.004   4.988   2.451
 7046SOL     OW22036   3.010   1.629   3.507
 7046SOL    HW122037   3.076   1.703   3.497
 7046SOL    HW222038   3.057   1.541   3.501
 7047SOL     OW22039   6.445   0.597   2.235
 7047SOL    HW122040   6.525   0.561   2.285
 7047SOL    HW222041   6.396   0.521   2.193
 7048SOL     OW22042   6.216   6.775   4.042
 7048SOL    HW122043   6.200   6.868   4.073
 7048SOL    HW222044   6.131   6.739   4.002
 7049SOL     OW22045   3.840   1.913   0.831
 7049SOL    HW122046   3.899   1.916   0.750
 7049SOL    HW222047   3.746   1.894   0.803
 7050SOL     OW22048   4.195   3.342   1.153
 7050SOL    HW122049   4.126   3.338   1.225
 7050SOL    HW222050   4.286   3.337   1.195
 7051SOL     OW22051   0.223   6.603   1.001
 7051SOL    HW122052   0.175   6.668   0.942
 7051SOL    HW222053   0.240   6.518   0.949
 7052SOL     OW22054   6.746   1.359   3.444
 7052SOL    HW122055   6.672   1.401   3.392
 7052SOL    HW222056   6.832   1.407   3.425
 7053SOL     OW22057   1.834   3.859   4.882
 7053SOL    HW122058   1.739   3.834   4.903
 7053SOL    HW222059   1.852   3.951   4.915
 7054SOL     OW22060   0.114   6.588   0.710
 7054SOL    HW122061   0.029   6.537   0.721
 7054SOL    HW222062   0.163   6.555   0.629
 7055SOL     OW22063   2.887   0.394   6.971
 7055SOL    HW122064   2.918   0.325   0.010
 7055SOL    HW222065   2.829   0.460   7.018
 7056SOL     OW22066   6.710   5.287   1.501
 7056SOL    HW122067   6.755   5.300   1.590
 7056SOL    HW222068   6.616   5.258   1.515
 7057SOL     OW22069   2.848   5.048   3.867
 7057SOL    HW122070   2.914   4.978   3.841
 7057SOL    HW222071   2.767   5.004   3.908
 7058SOL     OW22072   5.572   2.611   6.006
 7058SOL    HW122073   5.571   2.710   6.021
 7058SOL    HW222074   5.638   2.589   5.934
 7059SOL     OW22075   0.681   0.948   3.809
 7059SOL    HW122076   0.780   0.937   3.822
 7059SOL    HW222077   0.663   1.031   3.756
 7060SOL     OW22078   3.463   0.470   1.034
 7060SOL    HW122079   3.543   0.524   1.006
 7060SOL    HW222080   3.390   0.483   0.967
 7061SOL     OW22081   0.556   3.288   3.998
 7061SOL    HW122082   0.607   3.227   4.058
 7061SOL    HW222083   0.467   3.247   3.976
 7062SOL     OW22084   3.325   2.044   5.081
 7062SOL    HW122085   3.271   1.971   5.122
 7062SOL    HW222086   3.265   2.120   5.057
 7063SOL     OW22087   1.556   6.763   1.602
 7063SOL    HW122088   1.646   6.801   1.582
 7063SOL    HW222089   1.563   6.701   1.681
 7064SOL     OW22090   3.734   2.206   0.015
 7064SOL    HW122091   3.724   2.304   0.030
 7064SOL    HW222092   3.677   2.177   6.965
 7065SOL     OW22093   3.610   3.854   5.477
 7065SOL    HW122094   3.579   3.886   5.387
 7065SOL    HW222095   3.591   3.925   5.545
 7066SOL     OW22096   3.495   0.169   5.833
 7066SOL    HW122097   3.492   0.208   5.925
 7066SOL    HW222098   3.544   0.231   5.771
 7067SOL     OW22099   1.213   3.258   5.556
 7067SOL    HW122100   1.284   3.205   5.509
 7067SOL    HW222101   1.130   3.259   5.500
 7068SOL     OW22102   6.021   4.039   4.982
 7068SOL    HW122103   6.041   4.131   4.949
 7068SOL    HW222104   6.107   3.990   4.998
 7069SOL     OW22105   5.792   1.436   4.787
 7069SOL    HW122106   5.753   1.403   4.701
 7069SOL    HW222107   5.719   1.443   4.855
 7070SOL     OW22108   1.010   6.555   4.610
 7070SOL    HW122109   0.916   6.523   4.608
 7070SOL    HW222110   1.046   6.545   4.703
 7071SOL     OW22111   3.544   6.054   0.036
 7071SOL    HW122112   3.521   6.101   0.121
 7071SOL    HW222113   3.475   5.985   0.016
 7072SOL     OW22114   2.015   5.641   0.303
 7072SOL    HW122115   1.984   5.720   0.250
 7072SOL    HW222116   2.075   5.585   0.246
 7073SOL     OW22117   4.816   6.977   3.642
 7073SOL    HW122118   4.722   6.968   3.676
 7073SOL    HW222119   4.849   0.043   3.659
 7074SOL     OW22120   5.724   3.104   1.934
 7074SOL    HW122121   5.784   3.178   1.962
 7074SOL    HW222122   5.771   3.047   1.867
 7075SOL     OW22123   1.624   4.198   4.583
 7075SOL    HW122124   1.578   4.110   4.591
 7075SOL    HW222125   1.719   4.185   4.555
 7076SOL     OW22126   5.457   2.990   0.064
 7076SOL    HW122127   5.393   2.926   0.107
 7076SOL    HW222128   5.405   3.064   0.020
 7077SOL     OW22129   2.252   4.102   3.709
 7077SOL    HW122130   2.310   4.135   3.635
 7077SOL    HW222131   2.217   4.011   3.686
 7078SOL     OW22132   6.376   6.072   1.153
 7078SOL    HW122133   6.352   6.097   1.059
 7078SOL    HW222134   6.412   6.152   1.201
 7079SOL     OW22135   0.856   6.723   3.844
 7079SOL    HW122136   0.785   6.728   3.774
 7079SOL    HW222137   0.846   6.638   3.895
 7080SOL     OW22138   3.556   1.424   4.460
 7080SOL    HW122139   3.462   1.445   4.485
 7080SOL    HW222140   3.615   1.502   4.483
 7081SOL     OW22141   1.444   5.598   0.627
 7081SOL    HW122142   1.519   5.558   0.575
 7081SOL    HW222143   1.407   5.530   0.690
 7082SOL     OW22144   6.765   4.622   0.377
 7082SOL    HW122145   6.794   4.527   0.385
 7082SOL    HW222146   6.691   4.640   0.443
 7083SOL     OW22147   0.550   1.357   1.974
 7083SOL    HW122148   0.569   1.260   1.960
 7083SOL    HW222149   0.637   1.406   1.983
 7084SOL     OW22150   1.118   5.181   5.467
 7084SOL    HW122151   1.133   5.159   5.564
 7084SOL    HW222152   1.032   5.139   5.437
 7085SOL     OW22153   0.051   2.038   2.442
 7085SOL    HW122154   0.004   1.955   2.472
 7085SOL    HW222155   0.004   2.119   2.478
 7086SOL     OW22156   5.271   1.166   6.017
 7086SOL    HW122157   5.367   1.153   5.992
 7086SOL    HW222158   5.216   1.171   5.934
 7087SOL     OW22159   5.944   4.644   2.615
 7087SOL    HW122160   5.929   4.652   2.714
 7087SOL    HW222161   6.038   4.614   2.598
 7088SOL     OW22162   5.088   2.366   5.327
 7088SOL    HW122163   5.101   2.270   5.306
 7088SOL    HW222164   5.117   2.422   5.250
 7089SOL     OW22165   2.291   2.787   3.704
 7089SOL    HW122166   2.221   2.722   3.733
 7089SOL    HW222167   2.325   2.836   3.784
 7090SOL     OW22168   2.661   1.478   0.533
 7090SOL    HW122169   2.598   1.443   0.464
 7090SOL    HW222170   2.612   1.542   0.593
 7091SOL     OW22171   0.515   1.079   0.935
 7091SOL    HW122172   0.557   1.047   0.850
 7091SOL    HW222173   0.544   1.020   1.011
 7092SOL     OW22174   4.135   2.780   5.745
 7092SOL    HW122175   4.054   2.832   5.772
 7092SOL    HW222176   4.155   2.797   5.648
 7093SOL     OW22177   3.425   4.168   1.878
 7093SOL    HW122178   3.336   4.141   1.912
 7093SOL    HW222179   3.487   4.090   1.879
 7094SOL     OW22180   0.516   6.151   5.717
 7094SOL    HW122181   0.459   6.233   5.725
 7094SOL    HW222182   0.547   6.140   5.623
 7095SOL     OW22183   2.957   4.707   5.959
 7095SOL    HW122184   2.986   4.770   6.031
 7095SOL    HW222185   3.017   4.718   5.880
 7096SOL     OW22186   6.206   6.821   1.871
 7096SOL    HW122187   6.143   6.753   1.909
 7096SOL    HW222188   6.153   6.899   1.837
 7097SOL     OW22189   4.820   0.724   2.312
 7097SOL    HW122190   4.768   0.753   2.392
 7097SOL    HW222191   4.783   0.638   2.277
 7098SOL     OW22192   1.646   5.357   5.715
 7098SOL    HW122193   1.725   5.412   5.742
 7098SOL    HW222194   1.580   5.354   5.791
 7099SOL     OW22195   3.805   2.093   4.658
 7099SOL    HW122196   3.708   2.070   4.653
 7099SOL    HW222197   3.851   2.061   4.576
 7100SOL     OW22198   6.386   3.477   0.397
 7100SOL    HW122199   6.477   3.518   0.390
 7100SOL    HW222200   6.389   3.383   0.363
 7101SOL     OW22201   2.801   1.423   5.235
 7101SOL    HW122202   2.797   1.387   5.328
 7101SOL    HW222203   2.874   1.491   5.228
 7102SOL     OW22204   5.655   6.997   0.394
 7102SOL    HW122205   5.708   6.946   0.462
 7102SOL    HW222206   5.624   0.057   0.434
 7103SOL     OW22207   5.541   5.287   1.846
 7103SOL    HW122208   5.529   5.211   1.911
 7103SOL    HW222209   5.618   5.343   1.874
 7104SOL     OW22210   6.617   3.640   2.734
 7104SOL    HW122211   6.568   3.645   2.821
 7104SOL    HW222212   6.608   3.548   2.696
 7105SOL     OW22213   3.140   3.435   4.885
 7105SOL    HW122214   3.132   3.335   4.884
 7105SOL    HW222215   3.218   3.463   4.831
 7106SOL     OW22216   3.620   3.053   1.793
 7106SOL    HW122217   3.573   3.104   1.866
 7106SOL    HW222218   3.613   3.104   1.708
 7107SOL     OW22219   4.730   0.248   0.642
 7107SOL    HW122220   4.731   0.165   0.697
 7107SOL    HW222221   4.802   0.243   0.572
 7108SOL     OW22222   3.021   5.635   2.537
 7108SOL    HW122223   3.119   5.649   2.521
 7108SOL    HW222224   2.975   5.723   2.536
 7109SOL     OW22225   1.911   0.615   6.930
 7109SOL    HW122226   1.842   0.593   6.861
 7109SOL    HW222227   1.970   0.688   6.897
 7110SOL     OW22228   3.151   5.951   4.113
 7110SOL    HW122229   3.072   5.923   4.167
 7110SOL    HW222230   3.235   5.918   4.156
 7111SOL     OW22231   1.638   2.667   4.387
 7111SOL    HW122232   1.707   2.713   4.444
 7111SOL    HW222233   1.610   2.728   4.313
 7112SOL     OW22234   2.251   5.077   4.647
 7112SOL    HW122235   2.236   5.018   4.727
 7112SOL    HW222236   2.336   5.051   4.602
 7113SOL     OW22237   3.702   4.233   4.954
 7113SOL    HW122238   3.774   4.180   4.908
 7113SOL    HW222239   3.678   4.311   4.896
 7114SOL     OW22240   4.865   5.663   0.860
 7114SOL    HW122241   4.791   5.606   0.825
 7114SOL    HW222242   4.910   5.617   0.936
 7115SOL     OW22243   4.505   2.960   0.001
 7115SOL    HW122244   4.585   2.906   0.025
 7115SOL    HW222245   4.497   3.038   0.064
 7116SOL     OW22246   5.318   4.423   3.253
 7116SOL    HW122247   5.354   4.391   3.341
 7116SOL    HW222248   5.343   4.358   3.181
 7117SOL     OW22249   0.210   0.138   4.692
 7117SOL    HW122250   0.253   0.054   4.725
 7117SOL    HW222251   0.251   0.216   4.738
 7118SOL     OW22252   3.651   4.644   6.209
 7118SOL    HW122253   3.597   4.713   6.160
 7118SOL    HW222254   3.747   4.670   6.208
 7119SOL     OW22255   5.299   1.120   4.848
 7119SOL    HW122256   5.270   1.158   4.937
 7119SOL    HW222257   5.337   1.029   4.861
 7120SOL     OW22258   3.956   2.056   1.529
 7120SOL    HW122259   3.907   2.066   1.443
 7120SOL    HW222260   3.933   2.132   1.590
 7121SOL     OW22261   0.497   6.687   3.281
 7121SOL    HW122262   0.425   6.622   3.305
 7121SOL    HW222263   0.507   6.754   3.355
 7122SOL     OW22264   1.714   0.577   5.896
 7122SOL    HW122265   1.742   0.638   5.822
 7122SOL    HW222266   1.682   0.632   5.973
 7123SOL     OW22267   1.175   5.096   4.043
 7123SOL    HW122268   1.166   5.169   4.111
 7123SOL    HW222269   1.139   5.128   3.956
 7124SOL     OW22270   0.666   2.701   1.480
 7124SOL    HW122271   0.656   2.790   1.523
 7124SOL    HW222272   0.600   2.637   1.520
 7125SOL     OW22273   0.640   1.009   0.684
 7125SOL    HW122274   0.690   0.924   0.665
 7125SOL    HW222275   0.702   1.086   0.676
 7126SOL     OW22276   4.173   5.466   0.716
 7126SOL    HW122277   4.267   5.500   0.710
 7126SOL    HW222278   4.170   5.392   0.784
 7127SOL     OW22279   3.156   5.691   6.809
 7127SOL    HW122280   3.077   5.670   6.867
 7127SOL    HW222281   3.124   5.716   6.718
 7128SOL     OW22282   3.273   4.281   6.754
 7128SOL    HW122283   3.369   4.305   6.771
 7128SOL    HW222284   3.217   4.310   6.831
 7129SOL     OW22285   2.135   1.291   0.869
 7129SOL    HW122286   2.130   1.221   0.799
 7129SOL    HW222287   2.056   1.284   0.930
 7130SOL     OW22288   3.551   6.254   4.017
 7130SOL    HW122289   3.598   6.189   3.958
 7130SOL    HW222290   3.523   6.209   4.102
 7131SOL     OW22291   3.345   1.382   1.479
 7131SOL    HW122292   3.378   1.452   1.543
 7131SOL    HW222293   3.250   1.359   1.501
 7132SOL     OW22294   4.355   4.074   0.537
 7132SOL    HW122295   4.367   4.171   0.512
 7132SOL    HW222296   4.418   4.018   0.484
 7133SOL     OW22297   3.810   5.081   5.072
 7133SOL    HW122298   3.727   5.134   5.054
 7133SOL    HW222299   3.794   5.021   5.151
 7134SOL     OW22300   5.058   6.890   1.694
 7134SOL    HW122301   5.053   6.842   1.782
 7134SOL    HW222302   5.148   6.933   1.686
 7135SOL     OW22303   2.564   2.539   3.308
 7135SOL    HW122304   2.533   2.561   3.401
 7135SOL    HW222305   2.651   2.489   3.313
 7136SOL     OW22306   3.506   1.494   0.546
 7136SOL    HW122307   3.542   1.527   0.634
 7136SOL    HW222308   3.407   1.483   0.553
 7137SOL     OW22309   2.723   2.116   0.246
 7137SOL    HW122310   2.790   2.190   0.253
 7137SOL    HW222311   2.656   2.124   0.319
 7138SOL     OW22312   2.089   1.552   0.810
 7138SOL    HW122313   2.105   1.454   0.825
 7138SOL    HW222314   2.177   1.601   0.814
 7139SOL     OW22315   5.025   4.798   2.385
 7139SOL    HW122316   5.004   4.777   2.481
 7139SOL    HW222317   4.966   4.744   2.325
 7140SOL     OW22318   6.201   3.937   0.747
 7140SOL    HW122319   6.264   4.014   0.755
 7140SOL    HW222320   6.162   3.935   0.655
 7141SOL     OW22321   3.663   0.077   1.221
 7141SOL    HW122322   3.639   0.152   1.284
 7141SOL    HW222323   3.704   0.115   1.138
 7142SOL     OW22324   4.051   6.796   3.962
 7142SOL    HW122325   3.958   6.805   3.929
 7142SOL    HW222326   4.081   6.883   4.003
 7143SOL     OW22327   2.442   3.592   6.937
 7143SOL    HW122328   2.395   3.571   6.851
 7143SOL    HW222329   2.497   3.513   6.964
 7144SOL     OW22330   0.922   1.175   2.891
 7144SOL    HW122331   0.846   1.203   2.950
 7144SOL    HW222332   0.887   1.115   2.819
 7145SOL     OW22333   4.039   0.427   6.547
 7145SOL    HW122334   4.108   0.354   6.551
 7145SOL    HW222335   4.056   0.484   6.466
 7146SOL     OW22336   1.505   0.732   6.340
 7146SOL    HW122337   1.598   0.746   6.304
 7146SOL    HW222338   1.457   0.665   6.284
 7147SOL     OW22339   6.911   6.158   3.349
 7147SOL    HW122340   6.862   6.233   3.304
 7147SOL    HW222341   6.932   6.184   3.443
 7148SOL     OW22342   5.839   5.884   1.762
 7148SOL    HW122343   5.888   5.972   1.761
 7148SOL    HW222344   5.796   5.872   1.851
 7149SOL     OW22345   0.615   5.234   3.632
 7149SOL    HW122346   0.613   5.333   3.649
 7149SOL    HW222347   0.636   5.218   3.536
 7150SOL     OW22348   3.372   3.263   0.191
 7150SOL    HW122349   3.426   3.233   0.112
 7150SOL    HW222350   3.340   3.184   0.242
 7151SOL     OW22351   2.472   6.984   0.946
 7151SOL    HW122352   2.391   6.931   0.923
 7151SOL    HW222353   2.554   6.930   0.924
 7152SOL     OW22354   6.603   0.440   5.610
 7152SOL    HW122355   6.699   0.468   5.600
 7152SOL    HW222356   6.595   0.342   5.597
 7153SOL     OW22357   3.383   5.148   1.948
 7153SOL    HW122358   3.439   5.230   1.960
 7153SOL    HW222359   3.421   5.093   1.874
 7154SOL     OW22360   4.435   6.638   2.869
 7154SOL    HW122361   4.410   6.698   2.793
 7154SOL    HW222362   4.403   6.677   2.955
 7155SOL     OW22363   3.299   3.579   1.739
 7155SOL    HW122364   3.255   3.618   1.820
 7155SOL    HW222365   3.323   3.483   1.757
 7156SOL     OW22366   5.378   3.376   2.147
 7156SOL    HW122367   5.437   3.325   2.085
 7156SOL    HW222368   5.370   3.326   2.234
 7157SOL     OW22369   6.677   5.191   1.810
 7157SOL    HW122370   6.582   5.189   1.842
 7157SOL    HW222371   6.729   5.118   1.855
 7158SOL     OW22372   0.667   6.934   3.394
 7158SOL    HW122373   0.690   7.005   3.328
 7158SOL    HW222374   0.638   6.977   3.480
 7159SOL     OW22375   1.405   4.816   4.184
 7159SOL    HW122376   1.472   4.743   4.195
 7159SOL    HW222377   1.340   4.813   4.260
 7160SOL     OW22378   6.197   6.209   2.925
 7160SOL    HW122379   6.118   6.271   2.921
 7160SOL    HW222380   6.275   6.252   2.879
 7161SOL     OW22381   3.247   3.883   2.560
 7161SOL    HW122382   3.223   3.831   2.642
 7161SOL    HW222383   3.306   3.959   2.585
 7162SOL     OW22384   0.841   5.113   6.075
 7162SOL    HW122385   0.827   5.199   6.123
 7162SOL    HW222386   0.831   5.128   5.976
 7163SOL     OW22387   2.919   0.661   2.379
 7163SOL    HW122388   2.934   0.677   2.477
 7163SOL    HW222389   3.006   0.669   2.330
 7164SOL     OW22390   2.424   0.286   4.795
 7164SOL    HW122391   2.381   0.327   4.875
 7164SOL    HW222392   2.523   0.299   4.800
 7165SOL     OW22393   5.661   6.431   1.944
 7165SOL    HW122394   5.595   6.364   1.978
 7165SOL    HW222395   5.627   6.472   1.860
 7166SOL     OW22396   5.348   2.129   0.197
 7166SOL    HW122397   5.392   2.040   0.200
 7166SOL    HW222398   5.325   2.152   0.102
 7167SOL     OW22399   4.973   3.184   5.038
 7167SOL    HW122400   5.029   3.201   5.119
 7167SOL    HW222401   4.955   3.270   4.992
 7168SOL     OW22402   2.921   2.163   3.205
 7168SOL    HW122403   2.854   2.148   3.132
 7168SOL    HW222404   3.011   2.130   3.175
 7169SOL     OW22405   6.963   4.523   5.020
 7169SOL    HW122406   6.956   4.559   4.927
 7169SOL    HW222407   6.872   4.508   5.057
 7170SOL     OW22408   4.859   6.809   2.442
 7170SOL    HW122409   4.913   6.755   2.507
 7170SOL    HW222410   4.769   6.827   2.480
 7171SOL     OW22411   5.988   3.844   0.228
 7171SOL    HW122412   6.060   3.791   0.272
 7171SOL    HW222413   5.914   3.782   0.201
 7172SOL     OW22414   2.023   0.830   5.068
 7172SOL    HW122415   2.049   0.806   4.975
 7172SOL    HW222416   2.086   0.786   5.133
 7173SOL     OW22417   6.112   4.807   6.439
 7173SOL    HW122418   6.050   4.760   6.376
 7173SOL    HW222419   6.204   4.770   6.429
 7174SOL     OW22420   0.031   4.641   0.588
 7174SOL    HW122421   7.016   4.708   0.525
 7174SOL    HW222422   0.116   4.678   0.623
 7175SOL     OW22423   6.928   3.460   5.719
 7175SOL    HW122424   6.986   3.468   5.800
 7175SOL    HW222425   6.917   3.364   5.695
 7176SOL     OW22426   6.924   1.792   4.063
 7176SOL    HW122427   6.990   1.719   4.048
 7176SOL    HW222428   6.847   1.781   4.000
 7177SOL     OW22429   1.363   4.664   5.642
 7177SOL    HW122430   1.291   4.711   5.693
 7177SOL    HW222431   1.349   4.677   5.544
 7178SOL     OW22432   0.515   1.661   6.423
 7178SOL    HW122433   0.433   1.665   6.365
 7178SOL    HW222434   0.559   1.572   6.412
 7179SOL     OW22435   1.248   3.605   4.927
 7179SOL    HW122436   1.158   3.646   4.942
 7179SOL    HW222437   1.260   3.528   4.990
 7180SOL     OW22438   2.327   4.117   0.460
 7180SOL    HW122439   2.302   4.177   0.384
 7180SOL    HW222440   2.427   4.110   0.465
 7181SOL     OW22441   2.490   0.249   0.270
 7181SOL    HW122442   2.468   0.329   0.327
 7181SOL    HW222443   2.408   0.192   0.262
 7182SOL     OW22444   0.687   3.637   3.737
 7182SOL    HW122445   0.640   3.715   3.778
 7182SOL    HW222446   0.777   3.625   3.778
 7183SOL     OW22447   1.906   5.575   1.816
 7183SOL    HW122448   1.995   5.618   1.828
 7183SOL    HW222449   1.877   5.533   1.902
 7184SOL     OW22450   0.154   0.898   3.615
 7184SOL    HW122451   0.231   0.837   3.596
 7184SOL    HW222452   0.104   0.863   3.694
 7185SOL     OW22453   5.771   1.285   5.446
 7185SOL    HW122454   5.769   1.379   5.482
 7185SOL    HW222455   5.696   1.233   5.487
 7186SOL     OW22456   6.722   1.632   1.423
 7186SOL    HW122457   6.693   1.687   1.502
 7186SOL    HW222458   6.796   1.678   1.375
 7187SOL     OW22459   3.081   4.075   5.237
 7187SOL    HW122460   3.119   4.055   5.328
 7187SOL    HW222461   2.982   4.064   5.239
 7188SOL     OW22462   4.580   5.900   0.186
 7188SOL    HW122463   4.505   5.893   0.251
 7188SOL    HW222464   4.584   5.818   0.129
 7189SOL     OW22465   6.517   2.747   5.902
 7189SOL    HW122466   6.601   2.796   5.924
 7189SOL    HW222467   6.450   2.810   5.863
 7190SOL     OW22468   6.246   5.946   1.393
 7190SOL    HW122469   6.180   6.022   1.387
 7190SOL    HW222470   6.324   5.965   1.334
 7191SOL     OW22471   0.898   4.448   2.756
 7191SOL    HW122472   0.916   4.416   2.663
 7191SOL    HW222473   0.902   4.370   2.819
 7192SOL     OW22474   1.634   4.228   6.684
 7192SOL    HW122475   1.689   4.162   6.734
 7192SOL    HW222476   1.620   4.196   6.590
 7193SOL     OW22477   2.305   2.239   2.426
 7193SOL    HW122478   2.268   2.332   2.436
 7193SOL    HW222479   2.382   2.241   2.362
 7194SOL     OW22480   2.070   2.943   6.625
 7194SOL    HW122481   2.157   2.973   6.664
 7194SOL    HW222482   2.003   3.017   6.632
 7195SOL     OW22483   6.831   4.325   6.835
 7195SOL    HW122484   6.789   4.412   6.861
 7195SOL    HW222485   6.930   4.336   6.826
 7196SOL     OW22486   2.605   3.833   1.682
 7196SOL    HW122487   2.567   3.912   1.730
 7196SOL    HW222488   2.534   3.764   1.669
 7197SOL     OW22489   1.442   3.560   5.963
 7197SOL    HW122490   1.479   3.496   6.030
 7197SOL    HW222491   1.436   3.651   6.004
 7198SOL     OW22492   0.587   1.256   0.200
 7198SOL    HW122493   0.620   1.264   0.295
 7198SOL    HW222494   0.492   1.288   0.196
 7199SOL     OW22495   0.985   0.101   2.793
 7199SOL    HW122496   1.013   0.197   2.785
 7199SOL    HW222497   1.039   0.056   2.863
 7200SOL     OW22498   2.490   2.757   6.778
 7200SOL    HW122499   2.500   2.658   6.777
 7200SOL    HW222500   2.578   2.800   6.799
 7201SOL     OW22501   0.934   5.965   4.295
 7201SOL    HW122502   0.880   6.020   4.231
 7201SOL    HW222503   1.029   5.997   4.294
 7202SOL     OW22504   4.625   6.655   6.739
 7202SOL    HW122505   4.533   6.643   6.701
 7202SOL    HW222506   4.693   6.639   6.667
 7203SOL     OW22507   6.998   1.247   1.564
 7203SOL    HW122508   0.067   1.220   1.547
 7203SOL    HW222509   6.938   1.169   1.547
 7204SOL     OW22510   0.182   1.404   6.509
 7204SOL    HW122511   0.243   1.377   6.435
 7204SOL    HW222512   0.199   1.499   6.534
 7205SOL     OW22513   1.458   4.169   5.652
 7205SOL    HW122514   1.425   4.160   5.558
 7205SOL    HW222515   1.401   4.115   5.714
 7206SOL     OW22516   1.546   1.118   2.171
 7206SOL    HW122517   1.631   1.066   2.159
 7206SOL    HW222518   1.474   1.079   2.113
 7207SOL     OW22519   3.767   0.536   4.433
 7207SOL    HW122520   3.678   0.565   4.398
 7207SOL    HW222521   3.763   0.439   4.458
 7208SOL     OW22522   4.790   0.239   3.400
 7208SOL    HW122523   4.810   0.177   3.324
 7208SOL    HW222524   4.751   0.188   3.476
 7209SOL     OW22525   2.273   3.070   1.705
 7209SOL    HW122526   2.362   3.085   1.660
 7209SOL    HW222527   2.234   3.159   1.731
 7210SOL     OW22528   3.976   1.997   3.641
 7210SOL    HW122529   3.955   1.899   3.641
 7210SOL    HW222530   3.912   2.045   3.582
 7211SOL     OW22531   2.132   6.146   5.123
 7211SOL    HW122532   2.166   6.142   5.029
 7211SOL    HW222533   2.034   6.124   5.124
 7212SOL     OW22534   0.401   5.930   5.406
 7212SOL    HW122535   0.499   5.948   5.401
 7212SOL    HW222536   0.353   5.987   5.339
 7213SOL     OW22537   3.355   6.358   0.147
 7213SOL    HW122538   3.434   6.322   0.197
 7213SOL    HW222539   3.330   6.296   0.073
 7214SOL     OW22540   6.336   0.309   5.662
 7214SOL    HW122541   6.318   0.264   5.574
 7214SOL    HW222542   6.410   0.375   5.652
 7215SOL     OW22543   6.102   3.165   4.370
 7215SOL    HW122544   6.136   3.205   4.455
 7215SOL    HW222545   6.170   3.103   4.332
 7216SOL     OW22546   2.887   0.328   2.306
 7216SOL    HW122547   2.929   0.278   2.382
 7216SOL    HW222548   2.806   0.376   2.339
 7217SOL     OW22549   1.853   3.489   3.388
 7217SOL    HW122550   1.809   3.481   3.299
 7217SOL    HW222551   1.874   3.585   3.406
 7218SOL     OW22552   6.604   2.941   4.542
 7218SOL    HW122553   6.628   2.973   4.634
 7218SOL    HW222554   6.589   2.842   4.543
 7219SOL     OW22555   3.303   0.930   2.760
 7219SOL    HW122556   3.354   0.992   2.820
 7219SOL    HW222557   3.344   0.931   2.669
 7220SOL     OW22558   6.520   4.686   3.862
 7220SOL    HW122559   6.540   4.755   3.932
 7220SOL    HW222560   6.502   4.732   3.775
 7221SOL     OW22561   4.051   6.206   5.047
 7221SOL    HW122562   4.001   6.236   5.128
 7221SOL    HW222563   3.991   6.153   4.988
 7222SOL     OW22564   6.292   6.490   3.767
 7222SOL    HW122565   6.367   6.427   3.746
 7222SOL    HW222566   6.220   6.441   3.816
 7223SOL     OW22567   3.251   1.576   0.791
 7223SOL    HW122568   3.269   1.503   0.725
 7223SOL    HW222569   3.155   1.603   0.785
 7224SOL     OW22570   5.011   2.603   4.077
 7224SOL    HW122571   4.962   2.691   4.072
 7224SOL    HW222572   4.946   2.529   4.063
 7225SOL     OW22573   1.326   6.450   0.513
 7225SOL    HW122574   1.306   6.526   0.451
 7225SOL    HW222575   1.275   6.369   0.484
 7226SOL     OW22576   5.710   6.800   0.970
 7226SOL    HW122577   5.761   6.716   0.986
 7226SOL    HW222578   5.682   6.840   1.057
 7227SOL     OW22579   2.524   2.144   1.207
 7227SOL    HW122580   2.599   2.198   1.244
 7227SOL    HW222581   2.551   2.048   1.200
 7228SOL     OW22582   1.398   1.385   2.351
 7228SOL    HW122583   1.437   1.468   2.391
 7228SOL    HW222584   1.471   1.327   2.316
 7229SOL     OW22585   1.041   6.344   5.728
 7229SOL    HW122586   1.006   6.256   5.696
 7229SOL    HW222587   1.127   6.329   5.778
 7230SOL     OW22588   3.329   5.739   3.945
 7230SOL    HW122589   3.311   5.822   3.893
 7230SOL    HW222590   3.268   5.666   3.912
 7231SOL     OW22591   3.813   0.587   6.664
 7231SOL    HW122592   3.885   0.525   6.632
 7231SOL    HW222593   3.730   0.573   6.609
 7232SOL     OW22594   4.752   5.724   2.730
 7232SOL    HW122595   4.720   5.632   2.753
 7232SOL    HW222596   4.771   5.729   2.632
 7233SOL     OW22597   1.506   1.543   4.118
 7233SOL    HW122598   1.602   1.547   4.093
 7233SOL    HW222599   1.487   1.456   4.164
 7234SOL     OW22600   5.872   3.074   2.838
 7234SOL    HW122601   5.951   3.042   2.786
 7234SOL    HW222602   5.850   3.167   2.808
 7235SOL     OW22603   6.781   4.187   2.017
 7235SOL    HW122604   6.855   4.121   2.006
 7235SOL    HW222605   6.696   4.139   2.037
 7236SOL     OW22606   2.645   2.040   2.651
 7236SOL    HW122607   2.625   1.951   2.693
 7236SOL    HW222608   2.578   2.107   2.682
 7237SOL     OW22609   3.955   0.208   5.037
 7237SOL    HW122610   3.894   0.145   5.085
 7237SOL    HW222611   4.047   0.169   5.032
 7238SOL     OW22612   4.223   2.083   6.300
 7238SOL    HW122613   4.254   2.006   6.244
 7238SOL    HW222614   4.302   2.133   6.335
 7239SOL     OW22615   0.910   2.248   1.428
 7239SOL    HW122616   0.966   2.173   1.393
 7239SOL    HW222617   0.834   2.264   1.365
 7240SOL     OW22618   6.999   1.265   5.716
 7240SOL    HW122619   7.017   1.185   5.773
 7240SOL    HW222620   6.944   1.331   5.767
 7241SOL     OW22621   2.633   0.364   1.247
 7241SOL    HW122622   2.626   0.280   1.194
 7241SOL    HW222623   2.699   0.351   1.321
 7242SOL     OW22624   6.337   6.002   6.863
 7242SOL    HW122625   6.266   6.054   6.815
 7242SOL    HW222626   6.391   5.950   6.797
 7243SOL     OW22627   6.632   4.440   6.551
 7243SOL    HW122628   6.600   4.440   6.456
 7243SOL    HW222629   6.719   4.390   6.556
 7244SOL     OW22630   6.910   0.651   1.520
 7244SOL    HW122631   6.887   0.729   1.578
 7244SOL    HW222632   6.906   0.679   1.424
 7245SOL     OW22633   1.554   2.864   5.071
 7245SOL    HW122634   1.623   2.811   5.022
 7245SOL    HW222635   1.476   2.805   5.094
 7246SOL     OW22636   1.223   0.320   3.427
 7246SOL    HW122637   1.265   0.390   3.370
 7246SOL    HW222638   1.249   0.335   3.522
 7247SOL     OW22639   2.321   1.349   5.035
 7247SOL    HW122640   2.236   1.391   5.066
 7247SOL    HW222641   2.395   1.375   5.097
 7248SOL     OW22642   3.194   1.378   2.927
 7248SOL    HW122643   3.220   1.425   2.843
 7248SOL    HW222644   3.128   1.434   2.978
 7249SOL     OW22645   5.083   4.963   2.168
 7249SOL    HW122646   5.107   5.058   2.185
 7249SOL    HW222647   5.083   4.913   2.255
 7250SOL     OW22648   5.565   6.196   5.605
 7250SOL    HW122649   5.528   6.153   5.688
 7250SOL    HW222650   5.573   6.295   5.621
 7251SOL     OW22651   0.479   6.594   5.754
 7251SOL    HW122652   0.569   6.606   5.711
 7251SOL    HW222653   0.434   6.515   5.714
 7252SOL     OW22654   3.583   3.395   2.280
 7252SOL    HW122655   3.663   3.344   2.312
 7252SOL    HW222656   3.500   3.355   2.317
 7253SOL     OW22657   2.238   5.977   0.002
 7253SOL    HW122658   2.216   5.924   0.084
 7253SOL    HW222659   2.154   6.013   6.988
 7254SOL     OW22660   5.425   5.253   4.520
 7254SOL    HW122661   5.410   5.242   4.619
 7254SOL    HW222662   5.508   5.204   4.494
 7255SOL     OW22663   3.799   3.889   0.363
 7255SOL    HW122664   3.739   3.872   0.442
 7255SOL    HW222665   3.844   3.977   0.373
 7256SOL     OW22666   3.152   5.893   5.007
 7256SOL    HW122667   3.100   5.970   4.970
 7256SOL    HW222668   3.145   5.893   5.107
 7257SOL     OW22669   6.807   2.007   3.719
 7257SOL    HW122670   6.766   1.979   3.631
 7257SOL    HW222671   6.800   1.931   3.784
 7258SOL     OW22672   4.799   2.261   2.646
 7258SOL    HW122673   4.807   2.244   2.745
 7258SOL    HW222674   4.853   2.341   2.622
 7259SOL     OW22675   1.916   3.591   1.658
 7259SOL    HW122676   1.896   3.635   1.570
 7259SOL    HW222677   1.841   3.529   1.681
 7260SOL     OW22678   5.220   1.646   1.608
 7260SOL    HW122679   5.267   1.558   1.599
 7260SOL    HW222680   5.246   1.689   1.695
 7261SOL     OW22681   1.571   4.157   1.634
 7261SOL    HW122682   1.567   4.196   1.726
 7261SOL    HW222683   1.577   4.231   1.567
 7262SOL     OW22684   5.387   2.647   6.481
 7262SOL    HW122685   5.351   2.638   6.388
 7262SOL    HW222686   5.316   2.622   6.547
 7263SOL     OW22687   0.630   6.382   6.753
 7263SOL    HW122688   0.600   6.310   6.691
 7263SOL    HW222689   0.608   6.358   6.847
 7264SOL     OW22690   4.789   1.807   6.745
 7264SOL    HW122691   4.747   1.894   6.773
 7264SOL    HW222692   4.849   1.823   6.667
 7265SOL     OW22693   5.346   4.936   6.324
 7265SOL    HW122694   5.439   4.973   6.326
 7265SOL    HW222695   5.329   4.882   6.406
 7266SOL     OW22696   5.635   0.409   2.467
 7266SOL    HW122697   5.556   0.360   2.504
 7266SOL    HW222698   5.612   0.505   2.454
 7267SOL     OW22699   6.219   6.075   5.253
 7267SOL    HW122700   6.222   6.070   5.353
 7267SOL    HW222701   6.225   6.170   5.223
 7268SOL     OW22702   0.032   5.673   3.865
 7268SOL    HW122703   6.988   5.699   3.932
 7268SOL    HW222704   0.043   5.746   3.798
 7269SOL     OW22705   1.178   5.874   6.201
 7269SOL    HW122706   1.217   5.817   6.129
 7269SOL    HW222707   1.251   5.905   6.261
 7270SOL     OW22708   1.008   3.006   4.663
 7270SOL    HW122709   1.036   2.989   4.757
 7270SOL    HW222710   0.915   2.972   4.650
 7271SOL     OW22711   1.292   5.156   4.710
 7271SOL    HW122712   1.225   5.230   4.709
 7271SOL    HW222713   1.284   5.105   4.796
 7272SOL     OW22714   6.066   5.232   2.743
 7272SOL    HW122715   6.131   5.192   2.807
 7272SOL    HW222716   6.016   5.306   2.788
 7273SOL     OW22717   6.342   3.991   1.292
 7273SOL    HW122718   6.384   4.071   1.336
 7273SOL    HW222719   6.309   3.929   1.363
 7274SOL     OW22720   0.428   5.292   6.149
 7274SOL    HW122721   0.352   5.232   6.171
 7274SOL    HW222722   0.393   5.380   6.117
 7275SOL     OW22723   0.572   5.919   2.714
 7275SOL    HW122724   0.477   5.917   2.744
 7275SOL    HW222725   0.580   5.874   2.625
 7276SOL     OW22726   5.167   0.775   3.189
 7276SOL    HW122727   5.086   0.757   3.133
 7276SOL    HW222728   5.202   0.867   3.168
 7277SOL     OW22729   5.273   1.038   4.153
 7277SOL    HW122730   5.199   0.985   4.111
 7277SOL    HW222731   5.338   0.976   4.196
 7278SOL     OW22732   3.793   2.474   1.611
 7278SOL    HW122733   3.745   2.548   1.658
 7278SOL    HW222734   3.831   2.410   1.678
 7279SOL     OW22735   3.907   4.791   5.540
 7279SOL    HW122736   3.907   4.760   5.635
 7279SOL    HW222737   3.841   4.738   5.488
 7280SOL     OW22738   0.054   1.602   3.945
 7280SOL    HW122739   0.077   1.642   3.856
 7280SOL    HW222740   0.115   1.525   3.963
 7281SOL     OW22741   2.637   1.372   6.933
 7281SOL    HW122742   2.631   1.448   6.999
 7281SOL    HW222743   2.731   1.364   6.900
 7282SOL     OW22744   6.267   4.801   2.955
 7282SOL    HW122745   6.236   4.843   3.040
 7282SOL    HW222746   6.238   4.705   2.953
 7283SOL     OW22747   4.899   0.989   2.563
 7283SOL    HW122748   4.948   1.071   2.533
 7283SOL    HW222749   4.955   0.939   2.630
 7284SOL     OW22750   0.163   2.457   6.180
 7284SOL    HW122751   0.089   2.487   6.241
 7284SOL    HW222752   0.151   2.501   6.091
 7285SOL     OW22753   5.322   2.856   2.338
 7285SOL    HW122754   5.272   2.836   2.253
 7285SOL    HW222755   5.393   2.786   2.351
 7286SOL     OW22756   2.550   1.159   0.614
 7286SOL    HW122757   2.601   1.144   0.530
 7286SOL    HW222758   2.464   1.206   0.593
 7287SOL     OW22759   0.489   2.392   5.959
 7287SOL    HW122760   0.460   2.301   5.931
 7287SOL    HW222761   0.583   2.409   5.928
 7288SOL     OW22762   2.122   1.116   0.678
 7288SOL    HW122763   2.093   1.026   0.712
 7288SOL    HW222764   2.210   1.106   0.631
 7289SOL     OW22765   5.030   2.218   4.183
 7289SOL    HW122766   4.933   2.195   4.191
 7289SOL    HW222767   5.065   2.245   4.273
 7290SOL     OW22768   3.651   0.998   5.116
 7290SOL    HW122769   3.555   0.998   5.090
 7290SOL    HW222770   3.684   0.904   5.120
 7291SOL     OW22771   2.018   6.443   0.862
 7291SOL    HW122772   1.973   6.356   0.843
 7291SOL    HW222773   1.994   6.474   0.954
 7292SOL     OW22774   3.688   0.972   4.143
 7292SOL    HW122775   3.598   0.946   4.179
 7292SOL    HW222776   3.678   1.005   4.049
 7293SOL     OW22777   1.334   2.097   4.607
 7293SOL    HW122778   1.327   2.059   4.699
 7293SOL    HW222779   1.260   2.163   4.593
 7294SOL     OW22780   2.596   5.201   6.757
 7294SOL    HW122781   2.584   5.206   6.856
 7294SOL    HW222782   2.643   5.284   6.725
 7295SOL     OW22783   6.302   2.712   1.350
 7295SOL    HW122784   6.259   2.741   1.436
 7295SOL    HW222785   6.243   2.737   1.273
 7296SOL     OW22786   3.397   5.963   2.410
 7296SOL    HW122787   3.373   5.867   2.397
 7296SOL    HW222788   3.318   6.020   2.386
 7297SOL     OW22789   3.912   0.287   1.630
 7297SOL    HW122790   3.942   0.288   1.535
 7297SOL    HW222791   3.882   0.195   1.655
 7298SOL     OW22792   5.281   5.303   5.899
 7298SOL    HW122793   5.221   5.251   5.839
 7298SOL    HW222794   5.256   5.287   5.995
 7299SOL     OW22795   1.005   2.243   0.823
 7299SOL    HW122796   0.931   2.305   0.798
 7299SOL    HW222797   1.005   2.228   0.922
 7300SOL     OW22798   0.747   6.507   3.534
 7300SOL    HW122799   0.712   6.597   3.562
 7300SOL    HW222800   0.755   6.448   3.614
 7301SOL     OW22801   5.879   1.659   4.335
 7301SOL    HW122802   5.964   1.638   4.384
 7301SOL    HW222803   5.887   1.747   4.289
 7302SOL     OW22804   0.748   2.196   5.429
 7302SOL    HW122805   0.795   2.247   5.501
 7302SOL    HW222806   0.696   2.121   5.470
 7303SOL     OW22807   3.905   0.425   0.231
 7303SOL    HW122808   3.862   0.360   0.293
 7303SOL    HW222809   3.859   0.513   0.237
 7304SOL     OW22810   3.209   5.690   1.713
 7304SOL    HW122811   3.175   5.776   1.675
 7304SOL    HW222812   3.244   5.707   1.806
 7305SOL     OW22813   4.531   0.916   0.690
 7305SOL    HW122814   4.606   0.955   0.638
 7305SOL    HW222815   4.491   0.840   0.638
 7306SOL     OW22816   5.039   1.453   0.689
 7306SOL    HW122817   4.993   1.431   0.775
 7306SOL    HW222818   4.977   1.438   0.612
 7307SOL     OW22819   2.736   6.409   2.340
 7307SOL    HW122820   2.816   6.428   2.396
 7307SOL    HW222821   2.752   6.439   2.246
 7308SOL     OW22822   0.026   2.881   5.715
 7308SOL    HW122823   0.046   2.978   5.730
 7308SOL    HW222824   6.968   2.872   5.662
 7309SOL     OW22825   4.474   5.279   1.267
 7309SOL    HW122826   4.536   5.223   1.323
 7309SOL    HW222827   4.380   5.262   1.295
 7310SOL     OW22828   2.320   3.730   1.300
 7310SOL    HW122829   2.354   3.751   1.208
 7310SOL    HW222830   2.363   3.792   1.366
 7311SOL     OW22831   2.101   1.667   1.325
 7311SOL    HW122832   2.165   1.728   1.371
 7311SOL    HW222833   2.056   1.716   1.250
 7312SOL     OW22834   0.954   3.730   4.942
 7312SOL    HW122835   0.867   3.759   4.903
 7312SOL    HW222836   0.968   3.774   5.031
 7313SOL     OW22837   2.353   0.734   0.258
 7313SOL    HW122838   2.282   0.804   0.252
 7313SOL    HW222839   2.401   0.727   0.171
 7314SOL     OW22840   0.146   5.276   5.736
 7314SOL    HW122841   0.107   5.344   5.673
 7314SOL    HW222842   0.240   5.301   5.757
 7315SOL     OW22843   5.988   0.056   1.963
 7315SOL    HW122844   5.923   7.006   1.959
 7315SOL    HW222845   6.017   0.080   1.871
 7316SOL     OW22846   3.056   3.882   6.827
 7316SOL    HW122847   3.101   3.798   6.855
 7316SOL    HW222848   3.122   3.941   6.780
 7317SOL     OW22849   5.257   1.211   2.998
 7317SOL    HW122850   5.346   1.258   2.997
 7317SOL    HW222851   5.213   1.222   2.910
 7318SOL     OW22852   1.743   0.559   1.878
 7318SOL    HW122853   1.670   0.572   1.945
 7318SOL    HW222854   1.724   0.614   1.797
 7319SOL     OW22855   0.380   3.265   6.501
 7319SOL    HW122856   0.465   3.216   6.516
 7319SOL    HW222857   0.322   3.258   6.582
 7320SOL     OW22858   0.451   3.728   2.774
 7320SOL    HW122859   0.408   3.817   2.787
 7320SOL    HW222860   0.550   3.738   2.770
 7321SOL     OW22861   2.003   0.475   5.762
 7321SOL    HW122862   1.993   0.393   5.705
 7321SOL    HW222863   1.913   0.513   5.782
 7322SOL     OW22864   6.686   3.050   3.521
 7322SOL    HW122865   6.779   3.062   3.556
 7322SOL    HW222866   6.626   3.119   3.563
 7323SOL     OW22867   1.408   2.620   1.997
 7323SOL    HW122868   1.475   2.561   2.041
 7323SOL    HW222869   1.317   2.580   2.006
 7324SOL     OW22870   4.443   5.903   2.013
 7324SOL    HW122871   4.450   5.890   1.914
 7324SOL    HW222872   4.347   5.896   2.041
 7325SOL     OW22873   3.255   0.128   0.254
 7325SOL    HW122874   3.229   0.069   0.330
 7325SOL    HW222875   3.268   0.221   0.287
 7326SOL     OW22876   2.588   6.076   6.466
 7326SOL    HW122877   2.523   6.094   6.540
 7326SOL    HW222878   2.546   6.100   6.379
 7327SOL     OW22879   6.301   1.511   6.005
 7327SOL    HW122880   6.231   1.548   6.066
 7327SOL    HW222881   6.350   1.438   6.051
 7328SOL     OW22882   2.927   1.150   5.584
 7328SOL    HW122883   2.925   1.139   5.684
 7328SOL    HW222884   2.881   1.072   5.541
 7329SOL     OW22885   6.403   4.236   1.472
 7329SOL    HW122886   6.309   4.268   1.479
 7329SOL    HW222887   6.459   4.285   1.539
 7330SOL     OW22888   2.576   2.321   6.782
 7330SOL    HW122889   2.583   2.221   6.777
 7330SOL    HW222890   2.620   2.361   6.701
 7331SOL     OW22891   5.168   6.458   1.725
 7331SOL    HW122892   5.139   6.406   1.805
 7331SOL    HW222893   5.210   6.544   1.754
 7332SOL     OW22894   2.689   5.839   0.368
 7332SOL    HW122895   2.716   5.929   0.404
 7332SOL    HW222896   2.603   5.848   0.317
 7333SOL     OW22897   0.104   2.804   1.947
 7333SOL    HW122898   0.050   2.868   1.894
 7333SOL    HW222899   0.060   2.714   1.946
 7334SOL     OW22900   2.795   5.551   6.817
 7334SOL    HW122901   2.874   5.593   6.862
 7334SOL    HW222902   2.823   5.465   6.775
 7335SOL     OW22903   2.153   2.218   3.121
 7335SOL    HW122904   2.240   2.266   3.134
 7335SOL    HW222905   2.082   2.263   3.175
 7336SOL     OW22906   1.958   6.510   3.014
 7336SOL    HW122907   2.019   6.440   3.052
 7336SOL    HW222908   1.929   6.572   3.087
 7337SOL     OW22909   0.651   3.237   1.365
 7337SOL    HW122910   0.742   3.203   1.389
 7337SOL    HW222911   0.623   3.309   1.429
 7338SOL     OW22912   5.791   1.959   1.533
 7338SOL    HW122913   5.858   1.887   1.545
 7338SOL    HW222914   5.724   1.932   1.463
 7339SOL     OW22915   5.979   6.935   3.814
 7339SOL    HW122916   6.056   6.993   3.787
 7339SOL    HW222917   5.898   6.992   3.828
 7340SOL     OW22918   3.133   1.750   0.469
 7340SOL    HW122919   3.051   1.691   0.473
 7340SOL    HW222920   3.193   1.719   0.395
 7341SOL     OW22921   0.857   4.043   6.358
 7341SOL    HW122922   0.911   4.056   6.441
 7341SOL    HW222923   0.808   4.127   6.337
 7342SOL     OW22924   0.341   1.644   0.546
 7342SOL    HW122925   0.286   1.663   0.465
 7342SOL    HW222926   0.344   1.725   0.604
 7343SOL     OW22927   5.965   3.594   1.509
 7343SOL    HW122928   5.888   3.554   1.559
 7343SOL    HW222929   6.033   3.523   1.491
 7344SOL     OW22930   1.556   1.142   6.278
 7344SOL    HW122931   1.632   1.181   6.332
 7344SOL    HW222932   1.509   1.072   6.332
 7345SOL     OW22933   4.029   4.788   5.164
 7345SOL    HW122934   3.958   4.854   5.188
 7345SOL    HW222935   4.019   4.706   5.222
 7346SOL     OW22936   4.172   4.718   2.128
 7346SOL    HW122937   4.177   4.693   2.225
 7346SOL    HW222938   4.099   4.784   2.114
 7347SOL     OW22939   0.690   2.216   0.496
 7347SOL    HW122940   0.778   2.200   0.451
 7347SOL    HW222941   0.662   2.134   0.546
 7348SOL     OW22942   1.810   3.782   4.373
 7348SOL    HW122943   1.725   3.834   4.376
 7348SOL    HW222944   1.791   3.685   4.387
 7349SOL     OW22945   4.966   1.533   1.309
 7349SOL    HW122946   5.004   1.499   1.223
 7349SOL    HW222947   4.960   1.458   1.374
 7350SOL     OW22948   2.392   2.728   5.639
 7350SOL    HW122949   2.306   2.763   5.677
 7350SOL    HW222950   2.396   2.752   5.541
 7351SOL     OW22951   5.690   5.753   4.858
 7351SOL    HW122952   5.616   5.686   4.854
 7351SOL    HW222953   5.712   5.785   4.766
 7352SOL     OW22954   2.023   1.226   3.244
 7352SOL    HW122955   2.069   1.234   3.333
 7352SOL    HW222956   2.003   1.317   3.209
 7353SOL     OW22957   0.883   6.723   6.212
 7353SOL    HW122958   0.825   6.763   6.283
 7353SOL    HW222959   0.840   6.736   6.122
 7354SOL     OW22960   0.912   2.294   4.909
 7354SOL    HW122961   0.882   2.270   4.817
 7354SOL    HW222962   0.833   2.325   4.963
 7355SOL     OW22963   1.269   0.651   1.078
 7355SOL    HW122964   1.191   0.672   1.019
 7355SOL    HW222965   1.333   0.728   1.077
 7356SOL     OW22966   4.087   3.671   6.227
 7356SOL    HW122967   4.009   3.732   6.234
 7356SOL    HW222968   4.097   3.620   6.312
 7357SOL     OW22969   3.285   0.061   2.009
 7357SOL    HW122970   3.294   0.131   1.938
 7357SOL    HW222971   3.255   0.105   2.094
 7358SOL     OW22972   6.332   3.504   2.506
 7358SOL    HW122973   6.239   3.469   2.506
 7358SOL    HW222974   6.381   3.471   2.426
 7359SOL     OW22975   3.923   2.246   5.693
 7359SOL    HW122976   3.889   2.214   5.781
 7359SOL    HW222977   3.870   2.204   5.619
 7360SOL     OW22978   3.017   3.449   5.571
 7360SOL    HW122979   3.010   3.367   5.628
 7360SOL    HW222980   3.110   3.458   5.537
 7361SOL     OW22981   4.359   0.489   2.047
 7361SOL    HW122982   4.438   0.501   1.987
 7361SOL    HW222983   4.380   0.527   2.137
 7362SOL     OW22984   1.435   5.170   6.167
 7362SOL    HW122985   1.518   5.156   6.112
 7362SOL    HW222986   1.439   5.114   6.249
 7363SOL     OW22987   4.634   1.724   1.722
 7363SOL    HW122988   4.714   1.665   1.709
 7363SOL    HW222989   4.554   1.680   1.682
 7364SOL     OW22990   4.652   0.452   1.473
 7364SOL    HW122991   4.675   0.492   1.384
 7364SOL    HW222992   4.635   0.526   1.538
 7365SOL     OW22993   0.083   6.081   1.918
 7365SOL    HW122994   7.012   6.074   1.941
 7365SOL    HW222995   0.100   6.032   1.832
 7366SOL     OW22996   2.627   5.931   0.002
 7366SOL    HW122997   2.592   5.921   0.095
 7366SOL    HW222998   2.566   5.885   6.965
 7367SOL     OW22999   5.512   2.430   1.234
 7367SOL    HW123000   5.530   2.488   1.314
 7367SOL    HW223001   5.429   2.377   1.250
 7368SOL     OW23002   3.661   2.898   2.749
 7368SOL    HW123003   3.745   2.851   2.777
 7368SOL    HW223004   3.658   2.989   2.791
 7369SOL     OW23005   3.713   2.210   0.551
 7369SOL    HW123006   3.742   2.214   0.455
 7369SOL    HW223007   3.621   2.248   0.559
 7370SOL     OW23008   2.629   0.986   4.485
 7370SOL    HW123009   2.629   1.037   4.398
 7370SOL    HW223010   2.695   1.028   4.547
 7371SOL     OW23011   2.538   6.604   3.665
 7371SOL    HW123012   2.481   6.635   3.588
 7371SOL    HW223013   2.484   6.605   3.749
 7372SOL     OW23014   4.968   1.061   4.295
 7372SOL    HW123015   4.917   1.032   4.376
 7372SOL    HW223016   5.018   1.145   4.315
 7373SOL     OW23017   6.024   1.926   3.770
 7373SOL    HW123018   5.987   1.872   3.695
 7373SOL    HW223019   6.112   1.887   3.799
 7374SOL     OW23020   2.950   1.853   4.965
 7374SOL    HW123021   2.976   1.944   4.997
 7374SOL    HW223022   2.855   1.854   4.936
 7375SOL     OW23023   2.650   2.408   2.939
 7375SOL    HW123024   2.729   2.384   2.883
 7375SOL    HW223025   2.647   2.348   3.019
 7376SOL     OW23026   1.977   2.156   0.256
 7376SOL    HW123027   2.055   2.140   0.317
 7376SOL    HW223028   1.892   2.127   0.301
 7377SOL     OW23029   5.550   4.713   0.683
 7377SOL    HW123030   5.501   4.633   0.716
 7377SOL    HW223031   5.638   4.720   0.731
 7378SOL     OW23032   0.464   0.742   5.692
 7378SOL    HW123033   0.498   0.813   5.630
 7378SOL    HW223034   0.382   0.701   5.653
 7379SOL     OW23035   3.209   2.016   2.465
 7379SOL    HW123036   3.148   2.079   2.418
 7379SOL    HW223037   3.204   1.926   2.422
 7380SOL     OW23038   6.937   4.442   3.977
 7380SOL    HW123039   6.940   4.346   3.947
 7380SOL    HW223040   0.004   4.478   3.982
 7381SOL     OW23041   3.986   3.023   0.919
 7381SOL    HW123042   3.933   2.945   0.951
 7381SOL    HW223043   4.065   3.036   0.979
 7382SOL     OW23044   0.613   0.060   5.155
 7382SOL    HW123045   0.680   7.021   5.122
 7382SOL    HW223046   0.645   0.102   5.240
 7383SOL     OW23047   2.643   6.359   0.931
 7383SOL    HW123048   2.701   6.372   1.011
 7383SOL    HW223049   2.575   6.288   0.951
 7384SOL     OW23050   6.001   6.424   2.916
 7384SOL    HW123051   6.025   6.509   2.964
 7384SOL    HW223052   5.902   6.420   2.902
 7385SOL     OW23053   3.355   5.620   2.714
 7385SOL    HW123054   3.395   5.603   2.804
 7385SOL    HW223055   3.298   5.702   2.717
 7386SOL     OW23056   0.328   2.817   6.982
 7386SOL    HW123057   0.394   2.884   7.014
 7386SOL    HW223058   0.264   2.861   6.918
 7387SOL     OW23059   5.956   6.016   5.717
 7387SOL    HW123060   5.857   6.002   5.722
 7387SOL    HW223061   5.989   6.049   5.805
 7388SOL     OW23062   1.211   5.695   2.053
 7388SOL    HW123063   1.232   5.669   2.148
 7388SOL    HW223064   1.205   5.794   2.047
 7389SOL     OW23065   5.799   4.155   6.006
 7389SOL    HW123066   5.878   4.146   5.945
 7389SOL    HW223067   5.720   4.188   5.953
 7390SOL     OW23068   1.842   2.310   1.207
 7390SOL    HW123069   1.764   2.250   1.189
 7390SOL    HW223070   1.854   2.373   1.131
 7391SOL     OW23071   4.109   3.288   3.596
 7391SOL    HW123072   4.090   3.311   3.692
 7391SOL    HW223073   4.042   3.222   3.563
 7392SOL     OW23074   2.787   6.072   6.867
 7392SOL    HW123075   2.746   6.015   6.938
 7392SOL    HW223076   2.751   6.165   6.875
 7393SOL     OW23077   6.266   4.787   2.480
 7393SOL    HW123078   6.211   4.849   2.536
 7393SOL    HW223079   6.363   4.801   2.500
 7394SOL     OW23080   2.176   2.832   5.758
 7394SOL    HW123081   2.116   2.757   5.785
 7394SOL    HW223082   2.230   2.862   5.837
 7395SOL     OW23083   1.451   3.137   1.305
 7395SOL    HW123084   1.437   3.204   1.233
 7395SOL    HW223085   1.513   3.174   1.374
 7396SOL     OW23086   1.753   6.450   1.484
 7396SOL    HW123087   1.739   6.532   1.429
 7396SOL    HW223088   1.846   6.417   1.471
 7397SOL     OW23089   4.403   5.499   4.554
 7397SOL    HW123090   4.474   5.481   4.622
 7397SOL    HW223091   4.404   5.595   4.529
 7398SOL     OW23092   1.426   4.421   3.419
 7398SOL    HW123093   1.447   4.403   3.515
 7398SOL    HW223094   1.364   4.350   3.384
 7399SOL     OW23095   0.690   2.879   4.340
 7399SOL    HW123096   0.670   2.902   4.436
 7399SOL    HW223097   0.624   2.810   4.308
 7400SOL     OW23098   4.231   2.987   5.970
 7400SOL    HW123099   4.294   2.982   5.892
 7400SOL    HW223100   4.140   3.012   5.937
 7401SOL     OW23101   1.333   2.706   3.736
 7401SOL    HW123102   1.359   2.759   3.655
 7401SOL    HW223103   1.245   2.662   3.720
 7402SOL     OW23104   2.933   5.435   6.305
 7402SOL    HW123105   3.019   5.457   6.258
 7402SOL    HW223106   2.950   5.363   6.372
 7403SOL     OW23107   1.869   3.663   2.126
 7403SOL    HW123108   1.808   3.735   2.092
 7403SOL    HW223109   1.949   3.656   2.066
 7404SOL     OW23110   2.280   4.772   1.788
 7404SOL    HW123111   2.304   4.689   1.739
 7404SOL    HW223112   2.207   4.753   1.854
 7405SOL     OW23113   3.524   4.971   4.599
 7405SOL    HW123114   3.426   4.955   4.610
 7405SOL    HW223115   3.545   4.980   4.501
 7406SOL     OW23116   0.400   2.642   3.458
 7406SOL    HW123117   0.391   2.609   3.364
 7406SOL    HW223118   0.416   2.564   3.519
 7407SOL     OW23119   0.941   6.601   5.365
 7407SOL    HW123120   0.957   6.698   5.383
 7407SOL    HW223121   0.907   6.557   5.448
 7408SOL     OW23122   3.113   4.146   7.020
 7408SOL    HW123123   3.135   4.049   7.025
 7408SOL    HW223124   3.196   4.200   0.008
 7409SOL     OW23125   5.152   3.238   0.292
 7409SOL    HW123126   5.119   3.180   0.367
 7409SOL    HW223127   5.119   3.203   0.205
 7410SOL     OW23128   0.269   0.436   0.660
 7410SOL    HW123129   0.178   0.397   0.642
 7410SOL    HW223130   0.298   0.491   0.582
 7411SOL     OW23131   1.721   0.538   6.745
 7411SOL    HW123132   1.643   0.602   6.747
 7411SOL    HW223133   1.752   0.526   6.651
 7412SOL     OW23134   4.629   0.511   1.942
 7412SOL    HW123135   4.675   0.447   1.879
 7412SOL    HW223136   4.625   0.602   1.900
 7413SOL     OW23137   4.717   5.284   3.722
 7413SOL    HW123138   4.699   5.382   3.706
 7413SOL    HW223139   4.701   5.263   3.818
 7414SOL     OW23140   0.765   1.231   3.136
 7414SOL    HW123141   0.809   1.321   3.146
 7414SOL    HW223142   0.668   1.243   3.120
 7415SOL     OW23143   1.492   4.600   4.594
 7415SOL    HW123144   1.480   4.514   4.544
 7415SOL    HW223145   1.587   4.607   4.625
 7416SOL     OW23146   2.034   1.120   2.499
 7416SOL    HW123147   2.100   1.090   2.568
 7416SOL    HW223148   2.052   1.216   2.475
 7417SOL     OW23149   2.173   1.920   1.429
 7417SOL    HW123150   2.244   1.973   1.383
 7417SOL    HW223151   2.083   1.950   1.396
 7418SOL     OW23152   1.886   5.827   0.620
 7418SOL    HW123153   1.860   5.918   0.589
 7418SOL    HW223154   1.897   5.827   0.719
 7419SOL     OW23155   6.999   3.672   4.488
 7419SOL    HW123156   6.934   3.601   4.516
 7419SOL    HW223157   0.065   3.641   4.509
 7420SOL     OW23158   0.567   6.265   1.632
 7420SOL    HW123159   0.616   6.296   1.713
 7420SOL    HW223160   0.473   6.243   1.656
 7421SOL     OW23161   4.160   3.883   1.099
 7421SOL    HW123162   4.067   3.875   1.061
 7421SOL    HW223163   4.219   3.814   1.056
 7422SOL     OW23164   0.340   4.201   1.982
 7422SOL    HW123165   0.278   4.264   1.935
 7422SOL    HW223166   0.434   4.233   1.973
 7423SOL     OW23167   6.344   2.922   5.730
 7423SOL    HW123168   6.402   3.002   5.716
 7423SOL    HW223169   6.339   2.869   5.646
 7424SOL     OW23170   6.948   0.617   5.459
 7424SOL    HW123171   6.957   0.692   5.525
 7424SOL    HW223172   6.951   0.530   5.507
 7425SOL     OW23173   4.245   6.304   0.313
 7425SOL    HW123174   4.319   6.246   0.279
 7425SOL    HW223175   4.243   6.390   0.262
 7426SOL     OW23176   3.125   1.627   5.414
 7426SOL    HW123177   3.084   1.593   5.329
 7426SOL    HW223178   3.057   1.626   5.487
 7427SOL     OW23179   5.243   0.548   3.364
 7427SOL    HW123180   5.228   0.601   3.281
 7427SOL    HW223181   5.334   0.568   3.400
 7428SOL     OW23182   4.542   1.812   5.197
 7428SOL    HW123183   4.598   1.870   5.137
 7428SOL    HW223184   4.499   1.868   5.267
 7429SOL     OW23185   0.244   6.307   3.925
 7429SOL    HW123186   0.319   6.360   3.885
 7429SOL    HW223187   0.158   6.332   3.879
 7430SOL     OW23188   1.536   3.474   0.833
 7430SOL    HW123189   1.479   3.418   0.893
 7430SOL    HW223190   1.516   3.570   0.847
 7431SOL     OW23191   1.019   2.632   2.501
 7431SOL    HW123192   1.017   2.715   2.445
 7431SOL    HW223193   0.965   2.647   2.584
 7432SOL     OW23194   1.164   0.490   3.056
 7432SOL    HW123195   1.135   0.402   3.094
 7432SOL    HW223196   1.250   0.518   3.099
 7433SOL     OW23197   4.232   5.774   6.154
 7433SOL    HW123198   4.311   5.734   6.198
 7433SOL    HW223199   4.188   5.705   6.095
 7434SOL     OW23200   4.900   4.892   4.979
 7434SOL    HW123201   4.973   4.835   5.018
 7434SOL    HW223202   4.939   4.951   4.908
 7435SOL     OW23203   4.341   5.939   1.655
 7435SOL    HW123204   4.374   5.989   1.576
 7435SOL    HW223205   4.265   5.988   1.697
 7436SOL     OW23206   3.961   4.306   6.673
 7436SOL    HW123207   3.912   4.269   6.593
 7436SOL    HW223208   3.900   4.306   6.752
 7437SOL     OW23209   2.010   5.796   0.072
 7437SOL    HW123210   2.051   5.741   7.025
 7437SOL    HW223211   1.969   5.878   0.032
 7438SOL     OW23212   1.141   6.208   0.500
 7438SOL    HW123213   1.087   6.266   0.561
 7438SOL    HW223214   1.144   6.249   0.409
 7439SOL     OW23215   1.680   6.440   6.158
 7439SOL    HW123216   1.598   6.493   6.139
 7439SOL    HW223217   1.730   6.481   6.234
 7440SOL     OW23218   0.244   3.143   3.769
 7440SOL    HW123219   0.336   3.176   3.750
 7440SOL    HW223220   0.225   3.150   3.867
 7441SOL     OW23221   5.376   6.937   4.393
 7441SOL    HW123222   5.403   6.959   4.487
 7441SOL    HW223223   5.457   6.913   4.339
 7442SOL     OW23224   6.254   1.314   6.376
 7442SOL    HW123225   6.347   1.288   6.403
 7442SOL    HW223226   6.220   1.386   6.436
 7443SOL     OW23227   6.320   6.329   1.637
 7443SOL    HW123228   6.259   6.363   1.565
 7443SOL    HW223229   6.384   6.263   1.597
 7444SOL     OW23230   5.500   2.534   6.855
 7444SOL    HW123231   5.475   2.518   6.951
 7444SOL    HW223232   5.421   2.515   6.797
 7445SOL     OW23233   3.730   0.219   0.979
 7445SOL    HW123234   3.677   0.282   0.923
 7445SOL    HW223235   3.806   0.269   1.023
 7446SOL     OW23236   5.589   3.060   0.795
 7446SOL    HW123237   5.575   2.961   0.790
 7446SOL    HW223238   5.547   3.104   0.715
 7447SOL     OW23239   6.648   3.743   6.781
 7447SOL    HW123240   6.551   3.723   6.794
 7447SOL    HW223241   6.658   3.811   6.709
 7448SOL     OW23242   6.485   0.006   5.103
 7448SOL    HW123243   6.562   7.011   5.044
 7448SOL    HW223244   6.408   6.972   5.082
 7449SOL     OW23245   0.624   4.279   1.882
 7449SOL    HW123246   0.655   4.247   1.792
 7449SOL    HW223247   0.699   4.276   1.947
 7450SOL     OW23248   5.463   2.770   5.119
 7450SOL    HW123249   5.555   2.755   5.085
 7450SOL    HW223250   5.413   2.683   5.122
 7451SOL     OW23251   6.520   5.771   2.713
 7451SOL    HW123252   6.589   5.699   2.706
 7451SOL    HW223253   6.451   5.758   2.643
 7452SOL     OW23254   6.074   6.201   4.207
 7452SOL    HW123255   6.040   6.294   4.189
 7452SOL    HW223256   6.033   6.137   4.143
 7453SOL     OW23257   5.713   5.083   4.886
 7453SOL    HW123258   5.618   5.059   4.869
 7453SOL    HW223259   5.725   5.182   4.880
 7454SOL     OW23260   1.604   2.179   1.108
 7454SOL    HW123261   1.647   2.154   1.021
 7454SOL    HW223262   1.514   2.136   1.115
 7455SOL     OW23263   6.749   2.701   1.230
 7455SOL    HW123264   6.673   2.738   1.177
 7455SOL    HW223265   6.773   2.764   1.304
 7456SOL     OW23266   1.131   0.932   4.666
 7456SOL    HW123267   1.120   0.861   4.735
 7456SOL    HW223268   1.104   0.896   4.576
 7457SOL     OW23269   3.231   0.957   5.241
 7457SOL    HW123270   3.133   0.961   5.258
 7457SOL    HW223271   3.256   0.865   5.213
 7458SOL     OW23272   2.170   6.602   6.084
 7458SOL    HW123273   2.262   6.636   6.099
 7458SOL    HW223274   2.103   6.669   6.114
 7459SOL     OW23275   5.284   0.212   1.927
 7459SOL    HW123276   5.191   0.248   1.922
 7459SOL    HW223277   5.306   0.188   2.022
 7460SOL     OW23278   0.621   5.030   0.649
 7460SOL    HW123279   0.536   5.077   0.674
 7460SOL    HW223280   0.608   4.980   0.564
 7461SOL     OW23281   6.454   6.795   6.826
 7461SOL    HW123282   6.407   6.872   6.870
 7461SOL    HW223283   6.473   6.725   6.893
 7462SOL     OW23284   1.291   4.406   1.905
 7462SOL    HW123285   1.300   4.505   1.900
 7462SOL    HW223286   1.194   4.381   1.902
 7463SOL     OW23287   2.536   4.812   0.703
 7463SOL    HW123288   2.586   4.800   0.789
 7463SOL    HW223289   2.532   4.725   0.654
 7464SOL     OW23290   5.056   0.068   6.437
 7464SOL    HW123291   5.018   7.008   6.468
 7464SOL    HW223292   5.000   0.103   6.361
 7465SOL     OW23293   2.653   5.686   6.605
 7465SOL    HW123294   2.687   5.779   6.615
 7465SOL    HW223295   2.693   5.628   6.676
 7466SOL     OW23296   0.177   0.300   5.068
 7466SOL    HW123297   0.141   0.355   5.144
 7466SOL    HW223298   0.168   0.352   4.983
 7467SOL     OW23299   0.296   1.224   6.705
 7467SOL    HW123300   0.283   1.291   6.632
 7467SOL    HW223301   0.346   1.266   6.781
 7468SOL     OW23302   6.150   3.370   3.494
 7468SOL    HW123303   6.190   3.348   3.405
 7468SOL    HW223304   6.167   3.466   3.516
 7469SOL     OW23305   6.962   0.092   0.190
 7469SOL    HW123306   0.009   0.025   0.186
 7469SOL    HW223307   6.898   0.067   0.263
 7470SOL     OW23308   6.205   3.572   3.151
 7470SOL    HW123309   6.160   3.660   3.136
 7470SOL    HW223310   6.136   3.500   3.155
 7471SOL     OW23311   5.176   6.668   5.547
 7471SOL    HW123312   5.211   6.712   5.464
 7471SOL    HW223313   5.246   6.607   5.585
 7472SOL     OW23314   5.865   0.943   6.112
 7472SOL    HW123315   5.869   1.042   6.127
 7472SOL    HW223316   5.831   0.898   6.195
 7473SOL     OW23317   5.191   5.579   3.902
 7473SOL    HW123318   5.186   5.514   3.826
 7473SOL    HW223319   5.200   5.672   3.866
 7474SOL     OW23320   0.188   1.591   5.676
 7474SOL    HW123321   0.114   1.659   5.681
 7474SOL    HW223322   0.210   1.572   5.581
 7475SOL     OW23323   5.158   2.286   2.346
 7475SOL    HW123324   5.175   2.377   2.385
 7475SOL    HW223325   5.093   2.294   2.271
 7476SOL     OW23326   3.565   1.163   3.535
 7476SOL    HW123327   3.505   1.089   3.564
 7476SOL    HW223328   3.564   1.170   3.435
 7477SOL     OW23329   6.771   2.169   5.019
 7477SOL    HW123330   6.684   2.209   4.989
 7477SOL    HW223331   6.772   2.164   5.119
 7478SOL     OW23332   6.684   3.942   5.756
 7478SOL    HW123333   6.648   3.947   5.849
 7478SOL    HW223334   6.676   3.849   5.722
 7479SOL     OW23335   4.202   1.903   2.320
 7479SOL    HW123336   4.188   1.827   2.383
 7479SOL    HW223337   4.213   1.867   2.227
 7480SOL     OW23338   1.183   4.884   2.240
 7480SOL    HW123339   1.270   4.914   2.279
 7480SOL    HW223340   1.199   4.813   2.172
 7481SOL     OW23341   5.735   5.393   0.940
 7481SOL    HW123342   5.731   5.462   0.867
 7481SOL    HW223343   5.816   5.408   0.996
 7482SOL     OW23344   4.438   2.430   2.795
 7482SOL    HW123345   4.511   2.470   2.740
 7482SOL    HW223346   4.479   2.370   2.865
 7483SOL     OW23347   5.001   3.564   4.219
 7483SOL    HW123348   5.088   3.572   4.269
 7483SOL    HW223349   4.981   3.468   4.202
 7484SOL     OW23350   1.362   6.245   4.032
 7484SOL    HW123351   1.328   6.330   3.991
 7484SOL    HW223352   1.407   6.265   4.118
 7485SOL     OW23353   3.123   0.225   4.332
 7485SOL    HW123354   3.075   0.152   4.381
 7485SOL    HW223355   3.059   0.269   4.268
 7486SOL     OW23356   1.164   5.939   0.614
 7486SOL    HW123357   1.162   6.038   0.601
 7486SOL    HW223358   1.239   5.900   0.560
 7487SOL     OW23359   2.228   0.560   3.061
 7487SOL    HW123360   2.295   0.608   3.117
 7487SOL    HW223361   2.165   0.509   3.120
 7488SOL     OW23362   2.491   5.557   4.965
 7488SOL    HW123363   2.439   5.626   4.914
 7488SOL    HW223364   2.566   5.602   5.014
 7489SOL     OW23365   6.142   2.596   6.029
 7489SOL    HW123366   6.061   2.578   6.083
 7489SOL    HW223367   6.135   2.686   5.986
 7490SOL     OW23368   1.139   0.222   3.161
 7490SOL    HW123369   1.189   0.229   3.247
 7490SOL    HW223370   1.096   0.132   3.155
 7491SOL     OW23371   4.185   3.332   6.260
 7491SOL    HW123372   4.219   3.388   6.336
 7491SOL    HW223373   4.086   3.322   6.267
 7492SOL     OW23374   1.750   0.624   3.586
 7492SOL    HW123375   1.721   0.692   3.518
 7492SOL    HW223376   1.672   0.598   3.643
 7493SOL     OW23377   0.838   2.962   6.375
 7493SOL    HW123378   0.877   2.872   6.395
 7493SOL    HW223379   0.834   2.976   6.276
 7494SOL     OW23380   5.785   1.260   3.004
 7494SOL    HW123381   5.843   1.308   2.938
 7494SOL    HW223382   5.800   1.298   3.095
 7495SOL     OW23383   1.893   2.334   6.840
 7495SOL    HW123384   1.930   2.243   6.854
 7495SOL    HW223385   1.819   2.351   6.906
 7496SOL     OW23386   6.826   3.825   3.336
 7496SOL    HW123387   6.811   3.733   3.371
 7496SOL    HW223388   6.753   3.886   3.368
 7497SOL     OW23389   1.879   4.431   1.609
 7497SOL    HW123390   1.827   4.415   1.693
 7497SOL    HW223391   1.856   4.361   1.542
 7498SOL     OW23392   3.005   1.218   5.163
 7498SOL    HW123393   3.074   1.270   5.215
 7498SOL    HW223394   2.920   1.270   5.160
 7499SOL     OW23395   4.168   1.973   3.100
 7499SOL    HW123396   4.266   1.975   3.121
 7499SOL    HW223397   4.126   1.895   3.147
 7500SOL     OW23398   3.500   6.091   3.395
 7500SOL    HW123399   3.443   6.068   3.316
 7500SOL    HW223400   3.571   6.022   3.406
 7501SOL     OW23401   5.118   4.056   4.762
 7501SOL    HW123402   5.165   4.000   4.830
 7501SOL    HW223403   5.023   4.071   4.791
 7502SOL     OW23404   2.907   1.186   4.442
 7502SOL    HW123405   2.996   1.154   4.409
 7502SOL    HW223406   2.886   1.143   4.529
 7503SOL     OW23407   2.410   6.783   1.630
 7503SOL    HW123408   2.318   6.818   1.647
 7503SOL    HW223409   2.431   6.790   1.533
 7504SOL     OW23410   0.648   6.201   3.869
 7504SOL    HW123411   0.652   6.206   3.968
 7504SOL    HW223412   0.732   6.238   3.830
 7505SOL     OW23413   1.425   2.963   5.705
 7505SOL    HW123414   1.476   2.974   5.620
 7505SOL    HW223415   1.341   2.911   5.688
 7506SOL     OW23416   5.579   2.020   3.544
 7506SOL    HW123417   5.502   2.080   3.525
 7506SOL    HW223418   5.546   1.926   3.553
 7507SOL     OW23419   6.382   1.696   2.512
 7507SOL    HW123420   6.430   1.692   2.424
 7507SOL    HW223421   6.331   1.611   2.525
 7508SOL     OW23422   1.646   5.646   1.062
 7508SOL    HW123423   1.645   5.732   1.012
 7508SOL    HW223424   1.567   5.591   1.035
 7509SOL     OW23425   6.212   3.670   0.867
 7509SOL    HW123426   6.250   3.760   0.844
 7509SOL    HW223427   6.162   3.634   0.788
 7510SOL     OW23428   3.077   3.595   5.195
 7510SOL    HW123429   3.054   3.528   5.124
 7510SOL    HW223430   3.075   3.687   5.156
 7511SOL     OW23431   2.751   5.900   3.348
 7511SOL    HW123432   2.696   5.818   3.369
 7511SOL    HW223433   2.847   5.882   3.371
 7512SOL     OW23434   2.957   0.303   6.384
 7512SOL    HW123435   2.936   0.254   6.469
 7512SOL    HW223436   2.878   0.301   6.323
 7513SOL     OW23437   1.074   1.511   1.720
 7513SOL    HW123438   1.111   1.549   1.805
 7513SOL    HW223439   1.079   1.579   1.648
 7514SOL     OW23440   2.378   4.829   2.577
 7514SOL    HW123441   2.316   4.899   2.612
 7514SOL    HW223442   2.371   4.824   2.477
 7515SOL     OW23443   6.799   5.453   4.602
 7515SOL    HW123444   6.883   5.486   4.559
 7515SOL    HW223445   6.726   5.519   4.586
 7516SOL     OW23446   6.608   5.313   6.270
 7516SOL    HW123447   6.642   5.310   6.364
 7516SOL    HW223448   6.539   5.241   6.257
 7517SOL     OW23449   0.009   1.925   0.085
 7517SOL    HW123450   0.045   1.861   0.153
 7517SOL    HW223451   6.936   1.929   0.095
 7518SOL     OW23452   4.871   3.883   4.190
 7518SOL    HW123453   4.850   3.868   4.287
 7518SOL    HW223454   4.846   3.801   4.138
 7519SOL     OW23455   6.941   6.528   4.531
 7519SOL    HW123456   6.957   6.535   4.433
 7519SOL    HW223457   6.969   6.437   4.563
 7520SOL     OW23458   2.375   0.564   2.834
 7520SOL    HW123459   2.330   0.579   2.922
 7520SOL    HW223460   2.306   0.558   2.762
 7521SOL     OW23461   4.566   2.742   5.702
 7521SOL    HW123462   4.617   2.719   5.619
 7521SOL    HW223463   4.604   2.692   5.780
 7522SOL     OW23464   1.457   1.198   5.678
 7522SOL    HW123465   1.386   1.128   5.677
 7522SOL    HW223466   1.419   1.284   5.645
 7523SOL     OW23467   4.708   0.513   6.392
 7523SOL    HW123468   4.806   0.495   6.383
 7523SOL    HW223469   4.689   0.607   6.362
 7524SOL     OW23470   0.966   2.574   4.852
 7524SOL    HW123471   0.890   2.639   4.854
 7524SOL    HW223472   0.934   2.483   4.878
 7525SOL     OW23473   3.512   0.546   0.011
 7525SOL    HW123474   3.505   0.645   0.003
 7525SOL    HW223475   3.607   0.518   7.024
 7526SOL     OW23476   2.691   2.892   1.438
 7526SOL    HW123477   2.642   2.936   1.513
 7526SOL    HW223478   2.782   2.933   1.429
 7527SOL     OW23479   3.217   6.352   3.828
 7527SOL    HW123480   3.264   6.378   3.743
 7527SOL    HW223481   3.155   6.425   3.855
 7528SOL     OW23482   6.473   2.043   6.721
 7528SOL    HW123483   6.436   1.952   6.737
 7528SOL    HW223484   6.451   2.102   6.799
 7529SOL     OW23485   5.700   1.611   4.519
 7529SOL    HW123486   5.699   1.517   4.555
 7529SOL    HW223487   5.785   1.626   4.469
 7530SOL     OW23488   6.698   2.221   2.487
 7530SOL    HW123489   6.697   2.189   2.582
 7530SOL    HW223490   6.790   2.249   2.462
 7531SOL     OW23491   5.631   3.217   4.319
 7531SOL    HW123492   5.623   3.197   4.417
 7531SOL    HW223493   5.628   3.131   4.267
 7532SOL     OW23494   4.462   6.292   0.676
 7532SOL    HW123495   4.498   6.377   0.714
 7532SOL    HW223496   4.366   6.305   0.651
 7533SOL     OW23497   3.494   1.919   1.652
 7533SOL    HW123498   3.587   1.886   1.638
 7533SOL    HW223499   3.495   1.993   1.720
 7534SOL     OW23500   4.654   6.107   4.897
 7534SOL    HW123501   4.637   6.019   4.943
 7534SOL    HW223502   4.669   6.091   4.800
 7535SOL     OW23503   1.983   0.301   4.732
 7535SOL    HW123504   2.072   0.259   4.715
 7535SOL    HW223505   1.978   0.389   4.684
 7536SOL     OW23506   5.286   4.180   4.140
 7536SOL    HW123507   5.365   4.119   4.145
 7536SOL    HW223508   5.210   4.140   4.191
 7537SOL     OW23509   1.697   5.011   2.398
 7537SOL    HW123510   1.676   5.079   2.468
 7537SOL    HW223511   1.734   5.056   2.317
 7538SOL     OW23512   1.913   2.229   1.821
 7538SOL    HW123513   1.868   2.308   1.862
 7538SOL    HW223514   1.871   2.209   1.733
 7539SOL     OW23515   1.736   3.502   4.423
 7539SOL    HW123516   1.644   3.463   4.412
 7539SOL    HW223517   1.792   3.440   4.478
 7540SOL     OW23518   4.558   0.854   4.976
 7540SOL    HW123519   4.644   0.836   4.929
 7540SOL    HW223520   4.482   0.841   4.912
 7541SOL     OW23521   0.454   3.791   4.854
 7541SOL    HW123522   0.411   3.800   4.944
 7541SOL    HW223523   0.413   3.857   4.791
 7542SOL     OW23524   0.737   5.622   0.052
 7542SOL    HW123525   0.751   5.600   0.148
 7542SOL    HW223526   0.684   5.707   0.045
 7543SOL     OW23527   3.663   1.212   5.292
 7543SOL    HW123528   3.646   1.204   5.391
 7543SOL    HW223529   3.643   1.124   5.248
 7544SOL     OW23530   6.427   2.563   4.309
 7544SOL    HW123531   6.510   2.603   4.270
 7544SOL    HW223532   6.361   2.635   4.329
 7545SOL     OW23533   0.752   6.112   6.471
 7545SOL    HW123534   0.681   6.180   6.488
 7545SOL    HW223535   0.783   6.074   6.559
 7546SOL     OW23536   4.202   2.164   1.372
 7546SOL    HW123537   4.173   2.164   1.468
 7546SOL    HW223538   4.156   2.090   1.323
 7547SOL     OW23539   5.165   1.653   0.822
 7547SOL    HW123540   5.120   1.742   0.821
 7547SOL    HW223541   5.115   1.589   0.764
 7548SOL     OW23542   4.198   2.441   6.457
 7548SOL    HW123543   4.217   2.467   6.362
 7548SOL    HW223544   4.278   2.396   6.496
 7549SOL     OW23545   3.577   3.669   6.572
 7549SOL    HW123546   3.562   3.674   6.670
 7549SOL    HW223547   3.531   3.589   6.535
 7550SOL     OW23548   2.011   4.736   3.979
 7550SOL    HW123549   1.979   4.666   3.916
 7550SOL    HW223550   2.096   4.776   3.944
 7551SOL     OW23551   5.907   3.110   5.785
 7551SOL    HW123552   5.897   3.085   5.882
 7551SOL    HW223553   5.817   3.107   5.741
 7552SOL     OW23554   1.402   6.158   3.484
 7552SOL    HW123555   1.357   6.227   3.540
 7552SOL    HW223556   1.429   6.080   3.541
 7553SOL     OW23557   4.280   0.433   5.796
 7553SOL    HW123558   4.245   0.527   5.802
 7553SOL    HW223559   4.208   0.373   5.761
 7554SOL     OW23560   5.260   0.948   6.695
 7554SOL    HW123561   5.163   0.925   6.688
 7554SOL    HW223562   5.299   0.902   6.775
 7555SOL     OW23563   3.181   5.457   6.164
 7555SOL    HW123564   3.231   5.385   6.212
 7555SOL    HW223565   3.243   5.508   6.105
 7556SOL     OW23566   2.712   2.501   0.335
 7556SOL    HW123567   2.757   2.519   0.247
 7556SOL    HW223568   2.780   2.505   0.408
 7557SOL     OW23569   5.341   0.933   6.408
 7557SOL    HW123570   5.344   0.957   6.505
 7557SOL    HW223571   5.254   0.963   6.369
 7558SOL     OW23572   1.919   2.834   4.390
 7558SOL    HW123573   1.845   2.897   4.368
 7558SOL    HW223574   1.995   2.884   4.431
 7559SOL     OW23575   3.925   2.905   6.315
 7559SOL    HW123576   3.872   2.959   6.250
 7559SOL    HW223577   4.022   2.910   6.291
 7560SOL     OW23578   4.747   6.641   0.467
 7560SOL    HW123579   4.647   6.640   0.460
 7560SOL    HW223580   4.774   6.624   0.562
 7561SOL     OW23581   0.027   3.439   6.168
 7561SOL    HW123582   6.966   3.397   6.144
 7561SOL    HW223583   0.062   3.399   6.253
 7562SOL     OW23584   0.299   5.644   5.325
 7562SOL    HW123585   0.392   5.679   5.338
 7562SOL    HW223586   0.236   5.694   5.384
 7563SOL     OW23587   3.026   0.297   1.652
 7563SOL    HW123588   3.110   0.337   1.688
 7563SOL    HW223589   3.048   0.220   1.593
 7564SOL     OW23590   4.088   0.720   4.010
 7564SOL    HW123591   3.997   0.737   4.050
 7564SOL    HW223592   4.153   0.702   4.083
 7565SOL     OW23593   5.798   3.695   6.790
 7565SOL    HW123594   5.816   3.631   6.715
 7565SOL    HW223595   5.809   3.647   6.877
 7566SOL     OW23596   5.620   5.104   2.656
 7566SOL    HW123597   5.537   5.128   2.706
 7566SOL    HW223598   5.602   5.111   2.558
 7567SOL     OW23599   1.848   1.395   5.804
 7567SOL    HW123600   1.895   1.475   5.767
 7567SOL    HW223601   1.754   1.420   5.828
 7568SOL     OW23602   5.609   4.472   3.022
 7568SOL    HW123603   5.670   4.515   3.088
 7568SOL    HW223604   5.550   4.542   2.980
 7569SOL     OW23605   3.241   4.309   6.012
 7569SOL    HW123606   3.312   4.360   5.964
 7569SOL    HW223607   3.161   4.369   6.025
 7570SOL     OW23608   5.317   3.850   4.318
 7570SOL    HW123609   5.244   3.842   4.250
 7570SOL    HW223610   5.289   3.916   4.388
 7571SOL     OW23611   4.654   4.373   3.180
 7571SOL    HW123612   4.627   4.327   3.264
 7571SOL    HW223613   4.743   4.338   3.151
 7572SOL     OW23614   5.073   0.782   2.207
 7572SOL    HW123615   5.116   0.692   2.203
 7572SOL    HW223616   4.976   0.772   2.229
 7573SOL     OW23617   0.225   6.960   5.335
 7573SOL    HW123618   0.191   6.986   5.244
 7573SOL    HW223619   0.322   6.934   5.328
 7574SOL     OW23620   5.156   0.885   5.731
 7574SOL    HW123621   5.153   0.982   5.754
 7574SOL    HW223622   5.161   0.874   5.632
 7575SOL     OW23623   5.318   0.164   6.834
 7575SOL    HW123624   5.370   0.229   6.779
 7575SOL    HW223625   5.222   0.192   6.836
 7576SOL     OW23626   5.080   3.328   0.555
 7576SOL    HW123627   5.002   3.296   0.501
 7576SOL    HW223628   5.090   3.271   0.636
 7577SOL     OW23629   0.707   6.595   6.561
 7577SOL    HW123630   0.666   6.545   6.637
 7577SOL    HW223631   0.745   6.530   6.495
 7578SOL     OW23632   3.076   5.342   2.901
 7578SOL    HW123633   3.054   5.251   2.934
 7578SOL    HW223634   3.174   5.347   2.879
 7579SOL     OW23635   0.389   1.720   1.897
 7579SOL    HW123636   0.486   1.700   1.913
 7579SOL    HW223637   0.380   1.810   1.856
 7580SOL     OW23638   0.994   3.975   4.050
 7580SOL    HW123639   0.962   3.956   3.956
 7580SOL    HW223640   1.057   4.052   4.049
 7581SOL     OW23641   0.737   2.289   1.212
 7581SOL    HW123642   0.666   2.227   1.246
 7581SOL    HW223643   0.694   2.365   1.162
 7582SOL     OW23644   4.089   1.479   3.347
 7582SOL    HW123645   4.060   1.460   3.441
 7582SOL    HW223646   4.052   1.410   3.286
 7583SOL     OW23647   4.963   2.340   2.178
 7583SOL    HW123648   4.967   2.257   2.122
 7583SOL    HW223649   4.987   2.419   2.121
 7584SOL     OW23650   2.156   0.997   3.133
 7584SOL    HW123651   2.119   1.070   3.191
 7584SOL    HW223652   2.082   0.936   3.105
 7585SOL     OW23653   2.397   2.842   6.231
 7585SOL    HW123654   2.316   2.788   6.256
 7585SOL    HW223655   2.456   2.787   6.172
 7586SOL     OW23656   2.126   6.725   3.698
 7586SOL    HW123657   2.063   6.781   3.751
 7586SOL    HW223658   2.164   6.653   3.757
 7587SOL     OW23659   2.279   0.912   6.661
 7587SOL    HW123660   2.214   0.982   6.630
 7587SOL    HW223661   2.350   0.954   6.717
 7588SOL     OW23662   2.087   2.143   3.504
 7588SOL    HW123663   2.107   2.078   3.577
 7588SOL    HW223664   2.170   2.163   3.452
 7589SOL     OW23665   0.377   0.599   2.622
 7589SOL    HW123666   0.360   0.687   2.578
 7589SOL    HW223667   0.411   0.533   2.555
 7590SOL     OW23668   4.318   2.132   6.740
 7590SOL    HW123669   4.291   2.049   6.692
 7590SOL    HW223670   4.384   2.110   6.811
 7591SOL     OW23671   5.202   4.447   0.666
 7591SOL    HW123672   5.286   4.476   0.710
 7591SOL    HW223673   5.198   4.347   0.663
 7592SOL     OW23674   6.446   5.895   4.683
 7592SOL    HW123675   6.411   5.862   4.595
 7592SOL    HW223676   6.374   5.889   4.752
 7593SOL     OW23677   6.557   3.462   6.680
 7593SOL    HW123678   6.487   3.507   6.736
 7593SOL    HW223679   6.647   3.487   6.715
 7594SOL     OW23680   1.688   4.676   1.849
 7594SOL    HW123681   1.764   4.688   1.913
 7594SOL    HW223682   1.702   4.734   1.769
 7595SOL     OW23683   5.551   3.203   6.162
 7595SOL    HW123684   5.536   3.297   6.132
 7595SOL    HW223685   5.608   3.155   6.094
 7596SOL     OW23686   3.725   6.480   4.688
 7596SOL    HW123687   3.814   6.521   4.668
 7596SOL    HW223688   3.667   6.485   4.607
 7597SOL     OW23689   1.705   6.358   3.182
 7597SOL    HW123690   1.704   6.364   3.282
 7597SOL    HW223691   1.794   6.324   3.152
 7598SOL     OW23692   6.757   0.909   3.328
 7598SOL    HW123693   6.674   0.865   3.294
 7598SOL    HW223694   6.766   1.000   3.286
 7599SOL     OW23695   5.319   2.315   1.865
 7599SOL    HW123696   5.355   2.324   1.958
 7599SOL    HW223697   5.390   2.344   1.799
 7600SOL     OW23698   0.659   1.461   3.723
 7600SOL    HW123699   0.731   1.499   3.665
 7600SOL    HW223700   0.645   1.365   3.700
 7601SOL     OW23701   2.557   4.589   2.344
 7601SOL    HW123702   2.589   4.549   2.429
 7601SOL    HW223703   2.457   4.597   2.346
 7602SOL     OW23704   1.824   3.580   0.138
 7602SOL    HW123705   1.876   3.634   0.204
 7602SOL    HW223706   1.887   3.533   0.076
 7603SOL     OW23707   2.105   6.253   6.616
 7603SOL    HW123708   2.038   6.187   6.585
 7603SOL    HW223709   2.115   6.325   6.548
 7604SOL     OW23710   1.255   2.978   4.571
 7604SOL    HW123711   1.301   3.066   4.584
 7604SOL    HW223712   1.159   2.986   4.597
 7605SOL     OW23713   0.973   0.492   0.837
 7605SOL    HW123714   1.060   0.470   0.794
 7605SOL    HW223715   0.958   0.431   0.915
 7606SOL     OW23716   5.796   2.844   4.363
 7606SOL    HW123717   5.738   2.905   4.309
 7606SOL    HW223718   5.871   2.810   4.306
 7607SOL     OW23719   3.683   5.002   0.787
 7607SOL    HW123720   3.621   4.935   0.828
 7607SOL    HW223721   3.700   4.979   0.692
 7608SOL     OW23722   4.901   3.372   1.004
 7608SOL    HW123723   4.952   3.382   0.919
 7608SOL    HW223724   4.895   3.275   1.028
 7609SOL     OW23725   1.722   3.029   4.262
 7609SOL    HW123726   1.736   3.079   4.177
 7609SOL    HW223727   1.625   3.005   4.271
 7610SOL     OW23728   3.979   4.871   5.938
 7610SOL    HW123729   4.067   4.847   5.895
 7610SOL    HW223730   3.967   4.970   5.936
 7611SOL     OW23731   5.540   4.312   1.345
 7611SOL    HW123732   5.477   4.323   1.268
 7611SOL    HW223733   5.523   4.224   1.389
 7612SOL     OW23734   4.883   2.884   2.809
 7612SOL    HW123735   4.873   2.908   2.712
 7612SOL    HW223736   4.892   2.785   2.817
 7613SOL     OW23737   0.739   1.573   0.789
 7613SOL    HW123738   0.661   1.585   0.849
 7613SOL    HW223739   0.710   1.531   0.703
 7614SOL     OW23740   5.406   2.842   1.025
 7614SOL    HW123741   5.417   2.826   0.927
 7614SOL    HW223742   5.485   2.805   1.074
 7615SOL     OW23743   3.984   4.608   6.617
 7615SOL    HW123744   4.047   4.602   6.695
 7615SOL    HW223745   3.989   4.523   6.565
 7616SOL     OW23746   6.992   6.273   4.598
 7616SOL    HW123747   7.006   6.195   4.536
 7616SOL    HW223748   6.951   6.240   4.683
 7617SOL     OW23749   3.366   6.350   3.579
 7617SOL    HW123750   3.320   6.298   3.507
 7617SOL    HW223751   3.435   6.409   3.539
 7618SOL     OW23752   0.443   2.739   6.397
 7618SOL    HW123753   0.506   2.660   6.401
 7618SOL    HW223754   0.349   2.706   6.402
 7619SOL     OW23755   0.020   2.983   4.914
 7619SOL    HW123756   0.005   3.080   4.932
 7619SOL    HW223757   6.964   2.932   4.940
 7620SOL     OW23758   4.113   5.676   1.977
 7620SOL    HW123759   4.172   5.699   1.900
 7620SOL    HW223760   4.135   5.734   2.056
 7621SOL     OW23761   6.548   0.913   0.744
 7621SOL    HW123762   6.591   0.960   0.821
 7621SOL    HW223763   6.538   0.977   0.668
 7622SOL     OW23764   4.728   4.166   6.213
 7622SOL    HW123765   4.671   4.242   6.183
 7622SOL    HW223766   4.671   4.086   6.232
 7623SOL     OW23767   4.583   4.172   6.904
 7623SOL    HW123768   4.591   4.248   6.840
 7623SOL    HW223769   4.608   4.202   6.996
 7624SOL     OW23770   6.637   3.618   4.376
 7624SOL    HW123771   6.603   3.540   4.429
 7624SOL    HW223772   6.695   3.584   4.302
 7625SOL     OW23773   5.579   1.248   0.317
 7625SOL    HW123774   5.511   1.279   0.383
 7625SOL    HW223775   5.628   1.169   0.353
 7626SOL     OW23776   6.078   0.437   5.502
 7626SOL    HW123777   6.033   0.415   5.589
 7626SOL    HW223778   6.177   0.425   5.513
 7627SOL     OW23779   3.654   2.635   0.846
 7627SOL    HW123780   3.658   2.596   0.938
 7627SOL    HW223781   3.661   2.561   0.779
 7628SOL     OW23782   3.451   2.808   1.927
 7628SOL    HW123783   3.501   2.837   2.009
 7628SOL    HW223784   3.506   2.742   1.876
 7629SOL     OW23785   0.215   4.098   3.620
 7629SOL    HW123786   0.296   4.149   3.590
 7629SOL    HW223787   0.133   4.146   3.589
 7630SOL     OW23788   0.836   1.116   0.203
 7630SOL    HW123789   0.737   1.131   0.198
 7630SOL    HW223790   0.881   1.203   0.227
 7631SOL     OW23791   1.109   2.151   5.751
 7631SOL    HW123792   1.045   2.140   5.828
 7631SOL    HW223793   1.074   2.100   5.672
 7632SOL     OW23794   4.843   4.662   0.740
 7632SOL    HW123795   4.792   4.746   0.722
 7632SOL    HW223796   4.805   4.587   0.687
 7633SOL     OW23797   5.525   1.058   2.024
 7633SOL    HW123798   5.595   1.042   1.954
 7633SOL    HW223799   5.437   1.023   1.992
 7634SOL     OW23800   2.080   1.111   1.657
 7634SOL    HW123801   2.118   1.096   1.748
 7634SOL    HW223802   2.107   1.201   1.624
 7635SOL     OW23803   3.291   5.141   5.238
 7635SOL    HW123804   3.193   5.164   5.241
 7635SOL    HW223805   3.345   5.225   5.248
 7636SOL     OW23806   1.475   3.304   4.364
 7636SOL    HW123807   1.416   3.384   4.350
 7636SOL    HW223808   1.500   3.266   4.275
 7637SOL     OW23809   2.568   5.994   2.643
 7637SOL    HW123810   2.531   6.041   2.723
 7637SOL    HW223811   2.571   6.057   2.565
 7638SOL     OW23812   1.958   5.320   2.395
 7638SOL    HW123813   2.051   5.320   2.357
 7638SOL    HW223814   1.897   5.271   2.333
 7639SOL     OW23815   0.270   0.717   0.862
 7639SOL    HW123816   0.180   0.698   0.902
 7639SOL    HW223817   0.327   0.765   0.929
 7640SOL     OW23818   2.561   2.115   5.884
 7640SOL    HW123819   2.509   2.088   5.966
 7640SOL    HW223820   2.606   2.034   5.846
 7641SOL     OW23821   0.334   3.378   2.765
 7641SOL    HW123822   0.259   3.433   2.730
 7641SOL    HW223823   0.336   3.290   2.717
 7642SOL     OW23824   3.716   1.512   2.636
 7642SOL    HW123825   3.669   1.426   2.617
 7642SOL    HW223826   3.648   1.585   2.648
 7643SOL     OW23827   5.355   1.797   2.926
 7643SOL    HW123828   5.371   1.854   2.845
 7643SOL    HW223829   5.375   1.851   3.008
 7644SOL     OW23830   4.722   2.714   1.943
 7644SOL    HW123831   4.659   2.656   1.993
 7644SOL    HW223832   4.710   2.809   1.971
 7645SOL     OW23833   4.729   3.971   5.625
 7645SOL    HW123834   4.783   3.903   5.574
 7645SOL    HW223835   4.661   4.011   5.564
 7646SOL     OW23836   0.551   3.053   4.172
 7646SOL    HW123837   0.618   3.016   4.237
 7646SOL    HW223838   0.477   3.097   4.223
 7647SOL     OW23839   6.882   2.647   4.349
 7647SOL    HW123840   6.920   2.630   4.258
 7647SOL    HW223841   6.948   2.699   4.403
 7648SOL     OW23842   2.318   1.930   2.428
 7648SOL    HW123843   2.254   1.978   2.369
 7648SOL    HW223844   2.407   1.923   2.383
 7649SOL     OW23845   1.259   0.079   3.777
 7649SOL    HW123846   1.337   0.032   3.816
 7649SOL    HW223847   1.282   0.175   3.761
 7650SOL     OW23848   5.650   0.675   0.629
 7650SOL    HW123849   5.578   0.623   0.582
 7650SOL    HW223850   5.649   0.769   0.597
 7651SOL     OW23851   2.269   0.308   4.351
 7651SOL    HW123852   2.285   0.329   4.254
 7651SOL    HW223853   2.355   0.318   4.401
 7652SOL     OW23854   5.573   2.023   4.824
 7652SOL    HW123855   5.664   2.009   4.783
 7652SOL    HW223856   5.504   2.023   4.752
 7653SOL     OW23857   0.704   1.666   0.300
 7653SOL    HW123858   0.675   1.674   0.205
 7653SOL    HW223859   0.771   1.737   0.321
 7654SOL     OW23860   4.941   3.293   4.127
 7654SOL    HW123861   4.896   3.320   4.042
 7654SOL    HW223862   4.991   3.208   4.113
 7655SOL     OW23863   4.316   6.744   3.835
 7655SOL    HW123864   4.253   6.780   3.766
 7655SOL    HW223865   4.360   6.661   3.800
 7656SOL     OW23866   4.075   4.073   6.469
 7656SOL    HW123867   4.053   4.011   6.545
 7656SOL    HW223868   4.161   4.120   6.489
 7657SOL     OW23869   1.589   2.117   2.990
 7657SOL    HW123870   1.651   2.186   3.028
 7657SOL    HW223871   1.595   2.034   3.046
 7658SOL     OW23872   2.273   0.343   0.840
 7658SOL    HW123873   2.365   0.304   0.829
 7658SOL    HW223874   2.266   0.427   0.786
 7659SOL     OW23875   5.047   4.553   0.012
 7659SOL    HW123876   5.041   4.584   0.107
 7659SOL    HW223877   5.126   4.492   0.002
 7660SOL     OW23878   7.009   6.049   3.919
 7660SOL    HW123879   6.993   6.138   3.876
 7660SOL    HW223880   0.075   6.048   3.958
 7661SOL     OW23881   5.462   2.509   5.254
 7661SOL    HW123882   5.453   2.410   5.264
 7661SOL    HW223883   5.559   2.534   5.253
 7662SOL     OW23884   1.195   2.345   4.289
 7662SOL    HW123885   1.190   2.377   4.194
 7662SOL    HW223886   1.185   2.423   4.351
 7663SOL     OW23887   5.851   4.616   6.661
 7663SOL    HW123888   5.816   4.575   6.745
 7663SOL    HW223889   5.803   4.701   6.643
 7664SOL     OW23890   4.168   1.059   2.111
 7664SOL    HW123891   4.242   0.993   2.124
 7664SOL    HW223892   4.146   1.101   2.199
 7665SOL     OW23893   6.152   0.883   5.349
 7665SOL    HW123894   6.212   0.916   5.276
 7665SOL    HW223895   6.076   0.948   5.362
 7666SOL     OW23896   0.496   4.565   3.340
 7666SOL    HW123897   0.563   4.592   3.271
 7666SOL    HW223898   0.541   4.514   3.412
 7667SOL     OW23899   4.155   0.645   2.452
 7667SOL    HW123900   4.085   0.670   2.385
 7667SOL    HW223901   4.113   0.630   2.541
 7668SOL     OW23902   2.622   5.103   0.963
 7668SOL    HW123903   2.670   5.176   0.914
 7668SOL    HW223904   2.665   5.015   0.942
 7669SOL     OW23905   4.815   1.330   5.608
 7669SOL    HW123906   4.877   1.407   5.625
 7669SOL    HW223907   4.838   1.255   5.669
 7670SOL     OW23908   0.890   5.206   0.818
 7670SOL    HW123909   0.909   5.200   0.720
 7670SOL    HW223910   0.860   5.117   0.852
 7671SOL     OW23911   3.522   0.870   2.582
 7671SOL    HW123912   3.603   0.914   2.621
 7671SOL    HW223913   3.503   0.909   2.492
 7672SOL     OW23914   0.246   5.772   3.049
 7672SOL    HW123915   0.199   5.755   3.136
 7672SOL    HW223916   0.260   5.870   3.038
 7673SOL     OW23917   1.602   5.421   2.375
 7673SOL    HW123918   1.631   5.412   2.470
 7673SOL    HW223919   1.606   5.517   2.347
 7674SOL     OW23920   4.971   0.968   4.045
 7674SOL    HW123921   4.930   0.878   4.032
 7674SOL    HW223922   4.971   0.991   4.142
 7675SOL     OW23923   5.764   6.203   3.097
 7675SOL    HW123924   5.787   6.106   3.090
 7675SOL    HW223925   5.760   6.244   3.006
 7676SOL     OW23926   3.027   2.340   6.340
 7676SOL    HW123927   3.044   2.242   6.333
 7676SOL    HW223928   3.066   2.387   6.261
 7677SOL     OW23929   0.213   3.940   1.495
 7677SOL    HW123930   0.241   3.859   1.546
 7677SOL    HW223931   0.260   4.021   1.531
 7678SOL     OW23932   2.511   2.576   5.196
 7678SOL    HW123933   2.500   2.666   5.237
 7678SOL    HW223934   2.506   2.583   5.096
 7679SOL     OW23935   2.325   6.260   5.539
 7679SOL    HW123936   2.373   6.274   5.625
 7679SOL    HW223937   2.336   6.165   5.510
 7680SOL     OW23938   1.492   0.409   0.923
 7680SOL    HW123939   1.437   0.487   0.894
 7680SOL    HW223940   1.467   0.383   1.016
 7681SOL     OW23941   2.737   1.004   0.867
 7681SOL    HW123942   2.796   0.982   0.945
 7681SOL    HW223943   2.662   0.938   0.862
 7682SOL     OW23944   4.249   6.803   2.085
 7682SOL    HW123945   4.322   6.766   2.142
 7682SOL    HW223946   4.223   6.893   2.120
 7683SOL     OW23947   0.367   1.671   4.943
 7683SOL    HW123948   0.390   1.691   4.848
 7683SOL    HW223949   0.370   1.755   4.997
 7684SOL     OW23950   4.256   1.479   1.127
 7684SOL    HW123951   4.325   1.515   1.191
 7684SOL    HW223952   4.301   1.418   1.061
 7685SOL     OW23953   2.586   1.507   5.772
 7685SOL    HW123954   2.517   1.515   5.700
 7685SOL    HW223955   2.633   1.419   5.763
 7686SOL     OW23956   6.559   6.716   3.518
 7686SOL    HW123957   6.631   6.777   3.485
 7686SOL    HW223958   6.474   6.768   3.529
 7687SOL     OW23959   5.662   5.104   4.512
 7687SOL    HW123960   5.701   5.065   4.429
 7687SOL    HW223961   5.617   5.032   4.565
 7688SOL     OW23962   0.292   5.998   5.809
 7688SOL    HW123963   0.275   5.999   5.908
 7688SOL    HW223964   0.378   6.046   5.790
 7689SOL     OW23965   5.447   6.286   2.913
 7689SOL    HW123966   5.420   6.295   3.009
 7689SOL    HW223967   5.373   6.243   2.861
 7690SOL     OW23968   5.521   5.461   0.659
 7690SOL    HW123969   5.544   5.380   0.713
 7690SOL    HW223970   5.431   5.448   0.617
 7691SOL     OW23971   5.922   4.182   2.970
 7691SOL    HW123972   6.013   4.223   2.975
 7691SOL    HW223973   5.877   4.189   3.059
 7692SOL     OW23974   0.788   5.967   2.041
 7692SOL    HW123975   0.794   5.907   2.120
 7692SOL    HW223976   0.789   6.063   2.071
 7693SOL     OW23977   2.836   0.552   1.540
 7693SOL    HW123978   2.861   0.553   1.637
 7693SOL    HW223979   2.915   0.527   1.485
 7694SOL     OW23980   5.716   3.294   3.404
 7694SOL    HW123981   5.647   3.277   3.333
 7694SOL    HW223982   5.693   3.378   3.453
 7695SOL     OW23983   5.408   0.976   1.443
 7695SOL    HW123984   5.396   0.963   1.344
 7695SOL    HW223985   5.457   1.061   1.460
 7696SOL     OW23986   6.649   1.563   6.047
 7696SOL    HW123987   6.733   1.596   6.090
 7696SOL    HW223988   6.611   1.635   5.989
 7697SOL     OW23989   2.476   0.324   3.617
 7697SOL    HW123990   2.448   0.413   3.654
 7697SOL    HW223991   2.444   0.251   3.677
 7698SOL     OW23992   6.009   1.053   4.317
 7698SOL    HW123993   6.042   0.981   4.378
 7698SOL    HW223994   5.933   1.102   4.360
 7699SOL     OW23995   2.615   5.751   6.354
 7699SOL    HW123996   2.634   5.734   6.451
 7699SOL    HW223997   2.519   5.730   6.335
 7700SOL     OW23998   4.419   5.868   3.891
 7700SOL    HW123999   4.514   5.901   3.885
 7700SOL    HW224000   4.405   5.795   3.824
 7701SOL     OW24001   6.968   2.797   6.569
 7701SOL    HW124002   6.958   2.896   6.556
 7701SOL    HW224003   6.896   2.763   6.628
 7702SOL     OW24004   4.643   5.519   5.019
 7702SOL    HW124005   4.560   5.469   4.997
 7702SOL    HW224006   4.719   5.455   5.028
 7703SOL     OW24007   6.013   6.249   6.353
 7703SOL    HW124008   6.007   6.273   6.256
 7703SOL    HW224009   6.107   6.225   6.377
 7704SOL     OW24010   6.119   0.581   3.007
 7704SOL    HW124011   6.145   0.613   2.916
 7704SOL    HW224012   6.037   0.525   3.001
 7705SOL     OW24013   2.238   5.910   1.162
 7705SOL    HW124014   2.227   6.001   1.122
 7705SOL    HW224015   2.148   5.871   1.179
 7706SOL     OW24016   3.765   3.224   4.078
 7706SOL    HW124017   3.736   3.314   4.111
 7706SOL    HW224018   3.865   3.217   4.083
 7707SOL     OW24019   0.219   4.689   6.370
 7707SOL    HW124020   0.192   4.594   6.389
 7707SOL    HW224021   0.317   4.692   6.348
 7708SOL     OW24022   1.282   6.418   4.964
 7708SOL    HW124023   1.348   6.479   5.007
 7708SOL    HW224024   1.324   6.373   4.885
 7709SOL     OW24025   6.464   4.728   1.616
 7709SOL    HW124026   6.541   4.791   1.620
 7709SOL    HW224027   6.454   4.692   1.523
 7710SOL     OW24028   2.166   2.136   0.470
 7710SOL    HW124029   2.211   2.198   0.533
 7710SOL    HW224030   2.160   2.045   0.510
 7711SOL     OW24031   5.668   5.906   5.731
 7711SOL    HW124032   5.680   5.902   5.632
 7711SOL    HW224033   5.727   5.838   5.775
 7712SOL     OW24034   6.130   5.424   0.587
 7712SOL    HW124035   6.159   5.520   0.578
 7712SOL    HW224036   6.034   5.421   0.614
 7713SOL     OW24037   1.860   3.608   0.445
 7713SOL    HW124038   1.887   3.516   0.416
 7713SOL    HW224039   1.761   3.611   0.456
 7714SOL     OW24040   0.013   5.343   5.084
 7714SOL    HW124041   6.961   5.335   5.024
 7714SOL    HW224042   0.089   5.289   5.047
 7715SOL     OW24043   2.865   2.263   6.549
 7715SOL    HW124044   2.942   2.305   6.500
 7715SOL    HW224045   2.780   2.307   6.521
 7716SOL     OW24046   6.603   4.445   0.623
 7716SOL    HW124047   6.654   4.528   0.648
 7716SOL    HW224048   6.505   4.460   0.639
 7717SOL     OW24049   1.090   1.484   5.605
 7717SOL    HW124050   1.018   1.508   5.539
 7717SOL    HW224051   1.061   1.511   5.697
 7718SOL     OW24052   6.607   3.704   3.062
 7718SOL    HW124053   6.577   3.712   3.158
 7718SOL    HW224054   6.670   3.627   3.054
 7719SOL     OW24055   0.442   4.070   4.735
 7719SOL    HW124056   0.456   4.123   4.652
 7719SOL    HW224057   0.411   4.130   4.809
 7720SOL     OW24058   6.785   2.449   6.263
 7720SOL    HW124059   6.868   2.396   6.278
 7720SOL    HW224060   6.732   2.407   6.188
 7721SOL     OW24061   0.820   5.784   2.274
 7721SOL    HW124062   0.793   5.689   2.260
 7721SOL    HW224063   0.906   5.788   2.325
 7722SOL     OW24064   1.806   4.177   3.699
 7722SOL    HW124065   1.714   4.187   3.660
 7722SOL    HW224066   1.861   4.256   3.673
 7723SOL     OW24067   3.928   3.439   6.764
 7723SOL    HW124068   3.845   3.436   6.708
 7723SOL    HW224069   4.006   3.407   6.710
 7724SOL     OW24070   3.309   4.732   0.706
 7724SOL    HW124071   3.288   4.764   0.614
 7724SOL    HW224072   3.274   4.639   0.717
 7725SOL     OW24073   6.514   1.743   3.235
 7725SOL    HW124074   6.433   1.707   3.189
 7725SOL    HW224075   6.536   1.686   3.314
 7726SOL     OW24076   1.410   4.312   6.304
 7726SOL    HW124077   1.485   4.255   6.334
 7726SOL    HW224078   1.392   4.297   6.206
 7727SOL     OW24079   6.538   2.470   2.110
 7727SOL    HW124080   6.550   2.468   2.209
 7727SOL    HW224081   6.501   2.383   2.079
 7728SOL     OW24082   2.158   2.912   5.096
 7728SOL    HW124083   2.131   2.955   5.182
 7728SOL    HW224084   2.254   2.935   5.076
 7729SOL     OW24085   5.667   1.033   1.764
 7729SOL    HW124086   5.589   0.973   1.743
 7729SOL    HW224087   5.749   0.978   1.778
 7730SOL     OW24088   6.984   5.013   6.223
 7730SOL    HW124089   0.028   5.076   6.189
 7730SOL    HW224090   7.006   4.920   6.193
 7731SOL     OW24091   6.250   6.983   0.287
 7731SOL    HW124092   6.263   6.885   0.303
 7731SOL    HW224093   6.153   7.005   0.297
 7732SOL     OW24094   3.872   7.018   0.272
 7732SOL    HW124095   3.791   6.991   0.220
 7732SOL    HW224096   3.859   0.085   0.306
 7733SOL     OW24097   5.654   6.037   2.079
 7733SOL    HW124098   5.693   6.019   2.169
 7733SOL    HW224099   5.658   5.954   2.024
 7734SOL     OW24100   1.350   4.782   5.247
 7734SOL    HW124101   1.310   4.873   5.241
 7734SOL    HW224102   1.277   4.714   5.258
 7735SOL     OW24103   5.527   5.643   6.117
 7735SOL    HW124104   5.454   5.695   6.074
 7735SOL    HW224105   5.602   5.704   6.142
 7736SOL     OW24106   2.792   3.114   6.664
 7736SOL    HW124107   2.703   3.122   6.620
 7736SOL    HW224108   2.815   3.199   6.710
 7737SOL     OW24109   3.732   0.518   2.138
 7737SOL    HW124110   3.722   0.420   2.152
 7737SOL    HW224111   3.681   0.567   2.209
 7738SOL     OW24112   2.741   5.438   0.564
 7738SOL    HW124113   2.753   5.386   0.649
 7738SOL    HW224114   2.769   5.381   0.486
 7739SOL     OW24115   1.353   1.819   2.246
 7739SOL    HW124116   1.265   1.785   2.277
 7739SOL    HW224117   1.350   1.919   2.241
 7740SOL     OW24118   2.670   1.298   3.516
 7740SOL    HW124119   2.762   1.281   3.481
 7740SOL    HW224120   2.675   1.338   3.608
 7741SOL     OW24121   0.386   4.224   5.116
 7741SOL    HW124122   0.305   4.214   5.175
 7741SOL    HW224123   0.452   4.283   5.162
 7742SOL     OW24124   4.367   2.400   3.989
 7742SOL    HW124125   4.337   2.435   4.077
 7742SOL    HW224126   4.289   2.361   3.939
 7743SOL     OW24127   4.500   1.527   6.960
 7743SOL    HW124128   4.532   1.484   0.018
 7743SOL    HW224129   4.565   1.510   6.886
 7744SOL     OW24130   0.862   6.994   3.885
 7744SOL    HW124131   0.766   7.020   3.891
 7744SOL    HW224132   0.870   6.894   3.885
 7745SOL     OW24133   3.027   0.193   0.703
 7745SOL    HW124134   3.059   0.117   0.760
 7745SOL    HW224135   3.089   0.208   0.627
 7746SOL     OW24136   0.659   0.177   0.651
 7746SOL    HW124137   0.673   0.130   0.738
 7746SOL    HW224138   0.702   0.267   0.655
 7747SOL     OW24139   6.652   6.544   1.387
 7747SOL    HW124140   6.705   6.463   1.410
 7747SOL    HW224141   6.707   6.626   1.401
 7748SOL     OW24142   3.681   3.952   4.074
 7748SOL    HW124143   3.675   4.029   4.138
 7748SOL    HW224144   3.620   3.968   3.997
 7749SOL     OW24145   2.922   3.489   4.335
 7749SOL    HW124146   2.997   3.426   4.311
 7749SOL    HW224147   2.897   3.475   4.431
 7750SOL     OW24148   6.414   5.512   0.140
 7750SOL    HW124149   6.417   5.601   0.094
 7750SOL    HW224150   6.347   5.516   0.214
 7751SOL     OW24151   0.820   2.758   2.695
 7751SOL    HW124152   0.811   2.742   2.793
 7751SOL    HW224153   0.767   2.839   2.669
 7752SOL     OW24154   5.470   5.785   5.096
 7752SOL    HW124155   5.490   5.858   5.031
 7752SOL    HW224156   5.433   5.824   5.180
 7753SOL     OW24157   2.227   0.341   4.069
 7753SOL    HW124158   2.200   0.246   4.086
 7753SOL    HW224159   2.165   0.382   4.002
 7754SOL     OW24160   5.312   6.670   1.789
 7754SOL    HW124161   5.331   6.706   1.698
 7754SOL    HW224162   5.293   6.746   1.851
 7755SOL     OW24163   1.232   1.694   5.785
 7755SOL    HW124164   1.253   1.675   5.881
 7755SOL    HW224165   1.313   1.734   5.741
 7756SOL     OW24166   3.559   4.878   2.896
 7756SOL    HW124167   3.626   4.882   2.970
 7756SOL    HW224168   3.599   4.833   2.817
 7757SOL     OW24169   5.380   5.796   4.621
 7757SOL    HW124170   5.323   5.831   4.696
 7757SOL    HW224171   5.379   5.696   4.623
 7758SOL     OW24172   1.416   1.808   0.364
 7758SOL    HW124173   1.428   1.822   0.265
 7758SOL    HW224174   1.323   1.777   0.382
 7759SOL     OW24175   1.081   1.974   4.801
 7759SOL    HW124176   1.115   2.046   4.860
 7759SOL    HW224177   1.116   1.885   4.831
 7760SOL     OW24178   5.859   3.366   2.787
 7760SOL    HW124179   5.934   3.419   2.748
 7760SOL    HW224180   5.773   3.388   2.740
 7761SOL     OW24181   0.988   0.209   6.558
 7761SOL    HW124182   1.035   0.131   6.601
 7761SOL    HW224183   0.918   0.244   6.620
 7762SOL     OW24184   4.424   0.950   3.881
 7762SOL    HW124185   4.453   0.904   3.965
 7762SOL    HW224186   4.324   0.944   3.873
 7763SOL     OW24187   1.011   1.525   0.769
 7763SOL    HW124188   1.044   1.456   0.834
 7763SOL    HW224189   0.911   1.528   0.771
 7764SOL     OW24190   3.308   2.932   3.394
 7764SOL    HW124191   3.302   2.991   3.475
 7764SOL    HW224192   3.246   2.854   3.404
 7765SOL     OW24193   5.633   2.563   4.106
 7765SOL    HW124194   5.647   2.551   4.008
 7765SOL    HW224195   5.711   2.610   4.146
 7766SOL     OW24196   5.868   2.238   0.129
 7766SOL    HW124197   5.948   2.182   0.149
 7766SOL    HW224198   5.788   2.179   0.115
 7767SOL     OW24199   4.835   6.697   3.770
 7767SOL    HW124200   4.862   6.793   3.761
 7767SOL    HW224201   4.855   6.649   3.685
 7768SOL     OW24202   4.066   4.898   2.603
 7768SOL    HW124203   4.034   4.949   2.523
 7768SOL    HW224204   3.993   4.893   2.672
 7769SOL     OW24205   4.919   2.496   2.678
 7769SOL    HW124206   4.880   2.549   2.752
 7769SOL    HW224207   5.000   2.543   2.642
 7770SOL     OW24208   0.948   3.777   2.200
 7770SOL    HW124209   0.882   3.837   2.245
 7770SOL    HW224210   0.907   3.686   2.190
 7771SOL     OW24211   2.524   2.081   5.180
 7771SOL    HW124212   2.506   2.143   5.103
 7771SOL    HW224213   2.540   1.989   5.146
 7772SOL     OW24214   5.780   0.954   2.660
 7772SOL    HW124215   5.775   0.855   2.646
 7772SOL    HW224216   5.691   0.987   2.692
 7773SOL     OW24217   3.207   5.587   5.064
 7773SOL    HW124218   3.188   5.680   5.031
 7773SOL    HW224219   3.304   5.566   5.050
 7774SOL     OW24220   5.912   2.373   5.886
 7774SOL    HW124221   5.850   2.334   5.954
 7774SOL    HW224222   5.860   2.423   5.817
 7775SOL     OW24223   4.078   6.531   2.493
 7775SOL    HW124224   4.081   6.612   2.551
 7775SOL    HW224225   3.996   6.477   2.514
 7776SOL     OW24226   2.731   4.819   0.014
 7776SOL    HW124227   2.691   4.844   6.952
 7776SOL    HW224228   2.704   4.726   0.037
 7777SOL     OW24229   0.973   0.629   5.293
 7777SOL    HW124230   0.892   0.651   5.238
 7777SOL    HW224231   1.054   0.631   5.235
 7778SOL     OW24232   5.081   5.378   0.450
 7778SOL    HW124233   5.011   5.438   0.490
 7778SOL    HW224234   5.090   5.399   0.353
 7779SOL     OW24235   2.643   2.748   1.092
 7779SOL    HW124236   2.724   2.794   1.128
 7779SOL    HW224237   2.672   2.666   1.041
 7780SOL     OW24238   0.753   5.365   5.582
 7780SOL    HW124239   0.666   5.353   5.534
 7780SOL    HW224240   0.809   5.283   5.569
 7781SOL     OW24241   1.321   4.888   6.967
 7781SOL    HW124242   1.276   4.965   6.921
 7781SOL    HW224243   1.375   4.837   6.900
 7782SOL     OW24244   0.875   4.822   4.926
 7782SOL    HW124245   0.815   4.855   4.854
 7782SOL    HW224246   0.857   4.725   4.943
 7783SOL     OW24247   1.476   6.088   4.604
 7783SOL    HW124248   1.444   5.995   4.616
 7783SOL    HW224249   1.503   6.103   4.509
 7784SOL     OW24250   3.140   2.873   0.743
 7784SOL    HW124251   3.113   2.917   0.828
 7784SOL    HW224252   3.205   2.799   0.762
 7785SOL     OW24253   1.681   6.577   4.164
 7785SOL    HW124254   1.724   6.663   4.192
 7785SOL    HW224255   1.671   6.576   4.064
 7786SOL     OW24256   3.111   6.054   0.144
 7786SOL    HW124257   3.014   6.041   0.124
 7786SOL    HW224258   3.125   6.063   0.242
 7787SOL     OW24259   2.691   2.979   6.007
 7787SOL    HW124260   2.622   2.957   5.939
 7787SOL    HW224261   2.696   2.905   6.075
 7788SOL     OW24262   1.777   5.795   2.090
 7788SOL    HW124263   1.757   5.707   2.048
 7788SOL    HW224264   1.876   5.807   2.096
 7789SOL     OW24265   2.851   6.905   6.726
 7789SOL    HW124266   2.911   6.963   6.781
 7789SOL    HW224267   2.860   6.930   6.630
 7790SOL     OW24268   5.181   5.217   2.856
 7790SOL    HW124269   5.133   5.281   2.916
 7790SOL    HW224270   5.164   5.124   2.886
 7791SOL     OW24271   2.370   6.030   3.514
 7791SOL    HW124272   2.407   6.122   3.527
 7791SOL    HW224273   2.328   5.999   3.600
 7792SOL     OW24274   1.707   5.362   5.278
 7792SOL    HW124275   1.676   5.454   5.300
 7792SOL    HW224276   1.711   5.307   5.362
 7793SOL     OW24277   3.398   0.791   0.046
 7793SOL    HW124278   3.342   0.744   0.114
 7793SOL    HW224279   3.342   0.814   6.993
 7794SOL     OW24280   5.889   5.021   3.458
 7794SOL    HW124281   5.892   5.055   3.364
 7794SOL    HW224282   5.982   5.012   3.494
 7795SOL     OW24283   2.367   4.127   5.677
 7795SOL    HW124284   2.290   4.068   5.654
 7795SOL    HW224285   2.336   4.222   5.677
 7796SOL     OW24286   3.310   3.936   3.286
 7796SOL    HW124287   3.364   3.851   3.282
 7796SOL    HW224288   3.367   4.013   3.257
 7797SOL     OW24289   1.271   0.018   2.734
 7797SOL    HW124290   1.234   0.109   2.752
 7797SOL    HW224291   1.299   7.002   2.820
 7798SOL     OW24292   1.670   4.215   5.925
 7798SOL    HW124293   1.708   4.302   5.895
 7798SOL    HW224294   1.690   4.145   5.856
 7799SOL     OW24295   1.402   6.073   2.217
 7799SOL    HW124296   1.470   6.146   2.230
 7799SOL    HW224297   1.362   6.049   2.305
 7800SOL     OW24298   1.261   5.424   0.717
 7800SOL    HW124299   1.171   5.467   0.717
 7800SOL    HW224300   1.278   5.380   0.629
 7801SOL     OW24301   2.189   2.320   2.159
 7801SOL    HW124302   2.112   2.381   2.178
 7801SOL    HW224303   2.216   2.274   2.244
 7802SOL     OW24304   5.477   2.281   0.866
 7802SOL    HW124305   5.490   2.373   0.902
 7802SOL    HW224306   5.530   2.216   0.921
 7803SOL     OW24307   3.984   2.175   6.221
 7803SOL    HW124308   3.943   2.236   6.289
 7803SOL    HW224309   4.077   2.153   6.248
 7804SOL     OW24310   4.896   1.861   4.365
 7804SOL    HW124311   4.914   1.763   4.369
 7804SOL    HW224312   4.980   1.909   4.338
 7805SOL     OW24313   5.124   1.877   0.503
 7805SOL    HW124314   5.202   1.815   0.508
 7805SOL    HW224315   5.138   1.954   0.564
 7806SOL     OW24316   5.871   1.827   6.655
 7806SOL    HW124317   5.792   1.887   6.646
 7806SOL    HW224318   5.951   1.871   6.613
 7807SOL     OW24319   0.590   4.537   5.497
 7807SOL    HW124320   0.636   4.492   5.420
 7807SOL    HW224321   0.617   4.492   5.582
 7808SOL     OW24322   6.601   3.005   4.158
 7808SOL    HW124323   6.645   3.053   4.234
 7808SOL    HW224324   6.502   3.007   4.169
 7809SOL     OW24325   2.101   5.559   4.238
 7809SOL    HW124326   2.080   5.587   4.332
 7809SOL    HW224327   2.120   5.639   4.182
 7810SOL     OW24328   3.781   0.448   4.946
 7810SOL    HW124329   3.864   0.406   4.984
 7810SOL    HW224330   3.807   0.515   4.876
 7811SOL     OW24331   1.052   5.523   2.948
 7811SOL    HW124332   0.970   5.574   2.921
 7811SOL    HW224333   1.056   5.437   2.898
 7812SOL     OW24334   1.039   2.393   3.546
 7812SOL    HW124335   0.962   2.329   3.551
 7812SOL    HW224336   1.089   2.378   3.461
 7813SOL     OW24337   3.892   2.287   6.676
 7813SOL    HW124338   3.875   2.385   6.685
 7813SOL    HW224339   3.955   2.257   6.747
 7814SOL     OW24340   6.813   2.894   3.304
 7814SOL    HW124341   6.806   2.805   3.347
 7814SOL    HW224342   6.761   2.961   3.357
 7815SOL     OW24343   4.973   0.362   5.852
 7815SOL    HW124344   4.971   0.284   5.914
 7815SOL    HW224345   4.924   0.439   5.893
 7816SOL     OW24346   1.595   1.741   6.654
 7816SOL    HW124347   1.525   1.795   6.700
 7816SOL    HW224348   1.682   1.790   6.656
 7817SOL     OW24349   5.631   4.446   3.518
 7817SOL    HW124350   5.627   4.377   3.446
 7817SOL    HW224351   5.707   4.427   3.579
 7818SOL     OW24352   4.744   0.685   3.079
 7818SOL    HW124353   4.809   0.617   3.113
 7818SOL    HW224354   4.724   0.667   2.983
 7819SOL     OW24355   6.849   3.193   1.554
 7819SOL    HW124356   6.851   3.291   1.532
 7819SOL    HW224357   6.910   3.175   1.631
 7820SOL     OW24358   1.331   2.345   4.836
 7820SOL    HW124359   1.292   2.404   4.764
 7820SOL    HW224360   1.362   2.402   4.912
 7821SOL     OW24361   5.439   6.569   0.901
 7821SOL    HW124362   5.459   6.664   0.879
 7821SOL    HW224363   5.359   6.564   0.962
 7822SOL     OW24364   0.715   1.600   5.735
 7822SOL    HW124365   0.775   1.592   5.655
 7822SOL    HW224366   0.663   1.515   5.745
 7823SOL     OW24367   2.594   3.862   5.367
 7823SOL    HW124368   2.579   3.764   5.378
 7823SOL    HW224369   2.539   3.896   5.291
 7824SOL     OW24370   5.640   1.082   4.002
 7824SOL    HW124371   5.714   1.018   4.023
 7824SOL    HW224372   5.579   1.089   4.081
 7825SOL     OW24373   1.586   2.890   1.170
 7825SOL    HW124374   1.517   2.821   1.148
 7825SOL    HW224375   1.547   2.958   1.233
 7826SOL     OW24376   6.343   1.309   1.397
 7826SOL    HW124377   6.360   1.269   1.307
 7826SOL    HW224378   6.263   1.368   1.393
 7827SOL     OW24379   1.765   4.973   1.365
 7827SOL    HW124380   1.775   5.067   1.399
 7827SOL    HW224381   1.847   4.921   1.385
 7828SOL     OW24382   0.703   4.485   6.757
 7828SOL    HW124383   0.693   4.388   6.780
 7828SOL    HW224384   0.798   4.512   6.770
 7829SOL     OW24385   2.165   3.844   1.606
 7829SOL    HW124386   2.110   3.842   1.689
 7829SOL    HW224387   2.117   3.796   1.533
 7830SOL     OW24388   2.677   4.735   5.159
 7830SOL    HW124389   2.754   4.697   5.107
 7830SOL    HW224390   2.708   4.759   5.251
 7831SOL     OW24391   2.366   6.659   1.937
 7831SOL    HW124392   2.308   6.590   1.980
 7831SOL    HW224393   2.311   6.740   1.917
 7832SOL     OW24394   5.825   0.779   3.383
 7832SOL    HW124395   5.823   0.688   3.424
 7832SOL    HW224396   5.803   0.773   3.286
 7833SOL     OW24397   0.686   1.310   6.013
 7833SOL    HW124398   0.621   1.380   6.042
 7833SOL    HW224399   0.636   1.230   5.979
 7834SOL     OW24400   6.933   1.564   3.601
 7834SOL    HW124401   6.939   1.510   3.685
 7834SOL    HW224402   7.023   1.600   3.578
 7835SOL     OW24403   3.381   2.255   5.332
 7835SOL    HW124404   3.418   2.195   5.261
 7835SOL    HW224405   3.298   2.300   5.297
 7836SOL     OW24406   3.212   2.892   5.078
 7836SOL    HW124407   3.149   2.958   5.039
 7836SOL    HW224408   3.178   2.799   5.061
 7837SOL     OW24409   5.074   4.976   6.972
 7837SOL    HW124410   5.065   4.901   6.907
 7837SOL    HW224411   5.163   4.971   7.017
 7838SOL     OW24412   4.168   6.894   1.012
 7838SOL    HW124413   4.160   6.928   0.918
 7838SOL    HW224414   4.100   6.822   1.027
 7839SOL     OW24415   5.779   4.347   5.295
 7839SOL    HW124416   5.812   4.262   5.253
 7839SOL    HW224417   5.797   4.424   5.233
 7840SOL     OW24418   6.270   3.226   3.708
 7840SOL    HW124419   6.240   3.278   3.628
 7840SOL    HW224420   6.194   3.170   3.742
 7841SOL     OW24421   3.349   1.855   6.067
 7841SOL    HW124422   3.390   1.940   6.034
 7841SOL    HW224423   3.400   1.823   6.147
 7842SOL     OW24424   3.096   2.190   2.726
 7842SOL    HW124425   3.117   2.098   2.759
 7842SOL    HW224426   3.173   2.225   2.673
 7843SOL     OW24427   0.832   6.322   3.326
 7843SOL    HW124428   0.819   6.386   3.401
 7843SOL    HW224429   0.928   6.321   3.299
 7844SOL     OW24430   3.582   0.627   3.249
 7844SOL    HW124431   3.519   0.553   3.273
 7844SOL    HW224432   3.573   0.700   3.317
 7845SOL     OW24433   5.579   1.696   2.776
 7845SOL    HW124434   5.653   1.754   2.743
 7845SOL    HW224435   5.539   1.736   2.859
 7846SOL     OW24436   0.513   2.021   1.494
 7846SOL    HW124437   0.443   2.083   1.459
 7846SOL    HW224438   0.572   1.992   1.419
 7847SOL     OW24439   6.795   1.167   3.250
 7847SOL    HW124440   6.783   1.213   3.338
 7847SOL    HW224441   6.771   1.230   3.176
 7848SOL     OW24442   3.035   4.558   0.477
 7848SOL    HW124443   3.043   4.466   0.517
 7848SOL    HW224444   2.999   4.621   0.546
 7849SOL     OW24445   6.475   4.542   4.691
 7849SOL    HW124446   6.450   4.496   4.776
 7849SOL    HW224447   6.425   4.501   4.615
 7850SOL     OW24448   0.256   1.336   4.240
 7850SOL    HW124449   0.328   1.394   4.279
 7850SOL    HW224450   0.167   1.376   4.260
 7851SOL     OW24451   6.725   1.321   1.404
 7851SOL    HW124452   6.733   1.364   1.494
 7851SOL    HW224453   6.664   1.376   1.347
 7852SOL     OW24454   3.320   1.667   6.400
 7852SOL    HW124455   3.375   1.734   6.351
 7852SOL    HW224456   3.346   1.668   6.497
 7853SOL     OW24457   5.130   2.560   1.847
 7853SOL    HW124458   5.086   2.505   1.775
 7853SOL    HW224459   5.209   2.509   1.883
 7854SOL     OW24460   3.464   3.736   6.811
 7854SOL    HW124461   3.472   3.696   6.902
 7854SOL    HW224462   3.402   3.815   6.815
 7855SOL     OW24463   4.712   7.013   4.492
 7855SOL    HW124464   4.688   6.916   4.495
 7855SOL    HW224465   4.659   0.031   4.420
 7856SOL     OW24466   6.779   5.967   5.070
 7856SOL    HW124467   6.719   5.888   5.060
 7856SOL    HW224468   6.844   5.949   5.144
 7857SOL     OW24469   4.879   2.583   0.063
 7857SOL    HW124470   4.818   2.507   0.041
 7857SOL    HW224471   4.934   2.559   0.143
 7858SOL     OW24472   6.311   6.492   4.111
 7858SOL    HW124473   6.237   6.447   4.060
 7858SOL    HW224474   6.297   6.591   4.109
 7859SOL     OW24475   4.280   2.862   6.238
 7859SOL    HW124476   4.268   2.888   6.142
 7859SOL    HW224477   4.369   2.893   6.271
 7860SOL     OW24478   4.137   0.695   3.726
 7860SOL    HW124479   4.102   0.726   3.814
 7860SOL    HW224480   4.128   0.768   3.659
 7861SOL     OW24481   3.601   4.620   1.531
 7861SOL    HW124482   3.592   4.606   1.630
 7861SOL    HW224483   3.528   4.572   1.484
 7862SOL     OW24484   1.924   4.668   2.013
 7862SOL    HW124485   1.969   4.619   1.937
 7862SOL    HW224486   1.980   4.746   2.040
 7863SOL     OW24487   0.113   4.334   4.683
 7863SOL    HW124488   0.115   4.247   4.634
 7863SOL    HW224489   0.055   4.399   4.634
 7864SOL     OW24490   0.631   5.657   5.344
 7864SOL    HW124491   0.643   5.658   5.443
 7864SOL    HW224492   0.695   5.592   5.303
 7865SOL     OW24493   6.519   6.169   4.043
 7865SOL    HW124494   6.584   6.194   3.971
 7865SOL    HW224495   6.535   6.227   4.124
 7866SOL     OW24496   0.896   1.753   6.155
 7866SOL    HW124497   0.851   1.775   6.242
 7866SOL    HW224498   0.844   1.683   6.107
 7867SOL     OW24499   5.839   6.033   3.439
 7867SOL    HW124500   5.886   6.121   3.448
 7867SOL    HW224501   5.747   6.040   3.477
 7868SOL     OW24502   5.043   6.306   1.949
 7868SOL    HW124503   5.042   6.373   2.023
 7868SOL    HW224504   5.045   6.214   1.986
 7869SOL     OW24505   5.382   3.762   0.054
 7869SOL    HW124506   5.286   3.735   0.055
 7869SOL    HW224507   5.398   3.834   0.122
 7870SOL     OW24508   4.790   5.759   4.055
 7870SOL    HW124509   4.733   5.833   4.090
 7870SOL    HW224510   4.832   5.710   4.131
 7871SOL     OW24511   4.422   2.036   1.950
 7871SOL    HW124512   4.371   2.005   1.870
 7871SOL    HW224513   4.359   2.072   2.019
 7872SOL     OW24514   2.106   3.617   2.963
 7872SOL    HW124515   2.006   3.621   2.965
 7872SOL    HW224516   2.142   3.631   3.055
 7873SOL     OW24517   5.559   6.690   6.405
 7873SOL    HW124518   5.621   6.766   6.426
 7873SOL    HW224519   5.612   6.606   6.396
 7874SOL     OW24520   5.018   2.540   0.285
 7874SOL    HW124521   5.115   2.542   0.309
 7874SOL    HW224522   4.965   2.510   0.365
 7875SOL     OW24523   4.500   2.981   6.746
 7875SOL    HW124524   4.494   2.959   6.843
 7875SOL    HW224525   4.462   3.072   6.730
 7876SOL     OW24526   1.357   6.755   3.600
 7876SOL    HW124527   1.263   6.775   3.572
 7876SOL    HW224528   1.356   6.692   3.677
 7877SOL     OW24529   0.907   1.701   2.661
 7877SOL    HW124530   0.973   1.641   2.706
 7877SOL    HW224531   0.938   1.722   2.568
 7878SOL     OW24532   4.763   4.305   4.538
 7878SOL    HW124533   4.700   4.367   4.586
 7878SOL    HW224534   4.771   4.220   4.589
 7879SOL     OW24535   4.059   5.446   3.294
 7879SOL    HW124536   4.033   5.367   3.239
 7879SOL    HW224537   4.019   5.529   3.255
 7880SOL     OW24538   2.003   3.846   1.826
 7880SOL    HW124539   2.045   3.811   1.910
 7880SOL    HW224540   1.943   3.775   1.787
 7881SOL     OW24541   6.048   4.928   4.912
 7881SOL    HW124542   5.976   4.949   4.846
 7881SOL    HW224543   6.108   5.007   4.923
 7882SOL     OW24544   1.514   3.415   2.433
 7882SOL    HW124545   1.609   3.424   2.402
 7882SOL    HW224546   1.482   3.503   2.468
 7883SOL     OW24547   1.061   0.420   0.525
 7883SOL    HW124548   1.118   0.412   0.607
 7883SOL    HW224549   1.056   0.331   0.480
 7884SOL     OW24550   2.047   3.910   4.311
 7884SOL    HW124551   2.079   3.912   4.216
 7884SOL    HW224552   1.961   3.859   4.316
 7885SOL     OW24553   6.205   5.575   1.082
 7885SOL    HW124554   6.284   5.630   1.111
 7885SOL    HW224555   6.156   5.623   1.009
 7886SOL     OW24556   3.813   5.037   0.202
 7886SOL    HW124557   3.772   4.948   0.178
 7886SOL    HW224558   3.821   5.093   0.119
 7887SOL     OW24559   3.138   2.341   5.697
 7887SOL    HW124560   3.219   2.333   5.638
 7887SOL    HW224561   3.075   2.407   5.658
 7888SOL     OW24562   6.466   0.540   5.386
 7888SOL    HW124563   6.500   0.526   5.479
 7888SOL    HW224564   6.483   0.634   5.357
 7889SOL     OW24565   1.250   4.185   1.205
 7889SOL    HW124566   1.339   4.231   1.198
 7889SOL    HW224567   1.177   4.252   1.191
 7890SOL     OW24568   1.823   2.690   3.082
 7890SOL    HW124569   1.787   2.596   3.073
 7890SOL    HW224570   1.906   2.699   3.028
 7891SOL     OW24571   1.931   3.342   3.612
 7891SOL    HW124572   1.867   3.274   3.648
 7891SOL    HW224573   1.890   3.387   3.532
 7892SOL     OW24574   2.433   1.378   4.085
 7892SOL    HW124575   2.435   1.458   4.025
 7892SOL    HW224576   2.497   1.310   4.052
 7893SOL     OW24577   6.743   6.209   2.538
 7893SOL    HW124578   6.662   6.155   2.559
 7893SOL    HW224579   6.770   6.263   2.618
 7894SOL     OW24580   3.285   0.246   0.937
 7894SOL    HW124581   3.194   0.281   0.961
 7894SOL    HW224582   3.295   0.154   0.975
 7895SOL     OW24583   6.352   0.919   5.519
 7895SOL    HW124584   6.361   1.013   5.552
 7895SOL    HW224585   6.269   0.911   5.463
 7896SOL     OW24586   5.086   3.802   0.026
 7896SOL    HW124587   5.019   3.807   6.979
 7896SOL    HW224588   5.075   3.715   0.075
 7897SOL     OW24589   2.633   4.182   0.105
 7897SOL    HW124590   2.638   4.205   0.008
 7897SOL    HW224591   2.544   4.141   0.126
 7898SOL     OW24592   4.709   1.891   3.428
 7898SOL    HW124593   4.773   1.819   3.402
 7898SOL    HW224594   4.620   1.851   3.449
 7899SOL     OW24595   5.902   0.962   0.673
 7899SOL    HW124596   5.934   0.919   0.758
 7899SOL    HW224597   5.803   0.979   0.680
 7900SOL     OW24598   1.440   5.204   1.389
 7900SOL    HW124599   1.350   5.247   1.384
 7900SOL    HW224600   1.505   5.266   1.434
 7901SOL     OW24601   5.133   1.450   6.608
 7901SOL    HW124602   5.099   1.535   6.567
 7901SOL    HW224603   5.233   1.447   6.598
 7902SOL     OW24604   5.377   5.944   1.179
 7902SOL    HW124605   5.467   5.988   1.178
 7902SOL    HW224606   5.360   5.903   1.089
 7903SOL     OW24607   5.992   1.203   0.660
 7903SOL    HW124608   5.987   1.103   0.662
 7903SOL    HW224609   6.071   1.232   0.606
 7904SOL     OW24610   5.866   6.416   3.213
 7904SOL    HW124611   5.786   6.472   3.234
 7904SOL    HW224612   5.838   6.336   3.159
 7905SOL     OW24613   4.765   2.730   0.557
 7905SOL    HW124614   4.703   2.669   0.508
 7905SOL    HW224615   4.808   2.681   0.633
 7906SOL     OW24616   0.096   5.493   0.515
 7906SOL    HW124617   0.044   5.469   0.597
 7906SOL    HW224618   0.147   5.577   0.531
 7907SOL     OW24619   5.623   2.597   3.262
 7907SOL    HW124620   5.550   2.660   3.289
 7907SOL    HW224621   5.711   2.634   3.293
 7908SOL     OW24622   0.661   1.800   5.528
 7908SOL    HW124623   0.633   1.790   5.433
 7908SOL    HW224624   0.601   1.745   5.587
 7909SOL     OW24625   5.619   3.717   4.934
 7909SOL    HW124626   5.709   3.700   4.973
 7909SOL    HW224627   5.558   3.753   5.004
 7910SOL     OW24628   2.743   3.522   5.599
 7910SOL    HW124629   2.744   3.612   5.642
 7910SOL    HW224630   2.827   3.509   5.545
 7911SOL     OW24631   1.642   3.152   6.675
 7911SOL    HW124632   1.627   3.197   6.763
 7911SOL    HW224633   1.569   3.085   6.659
 7912SOL     OW24634   6.874   5.019   0.532
 7912SOL    HW124635   6.916   4.929   0.524
 7912SOL    HW224636   6.785   5.019   0.486
 7913SOL     OW24637   1.200   4.979   0.952
 7913SOL    HW124638   1.252   4.969   1.036
 7913SOL    HW224639   1.102   4.979   0.973
 7914SOL     OW24640   6.994   4.529   6.062
 7914SOL    HW124641   6.913   4.502   6.113
 7914SOL    HW224642   0.043   4.467   6.084
 7915SOL     OW24643   4.721   2.768   2.284
 7915SOL    HW124644   4.733   2.685   2.229
 7915SOL    HW224645   4.722   2.848   2.224
 7916SOL     OW24646   0.201   3.859   5.569
 7916SOL    HW124647   0.102   3.873   5.568
 7916SOL    HW224648   0.224   3.786   5.633
 7917SOL     OW24649   3.622   3.779   3.447
 7917SOL    HW124650   3.576   3.750   3.363
 7917SOL    HW224651   3.670   3.701   3.487
 7918SOL     OW24652   0.356   1.681   0.037
 7918SOL    HW124653   0.439   1.706   0.086
 7918SOL    HW224654   0.371   1.691   6.965
 7919SOL     OW24655   1.686   4.610   2.945
 7919SOL    HW124656   1.608   4.548   2.955
 7919SOL    HW224657   1.709   4.650   3.033
 7920SOL     OW24658   0.422   5.411   0.755
 7920SOL    HW124659   0.408   5.496   0.806
 7920SOL    HW224660   0.520   5.400   0.735
 7921SOL     OW24661   4.237   6.707   0.678
 7921SOL    HW124662   4.248   6.609   0.664
 7921SOL    HW224663   4.140   6.728   0.690
 7922SOL     OW24664   6.953   6.282   6.980
 7922SOL    HW124665   6.935   6.378   7.001
 7922SOL    HW224666   0.025   6.266   6.978
 7923SOL     OW24667   3.110   0.985   2.107
 7923SOL    HW124668   3.101   1.001   2.205
 7923SOL    HW224669   3.178   0.914   2.090
 7924SOL     OW24670   4.263   6.527   2.273
 7924SOL    HW124671   4.303   6.435   2.279
 7924SOL    HW224672   4.205   6.542   2.352
 7925SOL     OW24673   0.713   1.878   6.372
 7925SOL    HW124674   0.669   1.929   6.299
 7925SOL    HW224675   0.648   1.814   6.413
 7926SOL     OW24676   5.298   1.452   5.401
 7926SOL    HW124677   5.374   1.413   5.454
 7926SOL    HW224678   5.286   1.548   5.426
 7927SOL     OW24679   4.167   5.257   4.285
 7927SOL    HW124680   4.263   5.261   4.313
 7927SOL    HW224681   4.131   5.165   4.300
 7928SOL     OW24682   1.502   2.422   4.308
 7928SOL    HW124683   1.415   2.443   4.263
 7928SOL    HW224684   1.537   2.504   4.351
 7929SOL     OW24685   3.895   3.888   5.723
 7929SOL    HW124686   3.865   3.793   5.709
 7929SOL    HW224687   3.990   3.890   5.753
 7930SOL     OW24688   4.420   5.541   4.039
 7930SOL    HW124689   4.417   5.615   4.105
 7930SOL    HW224690   4.327   5.518   4.010
 7931SOL     OW24691   1.446   1.935   6.244
 7931SOL    HW124692   1.380   1.866   6.275
 7931SOL    HW224693   1.532   1.890   6.219
 7932SOL     OW24694   2.673   6.535   6.733
 7932SOL    HW124695   2.600   6.547   6.666
 7932SOL    HW224696   2.753   6.590   6.705
 7933SOL     OW24697   0.261   5.985   6.777
 7933SOL    HW124698   0.242   5.919   6.850
 7933SOL    HW224699   0.244   5.942   6.688
 7934SOL     OW24700   2.370   4.753   0.368
 7934SOL    HW124701   2.463   4.785   0.382
 7934SOL    HW224702   2.307   4.804   0.427
 7935SOL     OW24703   5.640   6.439   0.392
 7935SOL    HW124704   5.697   6.407   0.316
 7935SOL    HW224705   5.693   6.500   0.450
 7936SOL     OW24706   3.855   5.016   2.763
 7936SOL    HW124707   3.789   4.944   2.741
 7936SOL    HW224708   3.841   5.094   2.702
 7937SOL     OW24709   6.276   0.048   3.822
 7937SOL    HW124710   6.311   0.139   3.801
 7937SOL    HW224711   6.306   7.010   3.752
 7938SOL     OW24712   6.245   5.338   5.194
 7938SOL    HW124713   6.334   5.361   5.233
 7938SOL    HW224714   6.179   5.323   5.268
 7939SOL     OW24715   1.059   2.642   5.547
 7939SOL    HW124716   1.091   2.553   5.579
 7939SOL    HW224717   0.976   2.668   5.597
 7940SOL     OW24718   1.825   3.481   2.727
 7940SOL    HW124719   1.725   3.475   2.730
 7940SOL    HW224720   1.853   3.508   2.635
 7941SOL     OW24721   6.790   6.540   0.471
 7941SOL    HW124722   6.713   6.604   0.472
 7941SOL    HW224723   6.843   6.552   0.388
 7942SOL     OW24724   6.617   5.529   3.004
 7942SOL    HW124725   6.681   5.457   2.976
 7942SOL    HW224726   6.668   5.612   3.025
 7943SOL     OW24727   5.895   3.280   0.094
 7943SOL    HW124728   5.856   3.277   0.187
 7943SOL    HW224729   5.821   3.291   0.028
 7944SOL     OW24730   0.572   3.435   1.547
 7944SOL    HW124731   0.473   3.438   1.535
 7944SOL    HW224732   0.611   3.522   1.519
 7945SOL     OW24733   5.330   6.468   2.003
 7945SOL    HW124734   5.328   6.518   1.917
 7945SOL    HW224735   5.374   6.379   1.989
 7946SOL     OW24736   2.120   1.805   5.597
 7946SOL    HW124737   2.203   1.775   5.644
 7946SOL    HW224738   2.144   1.841   5.507
 7947SOL     OW24739   3.611   2.313   6.091
 7947SOL    HW124740   3.544   2.335   6.162
 7947SOL    HW224741   3.569   2.323   6.001
 7948SOL     OW24742   0.290   6.163   1.098
 7948SOL    HW124743   0.235   6.083   1.118
 7948SOL    HW224744   0.320   6.206   1.183
 7949SOL     OW24745   4.667   4.334   4.286
 7949SOL    HW124746   4.690   4.321   4.382
 7949SOL    HW224747   4.592   4.400   4.279
 7950SOL     OW24748   5.476   5.092   4.171
 7950SOL    HW124749   5.513   5.185   4.162
 7950SOL    HW224750   5.389   5.096   4.220
 7951SOL     OW24751   1.622   3.645   1.215
 7951SOL    HW124752   1.562   3.649   1.295
 7951SOL    HW224753   1.713   3.679   1.241
 7952SOL     OW24754   1.117   3.345   6.723
 7952SOL    HW124755   1.111   3.434   6.677
 7952SOL    HW224756   1.083   3.353   6.816
 7953SOL     OW24757   1.866   2.925   3.199
 7953SOL    HW124758   1.834   2.832   3.181
 7953SOL    HW224759   1.901   2.966   3.114
 7954SOL     OW24760   4.636   4.497   5.256
 7954SOL    HW124761   4.728   4.537   5.260
 7954SOL    HW224762   4.642   4.405   5.217
 7955SOL     OW24763   1.348   0.053   6.664
 7955SOL    HW124764   1.265   0.087   6.707
 7955SOL    HW224765   1.419   0.042   6.734
 7956SOL     OW24766   3.227   5.861   2.757
 7956SOL    HW124767   3.248   5.955   2.783
 7956SOL    HW224768   3.172   5.818   2.828
 7957SOL     OW24769   1.881   1.287   0.487
 7957SOL    HW124770   1.944   1.362   0.508
 7957SOL    HW224771   1.923   1.200   0.510
 7958SOL     OW24772   3.023   5.486   4.192
 7958SOL    HW124773   2.946   5.533   4.236
 7958SOL    HW224774   2.988   5.423   4.123
 7959SOL     OW24775   4.159   5.845   1.379
 7959SOL    HW124776   4.141   5.943   1.368
 7959SOL    HW224777   4.124   5.796   1.299
 7960SOL     OW24778   3.964   1.906   0.605
 7960SOL    HW124779   4.001   1.989   0.563
 7960SOL    HW224780   3.998   1.826   0.557
 7961SOL     OW24781   0.774   6.250   0.792
 7961SOL    HW124782   0.760   6.230   0.695
 7961SOL    HW224783   0.696   6.302   0.827
 7962SOL     OW24784   2.123   0.395   0.468
 7962SOL    HW124785   2.220   0.417   0.477
 7962SOL    HW224786   2.105   0.356   0.378
 7963SOL     OW24787   0.384   0.654   3.549
 7963SOL    HW124788   0.414   0.723   3.614
 7963SOL    HW224789   0.415   0.679   3.457
 7964SOL     OW24790   0.110   5.109   3.143
 7964SOL    HW124791   0.087   5.071   3.232
 7964SOL    HW224792   0.029   5.153   3.103
 7965SOL     OW24793   3.533   2.992   7.013
 7965SOL    HW124794   3.617   2.938   7.002
 7965SOL    HW224795   3.547   3.083   6.974
 7966SOL     OW24796   0.449   2.841   5.736
 7966SOL    HW124797   0.522   2.785   5.697
 7966SOL    HW224798   0.454   2.838   5.836
 7967SOL     OW24799   2.728   6.079   4.272
 7967SOL    HW124800   2.651   6.059   4.332
 7967SOL    HW224801   2.759   6.173   4.288
 7968SOL     OW24802   2.349   2.165   3.448
 7968SOL    HW124803   2.339   2.249   3.393
 7968SOL    HW224804   2.426   2.112   3.415
 7969SOL     OW24805   4.840   6.981   2.038
 7969SOL    HW124806   4.769   0.021   2.063
 7969SOL    HW224807   4.808   6.889   2.062
 7970SOL     OW24808   0.500   3.345   3.396
 7970SOL    HW124809   0.410   3.302   3.390
 7970SOL    HW224810   0.542   3.346   3.306
 7971SOL     OW24811   4.470   1.408   0.676
 7971SOL    HW124812   4.390   1.356   0.705
 7971SOL    HW224813   4.547   1.345   0.662
 7972SOL     OW24814   1.289   3.815   1.570
 7972SOL    HW124815   1.239   3.864   1.498
 7972SOL    HW224816   1.226   3.754   1.619
 7973SOL     OW24817   4.915   4.323   3.097
 7973SOL    HW124818   4.879   4.256   3.032
 7973SOL    HW224819   4.995   4.286   3.143
 7974SOL     OW24820   5.646   0.865   5.052
 7974SOL    HW124821   5.717   0.834   5.116
 7974SOL    HW224822   5.602   0.947   5.088
 7975SOL     OW24823   6.089   0.180   2.505
 7975SOL    HW124824   6.006   0.213   2.459
 7975SOL    HW224825   6.107   0.238   2.585
 7976SOL     OW24826   0.586   0.789   6.334
 7976SOL    HW124827   0.684   0.810   6.343
 7976SOL    HW224828   0.540   0.866   6.289
 7977SOL     OW24829   5.086   5.468   1.401
 7977SOL    HW124830   5.107   5.380   1.442
 7977SOL    HW224831   4.989   5.471   1.375
 7978SOL     OW24832   5.439   3.693   6.515
 7978SOL    HW124833   5.352   3.671   6.470
 7978SOL    HW224834   5.481   3.610   6.550
 7979SOL     OW24835   3.820   0.466   5.242
 7979SOL    HW124836   3.904   0.507   5.279
 7979SOL    HW224837   3.816   0.370   5.266
 7980SOL     OW24838   2.743   5.551   0.223
 7980SOL    HW124839   2.759   5.468   0.278
 7980SOL    HW224840   2.796   5.627   0.261
 7981SOL     OW24841   0.308   5.864   2.095
 7981SOL    HW124842   0.340   5.870   2.190
 7981SOL    HW224843   0.298   5.956   2.057
 7982SOL     OW24844   0.465   1.350   6.889
 7982SOL    HW124845   0.465   1.328   6.986
 7982SOL    HW224846   0.560   1.353   6.855
 7983SOL     OW24847   5.767   1.815   2.636
 7983SOL    HW124848   5.723   1.856   2.556
 7983SOL    HW224849   5.832   1.881   2.675
 7984SOL     OW24850   1.684   1.572   2.182
 7984SOL    HW124851   1.702   1.656   2.234
 7984SOL    HW224852   1.711   1.493   2.237
 7985SOL     OW24853   2.508   6.216   3.875
 7985SOL    HW124854   2.583   6.270   3.836
 7985SOL    HW224855   2.545   6.134   3.919
 7986SOL     OW24856   3.071   0.642   7.000
 7986SOL    HW124857   3.115   0.730   6.984
 7986SOL    HW224858   3.029   0.610   6.915
 7987SOL     OW24859   1.394   3.326   6.837
 7987SOL    HW124860   1.378   3.393   6.909
 7987SOL    HW224861   1.312   3.316   6.781
 7988SOL     OW24862   1.639   1.915   4.110
 7988SOL    HW124863   1.713   1.958   4.162
 7988SOL    HW224864   1.674   1.835   4.062
 7989SOL     OW24865   3.182   2.521   5.390
 7989SOL    HW124866   3.101   2.532   5.447
 7989SOL    HW224867   3.158   2.469   5.308
 7990SOL     OW24868   6.248   4.370   3.331
 7990SOL    HW124869   6.325   4.412   3.283
 7990SOL    HW224870   6.276   4.346   3.424
 7991SOL     OW24871   6.656   1.059   4.665
 7991SOL    HW124872   6.754   1.075   4.678
 7991SOL    HW224873   6.615   1.139   4.622
 7992SOL     OW24874   1.337   5.949   1.010
 7992SOL    HW124875   1.400   5.906   1.074
 7992SOL    HW224876   1.386   6.016   0.954
 7993SOL     OW24877   1.378   6.224   6.597
 7993SOL    HW124878   1.378   6.248   6.694
 7993SOL    HW224879   1.307   6.156   6.580
 7994SOL     OW24880   5.087   6.787   2.910
 7994SOL    HW124881   5.149   6.709   2.898
 7994SOL    HW224882   5.003   6.756   2.954
 7995SOL     OW24883   4.243   5.393   3.605
 7995SOL    HW124884   4.163   5.452   3.599
 7995SOL    HW224885   4.237   5.337   3.688
 7996SOL     OW24886   3.194   0.144   4.889
 7996SOL    HW124887   3.201   0.136   4.790
 7996SOL    HW224888   3.264   0.207   4.922
 7997SOL     OW24889   0.075   1.263   0.935
 7997SOL    HW124890   0.150   1.329   0.930
 7997SOL    HW224891   0.110   1.174   0.964
 7998SOL     OW24892   3.668   5.559   1.305
 7998SOL    HW124893   3.642   5.551   1.401
 7998SOL    HW224894   3.697   5.653   1.286
 7999SOL     OW24895   1.290   0.020   6.062
 7999SOL    HW124896   1.368   6.996   6.098
 7999SOL    HW224897   1.300   0.117   6.083
 8000SOL     OW24898   5.163   0.434   0.743
 8000SOL    HW124899   5.079   0.424   0.795
 8000SOL    HW224900   5.239   0.450   0.805
 8001SOL     OW24901   3.381   5.645   1.152
 8001SOL    HW124902   3.364   5.600   1.240
 8001SOL    HW224903   3.474   5.683   1.152
 8002SOL     OW24904   0.528   2.360   5.584
 8002SOL    HW124905   0.438   2.334   5.549
 8002SOL    HW224906   0.592   2.285   5.570
 8003SOL     OW24907   2.619   4.554   2.598
 8003SOL    HW124908   2.563   4.637   2.596
 8003SOL    HW224909   2.711   4.577   2.629
 8004SOL     OW24910   1.690   3.781   3.655
 8004SOL    HW124911   1.691   3.808   3.558
 8004SOL    HW224912   1.708   3.683   3.662
 8005SOL     OW24913   3.109   1.561   2.494
 8005SOL    HW124914   3.051   1.481   2.491
 8005SOL    HW224915   3.053   1.644   2.494
 8006SOL     OW24916   2.706   6.917   6.957
 8006SOL    HW124917   2.728   6.920   6.860
 8006SOL    HW224918   2.618   6.962   6.973
 8007SOL     OW24919   0.810   0.697   4.138
 8007SOL    HW124920   0.820   0.627   4.067
 8007SOL    HW224921   0.763   0.657   4.217
 8008SOL     OW24922   4.339   6.586   5.918
 8008SOL    HW124923   4.405   6.661   5.917
 8008SOL    HW224924   4.372   6.512   5.859
 8009SOL     OW24925   6.171   0.344   2.706
 8009SOL    HW124926   6.093   0.319   2.763
 8009SOL    HW224927   6.195   0.440   2.723
 8010SOL     OW24928   1.192   1.216   0.729
 8010SOL    HW124929   1.219   1.291   0.669
 8010SOL    HW224930   1.130   1.154   0.680
 8011SOL     OW24931   3.316   2.609   1.097
 8011SOL    HW124932   3.375   2.552   1.153
 8011SOL    HW224933   3.295   2.562   1.011
 8012SOL     OW24934   2.340   5.604   1.579
 8012SOL    HW124935   2.416   5.620   1.516
 8012SOL    HW224936   2.343   5.510   1.612
 8013SOL     OW24937   0.989   4.634   4.303
 8013SOL    HW124938   0.895   4.610   4.279
 8013SOL    HW224939   1.006   4.730   4.281
 8014SOL     OW24940   0.823   6.285   5.375
 8014SOL    HW124941   0.869   6.325   5.296
 8014SOL    HW224942   0.833   6.345   5.454
 8015SOL     OW24943   3.274   1.366   0.204
 8015SOL    HW124944   3.237   1.287   0.155
 8015SOL    HW224945   3.370   1.378   0.181
 8016SOL     OW24946   4.573   0.221   6.867
 8016SOL    HW124947   4.663   0.178   6.874
 8016SOL    HW224948   4.535   0.232   6.959
 8017SOL     OW24949   6.645   5.799   0.374
 8017SOL    HW124950   6.657   5.834   0.281
 8017SOL    HW224951   6.714   5.729   0.392
 8018SOL     OW24952   3.231   2.513   5.937
 8018SOL    HW124953   3.181   2.559   5.864
 8018SOL    HW224954   3.257   2.579   6.007
 8019SOL     OW24955   2.272   3.802   6.974
 8019SOL    HW124956   2.335   3.725   6.967
 8019SOL    HW224957   2.271   3.853   6.888
 8020SOL     OW24958   6.770   5.846   0.704
 8020SOL    HW124959   6.675   5.864   0.677
 8020SOL    HW224960   6.822   5.818   0.623
 8021SOL     OW24961   1.093   2.063   1.308
 8021SOL    HW124962   1.186   2.094   1.331
 8021SOL    HW224963   1.095   1.964   1.291
 8022SOL     OW24964   4.267   0.274   2.731
 8022SOL    HW124965   4.353   0.269   2.782
 8022SOL    HW224966   4.213   0.192   2.749
 8023SOL     OW24967   5.799   5.233   3.238
 8023SOL    HW124968   5.763   5.228   3.145
 8023SOL    HW224969   5.728   5.268   3.299
 8024SOL     OW24970   3.450   5.238   0.366
 8024SOL    HW124971   3.404   5.279   0.445
 8024SOL    HW224972   3.381   5.210   0.299
 8025SOL     OW24973   2.403   5.788   6.916
 8025SOL    HW124974   2.448   5.710   6.961
 8025SOL    HW224975   2.349   5.838   6.983
 8026SOL     OW24976   0.673   4.750   6.946
 8026SOL    HW124977   0.650   4.677   6.882
 8026SOL    HW224978   0.681   4.836   6.897
 8027SOL     OW24979   4.117   1.822   5.178
 8027SOL    HW124980   4.055   1.765   5.231
 8027SOL    HW224981   4.099   1.809   5.080
 8028SOL     OW24982   2.693   5.086   5.499
 8028SOL    HW124983   2.789   5.057   5.497
 8028SOL    HW224984   2.686   5.174   5.546
 8029SOL     OW24985   5.366   3.478   6.999
 8029SOL    HW124986   5.331   3.450   0.062
 8029SOL    HW224987   5.415   3.565   7.008
 8030SOL     OW24988   4.688   4.046   0.239
 8030SOL    HW124989   4.766   4.063   0.179
 8030SOL    HW224990   4.620   4.118   0.226
 8031SOL     OW24991   4.608   6.208   2.800
 8031SOL    HW124992   4.587   6.286   2.741
 8031SOL    HW224993   4.607   6.124   2.746
 8032SOL     OW24994   5.554   4.228   5.891
 8032SOL    HW124995   5.480   4.161   5.896
 8032SOL    HW224996   5.543   4.283   5.807
 8033SOL     OW24997   5.110   3.720   6.614
 8033SOL    HW124998   5.011   3.719   6.629
 8033SOL    HW224999   5.151   3.796   6.664
 8034SOL     OW25000   6.612   1.252   4.991
 8034SOL    HW125001   6.572   1.254   5.083
 8034SOL    HW225002   6.634   1.157   4.967
 8035SOL     OW25003   4.854   0.822   5.349
 8035SOL    HW125004   4.870   0.760   5.425
 8035SOL    HW225005   4.761   0.808   5.313
 8036SOL     OW25006   0.556   4.147   2.341
 8036SOL    HW125007   0.634   4.123   2.399
 8036SOL    HW225008   0.495   4.209   2.391
 8037SOL     OW25009   1.726   3.304   1.621
 8037SOL    HW125010   1.634   3.317   1.585
 8037SOL    HW225011   1.754   3.209   1.606
 8038SOL     OW25012   4.657   0.683   2.832
 8038SOL    HW125013   4.583   0.647   2.776
 8038SOL    HW225014   4.657   0.783   2.828
 8039SOL     OW25015   1.066   0.476   4.062
 8039SOL    HW125016   1.129   0.476   3.985
 8039SOL    HW225017   0.973   0.457   4.029
 8040SOL     OW25018   1.088   6.105   0.939
 8040SOL    HW125019   1.001   6.101   0.989
 8040SOL    HW225020   1.140   6.021   0.955
 8041SOL     OW25021   3.070   1.840   1.948
 8041SOL    HW125022   3.028   1.846   1.857
 8041SOL    HW225023   3.078   1.932   1.986
 8042SOL     OW25024   3.552   3.137   3.932
 8042SOL    HW125025   3.618   3.165   4.002
 8042SOL    HW225026   3.484   3.210   3.921
 8043SOL     OW25027   3.534   6.922   2.014
 8043SOL    HW125028   3.547   6.962   2.104
 8043SOL    HW225029   3.445   6.950   1.978
 8044SOL     OW25030   3.670   3.521   0.348
 8044SOL    HW125031   3.722   3.467   0.281
 8044SOL    HW225032   3.646   3.609   0.309
 8045SOL     OW25033   5.649   0.462   1.079
 8045SOL    HW125034   5.594   0.492   1.157
 8045SOL    HW225035   5.652   0.363   1.076
 8046SOL     OW25036   6.714   5.223   0.205
 8046SOL    HW125037   6.667   5.152   0.258
 8046SOL    HW225038   6.646   5.274   0.151
 8047SOL     OW25039   4.008   5.144   4.603
 8047SOL    HW125040   3.989   5.242   4.592
 8047SOL    HW225041   3.952   5.108   4.677
 8048SOL     OW25042   5.331   0.801   5.905
 8048SOL    HW125043   5.260   0.831   5.842
 8048SOL    HW225044   5.329   0.859   5.987
 8049SOL     OW25045   1.805   0.317   0.864
 8049SOL    HW125046   1.863   0.315   0.946
 8049SOL    HW225047   1.734   0.386   0.875
 8050SOL     OW25048   1.332   4.141   2.229
 8050SOL    HW125049   1.424   4.104   2.219
 8050SOL    HW225050   1.267   4.082   2.181
 8051SOL     OW25051   4.665   5.936   3.223
 8051SOL    HW125052   4.652   6.030   3.189
 8051SOL    HW225053   4.608   5.921   3.304
 8052SOL     OW25054   4.148   1.577   2.002
 8052SOL    HW125055   4.074   1.615   2.058
 8052SOL    HW225056   4.236   1.592   2.048
 8053SOL     OW25057   3.920   3.739   3.363
 8053SOL    HW125058   3.987   3.692   3.421
 8053SOL    HW225059   3.967   3.785   3.289
 8054SOL     OW25060   5.286   0.117   4.202
 8054SOL    HW125061   5.297   0.025   4.241
 8054SOL    HW225062   5.334   0.121   4.114
 8055SOL     OW25063   6.800   0.844   6.256
 8055SOL    HW125064   6.887   0.890   6.273
 8055SOL    HW225065   6.815   0.766   6.195
 8056SOL     OW25066   4.441   1.862   4.411
 8056SOL    HW125067   4.518   1.807   4.446
 8056SOL    HW225068   4.377   1.802   4.363
 8057SOL     OW25069   2.747   2.345   3.349
 8057SOL    HW125070   2.723   2.315   3.442
 8057SOL    HW225071   2.826   2.293   3.316
 8058SOL     OW25072   4.429   0.380   2.948
 8058SOL    HW125073   4.413   0.452   2.879
 8058SOL    HW225074   4.383   0.406   3.033
 8059SOL     OW25075   4.590   2.665   4.519
 8059SOL    HW125076   4.529   2.602   4.568
 8059SOL    HW225077   4.622   2.621   4.435
 8060SOL     OW25078   0.480   2.404   4.411
 8060SOL    HW125079   0.559   2.460   4.385
 8060SOL    HW225080   0.505   2.307   4.406
 8061SOL     OW25081   6.603   6.824   1.611
 8061SOL    HW125082   6.549   6.746   1.642
 8061SOL    HW225083   6.586   6.902   1.671
 8062SOL     OW25084   2.807   4.759   4.352
 8062SOL    HW125085   2.829   4.695   4.425
 8062SOL    HW225086   2.711   4.746   4.325
 8063SOL     OW25087   1.109   2.625   0.713
 8063SOL    HW125088   1.060   2.580   0.639
 8063SOL    HW225089   1.076   2.591   0.801
 8064SOL     OW25090   0.119   4.971   1.121
 8064SOL    HW125091   0.215   4.948   1.131
 8064SOL    HW225092   0.063   4.905   1.173
 8065SOL     OW25093   4.463   6.503   4.012
 8065SOL    HW125094   4.508   6.529   3.927
 8065SOL    HW225095   4.365   6.493   3.996
 8066SOL     OW25096   0.964   2.020   6.210
 8066SOL    HW125097   1.058   2.034   6.178
 8066SOL    HW225098   0.925   1.939   6.167
 8067SOL     OW25099   4.731   3.241   1.718
 8067SOL    HW125100   4.707   3.160   1.772
 8067SOL    HW225101   4.655   3.305   1.718
 8068SOL     OW25102   5.844   4.651   0.379
 8068SOL    HW125103   5.804   4.583   0.317
 8068SOL    HW225104   5.941   4.632   0.391
 8069SOL     OW25105   1.965   5.747   1.175
 8069SOL    HW125106   1.906   5.669   1.198
 8069SOL    HW225107   2.053   5.713   1.141
 8070SOL     OW25108   3.007   3.142   0.376
 8070SOL    HW125109   2.964   3.131   0.286
 8070SOL    HW225110   2.952   3.205   0.431
 8071SOL     OW25111   3.024   6.082   4.876
 8071SOL    HW125112   3.017   6.088   4.776
 8071SOL    HW225113   3.044   6.173   4.913
 8072SOL     OW25114   3.409   0.516   6.719
 8072SOL    HW125115   3.372   0.498   6.810
 8072SOL    HW225116   3.472   0.593   6.723
 8073SOL     OW25117   4.204   6.015   5.989
 8073SOL    HW125118   4.224   5.927   6.032
 8073SOL    HW225119   4.238   6.089   6.047
 8074SOL     OW25120   3.226   2.658   7.026
 8074SOL    HW125121   3.159   2.619   6.963
 8074SOL    HW225122   3.206   2.755   0.012
 8075SOL     OW25123   6.715   1.030   0.917
 8075SOL    HW125124   6.790   1.095   0.903
 8075SOL    HW225125   6.680   1.039   1.010
 8076SOL     OW25126   5.495   2.385   5.786
 8076SOL    HW125127   5.448   2.313   5.836
 8076SOL    HW225128   5.521   2.458   5.849
 8077SOL     OW25129   1.482   5.347   1.766
 8077SOL    HW125130   1.565   5.389   1.730
 8077SOL    HW225131   1.472   5.255   1.727
 8078SOL     OW25132   6.060   1.275   0.123
 8078SOL    HW125133   6.130   1.342   0.147
 8078SOL    HW225134   6.101   1.203   0.068
 8079SOL     OW25135   5.529   1.364   3.444
 8079SOL    HW125136   5.459   1.294   3.437
 8079SOL    HW225137   5.543   1.388   3.540
 8080SOL     OW25138   0.172   3.930   0.081
 8080SOL    HW125139   0.261   3.973   0.092
 8080SOL    HW225140   0.104   4.000   0.058
 8081SOL     OW25141   4.949   0.039   4.655
 8081SOL    HW125142   4.923   0.088   4.738
 8081SOL    HW225143   4.870   0.031   4.595
 8082SOL     OW25144   6.177   0.973   1.617
 8082SOL    HW125145   6.195   1.054   1.673
 8082SOL    HW225146   6.235   0.898   1.647
 8083SOL     OW25147   5.404   3.873   2.642
 8083SOL    HW125148   5.490   3.921   2.655
 8083SOL    HW225149   5.329   3.939   2.636
 8084SOL     OW25150   5.346   0.065   0.538
 8084SOL    HW125151   5.386   7.017   0.484
 8084SOL    HW225152   5.416   0.102   0.599
 8085SOL     OW25153   6.407   0.227   2.608
 8085SOL    HW125154   6.324   0.276   2.634
 8085SOL    HW225155   6.444   0.180   2.688
 8086SOL     OW25156   4.847   1.139   3.824
 8086SOL    HW125157   4.758   1.178   3.848
 8086SOL    HW225158   4.882   1.086   3.901
 8087SOL     OW25159   2.816   2.208   0.995
 8087SOL    HW125160   2.797   2.116   0.961
 8087SOL    HW225161   2.859   2.202   1.085
 8088SOL     OW25162   5.579   1.923   1.334
 8088SOL    HW125163   5.501   1.929   1.271
 8088SOL    HW225164   5.651   1.867   1.293
 8089SOL     OW25165   5.100   3.141   0.773
 8089SOL    HW125166   5.002   3.155   0.784
 8089SOL    HW225167   5.138   3.101   0.857
 8090SOL     OW25168   4.154   2.600   6.920
 8090SOL    HW125169   4.141   2.600   6.821
 8090SOL    HW225170   4.251   2.595   6.942
 8091SOL     OW25171   2.595   3.765   0.066
 8091SOL    HW125172   2.559   3.692   0.006
 8091SOL    HW225173   2.613   3.727   0.157
 8092SOL     OW25174   1.146   2.186   4.959
 8092SOL    HW125175   1.220   2.242   4.921
 8092SOL    HW225176   1.059   2.233   4.945
 8093SOL     OW25177   4.661   5.675   1.797
 8093SOL    HW125178   4.583   5.620   1.768
 8093SOL    HW225179   4.652   5.768   1.761
 8094SOL     OW25180   2.045   4.192   4.267
 8094SOL    HW125181   1.988   4.112   4.286
 8094SOL    HW225182   2.121   4.196   4.332
 8095SOL     OW25183   5.726   4.258   4.473
 8095SOL    HW125184   5.800   4.210   4.519
 8095SOL    HW225185   5.640   4.209   4.488
 8096SOL     OW25186   3.201   5.519   3.851
 8096SOL    HW125187   3.228   5.500   3.757
 8096SOL    HW225188   3.103   5.500   3.862
 8097SOL     OW25189   5.072   6.783   3.272
 8097SOL    HW125190   5.060   6.685   3.290
 8097SOL    HW225191   5.035   6.805   3.182
 8098SOL     OW25192   2.353   6.789   4.149
 8098SOL    HW125193   2.382   6.850   4.222
 8098SOL    HW225194   2.254   6.800   4.134
 8099SOL     OW25195   5.525   0.208   3.752
 8099SOL    HW125196   5.481   0.124   3.719
 8099SOL    HW225197   5.491   0.286   3.700
 8100SOL     OW25198   0.224   6.638   6.690
 8100SOL    HW125199   0.162   6.716   6.679
 8100SOL    HW225200   0.170   6.556   6.710
 8101SOL     OW25201   1.947   0.159   4.003
 8101SOL    HW125202   1.908   0.228   4.064
 8101SOL    HW225203   2.022   0.112   4.049
 8102SOL     OW25204   1.147   4.803   4.946
 8102SOL    HW125205   1.052   4.830   4.930
 8102SOL    HW225206   1.151   4.732   5.016
 8103SOL     OW25207   4.387   0.739   0.514
 8103SOL    HW125208   4.288   0.744   0.530
 8103SOL    HW225209   4.405   0.686   0.431
 8104SOL     OW25210   2.506   6.401   6.006
 8104SOL    HW125211   2.469   6.479   6.057
 8104SOL    HW225212   2.532   6.431   5.914
 8105SOL     OW25213   1.789   2.244   2.527
 8105SOL    HW125214   1.873   2.299   2.522
 8105SOL    HW225215   1.801   2.171   2.594
 8106SOL     OW25216   2.518   5.792   3.572
 8106SOL    HW125217   2.493   5.875   3.521
 8106SOL    HW225218   2.435   5.745   3.601
 8107SOL     OW25219   1.266   5.808   4.851
 8107SOL    HW125220   1.234   5.727   4.900
 8107SOL    HW225221   1.360   5.828   4.878
 8108SOL     OW25222   5.794   3.244   4.942
 8108SOL    HW125223   5.846   3.327   4.922
 8108SOL    HW225224   5.799   3.224   5.040
 8109SOL     OW25225   1.101   3.693   4.081
 8109SOL    HW125226   1.083   3.791   4.094
 8109SOL    HW225227   1.079   3.643   4.164
 8110SOL     OW25228   3.316   6.554   1.110
 8110SOL    HW125229   3.380   6.588   1.041
 8110SOL    HW225230   3.258   6.483   1.070
 8111SOL     OW25231   4.292   0.737   5.518
 8111SOL    HW125232   4.327   0.810   5.459
 8111SOL    HW225233   4.287   0.652   5.466
 8112SOL     OW25234   1.535   1.460   4.484
 8112SOL    HW125235   1.578   1.550   4.495
 8112SOL    HW225236   1.578   1.412   4.409
 8113SOL     OW25237   2.987   3.514   0.595
 8113SOL    HW125238   3.020   3.608   0.594
 8113SOL    HW225239   2.887   3.514   0.593
 8114SOL     OW25240   1.914   3.189   1.375
 8114SOL    HW125241   1.984   3.246   1.418
 8114SOL    HW225242   1.900   3.107   1.430
 8115SOL     OW25243   4.114   1.208   1.711
 8115SOL    HW125244   4.115   1.217   1.811
 8115SOL    HW225245   4.094   1.296   1.669
 8116SOL     OW25246   5.061   0.552   4.744
 8116SOL    HW125247   5.114   0.579   4.824
 8116SOL    HW225248   5.098   0.467   4.707
 8117SOL     OW25249   2.210   1.393   4.794
 8117SOL    HW125250   2.270   1.410   4.872
 8117SOL    HW225251   2.181   1.298   4.795
 8118SOL     OW25252   6.610   3.179   5.889
 8118SOL    HW125253   6.671   3.243   5.936
 8118SOL    HW225254   6.553   3.228   5.824
 8119SOL     OW25255   6.169   5.570   5.046
 8119SOL    HW125256   6.102   5.626   5.093
 8119SOL    HW225257   6.175   5.481   5.090
 8120SOL     OW25258   3.277   4.631   6.659
 8120SOL    HW125259   3.325   4.584   6.585
 8120SOL    HW225260   3.180   4.610   6.655
 8121SOL     OW25261   0.044   4.997   2.581
 8121SOL    HW125262   0.017   4.917   2.635
 8121SOL    HW225263   0.109   4.969   2.510
 8122SOL     OW25264   1.014   5.686   2.614
 8122SOL    HW125265   0.918   5.661   2.622
 8122SOL    HW225266   1.070   5.603   2.619
 8123SOL     OW25267   7.021   0.028   6.811
 8123SOL    HW125268   0.022   0.122   6.831
 8123SOL    HW225269   6.923   0.018   6.827
 8124SOL     OW25270   0.230   6.351   0.894
 8124SOL    HW125271   0.274   6.283   0.953
 8124SOL    HW225272   0.194   6.306   0.813
 8125SOL     OW25273   1.031   6.647   2.813
 8125SOL    HW125274   0.985   6.723   2.859
 8125SOL    HW225275   1.002   6.560   2.853
 8126SOL     OW25276   6.386   3.893   2.240
 8126SOL    HW125277   6.352   3.807   2.202
 8126SOL    HW225278   6.309   3.949   2.269
 8127SOL     OW25279   2.156   6.114   0.914
 8127SOL    HW125280   2.063   6.136   0.885
 8127SOL    HW225281   2.185   6.028   0.872
 8128SOL     OW25282   2.542   2.975   0.973
 8128SOL    HW125283   2.589   2.889   0.993
 8128SOL    HW225284   2.445   2.966   0.996
 8129SOL     OW25285   4.121   1.662   5.949
 8129SOL    HW125286   4.119   1.637   5.852
 8129SOL    HW225287   4.212   1.645   5.987
 8130SOL     OW25288   0.476   4.553   6.153
 8130SOL    HW125289   0.490   4.633   6.211
 8130SOL    HW225290   0.511   4.472   6.200
 8131SOL     OW25291   2.732   0.559   1.039
 8131SOL    HW125292   2.726   0.600   1.130
 8131SOL    HW225293   2.768   0.466   1.047
 8132SOL     OW25294   5.526   6.395   6.314
 8132SOL    HW125295   5.449   6.425   6.256
 8132SOL    HW225296   5.493   6.377   6.406
 8133SOL     OW25297   3.480   4.940   1.761
 8133SOL    HW125298   3.524   4.862   1.805
 8133SOL    HW225299   3.383   4.920   1.747
 8134SOL     OW25300   0.733   1.419   4.529
 8134SOL    HW125301   0.805   1.359   4.564
 8134SOL    HW225302   0.768   1.512   4.521
 8135SOL     OW25303   2.518   5.385   1.328
 8135SOL    HW125304   2.487   5.326   1.253
 8135SOL    HW225305   2.588   5.337   1.380
 8136SOL     OW25306   4.685   4.286   2.798
 8136SOL    HW125307   4.743   4.344   2.739
 8136SOL    HW225308   4.617   4.343   2.844
 8137SOL     OW25309   2.199   1.524   4.195
 8137SOL    HW125310   2.289   1.527   4.238
 8137SOL    HW225311   2.167   1.617   4.177
 8138SOL     OW25312   5.317   2.259   0.436
 8138SOL    HW125313   5.246   2.202   0.477
 8138SOL    HW225314   5.330   2.232   0.341
 8139SOL     OW25315   1.941   2.284   3.323
 8139SOL    HW125316   2.002   2.229   3.379
 8139SOL    HW225317   1.855   2.299   3.372
 8140SOL     OW25318   3.528   6.924   0.850
 8140SOL    HW125319   3.618   6.964   0.869
 8140SOL    HW225320   3.537   6.854   0.780
 8141SOL     OW25321   4.519   6.776   5.507
 8141SOL    HW125322   4.457   6.709   5.466
 8141SOL    HW225323   4.600   6.730   5.541
 8142SOL     OW25324   2.025   4.853   0.477
 8142SOL    HW125325   2.073   4.935   0.446
 8142SOL    HW225326   2.004   4.861   0.575
 8143SOL     OW25327   5.224   5.110   0.844
 8143SOL    HW125328   5.174   5.057   0.776
 8143SOL    HW225329   5.307   5.149   0.803
 8144SOL     OW25330   0.744   5.870   5.547
 8144SOL    HW125331   0.755   5.873   5.646
 8144SOL    HW225332   0.828   5.837   5.505
 8145SOL     OW25333   5.599   5.122   0.949
 8145SOL    HW125334   5.644   5.201   0.906
 8145SOL    HW225335   5.501   5.126   0.931
 8146SOL     OW25336   5.704   0.431   5.755
 8146SOL    HW125337   5.698   0.530   5.769
 8146SOL    HW225338   5.799   0.406   5.738
 8147SOL     OW25339   6.855   0.538   0.971
 8147SOL    HW125340   6.898   0.464   0.920
 8147SOL    HW225341   6.766   0.508   1.005
 8148SOL     OW25342   4.224   4.951   6.519
 8148SOL    HW125343   4.183   4.907   6.599
 8148SOL    HW225344   4.308   4.999   6.545
 8149SOL     OW25345   1.697   6.762   2.950
 8149SOL    HW125346   1.765   6.831   2.975
 8149SOL    HW225347   1.661   6.719   3.033
 8150SOL     OW25348   0.861   4.100   0.997
 8150SOL    HW125349   0.772   4.094   0.950
 8150SOL    HW225350   0.923   4.155   0.942
 8151SOL     OW25351   5.439   5.265   3.636
 8151SOL    HW125352   5.468   5.178   3.674
 8151SOL    HW225353   5.493   5.339   3.676
 8152SOL     OW25354   6.261   3.218   3.253
 8152SOL    HW125355   6.201   3.148   3.213
 8152SOL    HW225356   6.304   3.270   3.179
 8153SOL     OW25357   1.153   1.320   2.887
 8153SOL    HW125358   1.222   1.302   2.958
 8153SOL    HW225359   1.088   1.244   2.883
 8154SOL     OW25360   3.816   6.434   2.459
 8154SOL    HW125361   3.757   6.514   2.447
 8154SOL    HW225362   3.767   6.351   2.431
 8155SOL     OW25363   1.587   4.079   2.190
 8155SOL    HW125364   1.641   4.140   2.248
 8155SOL    HW225365   1.634   3.992   2.180
 8156SOL     OW25366   4.743   6.144   1.125
 8156SOL    HW125367   4.676   6.151   1.052
 8156SOL    HW225368   4.708   6.084   1.197
 8157SOL     OW25369   6.298   4.436   6.236
 8157SOL    HW125370   6.339   4.446   6.146
 8157SOL    HW225371   6.232   4.361   6.235
 8158SOL     OW25372   5.192   4.342   0.084
 8158SOL    HW125373   5.101   4.317   0.116
 8158SOL    HW225374   5.255   4.347   0.162
 8159SOL     OW25375   3.143   5.700   4.679
 8159SOL    HW125376   3.051   5.731   4.703
 8159SOL    HW225377   3.143   5.600   4.669
 8160SOL     OW25378   4.888   0.439   3.736
 8160SOL    HW125379   4.944   0.440   3.653
 8160SOL    HW225380   4.795   0.469   3.714
 8161SOL     OW25381   5.680   4.084   6.457
 8161SOL    HW125382   5.742   4.025   6.508
 8161SOL    HW225383   5.586   4.070   6.489
 8162SOL     OW25384   6.336   5.396   6.701
 8162SOL    HW125385   6.356   5.396   6.603
 8162SOL    HW225386   6.369   5.311   6.742
 8163SOL     OW25387   2.527   4.593   5.680
 8163SOL    HW125388   2.620   4.614   5.651
 8163SOL    HW225389   2.466   4.598   5.601
 8164SOL     OW25390   4.242   1.326   0.274
 8164SOL    HW125391   4.305   1.248   0.282
 8164SOL    HW225392   4.295   1.411   0.266
 8165SOL     OW25393   6.588   3.935   6.368
 8165SOL    HW125394   6.652   3.959   6.441
 8165SOL    HW225395   6.515   4.003   6.363
 8166SOL     OW25396   1.366   0.548   3.228
 8166SOL    HW125397   1.337   0.629   3.280
 8166SOL    HW225398   1.464   0.534   3.240
 8167SOL     OW25399   0.486   0.993   3.035
 8167SOL    HW125400   0.468   0.898   3.063
 8167SOL    HW225401   0.461   1.004   2.939
 8168SOL     OW25402   2.565   0.338   1.623
 8168SOL    HW125403   2.552   0.240   1.638
 8168SOL    HW225404   2.655   0.353   1.581
 8169SOL     OW25405   4.242   2.497   0.407
 8169SOL    HW125406   4.263   2.451   0.321
 8169SOL    HW225407   4.220   2.593   0.389
 8170SOL     OW25408   6.646   4.525   1.426
 8170SOL    HW125409   6.637   4.563   1.334
 8170SOL    HW225410   6.741   4.536   1.457
 8171SOL     OW25411   2.159   1.078   6.486
 8171SOL    HW125412   2.250   1.117   6.504
 8171SOL    HW225413   2.129   1.104   6.395
 8172SOL     OW25414   6.978   1.942   1.887
 8172SOL    HW125415   6.924   1.975   1.964
 8172SOL    HW225416   0.043   1.917   1.918
 8173SOL     OW25417   5.483   1.680   2.223
 8173SOL    HW125418   5.553   1.749   2.203
 8173SOL    HW225419   5.466   1.676   2.321
 8174SOL     OW25420   0.732   6.853   2.678
 8174SOL    HW125421   0.704   6.910   2.601
 8174SOL    HW225422   0.743   6.758   2.647
 8175SOL     OW25423   0.469   3.142   4.807
 8175SOL    HW125424   0.403   3.073   4.836
 8175SOL    HW225425   0.512   3.183   4.887
 8176SOL     OW25426   2.338   4.810   1.488
 8176SOL    HW125427   2.291   4.897   1.507
 8176SOL    HW225428   2.307   4.741   1.553
 8177SOL     OW25429   5.111   0.706   3.773
 8177SOL    HW125430   5.049   0.709   3.851
 8177SOL    HW225431   5.059   0.713   3.688
 8178SOL     OW25432   3.030   7.022   0.888
 8178SOL    HW125433   2.978   7.007   0.971
 8178SOL    HW225434   3.128   0.002   0.910
 8179SOL     OW25435   5.501   1.106   5.111
 8179SOL    HW125436   5.573   1.171   5.137
 8179SOL    HW225437   5.441   1.149   5.044
 8180SOL     OW25438   6.092   0.591   6.503
 8180SOL    HW125439   6.105   0.578   6.404
 8180SOL    HW225440   6.116   0.506   6.551
 8181SOL     OW25441   1.635   1.293   0.603
 8181SOL    HW125442   1.590   1.382   0.604
 8181SOL    HW225443   1.728   1.303   0.567
 8182SOL     OW25444   2.966   3.176   5.413
 8182SOL    HW125445   3.063   3.173   5.438
 8182SOL    HW225446   2.951   3.124   5.329
 8183SOL     OW25447   6.643   2.184   4.530
 8183SOL    HW125448   6.614   2.277   4.511
 8183SOL    HW225449   6.609   2.123   4.459
 8184SOL     OW25450   0.452   6.905   0.288
 8184SOL    HW125451   0.380   6.859   0.341
 8184SOL    HW225452   0.492   6.839   0.224
 8185SOL     OW25453   2.045   0.242   0.248
 8185SOL    HW125454   2.039   0.169   0.180
 8185SOL    HW225455   1.977   0.312   0.227
 8186SOL     OW25456   2.857   4.226   5.925
 8186SOL    HW125457   2.793   4.280   5.870
 8186SOL    HW225458   2.922   4.287   5.970
 8187SOL     OW25459   2.009   1.171   4.745
 8187SOL    HW125460   2.064   1.091   4.721
 8187SOL    HW225461   1.926   1.141   4.792
 8188SOL     OW25462   4.848   3.373   3.853
 8188SOL    HW125463   4.814   3.448   3.795
 8188SOL    HW225464   4.846   3.288   3.801
 8189SOL     OW25465   5.356   4.922   2.870
 8189SOL    HW125466   5.442   4.933   2.920
 8189SOL    HW225467   5.346   4.827   2.841
 8190SOL     OW25468   4.891   3.984   3.872
 8190SOL    HW125469   4.884   3.964   3.970
 8190SOL    HW225470   4.984   4.012   3.851
 8191SOL     OW25471   3.322   5.231   2.837
 8191SOL    HW125472   3.400   5.262   2.783
 8191SOL    HW225473   3.257   5.184   2.778
 8192SOL     OW25474   2.248   5.428   1.993
 8192SOL    HW125475   2.265   5.426   1.894
 8192SOL    HW225476   2.303   5.357   2.037
 8193SOL     OW25477   6.302   5.760   5.898
 8193SOL    HW125478   6.393   5.741   5.861
 8193SOL    HW225479   6.273   5.851   5.869
 8194SOL     OW25480   5.093   0.559   1.435
 8194SOL    HW125481   5.186   0.593   1.428
 8194SOL    HW225482   5.074   0.531   1.529
 8195SOL     OW25483   6.550   0.073   3.250
 8195SOL    HW125484   6.515   0.085   3.157
 8195SOL    HW225485   6.503   0.135   3.312
 8196SOL     OW25486   3.796   6.150   6.974
 8196SOL    HW125487   3.714   6.097   6.993
 8196SOL    HW225488   3.819   6.206   0.027
 8197SOL     OW25489   3.321   0.716   0.475
 8197SOL    HW125490   3.225   0.687   0.482
 8197SOL    HW225491   3.327   0.795   0.413
 8198SOL     OW25492   3.273   6.552   2.653
 8198SOL    HW125493   3.350   6.541   2.715
 8198SOL    HW225494   3.300   6.522   2.561
 8199SOL     OW25495   5.619   3.238   5.864
 8199SOL    HW125496   5.620   3.194   5.774
 8199SOL    HW225497   5.691   3.308   5.868
 8200SOL     OW25498   5.773   4.194   1.515
 8200SOL    HW125499   5.861   4.224   1.480
 8200SOL    HW225500   5.700   4.231   1.458
 8201SOL     OW25501   6.135   0.873   4.982
 8201SOL    HW125502   6.191   0.896   5.062
 8201SOL    HW225503   6.052   0.929   4.982
 8202SOL     OW25504   0.683   5.492   3.696
 8202SOL    HW125505   0.642   5.574   3.655
 8202SOL    HW225506   0.667   5.493   3.795
 8203SOL     OW25507   3.005   2.277   6.806
 8203SOL    HW125508   3.092   2.324   6.797
 8203SOL    HW225509   2.968   2.257   6.715
 8204SOL     OW25510   3.829   4.795   0.061
 8204SOL    HW125511   3.786   4.707   0.078
 8204SOL    HW225512   3.805   4.827   6.996
 8205SOL     OW25513   0.379   4.847   6.874
 8205SOL    HW125514   0.380   4.818   6.778
 8205SOL    HW225515   0.349   4.770   6.931
 8206SOL     OW25516   4.816   2.236   0.187
 8206SOL    HW125517   4.717   2.245   0.202
 8206SOL    HW225518   4.856   2.187   0.264
 8207SOL     OW25519   2.896   3.401   4.599
 8207SOL    HW125520   2.961   3.325   4.602
 8207SOL    HW225521   2.857   3.416   4.690
 8208SOL     OW25522   0.904   0.695   1.478
 8208SOL    HW125523   0.896   0.777   1.421
 8208SOL    HW225524   0.939   0.719   1.568
 8209SOL     OW25525   0.169   1.533   4.813
 8209SOL    HW125526   0.258   1.541   4.858
 8209SOL    HW225527   0.151   1.437   4.790
 8210SOL     OW25528   2.383   1.920   0.520
 8210SOL    HW125529   2.414   2.008   0.557
 8210SOL    HW225530   2.424   1.906   0.430
 8211SOL     OW25531   3.862   4.504   1.452
 8211SOL    HW125532   3.834   4.493   1.357
 8211SOL    HW225533   3.801   4.569   1.498
 8212SOL     OW25534   1.590   2.403   2.614
 8212SOL    HW125535   1.618   2.477   2.675
 8212SOL    HW225536   1.671   2.352   2.584
 8213SOL     OW25537   6.528   4.361   2.005
 8213SOL    HW125538   6.500   4.456   2.017
 8213SOL    HW225539   6.623   4.350   2.035
 8214SOL     OW25540   5.728   5.599   3.938
 8214SOL    HW125541   5.820   5.637   3.944
 8214SOL    HW225542   5.668   5.643   4.005
 8215SOL     OW25543   3.054   5.525   5.804
 8215SOL    HW125544   3.130   5.529   5.739
 8215SOL    HW225545   3.054   5.609   5.859
 8216SOL     OW25546   5.217   5.148   3.989
 8216SOL    HW125547   5.291   5.109   3.934
 8216SOL    HW225548   5.239   5.139   4.086
 8217SOL     OW25549   1.452   4.576   0.429
 8217SOL    HW125550   1.433   4.477   0.423
 8217SOL    HW225551   1.550   4.592   0.418
 8218SOL     OW25552   0.261   6.799   6.406
 8218SOL    HW125553   0.181   6.743   6.428
 8218SOL    HW225554   0.232   6.881   6.356
 8219SOL     OW25555   4.525   2.425   0.757
 8219SOL    HW125556   4.536   2.409   0.855
 8219SOL    HW225557   4.450   2.490   0.742
 8220SOL     OW25558   3.795   2.967   3.317
 8220SOL    HW125559   3.837   2.930   3.233
 8220SOL    HW225560   3.696   2.961   3.310
 8221SOL     OW25561   5.475   6.516   4.077
 8221SOL    HW125562   5.447   6.432   4.031
 8221SOL    HW225563   5.568   6.541   4.048
 8222SOL     OW25564   5.542   1.217   1.431
 8222SOL    HW125565   5.598   1.246   1.508
 8222SOL    HW225566   5.587   1.244   1.345
 8223SOL     OW25567   1.211   4.819   5.831
 8223SOL    HW125568   1.250   4.796   5.920
 8223SOL    HW225569   1.173   4.912   5.834
 8224SOL     OW25570   6.454   1.058   2.709
 8224SOL    HW125571   6.397   1.060   2.791
 8224SOL    HW225572   6.413   0.996   2.642
 8225SOL     OW25573   3.171   1.152   0.068
 8225SOL    HW125574   3.158   1.061   0.108
 8225SOL    HW225575   3.137   1.152   7.001
 8226SOL     OW25576   4.127   0.044   1.303
 8226SOL    HW125577   4.166   0.004   1.220
 8226SOL    HW225578   4.119   7.000   1.373
 8227SOL     OW25579   6.715   2.031   3.069
 8227SOL    HW125580   6.795   2.024   3.128
 8227SOL    HW225581   6.717   1.956   3.002
 8228SOL     OW25582   6.557   2.392   5.444
 8228SOL    HW125583   6.499   2.359   5.518
 8228SOL    HW225584   6.650   2.407   5.477
 8229SOL     OW25585   4.027   3.286   0.412
 8229SOL    HW125586   3.937   3.257   0.380
 8229SOL    HW225587   4.030   3.385   0.420
 8230SOL     OW25588   4.622   0.012   5.473
 8230SOL    HW125589   4.588   6.953   5.512
 8230SOL    HW225590   4.558   0.086   5.493
 8231SOL     OW25591   3.530   4.766   0.851
 8231SOL    HW125592   3.453   4.744   0.790
 8231SOL    HW225593   3.508   4.737   0.944
 8232SOL     OW25594   4.902   1.158   1.911
 8232SOL    HW125595   4.954   1.216   1.849
 8232SOL    HW225596   4.966   1.098   1.961
 8233SOL     OW25597   1.524   6.402   6.467
 8233SOL    HW125598   1.477   6.478   6.512
 8233SOL    HW225599   1.469   6.319   6.478
 8234SOL     OW25600   2.856   4.450   6.590
 8234SOL    HW125601   2.772   4.396   6.588
 8234SOL    HW225602   2.907   4.436   6.505
 8235SOL     OW25603   0.602   3.630   0.093
 8235SOL    HW125604   0.586   3.728   0.075
 8235SOL    HW225605   0.576   3.577   0.012
 8236SOL     OW25606   0.534   4.849   0.440
 8236SOL    HW125607   0.440   4.881   0.442
 8236SOL    HW225608   0.557   4.816   0.348
 8237SOL     OW25609   4.272   6.672   4.839
 8237SOL    HW125610   4.324   6.599   4.796
 8237SOL    HW225611   4.200   6.632   4.896
 8238SOL     OW25612   0.851   5.347   6.553
 8238SOL    HW125613   0.823   5.253   6.530
 8238SOL    HW225614   0.863   5.399   6.469
 8239SOL     OW25615   6.325   1.283   5.842
 8239SOL    HW125616   6.330   1.369   5.892
 8239SOL    HW225617   6.242   1.233   5.868
 8240SOL     OW25618   3.599   4.142   2.509
 8240SOL    HW125619   3.671   4.158   2.577
 8240SOL    HW225620   3.607   4.049   2.473
 8241SOL     OW25621   3.920   0.238   6.079
 8241SOL    HW125622   3.970   0.249   5.993
 8241SOL    HW225623   3.823   0.259   6.065
 8242SOL     OW25624   0.031   4.808   5.850
 8242SOL    HW125625   0.121   4.782   5.886
 8242SOL    HW225626   0.025   4.780   5.754
 8243SOL     OW25627   0.657   2.503   0.538
 8243SOL    HW125628   0.703   2.540   0.456
 8243SOL    HW225629   0.611   2.418   0.514
 8244SOL     OW25630   0.325   0.655   4.659
 8244SOL    HW125631   0.383   0.713   4.602
 8244SOL    HW225632   0.252   0.711   4.701
 8245SOL     OW25633   4.200   2.054   2.847
 8245SOL    HW125634   4.180   2.044   2.944
 8245SOL    HW225635   4.259   1.979   2.817
 8246SOL     OW25636   1.308   2.668   5.824
 8246SOL    HW125637   1.246   2.723   5.767
 8246SOL    HW225638   1.358   2.728   5.886
 8247SOL     OW25639   1.287   6.900   2.512
 8247SOL    HW125640   1.287   6.961   2.592
 8247SOL    HW225641   1.351   6.825   2.527
 8248SOL     OW25642   6.059   5.048   4.512
 8248SOL    HW125643   6.002   5.050   4.594
 8248SOL    HW225644   6.152   5.019   4.536
 8249SOL     OW25645   1.977   3.086   5.625
 8249SOL    HW125646   2.036   3.015   5.663
 8249SOL    HW225647   1.915   3.120   5.696
 8250SOL     OW25648   3.068   3.933   1.918
 8250SOL    HW125649   3.093   3.840   1.890
 8250SOL    HW225650   3.116   3.957   2.002
 8251SOL     OW25651   5.401   3.633   4.120
 8251SOL    HW125652   5.386   3.560   4.187
 8251SOL    HW225653   5.317   3.685   4.107
 8252SOL     OW25654   2.794   1.374   5.501
 8252SOL    HW125655   2.861   1.314   5.544
 8252SOL    HW225656   2.713   1.322   5.476
 8253SOL     OW25657   4.161   4.925   5.404
 8253SOL    HW125658   4.151   4.952   5.309
 8253SOL    HW225659   4.094   4.854   5.426
 8254SOL     OW25660   4.640   4.726   5.009
 8254SOL    HW125661   4.598   4.771   4.930
 8254SOL    HW225662   4.737   4.710   4.990
 8255SOL     OW25663   2.234   0.158   4.648
 8255SOL    HW125664   2.320   0.202   4.671
 8255SOL    HW225665   2.237   0.127   4.553
 8256SOL     OW25666   6.654   6.721   2.271
 8256SOL    HW125667   6.660   6.810   2.315
 8256SOL    HW225668   6.558   6.697   2.256
 8257SOL     OW25669   5.745   3.988   3.157
 8257SOL    HW125670   5.703   3.946   3.238
 8257SOL    HW225671   5.680   4.051   3.116
 8258SOL     OW25672   5.496   1.893   0.200
 8258SOL    HW125673   5.512   1.869   0.296
 8258SOL    HW225674   5.458   1.814   0.152
 8259SOL     OW25675   3.635   1.637   3.709
 8259SOL    HW125676   3.578   1.597   3.637
 8259SOL    HW225677   3.578   1.663   3.787
 8260SOL     OW25678   2.673   6.807   1.736
 8260SOL    HW125679   2.738   6.783   1.664
 8260SOL    HW225680   2.581   6.814   1.697
 8261SOL     OW25681   5.762   0.339   1.889
 8261SOL    HW125682   5.837   0.397   1.921
 8261SOL    HW225683   5.720   0.380   1.808
 8262SOL     OW25684   0.254   3.246   0.673
 8262SOL    HW125685   0.228   3.167   0.618
 8262SOL    HW225686   0.172   3.297   0.699
 8263SOL     OW25687   0.618   2.592   6.739
 8263SOL    HW125688   0.670   2.517   6.697
 8263SOL    HW225689   0.526   2.593   6.702
 8264SOL     OW25690   2.737   6.698   2.420
 8264SOL    HW125691   2.789   6.692   2.505
 8264SOL    HW225692   2.729   6.607   2.379
 8265SOL     OW25693   0.153   0.127   1.143
 8265SOL    HW125694   0.164   0.223   1.118
 8265SOL    HW225695   0.128   0.074   1.062
 8266SOL     OW25696   2.122   1.240   3.495
 8266SOL    HW125697   2.117   1.144   3.524
 8266SOL    HW225698   2.102   1.299   3.573
 8267SOL     OW25699   1.653   2.840   1.570
 8267SOL    HW125700   1.608   2.782   1.638
 8267SOL    HW225701   1.610   2.826   1.480
 8268SOL     OW25702   1.732   6.267   5.933
 8268SOL    HW125703   1.727   6.336   6.005
 8268SOL    HW225704   1.732   6.176   5.973
 8269SOL     OW25705   4.414   1.613   2.120
 8269SOL    HW125706   4.468   1.682   2.074
 8269SOL    HW225707   4.459   1.585   2.205
 8270SOL     OW25708   2.668   6.437   5.465
 8270SOL    HW125709   2.738   6.407   5.400
 8270SOL    HW225710   2.619   6.515   5.426
 8271SOL     OW25711   0.475   0.209   3.106
 8271SOL    HW125712   0.559   0.229   3.056
 8271SOL    HW225713   0.413   0.156   3.049
 8272SOL     OW25714   5.702   1.935   2.380
 8272SOL    HW125715   5.717   1.879   2.298
 8272SOL    HW225716   5.739   2.026   2.365
 8273SOL     OW25717   2.784   0.790   7.014
 8273SOL    HW125718   2.778   0.692   6.997
 8273SOL    HW225719   2.804   0.838   6.928
 8274SOL     OW25720   5.029   4.727   4.296
 8274SOL    HW125721   5.011   4.814   4.250
 8274SOL    HW225722   4.973   4.655   4.256
 8275SOL     OW25723   5.525   1.132   5.828
 8275SOL    HW125724   5.602   1.182   5.866
 8275SOL    HW225725   5.559   1.059   5.768
 8276SOL     OW25726   0.388   2.343   3.489
 8276SOL    HW125727   0.432   2.283   3.556
 8276SOL    HW225728   0.421   2.322   3.397
 8277SOL     OW25729   6.981   5.933   6.442
 8277SOL    HW125730   6.979   6.020   6.393
 8277SOL    HW225731   6.897   5.882   6.421
 8278SOL     OW25732   2.809   2.283   5.593
 8278SOL    HW125733   2.857   2.215   5.538
 8278SOL    HW225734   2.711   2.279   5.573
 8279SOL     OW25735   1.277   6.981   4.510
 8279SOL    HW125736   1.246   0.006   4.590
 8279SOL    HW225737   1.198   6.949   4.458
 8280SOL     OW25738   2.542   3.536   0.901
 8280SOL    HW125739   2.482   3.474   0.951
 8280SOL    HW225740   2.637   3.507   0.912
 8281SOL     OW25741   3.084   4.521   1.653
 8281SOL    HW125742   3.132   4.434   1.654
 8281SOL    HW225743   3.023   4.527   1.733
 8282SOL     OW25744   4.490   3.609   6.915
 8282SOL    HW125745   4.585   3.631   6.893
 8282SOL    HW225746   4.433   3.623   6.834
 8283SOL     OW25747   1.586   5.468   6.025
 8283SOL    HW125748   1.560   5.477   6.121
 8283SOL    HW225749   1.633   5.551   5.994
 8284SOL     OW25750   0.991   3.612   1.159
 8284SOL    HW125751   1.076   3.654   1.127
 8284SOL    HW225752   0.913   3.654   1.112
 8285SOL     OW25753   3.219   3.816   4.634
 8285SOL    HW125754   3.146   3.747   4.630
 8285SOL    HW225755   3.205   3.884   4.562
 8286SOL     OW25756   5.851   1.989   6.344
 8286SOL    HW125757   5.870   2.087   6.352
 8286SOL    HW225758   5.935   1.942   6.315
 8287SOL     OW25759   1.815   5.463   4.494
 8287SOL    HW125760   1.785   5.368   4.490
 8287SOL    HW225761   1.743   5.523   4.459
 8288SOL     OW25762   3.223   2.010   1.686
 8288SOL    HW125763   3.318   2.016   1.715
 8288SOL    HW225764   3.172   2.090   1.720
 8289SOL     OW25765   0.424   5.662   0.874
 8289SOL    HW125766   0.472   5.615   0.948
 8289SOL    HW225767   0.429   5.761   0.888
 8290SOL     OW25768   5.677   1.383   1.252
 8290SOL    HW125769   5.622   1.457   1.290
 8290SOL    HW225770   5.693   1.399   1.155
 8291SOL     OW25771   5.128   6.324   4.986
 8291SOL    HW125772   5.049   6.306   4.927
 8291SOL    HW225773   5.121   6.417   5.023
 8292SOL     OW25774   2.809   6.667   6.984
 8292SOL    HW125775   2.760   6.622   6.910
 8292SOL    HW225776   2.778   6.762   6.991
 8293SOL     OW25777   3.152   5.873   0.605
 8293SOL    HW125778   3.248   5.894   0.593
 8293SOL    HW225779   3.131   5.865   0.703
 8294SOL     OW25780   5.872   3.559   5.506
 8294SOL    HW125781   5.792   3.620   5.502
 8294SOL    HW225782   5.868   3.505   5.591
 8295SOL     OW25783   5.207   5.534   2.015
 8295SOL    HW125784   5.190   5.463   1.946
 8295SOL    HW225785   5.303   5.530   2.043
 8296SOL     OW25786   1.160   4.593   6.613
 8296SOL    HW125787   1.207   4.664   6.665
 8296SOL    HW225788   1.227   4.531   6.573
 8297SOL     OW25789   6.616   3.171   2.456
 8297SOL    HW125790   6.613   3.188   2.357
 8297SOL    HW225791   6.624   3.073   2.473
 8298SOL     OW25792   6.452   1.202   1.661
 8298SOL    HW125793   6.477   1.298   1.659
 8298SOL    HW225794   6.466   1.161   1.571
 8299SOL     OW25795   6.408   2.475   1.733
 8299SOL    HW125796   6.375   2.551   1.789
 8299SOL    HW225797   6.343   2.460   1.658
 8300SOL     OW25798   0.494   5.998   4.741
 8300SOL    HW125799   0.421   5.938   4.774
 8300SOL    HW225800   0.545   6.034   4.819
 8301SOL     OW25801   3.882   1.796   1.092
 8301SOL    HW125802   3.981   1.783   1.099
 8301SOL    HW225803   3.853   1.780   0.998
 8302SOL     OW25804   6.039   6.804   6.799
 8302SOL    HW125805   6.007   6.871   6.731
 8302SOL    HW225806   6.096   6.850   6.866
 8303SOL     OW25807   6.611   0.926   3.602
 8303SOL    HW125808   6.595   1.024   3.610
 8303SOL    HW225809   6.645   0.905   3.511
 8304SOL     OW25810   0.092   3.253   0.953
 8304SOL    HW125811   0.151   3.188   1.000
 8304SOL    HW225812   0.148   3.322   0.907
 8305SOL     OW25813   4.931   5.255   4.131
 8305SOL    HW125814   4.946   5.332   4.193
 8305SOL    HW225815   4.962   5.281   4.039
 8306SOL     OW25816   6.217   2.489   5.753
 8306SOL    HW125817   6.191   2.472   5.848
 8306SOL    HW225818   6.178   2.577   5.723
 8307SOL     OW25819   3.423   5.322   1.672
 8307SOL    HW125820   3.432   5.348   1.769
 8307SOL    HW225821   3.333   5.351   1.639
 8308SOL     OW25822   3.336   5.617   1.419
 8308SOL    HW125823   3.320   5.710   1.452
 8308SOL    HW225824   3.397   5.569   1.482
 8309SOL     OW25825   6.706   5.269   4.246
 8309SOL    HW125826   6.786   5.264   4.186
 8309SOL    HW225827   6.678   5.177   4.273
 8310SOL     OW25828   6.868   5.200   0.727
 8310SOL    HW125829   6.887   5.154   0.813
 8310SOL    HW225830   6.894   5.140   0.651
 8311SOL     OW25831   0.507   1.441   4.727
 8311SOL    HW125832   0.588   1.427   4.670
 8311SOL    HW225833   0.507   1.534   4.764
 8312SOL     OW25834   4.967   0.455   0.190
 8312SOL    HW125835   5.002   0.522   0.256
 8312SOL    HW225836   4.877   0.484   0.158
 8313SOL     OW25837   5.347   0.094   0.990
 8313SOL    HW125838   5.433   0.088   0.938
 8313SOL    HW225839   5.270   0.102   0.926
 8314SOL     OW25840   4.931   0.654   0.519
 8314SOL    HW125841   4.847   0.633   0.467
 8314SOL    HW225842   4.906   0.694   0.607
 8315SOL     OW25843   4.418   2.715   1.608
 8315SOL    HW125844   4.460   2.651   1.673
 8315SOL    HW225845   4.413   2.806   1.650
 8316SOL     OW25846   1.195   2.248   1.844
 8316SOL    HW125847   1.181   2.340   1.880
 8316SOL    HW225848   1.289   2.219   1.862
 8317SOL     OW25849   2.030   2.798   2.949
 8317SOL    HW125850   2.056   2.826   2.856
 8317SOL    HW225851   2.111   2.796   3.007
 8318SOL     OW25852   4.503   1.336   4.898
 8318SOL    HW125853   4.531   1.432   4.897
 8318SOL    HW225854   4.573   1.282   4.946
 8319SOL     OW25855   2.025   1.711   0.060
 8319SOL    HW125856   2.051   1.629   0.010
 8319SOL    HW225857   2.036   1.791   0.001
 8320SOL     OW25858   3.135   3.411   2.292
 8320SOL    HW125859   3.077   3.469   2.349
 8320SOL    HW225860   3.169   3.463   2.214
 8321SOL     OW25861   6.522   0.305   6.333
 8321SOL    HW125862   6.560   0.384   6.383
 8321SOL    HW225863   6.565   0.298   6.243
 8322SOL     OW25864   6.731   6.903   0.871
 8322SOL    HW125865   6.730   6.810   0.836
 8322SOL    HW225866   6.649   6.951   0.841
 8323SOL     OW25867   5.156   5.314   2.550
 8323SOL    HW125868   5.103   5.245   2.500
 8323SOL    HW225869   5.143   5.302   2.648
 8324SOL     OW25870   5.739   6.781   1.307
 8324SOL    HW125871   5.665   6.843   1.283
 8324SOL    HW225872   5.827   6.827   1.295
 8325SOL     OW25873   2.300   3.654   5.470
 8325SOL    HW125874   2.324   3.568   5.427
 8325SOL    HW225875   2.337   3.657   5.563
 8326SOL     OW25876   5.093   3.512   5.777
 8326SOL    HW125877   5.101   3.530   5.679
 8326SOL    HW225878   5.011   3.557   5.813
 8327SOL     OW25879   6.519   1.202   6.554
 8327SOL    HW125880   6.572   1.124   6.521
 8327SOL    HW225881   6.450   1.170   6.620
 8328SOL     OW25882   2.644   6.136   5.951
 8328SOL    HW125883   2.615   6.230   5.966
 8328SOL    HW225884   2.734   6.122   5.993
 8329SOL     OW25885   0.786   3.018   6.133
 8329SOL    HW125886   0.730   3.100   6.118
 8329SOL    HW225887   0.866   3.020   6.073
 8330SOL     OW25888   2.723   1.053   0.086
 8330SOL    HW125889   2.775   1.073   0.169
 8330SOL    HW225890   2.734   0.956   0.063
 8331SOL     OW25891   3.327   1.358   1.188
 8331SOL    HW125892   3.323   1.362   1.288
 8331SOL    HW225893   3.256   1.418   1.150
 8332SOL     OW25894   4.654   5.129   2.323
 8332SOL    HW125895   4.555   5.128   2.331
 8332SOL    HW225896   4.685   5.044   2.282
 8333SOL     OW25897   0.049   6.289   6.070
 8333SOL    HW125898   0.143   6.307   6.101
 8333SOL    HW225899   0.016   6.366   6.016
 8334SOL     OW25900   4.152   0.948   3.861
 8334SOL    HW125901   4.111   0.875   3.915
 8334SOL    HW225902   4.082   0.987   3.800
 8335SOL     OW25903   6.005   6.488   0.013
 8335SOL    HW125904   5.979   6.555   0.082
 8335SOL    HW225905   5.927   6.430   7.017
 8336SOL     OW25906   6.918   5.210   3.031
 8336SOL    HW125907   6.952   5.197   2.938
 8336SOL    HW225908   6.951   5.298   3.066
 8337SOL     OW25909   2.278   6.171   2.482
 8337SOL    HW125910   2.351   6.233   2.454
 8337SOL    HW225911   2.284   6.086   2.430
 8338SOL     OW25912   3.023   5.502   1.901
 8338SOL    HW125913   3.008   5.456   1.988
 8338SOL    HW225914   3.005   5.600   1.912
 8339SOL     OW25915   6.116   0.652   1.062
 8339SOL    HW125916   6.054   0.582   1.027
 8339SOL    HW225917   6.208   0.614   1.073
 8340SOL     OW25918   4.913   2.763   1.385
 8340SOL    HW125919   5.011   2.782   1.395
 8340SOL    HW225920   4.870   2.766   1.475
 8341SOL     OW25921   2.706   6.486   0.404
 8341SOL    HW125922   2.680   6.426   0.328
 8341SOL    HW225923   2.764   6.560   0.370
 8342SOL     OW25924   4.550   6.572   1.580
 8342SOL    HW125925   4.602   6.539   1.659
 8342SOL    HW225926   4.612   6.616   1.515
 8343SOL     OW25927   1.581   5.940   5.639
 8343SOL    HW125928   1.538   5.863   5.685
 8343SOL    HW225929   1.579   6.020   5.698
 8344SOL     OW25930   4.715   6.506   4.409
 8344SOL    HW125931   4.629   6.533   4.365
 8344SOL    HW225932   4.698   6.431   4.473
 8345SOL     OW25933   4.386   1.412   2.893
 8345SOL    HW125934   4.447   1.356   2.836
 8345SOL    HW225935   4.292   1.383   2.878
 8346SOL     OW25936   3.231   4.949   0.876
 8346SOL    HW125937   3.272   4.930   0.965
 8346SOL    HW225938   3.250   4.873   0.813
 8347SOL     OW25939   3.125   5.415   4.598
 8347SOL    HW125940   3.136   5.426   4.499
 8347SOL    HW225941   3.215   5.406   4.640
 8348SOL     OW25942   2.287   0.338   2.508
 8348SOL    HW125943   2.261   0.302   2.418
 8348SOL    HW225944   2.386   0.328   2.520
 8349SOL     OW25945   5.879   6.142   1.654
 8349SOL    HW125946   5.811   6.182   1.593
 8349SOL    HW225947   5.862   6.174   1.748
 8350SOL     OW25948   4.272   6.762   5.729
 8350SOL    HW125949   4.294   6.691   5.795
 8350SOL    HW225950   4.248   6.847   5.776
 8351SOL     OW25951   5.102   4.787   4.747
 8351SOL    HW125952   5.175   4.725   4.778
 8351SOL    HW225953   5.014   4.739   4.752
 8352SOL     OW25954   0.784   0.137   3.268
 8352SOL    HW125955   0.808   0.166   3.176
 8352SOL    HW225956   0.827   0.198   3.335
 8353SOL     OW25957   6.747   2.997   1.392
 8353SOL    HW125958   6.785   3.069   1.449
 8353SOL    HW225959   6.774   3.012   1.297
 8354SOL     OW25960   3.654   6.909   6.372
 8354SOL    HW125961   3.589   6.924   6.298
 8354SOL    HW225962   3.730   6.854   6.339
 8355SOL     OW25963   2.872   0.742   6.311
 8355SOL    HW125964   2.887   0.826   6.260
 8355SOL    HW225965   2.866   0.665   6.247
 8356SOL     OW25966   0.849   6.188   1.130
 8356SOL    HW125967   0.812   6.195   1.222
 8356SOL    HW225968   0.773   6.179   1.065
 8357SOL     OW25969   4.205   0.110   4.940
 8357SOL    HW125970   4.171   0.144   4.853
 8357SOL    HW225971   4.281   0.047   4.924
 8358SOL     OW25972   1.085   4.300   5.688
 8358SOL    HW125973   1.120   4.284   5.596
 8358SOL    HW225974   1.130   4.380   5.727
 8359SOL     OW25975   2.924   0.950   5.230
 8359SOL    HW125976   2.916   1.039   5.186
 8359SOL    HW225977   2.872   0.951   5.316
 8360SOL     OW25978   3.084   5.876   1.556
 8360SOL    HW125979   3.082   5.927   1.470
 8360SOL    HW225980   2.991   5.867   1.591
 8361SOL     OW25981   3.473   0.452   2.711
 8361SOL    HW125982   3.465   0.549   2.734
 8361SOL    HW225983   3.464   0.397   2.794
 8362SOL     OW25984   4.012   2.154   0.464
 8362SOL    HW125985   4.016   2.239   0.516
 8362SOL    HW225986   3.920   2.142   0.426
 8363SOL     OW25987   6.742   2.664   6.459
 8363SOL    HW125988   6.741   2.578   6.408
 8363SOL    HW225989   6.824   2.669   6.516
 8364SOL     OW25990   0.902   3.150   2.892
 8364SOL    HW125991   0.956   3.077   2.850
 8364SOL    HW225992   0.858   3.117   2.975
 8365SOL     OW25993   2.325   4.039   1.901
 8365SOL    HW125994   2.279   3.998   1.822
 8365SOL    HW225995   2.258   4.053   1.974
 8366SOL     OW25996   2.138   5.696   1.855
 8366SOL    HW125997   2.114   5.687   1.952
 8366SOL    HW225998   2.235   5.674   1.843
 8367SOL     OW25999   4.238   6.180   3.724
 8367SOL    HW126000   4.161   6.244   3.723
 8367SOL    HW226001   4.221   6.108   3.790
 8368SOL     OW26002   2.398   6.183   6.884
 8368SOL    HW126003   2.402   6.096   6.933
 8368SOL    HW226004   2.395   6.165   6.786
 8369SOL     OW26005   2.181   6.676   6.477
 8369SOL    HW126006   2.222   6.616   6.546
 8369SOL    HW226007   2.084   6.652   6.466
 8370SOL     OW26008   2.758   1.895   5.555
 8370SOL    HW126009   2.793   1.967   5.614
 8370SOL    HW226010   2.669   1.923   5.518
 8371SOL     OW26011   2.009   3.899   0.747
 8371SOL    HW126012   2.064   3.874   0.827
 8371SOL    HW226013   1.964   3.986   0.763
 8372SOL     OW26014   0.392   5.454   2.094
 8372SOL    HW126015   0.439   5.374   2.056
 8372SOL    HW226016   0.385   5.445   2.193
 8373SOL     OW26017   1.486   7.014   3.572
 8373SOL    HW126018   1.576   6.992   3.533
 8373SOL    HW226019   1.439   6.929   3.597
 8374SOL     OW26020   6.846   1.002   5.645
 8374SOL    HW126021   6.882   1.016   5.553
 8374SOL    HW226022   6.897   1.060   5.709
 8375SOL     OW26023   3.571   6.931   5.139
 8375SOL    HW126024   3.667   6.943   5.162
 8375SOL    HW226025   3.520   6.905   5.222
 8376SOL     OW26026   1.405   0.811   4.238
 8376SOL    HW126027   1.407   0.724   4.286
 8376SOL    HW226028   1.422   0.885   4.303
 8377SOL     OW26029   5.142   6.053   1.510
 8377SOL    HW126030   5.206   6.124   1.479
 8377SOL    HW226031   5.172   5.964   1.475
 8378SOL     OW26032   4.504   5.068   2.696
 8378SOL    HW126033   4.570   4.993   2.687
 8378SOL    HW226034   4.440   5.047   2.770
 8379SOL     OW26035   5.908   2.175   1.073
 8379SOL    HW126036   5.850   2.196   1.152
 8379SOL    HW226037   5.916   2.256   1.016
 8380SOL     OW26038   7.018   0.256   2.488
 8380SOL    HW126039   0.089   0.256   2.514
 8380SOL    HW226040   6.965   0.295   2.563
 8381SOL     OW26041   0.105   3.017   5.283
 8381SOL    HW126042   0.167   2.940   5.271
 8381SOL    HW226043   0.151   3.090   5.334
 8382SOL     OW26044   2.615   0.645   2.727
 8382SOL    HW126045   2.598   0.683   2.636
 8382SOL    HW226046   2.529   0.617   2.768
 8383SOL     OW26047   2.257   6.953   5.597
 8383SOL    HW126048   2.269   0.025   5.587
 8383SOL    HW226049   2.192   6.934   5.670
 8384SOL     OW26050   6.866   0.817   0.802
 8384SOL    HW126051   6.800   0.872   0.854
 8384SOL    HW226052   6.881   0.731   0.850
 8385SOL     OW26053   6.536   1.533   1.264
 8385SOL    HW126054   6.595   1.577   1.331
 8385SOL    HW226055   6.443   1.525   1.301
 8386SOL     OW26056   1.443   4.989   2.017
 8386SOL    HW126057   1.382   5.064   1.991
 8386SOL    HW226058   1.460   4.991   2.115
 8387SOL     OW26059   1.742   1.357   2.354
 8387SOL    HW126060   1.768   1.410   2.435
 8387SOL    HW226061   1.692   1.275   2.382
 8388SOL     OW26062   2.520   6.463   0.690
 8388SOL    HW126063   2.555   6.453   0.597
 8388SOL    HW226064   2.590   6.437   0.756
 8389SOL     OW26065   6.972   2.912   2.882
 8389SOL    HW126066   6.936   2.852   2.953
 8389SOL    HW226067   6.901   2.975   2.852
 8390SOL     OW26068   4.121   1.240   6.116
 8390SOL    HW126069   4.166   1.308   6.173
 8390SOL    HW226070   4.171   1.153   6.122
 8391SOL     OW26071   6.417   4.976   1.088
 8391SOL    HW126072   6.366   4.932   1.163
 8391SOL    HW226073   6.396   4.929   1.002
 8392SOL     OW26074   6.396   3.658   4.555
 8392SOL    HW126075   6.338   3.617   4.485
 8392SOL    HW226076   6.488   3.673   4.518
 8393SOL     OW26077   0.032   0.122   3.049
 8393SOL    HW126078   6.996   0.108   3.126
 8393SOL    HW226079   0.021   0.215   3.014
 8394SOL     OW26080   6.212   2.274   0.806
 8394SOL    HW126081   6.311   2.274   0.821
 8394SOL    HW226082   6.180   2.180   0.798
 8395SOL     OW26083   2.983   6.811   5.360
 8395SOL    HW126084   2.901   6.794   5.304
 8395SOL    HW226085   2.974   6.900   5.405
 8396SOL     OW26086   4.812   5.707   3.151
 8396SOL    HW126087   4.863   5.758   3.081
 8396SOL    HW226088   4.755   5.770   3.203
 8397SOL     OW26089   1.372   0.834   2.250
 8397SOL    HW126090   1.328   0.910   2.296
 8397SOL    HW226091   1.458   0.812   2.297
 8398SOL     OW26092   3.876   2.122   5.931
 8398SOL    HW126093   3.905   2.139   6.025
 8398SOL    HW226094   3.817   2.042   5.928
 8399SOL     OW26095   5.612   0.014   6.775
 8399SOL    HW126096   5.548   0.023   6.851
 8399SOL    HW226097   5.637   6.944   6.763
 8400SOL     OW26098   1.845   0.920   4.135
 8400SOL    HW126099   1.886   0.829   4.131
 8400SOL    HW226100   1.806   0.942   4.045
 8401SOL     OW26101   2.140   1.207   5.257
 8401SOL    HW126102   2.176   1.243   5.343
 8401SOL    HW226103   2.205   1.223   5.183
 8402SOL     OW26104   4.780   1.807   6.385
 8402SOL    HW126105   4.841   1.729   6.371
 8402SOL    HW226106   4.717   1.788   6.460
 8403SOL     OW26107   6.892   3.446   4.574
 8403SOL    HW126108   6.912   3.380   4.503
 8403SOL    HW226109   6.958   3.437   4.648
 8404SOL     OW26110   3.594   6.645   6.019
 8404SOL    HW126111   3.663   6.621   5.951
 8404SOL    HW226112   3.595   6.578   6.093
 8405SOL     OW26113   2.170   1.405   5.468
 8405SOL    HW126114   2.257   1.449   5.493
 8405SOL    HW226115   2.104   1.475   5.442
 8406SOL     OW26116   4.037   0.881   0.307
 8406SOL    HW126117   4.097   0.944   0.257
 8406SOL    HW226118   4.061   0.883   0.404
 8407SOL     OW26119   3.489   6.346   3.189
 8407SOL    HW126120   3.403   6.369   3.143
 8407SOL    HW226121   3.485   6.373   3.285
 8408SOL     OW26122   5.431   3.805   1.346
 8408SOL    HW126123   5.499   3.808   1.273
 8408SOL    HW226124   5.414   3.710   1.372
 8409SOL     OW26125   5.069   1.668   2.955
 8409SOL    HW126126   4.997   1.727   2.993
 8409SOL    HW226127   5.158   1.699   2.987
 8410SOL     OW26128   5.909   0.718   1.584
 8410SOL    HW126129   5.956   0.636   1.617
 8410SOL    HW226130   5.810   0.702   1.588
 8411SOL     OW26131   0.861   5.198   0.130
 8411SOL    HW126132   0.801   5.132   0.176
 8411SOL    HW226133   0.805   5.263   0.079
 8412SOL     OW26134   3.810   2.552   1.335
 8412SOL    HW126135   3.818   2.541   1.434
 8412SOL    HW226136   3.891   2.514   1.290
 8413SOL     OW26137   4.563   5.917   6.850
 8413SOL    HW126138   4.486   5.870   6.893
 8413SOL    HW226139   4.635   5.851   6.830
 8414SOL     OW26140   3.724   6.712   3.551
 8414SOL    HW126141   3.675   6.734   3.635
 8414SOL    HW226142   3.817   6.684   3.572
 8415SOL     OW26143   0.603   5.812   3.956
 8415SOL    HW126144   0.561   5.788   3.868
 8415SOL    HW226145   0.698   5.838   3.941
 8416SOL     OW26146   6.032   2.780   2.939
 8416SOL    HW126147   5.962   2.710   2.930
 8416SOL    HW226148   6.119   2.738   2.965
 8417SOL     OW26149   1.073   3.245   5.808
 8417SOL    HW126150   1.060   3.343   5.825
 8417SOL    HW226151   1.126   3.233   5.725
 8418SOL     OW26152   6.015   5.405   1.208
 8418SOL    HW126153   6.038   5.316   1.166
 8418SOL    HW226154   6.082   5.473   1.178
 8419SOL     OW26155   5.666   0.084   1.881
 8419SOL    HW126156   5.679   0.050   1.788
 8419SOL    HW226157   5.703   0.177   1.888
 8420SOL     OW26158   4.184   7.012   0.744
 8420SOL    HW126159   4.135   6.934   0.704
 8420SOL    HW226160   4.252   0.018   0.678
 8421SOL     OW26161   3.297   5.897   7.007
 8421SOL    HW126162   3.231   5.951   0.034
 8421SOL    HW226163   3.251   5.856   6.929
 8422SOL     OW26164   4.106   1.278   1.966
 8422SOL    HW126165   4.127   1.366   2.010
 8422SOL    HW226166   4.120   1.204   2.031
 8423SOL     OW26167   3.346   5.171   5.867
 8423SOL    HW126168   3.355   5.255   5.920
 8423SOL    HW226169   3.265   5.121   5.898
 8424SOL     OW26170   1.572   2.208   2.359
 8424SOL    HW126171   1.499   2.170   2.415
 8424SOL    HW226172   1.635   2.260   2.416
 8425SOL     OW26173   4.474   4.670   5.904
 8425SOL    HW126174   4.514   4.578   5.905
 8425SOL    HW226175   4.396   4.672   5.966
 8426SOL     OW26176   3.880   3.347   3.095
 8426SOL    HW126177   3.951   3.280   3.118
 8426SOL    HW226178   3.862   3.404   3.175
 8427SOL     OW26179   3.649   4.153   3.683
 8427SOL    HW126180   3.595   4.128   3.602
 8427SOL    HW226181   3.715   4.224   3.659
 8428SOL     OW26182   0.696   6.157   1.406
 8428SOL    HW126183   0.624   6.105   1.361
 8428SOL    HW226184   0.662   6.194   1.493
 8429SOL     OW26185   1.558   6.216   5.063
 8429SOL    HW126186   1.468   6.173   5.060
 8429SOL    HW226187   1.615   6.171   5.132
 8430SOL     OW26188   3.578   5.235   3.579
 8430SOL    HW126189   3.627   5.306   3.630
 8430SOL    HW226190   3.625   5.147   3.592
 8431SOL     OW26191   3.877   3.466   0.775
 8431SOL    HW126192   3.923   3.481   0.688
 8431SOL    HW226193   3.889   3.371   0.804
 8432SOL     OW26194   5.947   6.400   5.382
 8432SOL    HW126195   6.046   6.400   5.376
 8432SOL    HW226196   5.914   6.305   5.386
 8433SOL     OW26197   4.692   2.911   0.785
 8433SOL    HW126198   4.629   2.861   0.844
 8433SOL    HW226199   4.679   2.881   0.690
 8434SOL     OW26200   2.902   0.175   4.801
 8434SOL    HW126201   2.832   0.228   4.849
 8434SOL    HW226202   2.984   0.169   4.858
 8435SOL     OW26203   5.904   0.913   1.785
 8435SOL    HW126204   5.890   0.839   1.720
 8435SOL    HW226205   6.001   0.938   1.787
 8436SOL     OW26206   3.170   6.355   3.342
 8436SOL    HW126207   3.160   6.256   3.348
 8436SOL    HW226208   3.121   6.398   3.417
 8437SOL     OW26209   2.073   1.058   3.987
 8437SOL    HW126210   2.171   1.075   3.994
 8437SOL    HW226211   2.035   1.041   4.078
 8438SOL     OW26212   2.211   4.063   2.677
 8438SOL    HW126213   2.212   3.964   2.662
 8438SOL    HW226214   2.261   4.085   2.760
 8439SOL     OW26215   5.960   5.004   2.893
 8439SOL    HW126216   5.886   5.071   2.893
 8439SOL    HW226217   5.978   4.973   2.986
 8440SOL     OW26218   2.165   1.516   3.909
 8440SOL    HW126219   2.165   1.491   4.006
 8440SOL    HW226220   2.258   1.541   3.881
 8441SOL     OW26221   5.267   0.285   0.367
 8441SOL    HW126222   5.297   0.210   0.426
 8441SOL    HW226223   5.233   0.360   0.423
 8442SOL     OW26224   3.453   2.572   5.383
 8442SOL    HW126225   3.355   2.550   5.380
 8442SOL    HW226226   3.506   2.488   5.393
 8443SOL     OW26227   2.396   4.478   3.863
 8443SOL    HW126228   2.344   4.474   3.948
 8443SOL    HW226229   2.378   4.395   3.809
 8444SOL     OW26230   3.471   6.475   4.540
 8444SOL    HW126231   3.372   6.473   4.558
 8444SOL    HW226232   3.496   6.397   4.484
 8445SOL     OW26233   2.815   0.282   1.444
 8445SOL    HW126234   2.880   0.304   1.517
 8445SOL    HW226235   2.865   0.248   1.364
 8446SOL     OW26236   5.707   5.811   6.226
 8446SOL    HW126237   5.712   5.805   6.325
 8446SOL    HW226238   5.795   5.842   6.190
 8447SOL     OW26239   4.611   1.858   2.561
 8447SOL    HW126240   4.553   1.822   2.488
 8447SOL    HW226241   4.610   1.958   2.558
 8448SOL     OW26242   4.321   6.135   4.370
 8448SOL    HW126243   4.319   6.150   4.271
 8448SOL    HW226244   4.228   6.118   4.402
 8449SOL     OW26245   6.890   3.331   3.538
 8449SOL    HW126246   6.980   3.293   3.519
 8449SOL    HW226247   6.854   3.374   3.455
 8450SOL     OW26248   0.712   0.213   1.413
 8450SOL    HW126249   0.788   0.193   1.475
 8450SOL    HW226250   0.746   0.262   1.333
 8451SOL     OW26251   3.573   1.659   0.336
 8451SOL    HW126252   3.558   1.577   0.391
 8451SOL    HW226253   3.606   1.733   0.394
 8452SOL     OW26254   6.142   2.180   3.781
 8452SOL    HW126255   6.092   2.098   3.807
 8452SOL    HW226256   6.166   2.175   3.684
 8453SOL     OW26257   0.518   4.894   0.127
 8453SOL    HW126258   0.447   4.935   0.070
 8453SOL    HW226259   0.574   4.833   0.072
 8454SOL     OW26260   6.948   6.210   1.528
 8454SOL    HW126261   6.911   6.156   1.603
 8454SOL    HW226262   0.020   6.191   1.519
 8455SOL     OW26263   6.929   1.644   1.780
 8455SOL    HW126264   7.020   1.637   1.738
 8455SOL    HW226265   6.889   1.733   1.757
 8456SOL     OW26266   3.872   6.061   3.113
 8456SOL    HW126267   3.810   6.138   3.100
 8456SOL    HW226268   3.947   6.089   3.173
 8457SOL     OW26269   0.457   0.097   4.424
 8457SOL    HW126270   0.424   0.060   4.337
 8457SOL    HW226271   0.488   0.021   4.482
 8458SOL     OW26272   2.962   0.646   0.453
 8458SOL    HW126273   2.908   0.569   0.419
 8458SOL    HW226274   2.908   0.697   0.520
 8459SOL     OW26275   2.868   5.584   2.152
 8459SOL    HW126276   2.904   5.495   2.177
 8459SOL    HW226277   2.933   5.656   2.177
 8460SOL     OW26278   4.319   4.316   5.403
 8460SOL    HW126279   4.346   4.387   5.338
 8460SOL    HW226280   4.314   4.228   5.355
 8461SOL     OW26281   0.725   3.905   5.173
 8461SOL    HW126282   0.723   3.978   5.241
 8461SOL    HW226283   0.701   3.943   5.083
 8462SOL     OW26284   2.071   2.398   6.589
 8462SOL    HW126285   2.152   2.377   6.645
 8462SOL    HW226286   2.035   2.487   6.616
 8463SOL     OW26287   0.212   6.972   1.338
 8463SOL    HW126288   0.116   6.943   1.344
 8463SOL    HW226289   0.221   0.014   1.266
 8464SOL     OW26290   5.845   4.358   4.220
 8464SOL    HW126291   5.790   4.307   4.286
 8464SOL    HW226292   5.901   4.425   4.268
 8465SOL     OW26293   0.663   3.135   0.735
 8465SOL    HW126294   0.762   3.137   0.750
 8465SOL    HW226295   0.644   3.116   0.639
 8466SOL     OW26296   0.676   0.271   4.216
 8466SOL    HW126297   0.591   0.218   4.209
 8466SOL    HW226298   0.754   0.208   4.222
 8467SOL     OW26299   3.220   6.472   0.376
 8467SOL    HW126300   3.120   6.463   0.372
 8467SOL    HW226301   3.259   6.454   0.286
 8468SOL     OW26302   3.779   1.895   0.215
 8468SOL    HW126303   3.698   1.954   0.207
 8468SOL    HW226304   3.757   1.814   0.269
 8469SOL     OW26305   3.832   1.938   6.603
 8469SOL    HW126306   3.770   2.016   6.592
 8469SOL    HW226307   3.926   1.968   6.591
 8470SOL     OW26308   1.104   3.498   0.227
 8470SOL    HW126309   1.013   3.521   0.193
 8470SOL    HW226310   1.170   3.509   0.152
 8471SOL     OW26311   3.148   1.410   3.444
 8471SOL    HW126312   3.108   1.385   3.356
 8471SOL    HW226313   3.216   1.342   3.470
 8472SOL     OW26314   0.360   0.408   4.764
 8472SOL    HW126315   0.397   0.415   4.857
 8472SOL    HW226316   0.346   0.500   4.727
 8473SOL     OW26317   5.919   4.973   6.535
 8473SOL    HW126318   5.998   4.921   6.505
 8473SOL    HW226319   5.932   5.070   6.514
 8474SOL     OW26320   3.403   2.988   2.426
 8474SOL    HW126321   3.324   2.974   2.486
 8474SOL    HW226322   3.395   3.077   2.381
 8475SOL     OW26323   0.170   1.911   3.196
 8475SOL    HW126324   0.241   1.891   3.128
 8475SOL    HW226325   0.103   1.836   3.197
 8476SOL     OW26326   6.569   1.015   1.164
 8476SOL    HW126327   6.643   1.043   1.226
 8476SOL    HW226328   6.505   0.955   1.212
 8477SOL     OW26329   4.136   6.485   2.010
 8477SOL    HW126330   4.056   6.499   2.068
 8477SOL    HW226331   4.218   6.513   2.059
 8478SOL     OW26332   1.203   0.864   6.231
 8478SOL    HW126333   1.229   0.904   6.143
 8478SOL    HW226334   1.249   0.776   6.243
 8479SOL     OW26335   6.397   2.484   0.879
 8479SOL    HW126336   6.313   2.430   0.878
 8479SOL    HW226337   6.396   2.551   0.805
 8480SOL     OW26338   3.875   1.165   0.104
 8480SOL    HW126339   3.947   1.119   0.052
 8480SOL    HW226340   3.909   1.255   0.133
 8481SOL     OW26341   4.740   2.124   3.748
 8481SOL    HW126342   4.694   2.181   3.816
 8481SOL    HW226343   4.704   2.145   3.658
 8482SOL     OW26344   4.065   6.737   2.934
 8482SOL    HW126345   4.152   6.784   2.951
 8482SOL    HW226346   4.015   6.728   3.020
 8483SOL     OW26347   3.806   5.750   2.422
 8483SOL    HW126348   3.821   5.847   2.439
 8483SOL    HW226349   3.717   5.724   2.459
 8484SOL     OW26350   0.637   5.552   2.941
 8484SOL    HW126351   0.662   5.461   2.975
 8484SOL    HW226352   0.587   5.543   2.855
 8485SOL     OW26353   3.212   3.623   6.990
 8485SOL    HW126354   3.310   3.612   7.011
 8485SOL    HW226355   3.160   3.549   0.007
 8486SOL     OW26356   4.812   1.146   2.811
 8486SOL    HW126357   4.910   1.138   2.791
 8486SOL    HW226358   4.774   1.056   2.831
 8487SOL     OW26359   5.894   0.724   6.629
 8487SOL    HW126360   5.974   0.700   6.573
 8487SOL    HW226361   5.811   0.709   6.576
 8488SOL     OW26362   5.830   4.546   5.115
 8488SOL    HW126363   5.858   4.642   5.104
 8488SOL    HW226364   5.852   4.495   5.032
 8489SOL     OW26365   6.303   0.870   1.132
 8489SOL    HW126366   6.376   0.843   1.069
 8489SOL    HW226367   6.221   0.817   1.112
 8490SOL     OW26368   4.165   6.772   4.410
 8490SOL    HW126369   4.161   6.844   4.341
 8490SOL    HW226370   4.208   6.808   4.493
 8491SOL     OW26371   1.874   0.077   1.039
 8491SOL    HW126372   1.925   0.160   1.063
 8491SOL    HW226373   1.790   0.074   1.092
 8492SOL     OW26374   4.030   4.031   7.001
 8492SOL    HW126375   4.097   4.097   6.966
 8492SOL    HW226376   4.030   4.033   0.074
 8493SOL     OW26377   2.696   1.973   6.313
 8493SOL    HW126378   2.789   1.947   6.290
 8493SOL    HW226379   2.684   2.072   6.298
 8494SOL     OW26380   2.848   4.767   0.616
 8494SOL    HW126381   2.798   4.801   0.696
 8494SOL    HW226382   2.895   4.844   0.572
 8495SOL     OW26383   6.353   4.166   0.828
 8495SOL    HW126384   6.346   4.206   0.919
 8495SOL    HW226385   6.449   4.163   0.799
 8496SOL     OW26386   0.647   2.263   1.657
 8496SOL    HW126387   0.590   2.182   1.644
 8496SOL    HW226388   0.743   2.239   1.642
 8497SOL     OW26389   6.598   0.814   3.881
 8497SOL    HW126390   6.564   0.893   3.932
 8497SOL    HW226391   6.646   0.846   3.799
 8498SOL     OW26392   0.181   5.964   2.624
 8498SOL    HW126393   0.170   6.018   2.541
 8498SOL    HW226394   0.183   6.024   2.703
 8499SOL     OW26395   2.410   5.395   6.984
 8499SOL    HW126396   2.472   5.471   7.005
 8499SOL    HW226397   2.456   5.308   7.001
 8500SOL     OW26398   2.381   0.282   5.331
 8500SOL    HW126399   2.446   0.215   5.296
 8500SOL    HW226400   2.426   0.338   5.401
 8501SOL     OW26401   0.700   2.945   0.271
 8501SOL    HW126402   0.722   3.041   0.256
 8501SOL    HW226403   0.645   2.911   0.194
 8502SOL     OW26404   1.503   4.843   1.403
 8502SOL    HW126405   1.500   4.745   1.425
 8502SOL    HW226406   1.587   4.862   1.351
 8503SOL     OW26407   1.277   6.473   3.351
 8503SOL    HW126408   1.247   6.418   3.429
 8503SOL    HW226409   1.346   6.538   3.381
 8504SOL     OW26410   2.387   5.678   3.152
 8504SOL    HW126411   2.423   5.622   3.227
 8504SOL    HW226412   2.324   5.624   3.097
 8505SOL     OW26413   4.863   3.799   3.677
 8505SOL    HW126414   4.864   3.847   3.764
 8505SOL    HW226415   4.884   3.702   3.692
 8506SOL     OW26416   6.412   0.661   0.211
 8506SOL    HW126417   6.434   0.711   0.127
 8506SOL    HW226418   6.489   0.603   0.236
 8507SOL     OW26419   3.366   1.109   5.428
 8507SOL    HW126420   3.299   1.161   5.480
 8507SOL    HW226421   3.319   1.051   5.361
 8508SOL     OW26422   6.925   2.605   5.015
 8508SOL    HW126423   7.013   2.596   5.063
 8508SOL    HW226424   6.858   2.544   5.057
 8509SOL     OW26425   4.734   2.139   3.336
 8509SOL    HW126426   4.683   2.197   3.398
 8509SOL    HW226427   4.723   2.043   3.363
 8510SOL     OW26428   5.117   4.168   3.153
 8510SOL    HW126429   5.165   4.080   3.155
 8510SOL    HW226430   5.158   4.227   3.084
 8511SOL     OW26431   5.962   3.918   2.150
 8511SOL    HW126432   5.895   3.871   2.091
 8511SOL    HW226433   6.045   3.936   2.097
 8512SOL     OW26434   3.173   2.188   0.575
 8512SOL    HW126435   3.075   2.176   0.558
 8512SOL    HW226436   3.211   2.104   0.612
 8513SOL     OW26437   4.765   4.209   1.650
 8513SOL    HW126438   4.701   4.265   1.704
 8513SOL    HW226439   4.814   4.147   1.711
 8514SOL     OW26440   3.023   2.238   4.090
 8514SOL    HW126441   3.066   2.168   4.032
 8514SOL    HW226442   3.087   2.265   4.162
 8515SOL     OW26443   6.004   1.580   6.713
 8515SOL    HW126444   5.976   1.542   6.802
 8515SOL    HW226445   5.949   1.661   6.693
 8516SOL     OW26446   6.954   1.419   1.223
 8516SOL    HW126447   6.866   1.402   1.266
 8516SOL    HW226448   6.945   1.419   1.124
 8517SOL     OW26449   1.611   3.242   6.397
 8517SOL    HW126450   1.670   3.206   6.469
 8517SOL    HW226451   1.663   3.251   6.313
 8518SOL     OW26452   4.814   4.506   6.382
 8518SOL    HW126453   4.832   4.475   6.288
 8518SOL    HW226454   4.771   4.596   6.380
 8519SOL     OW26455   1.582   4.331   1.432
 8519SOL    HW126456   1.568   4.303   1.337
 8519SOL    HW226457   1.553   4.426   1.444
 8520SOL     OW26458   3.474   3.638   0.044
 8520SOL    HW126459   3.508   3.713   0.100
 8520SOL    HW226460   3.533   3.558   0.055
 8521SOL     OW26461   2.186   4.834   5.801
 8521SOL    HW126462   2.131   4.862   5.880
 8521SOL    HW226463   2.256   4.769   5.831
 8522SOL     OW26464   1.553   5.948   1.202
 8522SOL    HW126465   1.541   6.045   1.227
 8522SOL    HW226466   1.651   5.928   1.194
 8523SOL     OW26467   2.060   6.191   6.896
 8523SOL    HW126468   2.125   6.241   6.953
 8523SOL    HW226469   2.065   6.224   6.802
 8524SOL     OW26470   0.549   2.585   5.399
 8524SOL    HW126471   0.456   2.579   5.435
 8524SOL    HW226472   0.605   2.512   5.438
 8525SOL     OW26473   6.149   4.027   1.684
 8525SOL    HW126474   6.128   4.114   1.728
 8525SOL    HW226475   6.081   3.959   1.710
 8526SOL     OW26476   4.227   6.476   6.926
 8526SOL    HW126477   4.321   6.447   6.908
 8526SOL    HW226478   4.165   6.400   6.909
 8527SOL     OW26479   2.850   1.066   6.550
 8527SOL    HW126480   2.860   1.152   6.601
 8527SOL    HW226481   2.937   1.043   6.505
 8528SOL     OW26482   3.997   0.751   0.005
 8528SOL    HW126483   3.899   0.770   7.022
 8528SOL    HW226484   4.026   0.686   6.962
 8529SOL     OW26485   1.219   0.077   0.813
 8529SOL    HW126486   1.307   0.125   0.818
 8529SOL    HW226487   1.192   0.047   0.905
 8530SOL     OW26488   3.883   4.136   5.861
 8530SOL    HW126489   3.873   4.043   5.826
 8530SOL    HW226490   3.914   4.197   5.788
 8531SOL     OW26491   6.396   4.993   2.315
 8531SOL    HW126492   6.338   4.915   2.292
 8531SOL    HW226493   6.353   5.047   2.388
 8532SOL     OW26494   4.413   5.144   4.711
 8532SOL    HW126495   4.321   5.171   4.739
 8532SOL    HW226496   4.481   5.198   4.761
 8533SOL     OW26497   1.580   6.471   0.373
 8533SOL    HW126498   1.490   6.457   0.413
 8533SOL    HW226499   1.651   6.451   0.441
 8534SOL     OW26500   6.118   2.571   4.433
 8534SOL    HW126501   6.115   2.667   4.405
 8534SOL    HW226502   6.036   2.549   4.486
 8535SOL     OW26503   6.076   1.058   3.636
 8535SOL    HW126504   5.992   1.052   3.690
 8535SOL    HW226505   6.083   0.978   3.577
 8536SOL     OW26506   0.052   2.318   4.515
 8536SOL    HW126507   0.045   2.400   4.572
 8536SOL    HW226508   0.114   2.336   4.439
 8537SOL     OW26509   5.755   0.598   2.919
 8537SOL    HW126510   5.717   0.632   2.833
 8537SOL    HW226511   5.780   0.675   2.977
 8538SOL     OW26512   0.998   0.912   0.338
 8538SOL    HW126513   0.950   0.967   0.270
 8538SOL    HW226514   0.966   0.817   0.333
 8539SOL     OW26515   6.215   1.055   2.894
 8539SOL    HW126516   6.137   1.010   2.849
 8539SOL    HW226517   6.215   1.033   2.991
 8540SOL     OW26518   5.064   0.631   6.202
 8540SOL    HW126519   5.019   0.719   6.185
 8540SOL    HW226520   5.082   0.586   6.114
 8541SOL     OW26521   2.860   1.452   4.127
 8541SOL    HW126522   2.936   1.472   4.065
 8541SOL    HW226523   2.791   1.524   4.118
 8542SOL     OW26524   3.853   4.776   6.425
 8542SOL    HW126525   3.884   4.714   6.497
 8542SOL    HW226526   3.877   4.738   6.336
 8543SOL     OW26527   2.467   1.669   1.120
 8543SOL    HW126528   2.474   1.595   1.053
 8543SOL    HW226529   2.398   1.646   1.188
 8544SOL     OW26530   5.726   3.182   4.017
 8544SOL    HW126531   5.793   3.244   3.977
 8544SOL    HW226532   5.736   3.183   4.116
 8545SOL     OW26533   4.465   0.033   4.719
 8545SOL    HW126534   4.450   0.120   4.766
 8545SOL    HW226535   4.561   0.006   4.730
 8546SOL     OW26536   6.147   1.871   4.200
 8546SOL    HW126537   6.161   1.773   4.202
 8546SOL    HW226538   6.220   1.915   4.148
 8547SOL     OW26539   1.621   6.815   6.311
 8547SOL    HW126540   1.654   6.901   6.272
 8547SOL    HW226541   1.535   6.832   6.359
 8548SOL     OW26542   6.150   2.235   5.972
 8548SOL    HW126543   6.221   2.284   6.023
 8548SOL    HW226544   6.083   2.301   5.937
 8549SOL     OW26545   1.205   2.925   3.916
 8549SOL    HW126546   1.226   2.842   3.864
 8549SOL    HW226547   1.106   2.941   3.916
 8550SOL     OW26548   1.760   4.405   0.088
 8550SOL    HW126549   1.734   4.498   0.116
 8550SOL    HW226550   1.803   4.358   0.165
 8551SOL     OW26551   3.698   3.884   6.492
 8551SOL    HW126552   3.661   3.798   6.528
 8551SOL    HW226553   3.622   3.946   6.470
 8552SOL     OW26554   2.461   0.142   3.811
 8552SOL    HW126555   2.447   0.142   3.910
 8552SOL    HW226556   2.508   0.058   3.784
 8553SOL     OW26557   4.486   4.581   6.473
 8553SOL    HW126558   4.544   4.627   6.541
 8553SOL    HW226559   4.518   4.487   6.460
 8554SOL     OW26560   0.805   4.984   0.314
 8554SOL    HW126561   0.799   4.955   0.410
 8554SOL    HW226562   0.776   4.910   0.255
 8555SOL     OW26563   1.623   0.747   2.304
 8555SOL    HW126564   1.666   0.674   2.357
 8555SOL    HW226565   1.691   0.789   2.244
 8556SOL     OW26566   1.238   6.742   5.131
 8556SOL    HW126567   1.321   6.699   5.098
 8556SOL    HW226568   1.201   6.803   5.060
 8557SOL     OW26569   5.773   0.219   2.685
 8557SOL    HW126570   5.675   0.236   2.699
 8557SOL    HW226571   5.798   0.243   2.592
 8558SOL     OW26572   2.967   5.314   3.496
 8558SOL    HW126573   2.919   5.251   3.435
 8558SOL    HW226574   3.047   5.351   3.449
 8559SOL     OW26575   6.669   0.465   2.338
 8559SOL    HW126576   6.658   0.437   2.433
 8559SOL    HW226577   6.763   0.493   2.322
 8560SOL     OW26578   6.935   6.344   2.144
 8560SOL    HW126579   0.003   6.340   2.176
 8560SOL    HW226580   6.897   6.434   2.164
 8561SOL     OW26581   3.272   0.761   2.055
 8561SOL    HW126582   3.270   0.662   2.063
 8561SOL    HW226583   3.301   0.787   1.963
 8562SOL     OW26584   3.712   6.125   5.306
 8562SOL    HW126585   3.774   6.202   5.319
 8562SOL    HW226586   3.755   6.055   5.251
 8563SOL     OW26587   2.936   4.528   0.240
 8563SOL    HW126588   2.978   4.575   0.318
 8563SOL    HW226589   2.851   4.484   0.270
 8564SOL     OW26590   3.375   1.273   4.204
 8564SOL    HW126591   3.339   1.364   4.226
 8564SOL    HW226592   3.338   1.243   4.116
 8565SOL     OW26593   4.420   5.581   1.212
 8565SOL    HW126594   4.451   5.651   1.276
 8565SOL    HW226595   4.338   5.536   1.249
 8566SOL     OW26596   1.122   0.548   1.304
 8566SOL    HW126597   1.046   0.599   1.345
 8566SOL    HW226598   1.173   0.608   1.242
 8567SOL     OW26599   6.863   1.828   2.462
 8567SOL    HW126600   6.863   1.769   2.542
 8567SOL    HW226601   6.778   1.815   2.411
 8568SOL     OW26602   5.348   1.266   6.296
 8568SOL    HW126603   5.409   1.345   6.290
 8568SOL    HW226604   5.298   1.257   6.210
 8569SOL     OW26605   5.121   1.719   5.752
 8569SOL    HW126606   5.125   1.744   5.849
 8569SOL    HW226607   5.082   1.627   5.743
 8570SOL     OW26608   1.001   2.665   5.281
 8570SOL    HW126609   1.007   2.635   5.376
 8570SOL    HW226610   1.048   2.599   5.222
 8571SOL     OW26611   1.438   5.117   5.549
 8571SOL    HW126612   1.408   5.212   5.539
 8571SOL    HW226613   1.476   5.104   5.640
 8572SOL     OW26614   3.372   5.177   6.688
 8572SOL    HW126615   3.458   5.227   6.675
 8572SOL    HW226616   3.296   5.242   6.683
 8573SOL     OW26617   3.225   6.370   5.895
 8573SOL    HW126618   3.281   6.453   5.891
 8573SOL    HW226619   3.153   6.374   5.826
 8574SOL     OW26620   6.807   5.563   5.683
 8574SOL    HW126621   6.801   5.510   5.599
 8574SOL    HW226622   6.822   5.659   5.661
 8575SOL     OW26623   2.956   2.508   5.576
 8575SOL    HW126624   2.889   2.437   5.597
 8575SOL    HW226625   2.917   2.570   5.508
 8576SOL     OW26626   1.755   5.632   0.132
 8576SOL    HW126627   1.842   5.676   0.110
 8576SOL    HW226628   1.726   5.576   0.054
 8577SOL     OW26629   0.584   6.096   4.403
 8577SOL    HW126630   0.663   6.151   4.430
 8577SOL    HW226631   0.572   6.020   4.467
 8578SOL     OW26632   5.508   0.863   4.619
 8578SOL    HW126633   5.409   0.860   4.605
 8578SOL    HW226634   5.550   0.786   4.571
 8579SOL     OW26635   1.221   0.243   2.885
 8579SOL    HW126636   1.274   0.327   2.874
 8579SOL    HW226637   1.201   0.229   2.982
 8580SOL     OW26638   2.517   6.484   2.645
 8580SOL    HW126639   2.537   6.577   2.675
 8580SOL    HW226640   2.540   6.475   2.548
 8581SOL     OW26641   3.311   3.386   1.977
 8581SOL    HW126642   3.227   3.342   1.946
 8581SOL    HW226643   3.389   3.328   1.956
 8582SOL     OW26644   4.286   4.791   2.711
 8582SOL    HW126645   4.200   4.839   2.694
 8582SOL    HW226646   4.340   4.842   2.778
 8583SOL     OW26647   5.706   0.133   5.062
 8583SOL    HW126648   5.654   0.216   5.081
 8583SOL    HW226649   5.643   0.056   5.050
 8584SOL     OW26650   0.410   3.740   5.943
 8584SOL    HW126651   0.396   3.655   5.994
 8584SOL    HW226652   0.355   3.739   5.860
 8585SOL     OW26653   0.926   6.104   6.081
 8585SOL    HW126654   0.855   6.130   6.015
 8585SOL    HW226655   0.955   6.010   6.062
 8586SOL     OW26656   3.160   0.490   3.457
 8586SOL    HW126657   3.066   0.525   3.456
 8586SOL    HW226658   3.159   0.392   3.479
 8587SOL     OW26659   1.882   0.112   2.875
 8587SOL    HW126660   1.931   0.029   2.849
 8587SOL    HW226661   1.786   0.103   2.848
 8588SOL     OW26662   2.740   0.471   0.346
 8588SOL    HW126663   2.746   0.372   0.333
 8588SOL    HW226664   2.684   0.491   0.427
 8589SOL     OW26665   5.102   2.518   4.886
 8589SOL    HW126666   5.196   2.551   4.880
 8589SOL    HW226667   5.101   2.418   4.887
 8590SOL     OW26668   6.670   6.642   3.924
 8590SOL    HW126669   6.686   6.586   4.005
 8590SOL    HW226670   6.573   6.667   3.919
 8591SOL     OW26671   0.484   4.792   6.317
 8591SOL    HW126672   0.492   4.876   6.264
 8591SOL    HW226673   0.501   4.811   6.414
 8592SOL     OW26674   0.492   3.062   6.734
 8592SOL    HW126675   0.513   3.028   6.642
 8592SOL    HW226676   0.515   2.993   6.802
 8593SOL     OW26677   1.919   0.470   2.075
 8593SOL    HW126678   1.845   0.497   2.013
 8593SOL    HW226679   1.886   0.399   2.137
 8594SOL     OW26680   3.406   2.955   5.252
 8594SOL    HW126681   3.320   2.935   5.206
 8594SOL    HW226682   3.412   3.052   5.272
 8595SOL     OW26683   1.686   2.464   3.061
 8595SOL    HW126684   1.616   2.475   3.131
 8595SOL    HW226685   1.733   2.377   3.075
 8596SOL     OW26686   6.308   5.273   3.519
 8596SOL    HW126687   6.238   5.340   3.546
 8596SOL    HW226688   6.381   5.272   3.587
 8597SOL     OW26689   4.509   1.164   1.082
 8597SOL    HW126690   4.477   1.186   1.175
 8597SOL    HW226691   4.445   1.100   1.040
 8598SOL     OW26692   6.892   6.040   0.864
 8598SOL    HW126693   6.852   5.967   0.809
 8598SOL    HW226694   6.960   6.089   0.810
 8599SOL     OW26695   1.125   2.377   4.018
 8599SOL    HW126696   1.035   2.416   4.000
 8599SOL    HW226697   1.125   2.281   3.992
 8600SOL     OW26698   5.479   5.019   5.707
 8600SOL    HW126699   5.516   5.061   5.624
 8600SOL    HW226700   5.422   4.941   5.682
 8601SOL     OW26701   0.895   0.438   5.023
 8601SOL    HW126702   0.807   0.420   4.979
 8601SOL    HW226703   0.884   0.510   5.092
 8602SOL     OW26704   3.267   5.784   3.498
 8602SOL    HW126705   3.277   5.822   3.590
 8602SOL    HW226706   3.175   5.802   3.464
 8603SOL     OW26707   4.219   5.179   0.681
 8603SOL    HW126708   4.130   5.220   0.660
 8603SOL    HW226709   4.205   5.100   0.740
 8604SOL     OW26710   0.908   3.391   4.057
 8604SOL    HW126711   0.882   3.385   3.960
 8604SOL    HW226712   0.956   3.307   4.083
 8605SOL     OW26713   3.184   5.009   4.343
 8605SOL    HW126714   3.091   4.993   4.376
 8605SOL    HW226715   3.231   5.072   4.404
 8606SOL     OW26716   1.553   4.020   6.356
 8606SOL    HW126717   1.542   3.940   6.415
 8606SOL    HW226718   1.641   4.015   6.310
 8607SOL     OW26719   3.600   5.880   0.718
 8607SOL    HW126720   3.579   5.807   0.783
 8607SOL    HW226721   3.675   5.853   0.659
 8608SOL     OW26722   4.486   4.991   3.089
 8608SOL    HW126723   4.407   4.970   3.147
 8608SOL    HW226724   4.559   5.032   3.144
 8609SOL     OW26725   5.275   1.037   3.204
 8609SOL    HW126726   5.374   1.027   3.216
 8609SOL    HW226727   5.257   1.118   3.147
 8610SOL     OW26728   1.495   1.603   2.480
 8610SOL    HW126729   1.434   1.682   2.478
 8610SOL    HW226730   1.489   1.558   2.569
 8611SOL     OW26731   2.186   2.033   4.219
 8611SOL    HW126732   2.187   2.060   4.315
 8611SOL    HW226733   2.123   2.092   4.168
 8612SOL     OW26734   3.618   3.211   0.475
 8612SOL    HW126735   3.631   3.156   0.393
 8612SOL    HW226736   3.634   3.155   0.556
 8613SOL     OW26737   2.304   2.156   1.374
 8613SOL    HW126738   2.350   2.203   1.449
 8613SOL    HW226739   2.360   2.162   1.291
 8614SOL     OW26740   0.691   3.415   2.855
 8614SOL    HW126741   0.721   3.470   2.934
 8614SOL    HW226742   0.750   3.334   2.847
 8615SOL     OW26743   5.004   1.755   5.354
 8615SOL    HW126744   5.057   1.771   5.271
 8615SOL    HW226745   4.984   1.842   5.398
 8616SOL     OW26746   2.578   5.085   1.444
 8616SOL    HW126747   2.513   5.151   1.483
 8616SOL    HW226748   2.622   5.034   1.518
 8617SOL     OW26749   6.845   1.045   6.579
 8617SOL    HW126750   6.885   1.078   6.493
 8617SOL    HW226751   6.811   1.124   6.631
 8618SOL     OW26752   6.021   6.447   1.136
 8618SOL    HW126753   5.958   6.459   1.060
 8618SOL    HW226754   5.985   6.493   1.217
 8619SOL     OW26755   3.807   4.958   1.914
 8619SOL    HW126756   3.829   4.997   1.824
 8619SOL    HW226757   3.744   4.881   1.902
 8620SOL     OW26758   0.861   0.033   3.632
 8620SOL    HW126759   0.897   0.038   3.725
 8620SOL    HW226760   0.777   0.088   3.626
 8621SOL     OW26761   6.323   1.279   3.132
 8621SOL    HW126762   6.268   1.362   3.137
 8621SOL    HW226763   6.339   1.256   3.036
 8622SOL     OW26764   4.834   3.340   0.211
 8622SOL    HW126765   4.850   3.325   0.308
 8622SOL    HW226766   4.899   3.409   0.177
 8623SOL     OW26767   0.898   4.040   3.432
 8623SOL    HW126768   0.877   4.027   3.335
 8623SOL    HW226769   0.840   3.979   3.487
 8624SOL     OW26770   1.112   3.768   4.501
 8624SOL    HW126771   1.129   3.672   4.480
 8624SOL    HW226772   1.142   3.787   4.594
 8625SOL     OW26773   4.666   6.798   4.816
 8625SOL    HW126774   4.687   6.856   4.895
 8625SOL    HW226775   4.684   6.703   4.840
 8626SOL     OW26776   3.727   3.007   4.938
 8626SOL    HW126777   3.653   2.941   4.951
 8626SOL    HW226778   3.799   2.965   4.881
 8627SOL     OW26779   0.230   1.280   3.314
 8627SOL    HW126780   0.254   1.324   3.400
 8627SOL    HW226781   0.143   1.231   3.324
 8628SOL     OW26782   5.948   6.958   1.317
 8628SOL    HW126783   6.035   6.910   1.309
 8628SOL    HW226784   5.954   0.020   1.272
 8629SOL     OW26785   1.534   4.942   5.349
 8629SOL    HW126786   1.469   5.010   5.383
 8629SOL    HW226787   1.486   4.874   5.293
 8630SOL     OW26788   5.628   4.502   3.922
 8630SOL    HW126789   5.566   4.424   3.931
 8630SOL    HW226790   5.722   4.470   3.931
 8631SOL     OW26791   2.874   6.075   6.123
 8631SOL    HW126792   2.960   6.084   6.073
 8631SOL    HW226793   2.844   5.980   6.121
 8632SOL     OW26794   3.260   6.732   3.628
 8632SOL    HW126795   3.233   6.700   3.538
 8632SOL    HW226796   3.237   6.663   3.697
 8633SOL     OW26797   6.141   1.822   4.482
 8633SOL    HW126798   6.144   1.723   4.497
 8633SOL    HW226799   6.219   1.848   4.425
 8634SOL     OW26800   5.458   3.286   0.303
 8634SOL    HW126801   5.384   3.247   0.247
 8634SOL    HW226802   5.544   3.243   0.278
 8635SOL     OW26803   6.119   4.248   6.225
 8635SOL    HW126804   6.023   4.272   6.215
 8635SOL    HW226805   6.137   4.159   6.183
 8636SOL     OW26806   5.266   5.957   0.533
 8636SOL    HW126807   5.284   5.952   0.631
 8636SOL    HW226808   5.290   5.869   0.490
 8637SOL     OW26809   1.765   1.165   7.026
 8637SOL    HW126810   1.687   1.132   6.972
 8637SOL    HW226811   1.813   1.236   6.975
 8638SOL     OW26812   3.341   3.116   6.773
 8638SOL    HW126813   3.253   3.149   6.737
 8638SOL    HW226814   3.346   3.134   6.871
 8639SOL     OW26815   5.577   1.813   1.715
 8639SOL    HW126816   5.576   1.891   1.652
 8639SOL    HW226817   5.506   1.826   1.784
 8640SOL     OW26818   4.385   3.921   0.767
 8640SOL    HW126819   4.443   3.850   0.728
 8640SOL    HW226820   4.372   3.994   0.700
 8641SOL     OW26821   5.837   5.190   4.130
 8641SOL    HW126822   5.897   5.194   4.050
 8641SOL    HW226823   5.772   5.266   4.127
 8642SOL     OW26824   3.392   1.306   3.101
 8642SOL    HW126825   3.306   1.341   3.064
 8642SOL    HW226826   3.467   1.365   3.071
 8643SOL     OW26827   3.273   0.679   6.526
 8643SOL    HW126828   3.187   0.640   6.492
 8643SOL    HW226829   3.304   0.628   6.605
 8644SOL     OW26830   4.985   2.359   5.924
 8644SOL    HW126831   4.955   2.366   5.829
 8644SOL    HW226832   5.061   2.423   5.940
 8645SOL     OW26833   4.484   4.431   1.071
 8645SOL    HW126834   4.551   4.391   1.134
 8645SOL    HW226835   4.526   4.508   1.023
 8646SOL     OW26836   6.244   1.171   1.822
 8646SOL    HW126837   6.285   1.097   1.874
 8646SOL    HW226838   6.315   1.219   1.769
 8647SOL     OW26839   2.721   5.215   5.860
 8647SOL    HW126840   2.797   5.239   5.920
 8647SOL    HW226841   2.716   5.116   5.851
 8648SOL     OW26842   6.375   0.696   3.668
 8648SOL    HW126843   6.445   0.752   3.712
 8648SOL    HW226844   6.416   0.639   3.598
 8649SOL     OW26845   5.304   4.324   6.748
 8649SOL    HW126846   5.331   4.232   6.720
 8649SOL    HW226847   5.237   4.361   6.683
 8650SOL     OW26848   2.163   4.349   6.105
 8650SOL    HW126849   2.220   4.380   6.182
 8650SOL    HW226850   2.097   4.282   6.138
 8651SOL     OW26851   3.212   0.998   0.698
 8651SOL    HW126852   3.264   0.996   0.612
 8651SOL    HW226853   3.118   1.027   0.679
 8652SOL     OW26854   1.872   3.927   3.756
 8652SOL    HW126855   1.842   4.020   3.739
 8652SOL    HW226856   1.803   3.863   3.722
 8653SOL     OW26857   5.745   1.251   6.935
 8653SOL    HW126858   5.753   1.161   6.977
 8653SOL    HW226859   5.766   1.244   6.837
 8654SOL     OW26860   1.081   5.025   1.343
 8654SOL    HW126861   1.118   5.031   1.436
 8654SOL    HW226862   1.149   4.984   1.282
 8655SOL     OW26863   6.352   1.415   3.776
 8655SOL    HW126864   6.314   1.500   3.813
 8655SOL    HW226865   6.286   1.341   3.788
 8656SOL     OW26866   6.373   0.807   0.433
 8656SOL    HW126867   6.432   0.880   0.399
 8656SOL    HW226868   6.350   0.745   0.358
 8657SOL     OW26869   5.114   4.792   0.451
 8657SOL    HW126870   5.184   4.821   0.386
 8657SOL    HW226871   5.157   4.761   0.535
 8658SOL     OW26872   4.243   6.528   0.157
 8658SOL    HW126873   4.303   6.606   0.174
 8658SOL    HW226874   4.252   6.498   0.062
 8659SOL     OW26875   4.445   1.937   3.167
 8659SOL    HW126876   4.437   1.857   3.107
 8659SOL    HW226877   4.541   1.958   3.182
 8660SOL     OW26878   5.795   3.692   0.658
 8660SOL    HW126879   5.873   3.632   0.640
 8660SOL    HW226880   5.712   3.651   0.619
 8661SOL     OW26881   5.665   3.811   1.139
 8661SOL    HW126882   5.692   3.723   1.101
 8661SOL    HW226883   5.719   3.884   1.097
 8662SOL     OW26884   4.538   5.748   0.932
 8662SOL    HW126885   4.533   5.648   0.925
 8662SOL    HW226886   4.612   5.773   0.994
 8663SOL     OW26887   2.844   5.736   1.389
 8663SOL    HW126888   2.896   5.819   1.368
 8663SOL    HW226889   2.886   5.658   1.344
 8664SOL     OW26890   3.012   6.564   1.253
 8664SOL    HW126891   3.036   6.575   1.156
 8664SOL    HW226892   3.054   6.480   1.287
 8665SOL     OW26893   5.583   6.053   5.009
 8665SOL    HW126894   5.605   6.075   4.914
 8665SOL    HW226895   5.616   6.125   5.069
 8666SOL     OW26896   4.580   1.168   3.907
 8666SOL    HW126897   4.567   1.228   3.986
 8666SOL    HW226898   4.516   1.091   3.913
 8667SOL     OW26899   5.098   2.489   3.001
 8667SOL    HW126900   5.056   2.567   3.048
 8667SOL    HW226901   5.091   2.502   2.902
 8668SOL     OW26902   5.716   3.391   3.077
 8668SOL    HW126903   5.717   3.363   2.981
 8668SOL    HW226904   5.678   3.484   3.084
 8669SOL     OW26905   2.056   6.470   0.445
 8669SOL    HW126906   2.095   6.560   0.464
 8669SOL    HW226907   2.083   6.441   0.353
 8670SOL     OW26908   3.496   4.511   5.538
 8670SOL    HW126909   3.553   4.429   5.541
 8670SOL    HW226910   3.459   4.522   5.446
 8671SOL     OW26911   5.403   1.946   3.139
 8671SOL    HW126912   5.453   1.890   3.205
 8671SOL    HW226913   5.314   1.972   3.178
 8672SOL     OW26914   1.877   4.920   3.753
 8672SOL    HW126915   1.791   4.969   3.765
 8672SOL    HW226916   1.924   4.913   3.842
 8673SOL     OW26917   6.826   2.563   7.009
 8673SOL    HW126918   6.854   2.547   0.078
 8673SOL    HW226919   6.907   2.576   6.953
 8674SOL     OW26920   5.426   5.328   2.939
 8674SOL    HW126921   5.350   5.285   2.889
 8674SOL    HW226922   5.416   5.310   3.037
 8675SOL     OW26923   3.069   2.249   4.407
 8675SOL    HW126924   2.976   2.284   4.394
 8675SOL    HW226925   3.084   2.228   4.503
 8676SOL     OW26926   4.277   0.234   2.436
 8676SOL    HW126927   4.249   0.204   2.527
 8676SOL    HW226928   4.202   0.281   2.391
 8677SOL     OW26929   2.558   6.127   5.691
 8677SOL    HW126930   2.601   6.102   5.778
 8677SOL    HW226931   2.547   6.045   5.635
 8678SOL     OW26932   7.000   0.114   1.365
 8678SOL    HW126933   0.020   0.127   1.453
 8678SOL    HW226934   0.042   0.110   1.292
 8679SOL     OW26935   6.372   2.555   3.850
 8679SOL    HW126936   6.313   2.599   3.783
 8679SOL    HW226937   6.364   2.601   3.938
 8680SOL     OW26938   0.999   4.105   1.686
 8680SOL    HW126939   1.093   4.108   1.653
 8680SOL    HW226940   0.999   4.106   1.786
 8681SOL     OW26941   4.628   5.317   6.597
 8681SOL    HW126942   4.677   5.232   6.615
 8681SOL    HW226943   4.673   5.366   6.522
 8682SOL     OW26944   5.134   6.624   1.299
 8682SOL    HW126945   5.093   6.534   1.316
 8682SOL    HW226946   5.158   6.667   1.387
 8683SOL     OW26947   1.908   2.542   2.617
 8683SOL    HW126948   1.925   2.620   2.678
 8683SOL    HW226949   1.942   2.458   2.659
 8684SOL     OW26950   0.675   2.674   4.626
 8684SOL    HW126951   0.679   2.608   4.551
 8684SOL    HW226952   0.634   2.630   4.707
 8685SOL     OW26953   0.304   1.989   5.581
 8685SOL    HW126954   0.265   2.070   5.623
 8685SOL    HW226955   0.276   1.985   5.485
 8686SOL     OW26956   6.774   0.830   1.966
 8686SOL    HW126957   6.790   0.830   1.867
 8686SOL    HW226958   6.683   0.793   1.985
 8687SOL     OW26959   3.528   5.183   2.444
 8687SOL    HW126960   3.626   5.173   2.466
 8687SOL    HW226961   3.492   5.265   2.487
 8688SOL     OW26962   2.848   6.025   0.158
 8688SOL    HW126963   2.808   6.076   0.234
 8688SOL    HW226964   2.778   6.010   0.088
 8689SOL     OW26965   3.255   4.320   1.703
 8689SOL    HW126966   3.346   4.319   1.745
 8689SOL    HW226967   3.217   4.228   1.704
 8690SOL     OW26968   1.672   2.999   3.375
 8690SOL    HW126969   1.576   3.013   3.351
 8690SOL    HW226970   1.721   2.962   3.296
 8691SOL     OW26971   3.171   1.970   6.967
 8691SOL    HW126972   3.266   1.968   6.934
 8691SOL    HW226973   3.109   1.958   6.890
 8692SOL     OW26974   2.018   1.389   3.709
 8692SOL    HW126975   2.058   1.437   3.788
 8692SOL    HW226976   1.926   1.358   3.731
 8693SOL     OW26977   6.754   0.936   0.179
 8693SOL    HW126978   6.707   0.908   0.263
 8693SOL    HW226979   6.688   0.980   0.117
 8694SOL     OW26980   4.060   0.762   4.945
 8694SOL    HW126981   4.000   0.812   5.008
 8694SOL    HW226982   4.100   0.684   4.993
 8695SOL     OW26983   3.849   2.617   6.272
 8695SOL    HW126984   3.922   2.686   6.276
 8695SOL    HW226985   3.851   2.572   6.183
 8696SOL     OW26986   2.206   5.720   0.550
 8696SOL    HW126987   2.263   5.658   0.604
 8696SOL    HW226988   2.137   5.667   0.501
 8697SOL     OW26989   6.975   2.926   0.560
 8697SOL    HW126990   6.916   2.862   0.609
 8697SOL    HW226991   0.039   2.885   0.547
 8698SOL     OW26992   5.710   5.844   4.580
 8698SOL    HW126993   5.686   5.912   4.510
 8698SOL    HW226994   5.799   5.804   4.558
 8699SOL     OW26995   2.054   2.609   5.388
 8699SOL    HW126996   2.104   2.693   5.410
 8699SOL    HW226997   1.961   2.615   5.423
 8700SOL     OW26998   1.055   0.747   4.433
 8700SOL    HW126999   1.028   0.771   4.340
 8700SOL    HW227000   1.052   0.648   4.445
 8701SOL     OW27001   1.338   0.636   0.274
 8701SOL    HW127002   1.357   0.562   0.339
 8701SOL    HW227003   1.424   0.669   0.235
 8702SOL     OW27004   5.387   4.541   0.843
 8702SOL    HW127005   5.449   4.477   0.889
 8702SOL    HW227006   5.334   4.591   0.911
 8703SOL     OW27007   3.370   5.607   0.698
 8703SOL    HW127008   3.343   5.546   0.772
 8703SOL    HW227009   3.296   5.613   0.631
 8704SOL     OW27010   0.227   3.671   2.618
 8704SOL    HW127011   0.308   3.656   2.675
 8704SOL    HW227012   0.211   3.769   2.610
 8705SOL     OW27013   5.035   0.912   7.016
 8705SOL    HW127014   4.964   0.847   0.019
 8705SOL    HW227015   5.120   0.893   0.039
 8706SOL     OW27016   4.703   2.128   6.009
 8706SOL    HW127017   4.623   2.182   5.986
 8706SOL    HW227018   4.773   2.188   6.049
 8707SOL     OW27019   7.018   2.863   0.050
 8707SOL    HW127020   0.043   2.794   0.101
 8707SOL    HW227021   6.924   2.831   0.036
 8708SOL     OW27022   4.408   2.106   2.286
 8708SOL    HW127023   4.497   2.101   2.331
 8708SOL    HW227024   4.366   2.014   2.285
 8709SOL     OW27025   6.753   6.140   0.372
 8709SOL    HW127026   6.701   6.198   0.309
 8709SOL    HW227027   6.842   6.182   0.390
 8710SOL     OW27028   2.086   3.223   4.073
 8710SOL    HW127029   2.164   3.163   4.053
 8710SOL    HW227030   2.067   3.222   4.171
 8711SOL     OW27031   1.082   6.262   3.222
 8711SOL    HW127032   1.126   6.341   3.181
 8711SOL    HW227033   1.143   6.184   3.220
 8712SOL     OW27034   4.008   2.222   5.136
 8712SOL    HW127035   4.043   2.255   5.048
 8712SOL    HW227036   4.004   2.298   5.201
 8713SOL     OW27037   0.671   3.546   4.034
 8713SOL    HW127038   0.615   3.481   3.983
 8713SOL    HW227039   0.765   3.512   4.040
 8714SOL     OW27040   1.149   1.379   5.996
 8714SOL    HW127041   1.222   1.387   5.928
 8714SOL    HW227042   1.118   1.284   6.001
 8715SOL     OW27043   4.491   0.579   0.930
 8715SOL    HW127044   4.454   0.614   1.016
 8715SOL    HW227045   4.420   0.582   0.859
 8716SOL     OW27046   0.335   6.910   0.931
 8716SOL    HW127047   0.364   6.833   0.874
 8716SOL    HW227048   0.363   6.893   1.026
 8717SOL     OW27049   3.342   3.448   3.352
 8717SOL    HW127050   3.403   3.387   3.301
 8717SOL    HW227051   3.248   3.416   3.343
 8718SOL     OW27052   0.760   4.253   4.661
 8718SOL    HW127053   0.701   4.236   4.582
 8718SOL    HW227054   0.852   4.278   4.628
 8719SOL     OW27055   2.532   0.437   6.412
 8719SOL    HW127056   2.546   0.342   6.439
 8719SOL    HW227057   2.436   0.461   6.421
 8720SOL     OW27058   6.159   5.258   5.745
 8720SOL    HW127059   6.247   5.212   5.762
 8720SOL    HW227060   6.169   5.321   5.668
 8721SOL     OW27061   6.998   2.467   2.609
 8721SOL    HW127062   7.002   2.444   2.707
 8721SOL    HW227063   6.987   2.565   2.599
 8722SOL     OW27064   3.904   1.291   6.561
 8722SOL    HW127065   3.846   1.236   6.622
 8722SOL    HW227066   3.992   1.245   6.550
 8723SOL     OW27067   4.693   5.454   0.737
 8723SOL    HW127068   4.594   5.445   0.748
 8723SOL    HW227069   4.729   5.374   0.689
 8724SOL     OW27070   5.576   0.159   5.776
 8724SOL    HW127071   5.482   0.144   5.805
 8724SOL    HW227072   5.611   0.243   5.817
 8725SOL     OW27073   2.199   0.074   6.719
 8725SOL    HW127074   2.171   0.058   6.624
 8725SOL    HW227075   2.180   0.169   6.743
 8726SOL     OW27076   6.087   0.233   2.149
 8726SOL    HW127077   6.057   0.188   2.064
 8726SOL    HW227078   6.152   0.174   2.196
 8727SOL     OW27079   0.544   6.170   2.205
 8727SOL    HW127080   0.526   6.268   2.217
 8727SOL    HW227081   0.500   6.138   2.122
 8728SOL     OW27082   4.676   0.675   3.922
 8728SOL    HW127083   4.659   0.648   3.828
 8728SOL    HW227084   4.760   0.631   3.955
 8729SOL     OW27085   5.017   6.353   4.149
 8729SOL    HW127086   4.955   6.413   4.097
 8729SOL    HW227087   5.038   6.397   4.237
 8730SOL     OW27088   6.394   4.096   2.501
 8730SOL    HW127089   6.310   4.056   2.539
 8730SOL    HW227090   6.375   4.132   2.410
 8731SOL     OW27091   2.360   2.688   2.817
 8731SOL    HW127092   2.391   2.617   2.755
 8731SOL    HW227093   2.418   2.689   2.899
 8732SOL     OW27094   5.457   4.461   1.764
 8732SOL    HW127095   5.443   4.553   1.727
 8732SOL    HW227096   5.384   4.440   1.829
 8733SOL     OW27097   2.098   5.307   1.386
 8733SOL    HW127098   2.087   5.400   1.421
 8733SOL    HW227099   2.035   5.246   1.435
 8734SOL     OW27100   1.454   4.967   2.278
 8734SOL    HW127101   1.532   4.923   2.322
 8734SOL    HW227102   1.452   5.064   2.302
 8735SOL     OW27103   1.002   1.973   0.602
 8735SOL    HW127104   0.908   1.954   0.628
 8735SOL    HW227105   1.031   2.059   0.644
 8736SOL     OW27106   0.746   5.882   5.841
 8736SOL    HW127107   0.720   5.975   5.867
 8736SOL    HW227108   0.706   5.817   5.906
 8737SOL     OW27109   2.429   6.672   6.074
 8737SOL    HW127110   2.446   6.679   5.975
 8737SOL    HW227111   2.512   6.695   6.124
 8738SOL     OW27112   1.981   5.179   4.223
 8738SOL    HW127113   2.036   5.139   4.296
 8738SOL    HW227114   1.909   5.236   4.262
 8739SOL     OW27115   5.520   5.361   6.141
 8739SOL    HW127116   5.544   5.453   6.108
 8739SOL    HW227117   5.547   5.293   6.073
 8740SOL     OW27118   5.145   1.237   5.395
 8740SOL    HW127119   5.047   1.254   5.397
 8740SOL    HW227120   5.194   1.324   5.405
 8741SOL     OW27121   2.701   1.263   1.374
 8741SOL    HW127122   2.728   1.187   1.315
 8741SOL    HW227123   2.783   1.307   1.410
 8742SOL     OW27124   5.619   6.361   1.082
 8742SOL    HW127125   5.617   6.361   0.982
 8742SOL    HW227126   5.686   6.293   1.113
 8743SOL     OW27127   1.693   0.564   2.510
 8743SOL    HW127128   1.783   0.533   2.540
 8743SOL    HW227129   1.661   0.638   2.570
 8744SOL     OW27130   3.427   2.752   6.398
 8744SOL    HW127131   3.380   2.837   6.421
 8744SOL    HW227132   3.456   2.755   6.303
 8745SOL     OW27133   5.854   3.043   6.037
 8745SOL    HW127134   5.773   3.022   6.092
 8745SOL    HW227135   5.916   3.101   6.091
 8746SOL     OW27136   5.268   3.869   4.900
 8746SOL    HW127137   5.317   3.802   4.955
 8746SOL    HW227138   5.329   3.902   4.827
 8747SOL     OW27139   0.493   2.588   2.276
 8747SOL    HW127140   0.413   2.566   2.221
 8747SOL    HW227141   0.561   2.515   2.266
 8748SOL     OW27142   6.882   1.692   5.112
 8748SOL    HW127143   6.829   1.777   5.114
 8748SOL    HW227144   6.945   1.695   5.035
 8749SOL     OW27145   2.776   0.853   6.721
 8749SOL    HW127146   2.800   0.932   6.665
 8749SOL    HW227147   2.685   0.820   6.696
 8750SOL     OW27148   3.222   3.582   5.418
 8750SOL    HW127149   3.228   3.668   5.468
 8750SOL    HW227150   3.171   3.596   5.333
 8751SOL     OW27151   6.415   0.569   3.063
 8751SOL    HW127152   6.406   0.643   2.997
 8751SOL    HW227153   6.325   0.530   3.083
 8752SOL     OW27154   2.397   4.453   0.404
 8752SOL    HW127155   2.340   4.405   0.337
 8752SOL    HW227156   2.389   4.552   0.391
 8753SOL     OW27157   4.796   2.105   5.263
 8753SOL    HW127158   4.817   2.008   5.259
 8753SOL    HW227159   4.810   2.146   5.172
 8754SOL     OW27160   1.051   2.952   4.953
 8754SOL    HW127161   1.036   3.049   4.973
 8754SOL    HW227162   1.147   2.937   4.929
 8755SOL     OW27163   2.634   0.474   0.603
 8755SOL    HW127164   2.684   0.389   0.623
 8755SOL    HW227165   2.597   0.511   0.688
 8756SOL     OW27166   1.789   3.071   3.597
 8756SOL    HW127167   1.740   3.048   3.513
 8756SOL    HW227168   1.850   2.996   3.623
 8757SOL     OW27169   4.438   6.156   5.848
 8757SOL    HW127170   4.403   6.244   5.817
 8757SOL    HW227171   4.414   6.142   5.944
 8758SOL     OW27172   4.646   6.610   2.144
 8758SOL    HW127173   4.569   6.667   2.173
 8758SOL    HW227174   4.730   6.663   2.147
 8759SOL     OW27175   3.963   2.377   0.649
 8759SOL    HW127176   3.865   2.397   0.643
 8759SOL    HW227177   3.997   2.404   0.739
 8760SOL     OW27178   1.165   1.451   5.074
 8760SOL    HW127179   1.076   1.490   5.095
 8760SOL    HW227180   1.153   1.372   5.013
 8761SOL     OW27181   5.392   2.185   2.273
 8761SOL    HW127182   5.408   2.101   2.220
 8761SOL    HW227183   5.294   2.197   2.287
 8762SOL     OW27184   0.765   4.296   2.107
 8762SOL    HW127185   0.699   4.279   2.180
 8762SOL    HW227186   0.797   4.391   2.113
 8763SOL     OW27187   6.506   6.227   5.950
 8763SOL    HW127188   6.416   6.203   5.986
 8763SOL    HW227189   6.577   6.185   6.007
 8764SOL     OW27190   4.923   1.457   4.697
 8764SOL    HW127191   4.882   1.537   4.741
 8764SOL    HW227192   4.970   1.484   4.614
 8765SOL     OW27193   6.174   6.591   5.634
 8765SOL    HW127194   6.078   6.617   5.625
 8765SOL    HW227195   6.199   6.530   5.559
 8766SOL     OW27196   4.498   4.541   3.673
 8766SOL    HW127197   4.422   4.577   3.619
 8766SOL    HW227198   4.475   4.545   3.771
 8767SOL     OW27199   4.304   6.994   2.891
 8767SOL    HW127200   4.402   6.980   2.897
 8767SOL    HW227201   4.272   0.022   2.968
 8768SOL     OW27202   1.294   2.969   0.477
 8768SOL    HW127203   1.218   2.908   0.500
 8768SOL    HW227204   1.371   2.952   0.539
 8769SOL     OW27205   1.157   0.277   4.269
 8769SOL    HW127206   1.115   0.331   4.196
 8769SOL    HW227207   1.087   0.252   4.336
 8770SOL     OW27208   5.333   3.935   2.354
 8770SOL    HW127209   5.395   3.860   2.375
 8770SOL    HW227210   5.329   3.999   2.430
 8771SOL     OW27211   1.074   0.488   6.338
 8771SOL    HW127212   1.017   0.525   6.412
 8771SOL    HW227213   1.116   0.402   6.367
 8772SOL     OW27214   4.931   6.631   6.775
 8772SOL    HW127215   4.897   6.557   6.834
 8772SOL    HW227216   4.954   6.710   6.831
 8773SOL     OW27217   4.499   2.448   3.658
 8773SOL    HW127218   4.403   2.423   3.644
 8773SOL    HW227219   4.506   2.506   3.740
 8774SOL     OW27220   1.936   1.304   6.627
 8774SOL    HW127221   1.922   1.205   6.634
 8774SOL    HW227222   1.932   1.345   6.718
 8775SOL     OW27223   6.708   0.213   4.983
 8775SOL    HW127224   6.730   0.306   5.012
 8775SOL    HW227225   6.757   0.147   5.040
 8776SOL     OW27226   4.046   3.445   5.527
 8776SOL    HW127227   4.010   3.437   5.620
 8776SOL    HW227228   4.146   3.458   5.531
 8777SOL     OW27229   6.823   4.003   1.659
 8777SOL    HW127230   6.746   4.042   1.609
 8777SOL    HW227231   6.869   3.935   1.602
 8778SOL     OW27232   6.283   2.287   4.666
 8778SOL    HW127233   6.364   2.325   4.622
 8778SOL    HW227234   6.214   2.267   4.596
 8779SOL     OW27235   3.072   5.025   2.289
 8779SOL    HW127236   3.164   5.032   2.327
 8779SOL    HW227237   3.077   5.032   2.189
 8780SOL     OW27238   1.207   5.806   2.934
 8780SOL    HW127239   1.129   5.745   2.942
 8780SOL    HW227240   1.179   5.892   2.891
 8781SOL     OW27241   6.328   1.932   3.463
 8781SOL    HW127242   6.386   1.921   3.382
 8781SOL    HW227243   6.370   1.885   3.541
 8782SOL     OW27244   5.104   0.001   1.999
 8782SOL    HW127245   5.010   6.993   2.002
 8782SOL    HW227246   5.109   0.080   1.938
 8783SOL     OW27247   6.948   4.168   3.845
 8783SOL    HW127248   6.981   4.074   3.853
 8783SOL    HW227249   6.956   4.198   3.750
 8784SOL     OW27250   5.637   4.359   6.569
 8784SOL    HW127251   5.695   4.279   6.554
 8784SOL    HW227252   5.688   4.429   6.620
 8785SOL     OW27253   6.481   3.705   6.452
 8785SOL    HW127254   6.524   3.784   6.407
 8785SOL    HW227255   6.553   3.647   6.491
 8786SOL     OW27256   1.879   0.148   0.445
 8786SOL    HW127257   1.952   0.174   0.382
 8786SOL    HW227258   1.881   0.049   0.458
 8787SOL     OW27259   2.367   2.782   1.914
 8787SOL    HW127260   2.419   2.701   1.942
 8787SOL    HW227261   2.413   2.826   1.837
 8788SOL     OW27262   0.144   2.150   5.754
 8788SOL    HW127263   0.217   2.098   5.797
 8788SOL    HW227264   0.162   2.248   5.763
 8789SOL     OW27265   6.301   7.014   5.709
 8789SOL    HW127266   6.330   0.078   5.741
 8789SOL    HW227267   6.375   6.972   5.657
 8790SOL     OW27268   6.979   0.932   6.783
 8790SOL    HW127269   6.908   0.980   6.731
 8790SOL    HW227270   6.941   0.901   6.870
 8791SOL     OW27271   6.277   6.783   4.774
 8791SOL    HW127272   6.182   6.758   4.752
 8791SOL    HW227273   6.334   6.700   4.773
 8792SOL     OW27274   3.316   6.665   3.298
 8792SOL    HW127275   3.367   6.695   3.218
 8792SOL    HW227276   3.342   6.571   3.321
 8793SOL     OW27277   1.653   5.463   3.155
 8793SOL    HW127278   1.642   5.477   3.254
 8793SOL    HW227279   1.740   5.417   3.137
 8794SOL     OW27280   4.167   6.638   1.704
 8794SOL    HW127281   4.082   6.681   1.736
 8794SOL    HW227282   4.246   6.688   1.739
 8795SOL     OW27283   1.164   6.389   5.431
 8795SOL    HW127284   1.167   6.485   5.457
 8795SOL    HW227285   1.077   6.349   5.459
 8796SOL     OW27286   4.622   1.694   4.519
 8796SOL    HW127287   4.564   1.627   4.565
 8796SOL    HW227288   4.710   1.652   4.496
 8797SOL     OW27289   1.042   6.896   5.613
 8797SOL    HW127290   1.051   6.912   5.515
 8797SOL    HW227291   1.108   6.826   5.642
 8798SOL     OW27292   5.097   5.485   5.558
 8798SOL    HW127293   5.104   5.583   5.575
 8798SOL    HW227294   5.002   5.461   5.539
 8799SOL     OW27295   1.963   4.501   3.840
 8799SOL    HW127296   2.020   4.468   3.765
 8799SOL    HW227297   1.988   4.452   3.924
 8800SOL     OW27298   6.060   4.300   5.353
 8800SOL    HW127299   5.963   4.318   5.343
 8800SOL    HW227300   6.075   4.201   5.365
 8801SOL     OW27301   0.855   1.773   4.711
 8801SOL    HW127302   0.913   1.829   4.769
 8801SOL    HW227303   0.859   1.678   4.741
 8802SOL     OW27304   1.575   0.092   1.150
 8802SOL    HW127305   1.598   0.013   1.207
 8802SOL    HW227306   1.502   0.144   1.193
 8803SOL     OW27307   6.950   5.479   6.284
 8803SOL    HW127308   0.006   5.531   6.261
 8803SOL    HW227309   6.926   5.419   6.207
 8804SOL     OW27310   3.118   0.999   2.388
 8804SOL    HW127311   3.068   1.010   2.474
 8804SOL    HW227312   3.142   1.089   2.351
 8805SOL     OW27313   2.798   0.023   4.366
 8805SOL    HW127314   2.881   0.003   4.419
 8805SOL    HW227315   2.806   0.114   4.325
 8806SOL     OW27316   2.505   4.978   2.166
 8806SOL    HW127317   2.597   4.974   2.127
 8806SOL    HW227318   2.491   5.068   2.207
 8807SOL     OW27319   5.200   0.286   6.513
 8807SOL    HW127320   5.199   0.307   6.611
 8807SOL    HW227321   5.152   0.199   6.497
 8808SOL     OW27322   5.996   2.403   6.940
 8808SOL    HW127323   5.959   2.367   6.854
 8808SOL    HW227324   5.945   2.364   7.017
 8809SOL     OW27325   4.497   5.538   3.638
 8809SOL    HW127326   4.531   5.558   3.730
 8809SOL    HW227327   4.447   5.451   3.640
 8810SOL     OW27328   5.444   0.673   6.323
 8810SOL    HW127329   5.389   0.589   6.329
 8810SOL    HW227330   5.392   0.749   6.361
 8811SOL     OW27331   2.661   1.424   3.797
 8811SOL    HW127332   2.751   1.467   3.792
 8811SOL    HW227333   2.601   1.465   3.729
 8812SOL     OW27334   2.188   6.946   1.570
 8812SOL    HW127335   2.213   7.005   1.493
 8812SOL    HW227336   2.215   6.990   1.656
 8813SOL     OW27337   0.946   4.604   1.755
 8813SOL    HW127338   1.039   4.628   1.729
 8813SOL    HW227339   0.890   4.687   1.758
 8814SOL     OW27340   5.803   6.975   0.783
 8814SOL    HW127341   5.841   6.933   0.700
 8814SOL    HW227342   5.784   6.905   0.851
 8815SOL     OW27343   0.017   6.221   0.727
 8815SOL    HW127344   0.062   6.222   0.638
 8815SOL    HW227345   6.962   6.278   0.724
 8816SOL     OW27346   1.095   0.597   0.332
 8816SOL    HW127347   1.193   0.610   0.318
 8816SOL    HW227348   1.081   0.539   0.413
 8817SOL     OW27349   1.138   5.982   4.670
 8817SOL    HW127350   1.181   5.918   4.733
 8817SOL    HW227351   1.076   6.042   4.721
 8818SOL     OW27352   0.720   3.799   4.795
 8818SOL    HW127353   0.731   3.854   4.712
 8818SOL    HW227354   0.623   3.797   4.820
 8819SOL     OW27355   5.399   4.703   5.036
 8819SOL    HW127356   5.464   4.772   5.003
 8819SOL    HW227357   5.439   4.655   5.114
 8820SOL     OW27358   1.848   0.871   5.304
 8820SOL    HW127359   1.930   0.896   5.253
 8820SOL    HW227360   1.793   0.953   5.320
 8821SOL     OW27361   2.741   6.097   0.409
 8821SOL    HW127362   2.743   6.109   0.508
 8821SOL    HW227363   2.650   6.120   0.374
 8822SOL     OW27364   0.553   0.108   4.725
 8822SOL    HW127365   0.504   0.113   4.812
 8822SOL    HW227366   0.512   0.172   4.660
 8823SOL     OW27367   2.440   0.881   1.037
 8823SOL    HW127368   2.420   0.964   1.090
 8823SOL    HW227369   2.464   0.906   0.944
 8824SOL     OW27370   0.697   3.440   1.043
 8824SOL    HW127371   0.633   3.432   1.121
 8824SOL    HW227372   0.671   3.519   0.987
 8825SOL     OW27373   1.381   0.469   2.781
 8825SOL    HW127374   1.346   0.557   2.813
 8825SOL    HW227375   1.400   0.474   2.683
 8826SOL     OW27376   6.639   3.196   0.787
 8826SOL    HW127377   6.563   3.255   0.813
 8826SOL    HW227378   6.721   3.251   0.773
 8827SOL     OW27379   4.001   1.061   3.217
 8827SOL    HW127380   3.949   1.010   3.285
 8827SOL    HW227381   4.098   1.036   3.223
 8828SOL     OW27382   4.205   5.046   5.788
 8828SOL    HW127383   4.251   5.069   5.703
 8828SOL    HW227384   4.257   5.084   5.865
 8829SOL     OW27385   6.468   2.171   0.744
 8829SOL    HW127386   6.453   2.248   0.682
 8829SOL    HW227387   6.442   2.086   0.699
 8830SOL     OW27388   0.932   1.777   2.106
 8830SOL    HW127389   0.985   1.785   2.021
 8830SOL    HW227390   0.859   1.710   2.094
 8831SOL     OW27391   5.017   1.527   3.797
 8831SOL    HW127392   5.043   1.573   3.712
 8831SOL    HW227393   5.056   1.435   3.798
 8832SOL     OW27394   6.816   5.777   2.855
 8832SOL    HW127395   6.862   5.854   2.809
 8832SOL    HW227396   6.871   5.694   2.842
 8833SOL     OW27397   2.295   6.182   5.850
 8833SOL    HW127398   2.297   6.236   5.934
 8833SOL    HW227399   2.382   6.134   5.840
 8834SOL     OW27400   5.527   3.574   4.729
 8834SOL    HW127401   5.560   3.620   4.812
 8834SOL    HW227402   5.498   3.481   4.752
 8835SOL     OW27403   5.526   1.059   6.283
 8835SOL    HW127404   5.479   1.140   6.317
 8835SOL    HW227405   5.469   0.978   6.297
 8836SOL     OW27406   4.345   2.428   0.138
 8836SOL    HW127407   4.395   2.482   0.070
 8836SOL    HW227408   4.262   2.391   0.097
 8837SOL     OW27409   0.304   5.928   3.360
 8837SOL    HW127410   0.270   5.842   3.322
 8837SOL    HW227411   0.398   5.944   3.329
 8838SOL     OW27412   2.249   4.648   2.748
 8838SOL    HW127413   2.277   4.715   2.679
 8838SOL    HW227414   2.285   4.558   2.724
 8839SOL     OW27415   4.739   5.080   2.933
 8839SOL    HW127416   4.642   5.065   2.911
 8839SOL    HW227417   4.752   5.070   3.032
 8840SOL     OW27418   6.593   1.845   1.929
 8840SOL    HW127419   6.495   1.862   1.941
 8840SOL    HW227420   6.645   1.897   1.997
 8841SOL     OW27421   0.377   0.703   5.064
 8841SOL    HW127422   0.382   0.689   5.163
 8841SOL    HW227423   0.453   0.760   5.035
 8842SOL     OW27424   3.195   3.103   1.927
 8842SOL    HW127425   3.105   3.124   1.964
 8842SOL    HW227426   3.188   3.028   1.862
 8843SOL     OW27427   2.043   3.368   5.647
 8843SOL    HW127428   1.988   3.414   5.577
 8843SOL    HW227429   2.033   3.269   5.637
 8844SOL     OW27430   6.464   2.507   6.631
 8844SOL    HW127431   6.499   2.566   6.704
 8844SOL    HW227432   6.447   2.562   6.549
 8845SOL     OW27433   3.587   3.783   0.251
 8845SOL    HW127434   3.518   3.843   0.291
 8845SOL    HW227435   3.678   3.821   0.268
 8846SOL     OW27436   3.248   5.929   3.757
 8846SOL    HW127437   3.150   5.949   3.752
 8846SOL    HW227438   3.300   6.009   3.729
 8847SOL     OW27439   2.855   1.783   3.344
 8847SOL    HW127440   2.885   1.723   3.418
 8847SOL    HW227441   2.837   1.875   3.380
 8848SOL     OW27442   2.449   1.159   1.716
 8848SOL    HW127443   2.407   1.152   1.806
 8848SOL    HW227444   2.534   1.106   1.714
 8849SOL     OW27445   3.232   6.424   3.088
 8849SOL    HW127446   3.164   6.400   3.018
 8849SOL    HW227447   3.213   6.373   3.172
 8850SOL     OW27448   1.505   2.675   0.021
 8850SOL    HW127449   1.520   2.691   0.119
 8850SOL    HW227450   1.552   2.591   7.020
 8851SOL     OW27451   1.273   3.897   3.569
 8851SOL    HW127452   1.356   3.880   3.515
 8851SOL    HW227453   1.299   3.920   3.663
 8852SOL     OW27454   0.331   2.612   5.110
 8852SOL    HW127455   0.334   2.694   5.168
 8852SOL    HW227456   0.320   2.639   5.014
 8853SOL     OW27457   2.942   0.837   1.622
 8853SOL    HW127458   2.866   0.820   1.683
 8853SOL    HW227459   2.981   0.750   1.591
 8854SOL     OW27460   2.041   2.601   5.818
 8854SOL    HW127461   1.966   2.629   5.758
 8854SOL    HW227462   2.076   2.512   5.787
 8855SOL     OW27463   6.385   5.005   1.426
 8855SOL    HW127464   6.352   5.097   1.404
 8855SOL    HW227465   6.357   4.981   1.519
 8856SOL     OW27466   1.364   6.584   6.619
 8856SOL    HW127467   1.271   6.566   6.588
 8856SOL    HW227468   1.365   6.668   6.674
 8857SOL     OW27469   6.477   1.801   4.334
 8857SOL    HW127470   6.520   1.892   4.334
 8857SOL    HW227471   6.545   1.732   4.310
 8858SOL     OW27472   0.046   4.117   4.452
 8858SOL    HW127473   0.058   4.179   4.374
 8858SOL    HW227474   0.132   4.068   4.469
 8859SOL     OW27475   1.296   1.783   3.838
 8859SOL    HW127476   1.386   1.750   3.810
 8859SOL    HW227477   1.306   1.856   3.906
 8860SOL     OW27478   6.869   2.026   1.224
 8860SOL    HW127479   6.947   2.054   1.167
 8860SOL    HW227480   6.883   1.933   1.257
 8861SOL     OW27481   3.928   1.285   5.787
 8861SOL    HW127482   4.001   1.349   5.764
 8861SOL    HW227483   3.912   1.287   5.886
 8862SOL     OW27484   5.745   0.046   3.767
 8862SOL    HW127485   5.677   0.116   3.790
 8862SOL    HW227486   5.737   0.021   3.671
 8863SOL     OW27487   2.834   4.714   3.488
 8863SOL    HW127488   2.818   4.616   3.499
 8863SOL    HW227489   2.824   4.738   3.391
 8864SOL     OW27490   3.281   4.980   6.508
 8864SOL    HW127491   3.372   4.971   6.467
 8864SOL    HW227492   3.289   5.033   6.593
 8865SOL     OW27493   3.249   0.693   4.634
 8865SOL    HW127494   3.328   0.714   4.691
 8865SOL    HW227495   3.206   0.778   4.603
 8866SOL     OW27496   5.434   6.998   2.815
 8866SOL    HW127497   5.360   7.000   2.882
 8866SOL    HW227498   5.521   7.019   2.861
 8867SOL     OW27499   5.901   4.627   3.547
 8867SOL    HW127500   5.868   4.544   3.592
 8867SOL    HW227501   5.830   4.697   3.550
 8868SOL     OW27502   0.015   2.862   1.603
 8868SOL    HW127503   7.011   2.771   1.575
 8868SOL    HW227504   6.983   2.896   1.677
 8869SOL     OW27505   3.996   5.961   5.558
 8869SOL    HW127506   4.024   6.055   5.579
 8869SOL    HW227507   4.038   5.933   5.472
 8870SOL     OW27508   2.614   6.738   2.027
 8870SOL    HW127509   2.524   6.714   1.989
 8870SOL    HW227510   2.677   6.759   1.952
 8871SOL     OW27511   1.906   0.208   3.613
 8871SOL    HW127512   1.867   0.241   3.527
 8871SOL    HW227513   1.875   0.266   3.688
 8872SOL     OW27514   1.541   5.097   5.827
 8872SOL    HW127515   1.600   5.153   5.884
 8872SOL    HW227516   1.565   5.000   5.840
 8873SOL     OW27517   2.059   6.931   2.304
 8873SOL    HW127518   2.027   6.846   2.262
 8873SOL    HW227519   1.998   7.006   2.277
 8874SOL     OW27520   2.210   5.677   2.387
 8874SOL    HW127521   2.189   5.620   2.467
 8874SOL    HW227522   2.296   5.646   2.346
 8875SOL     OW27523   6.615   3.564   4.812
 8875SOL    HW127524   6.566   3.555   4.726
 8875SOL    HW227525   6.595   3.653   4.852
 8876SOL     OW27526   2.427   0.507   5.922
 8876SOL    HW127527   2.519   0.529   5.890
 8876SOL    HW227528   2.424   0.412   5.951
 8877SOL     OW27529   2.222   2.372   4.093
 8877SOL    HW127530   2.238   2.391   3.996
 8877SOL    HW227531   2.139   2.316   4.103
 8878SOL     OW27532   4.204   4.911   1.377
 8878SOL    HW127533   4.192   4.813   1.397
 8878SOL    HW227534   4.130   4.942   1.318
 8879SOL     OW27535   4.453   4.662   2.331
 8879SOL    HW127536   4.440   4.648   2.233
 8879SOL    HW227537   4.489   4.578   2.372
 8880SOL     OW27538   4.424   6.360   5.017
 8880SOL    HW127539   4.454   6.328   4.926
 8880SOL    HW227540   4.326   6.347   5.025
 8881SOL     OW27541   5.589   6.220   3.997
 8881SOL    HW127542   5.589   6.120   4.005
 8881SOL    HW227543   5.522   6.249   3.929
 8882SOL     OW27544   4.715   1.219   0.944
 8882SOL    HW127545   4.779   1.143   0.944
 8882SOL    HW227546   4.643   1.202   1.011
 8883SOL     OW27547   2.142   6.421   6.376
 8883SOL    HW127548   2.193   6.498   6.337
 8883SOL    HW227549   2.146   6.343   6.313
 8884SOL     OW27550   5.855   3.396   5.726
 8884SOL    HW127551   5.860   3.434   5.818
 8884SOL    HW227552   5.882   3.299   5.727
 8885SOL     OW27553   5.134   4.780   0.717
 8885SOL    HW127554   5.051   4.725   0.725
 8885SOL    HW227555   5.199   4.752   0.788
 8886SOL     OW27556   2.777   5.780   5.382
 8886SOL    HW127557   2.828   5.726   5.448
 8886SOL    HW227558   2.679   5.760   5.391
 8887SOL     OW27559   3.948   0.820   0.789
 8887SOL    HW127560   4.024   0.768   0.828
 8887SOL    HW227561   3.957   0.916   0.815
 8888SOL     OW27562   2.073   2.241   5.080
 8888SOL    HW127563   2.013   2.234   5.000
 8888SOL    HW227564   2.163   2.204   5.056
 8889SOL     OW27565   6.415   6.521   6.965
 8889SOL    HW127566   6.350   6.551   6.895
 8889SOL    HW227567   6.422   6.421   6.963
 8890SOL     OW27568   0.321   5.608   5.783
 8890SOL    HW127569   0.369   5.687   5.746
 8890SOL    HW227570   0.225   5.631   5.798
 8891SOL     OW27571   3.845   4.279   0.409
 8891SOL    HW127572   3.820   4.233   0.324
 8891SOL    HW227573   3.761   4.301   0.460
 8892SOL     OW27574   3.606   4.941   3.382
 8892SOL    HW127575   3.518   4.946   3.429
 8892SOL    HW227576   3.680   4.941   3.450
 8893SOL     OW27577   1.132   4.912   4.589
 8893SOL    HW127578   1.064   4.985   4.580
 8893SOL    HW227579   1.197   4.937   4.661
 8894SOL     OW27580   3.151   1.903   6.507
 8894SOL    HW127581   3.145   1.804   6.495
 8894SOL    HW227582   3.237   1.926   6.551
 8895SOL     OW27583   7.005   1.985   1.598
 8895SOL    HW127584   6.929   1.998   1.535
 8895SOL    HW227585   6.970   1.982   1.692
 8896SOL     OW27586   2.184   3.113   4.717
 8896SOL    HW127587   2.245   3.076   4.787
 8896SOL    HW227588   2.137   3.193   4.753
 8897SOL     OW27589   2.452   2.604   3.557
 8897SOL    HW127590   2.379   2.563   3.502
 8897SOL    HW227591   2.415   2.681   3.610
 8898SOL     OW27592   5.253   3.313   2.552
 8898SOL    HW127593   5.320   3.381   2.520
 8898SOL    HW227594   5.265   3.228   2.500
 8899SOL     OW27595   1.527   4.314   0.499
 8899SOL    HW127596   1.621   4.283   0.489
 8899SOL    HW227597   1.465   4.236   0.496
 8900SOL     OW27598   5.178   3.159   3.121
 8900SOL    HW127599   5.207   3.133   3.212
 8900SOL    HW227600   5.204   3.254   3.103
 8901SOL     OW27601   0.755   1.176   4.812
 8901SOL    HW127602   0.788   1.198   4.720
 8901SOL    HW227603   0.712   1.086   4.812
 8902SOL     OW27604   1.023   5.511   0.187
 8902SOL    HW127605   1.024   5.426   0.239
 8902SOL    HW227606   0.961   5.576   0.231
 8903SOL     OW27607   0.713   1.989   4.339
 8903SOL    HW127608   0.687   1.946   4.252
 8903SOL    HW227609   0.789   2.052   4.323
 8904SOL     OW27610   0.749   0.780   4.824
 8904SOL    HW127611   0.731   0.681   4.827
 8904SOL    HW227612   0.786   0.805   4.735
 8905SOL     OW27613   2.064   3.096   3.055
 8905SOL    HW127614   2.139   3.145   3.102
 8905SOL    HW227615   2.099   3.056   2.971
 8906SOL     OW27616   0.564   6.206   1.029
 8906SOL    HW127617   0.466   6.200   1.043
 8906SOL    HW227618   0.584   6.278   0.963
 8907SOL     OW27619   3.074   2.928   5.823
 8907SOL    HW127620   3.081   2.937   5.922
 8907SOL    HW227621   3.098   3.015   5.780
 8908SOL     OW27622   1.786   6.088   0.571
 8908SOL    HW127623   1.687   6.071   0.580
 8908SOL    HW227624   1.801   6.170   0.516
 8909SOL     OW27625   2.807   1.591   5.932
 8909SOL    HW127626   2.738   1.564   5.866
 8909SOL    HW227627   2.822   1.690   5.927
 8910SOL     OW27628   0.909   2.974   5.350
 8910SOL    HW127629   0.861   3.004   5.268
 8910SOL    HW227630   1.007   2.973   5.332
 8911SOL     OW27631   5.117   3.261   4.667
 8911SOL    HW127632   5.065   3.254   4.752
 8911SOL    HW227633   5.064   3.222   4.592
 8912SOL     OW27634   2.719   3.693   6.479
 8912SOL    HW127635   2.732   3.728   6.572
 8912SOL    HW227636   2.622   3.675   6.463
 8913SOL     OW27637   4.013   5.413   6.490
 8913SOL    HW127638   3.935   5.474   6.497
 8913SOL    HW227639   4.032   5.395   6.393
 8914SOL     OW27640   4.777   0.392   4.872
 8914SOL    HW127641   4.846   0.451   4.831
 8914SOL    HW227642   4.804   0.296   4.861
 8915SOL     OW27643   1.741   2.308   3.916
 8915SOL    HW127644   1.738   2.371   3.993
 8915SOL    HW227645   1.659   2.250   3.917
 8916SOL     OW27646   6.739   3.264   0.106
 8916SOL    HW127647   6.833   3.239   0.129
 8916SOL    HW227648   6.679   3.185   0.118
 8917SOL     OW27649   5.799   2.627   0.313
 8917SOL    HW127650   5.722   2.629   0.250
 8917SOL    HW227651   5.777   2.568   0.391
 8918SOL     OW27652   0.936   4.960   0.986
 8918SOL    HW127653   0.855   5.008   1.020
 8918SOL    HW227654   0.947   4.873   1.035
 8919SOL     OW27655   5.325   3.970   0.237
 8919SOL    HW127656   5.245   4.006   0.188
 8919SOL    HW227657   5.326   4.008   0.329
 8920SOL     OW27658   6.926   1.654   6.960
 8920SOL    HW127659   6.935   1.700   6.872
 8920SOL    HW227660   6.967   1.711   0.005
 8921SOL     OW27661   2.113   3.201   1.939
 8921SOL    HW127662   2.125   3.104   1.958
 8921SOL    HW227663   2.108   3.251   2.025
 8922SOL     OW27664   4.290   5.102   2.499
 8922SOL    HW127665   4.202   5.084   2.542
 8922SOL    HW227666   4.363   5.077   2.562
 8923SOL     OW27667   1.691   1.577   6.836
 8923SOL    HW127668   1.655   1.620   6.752
 8923SOL    HW227669   1.630   1.503   6.863
 8924SOL     OW27670   4.417   5.357   5.452
 8924SOL    HW127671   4.414   5.260   5.477
 8924SOL    HW227672   4.328   5.385   5.417
 8925SOL     OW27673   0.812   1.024   2.698
 8925SOL    HW127674   0.764   1.030   2.610
 8925SOL    HW227675   0.757   0.969   2.762
 8926SOL     OW27676   6.807   3.288   6.079
 8926SOL    HW127677   6.827   3.191   6.085
 8926SOL    HW227678   6.753   3.316   6.158
 8927SOL     OW27679   6.280   1.077   4.284
 8927SOL    HW127680   6.186   1.085   4.315
 8927SOL    HW227681   6.333   1.028   4.354
 8928SOL     OW27682   1.188   0.238   6.362
 8928SOL    HW127683   1.137   0.216   6.445
 8928SOL    HW227684   1.277   0.191   6.364
 8929SOL     OW27685   5.860   2.026   5.008
 8929SOL    HW127686   5.842   2.016   4.910
 8929SOL    HW227687   5.957   2.012   5.026
 8930SOL     OW27688   0.973   2.771   3.534
 8930SOL    HW127689   1.030   2.697   3.570
 8930SOL    HW227690   0.888   2.732   3.497
 8931SOL     OW27691   2.711   3.785   0.962
 8931SOL    HW127692   2.787   3.755   0.904
 8931SOL    HW227693   2.656   3.852   0.912
 8932SOL     OW27694   5.804   2.262   1.761
 8932SOL    HW127695   5.896   2.276   1.724
 8932SOL    HW227696   5.784   2.333   1.829
 8933SOL     OW27697   2.421   2.316   6.053
 8933SOL    HW127698   2.478   2.308   5.971
 8933SOL    HW227699   2.369   2.232   6.066
 8934SOL     OW27700   2.512   5.345   4.766
 8934SOL    HW127701   2.525   5.405   4.845
 8934SOL    HW227702   2.464   5.263   4.795
 8935SOL     OW27703   0.566   4.572   0.365
 8935SOL    HW127704   0.482   4.619   0.338
 8935SOL    HW227705   0.645   4.618   0.324
 8936SOL     OW27706   1.008   4.373   1.916
 8936SOL    HW127707   0.974   4.409   2.003
 8936SOL    HW227708   0.994   4.441   1.844
 8937SOL     OW27709   0.756   6.791   5.959
 8937SOL    HW127710   0.772   6.878   6.005
 8937SOL    HW227711   0.667   6.755   5.987
 8938SOL     OW27712   0.426   5.933   0.917
 8938SOL    HW127713   0.510   5.984   0.938
 8938SOL    HW227714   0.374   5.920   1.001
 8939SOL     OW27715   5.131   3.098   4.071
 8939SOL    HW127716   5.124   3.033   4.146
 8939SOL    HW227717   5.225   3.131   4.064
 8940SOL     OW27718   0.421   1.452   2.199
 8940SOL    HW127719   0.476   1.533   2.222
 8940SOL    HW227720   0.464   1.404   2.122
 8941SOL     OW27721   6.439   2.612   5.330
 8941SOL    HW127722   6.537   2.632   5.336
 8941SOL    HW227723   6.420   2.524   5.375
 8942SOL     OW27724   6.894   4.843   4.864
 8942SOL    HW127725   6.806   4.796   4.869
 8942SOL    HW227726   6.960   4.787   4.814
 8943SOL     OW27727   3.532   4.854   6.073
 8943SOL    HW127728   3.432   4.852   6.076
 8943SOL    HW227729   3.561   4.895   5.986
 8944SOL     OW27730   5.339   4.403   5.238
 8944SOL    HW127731   5.426   4.452   5.233
 8944SOL    HW227732   5.298   4.400   5.147
 8945SOL     OW27733   0.764   0.633   2.997
 8945SOL    HW127734   0.783   0.608   3.092
 8945SOL    HW227735   0.712   0.559   2.953
 8946SOL     OW27736   3.493   1.418   5.236
 8946SOL    HW127737   3.563   1.490   5.231
 8946SOL    HW227738   3.536   1.329   5.225
 8947SOL     OW27739   1.959   3.610   5.467
 8947SOL    HW127740   1.944   3.568   5.377
 8947SOL    HW227741   2.032   3.679   5.459
 8948SOL     OW27742   6.683   6.745   4.292
 8948SOL    HW127743   6.666   6.660   4.242
 8948SOL    HW227744   6.603   6.766   4.350
 8949SOL     OW27745   2.367   6.833   1.186
 8949SOL    HW127746   2.414   6.889   1.118
 8949SOL    HW227747   2.370   6.737   1.158
 8950SOL     OW27748   4.547   4.301   6.423
 8950SOL    HW127749   4.645   4.285   6.437
 8950SOL    HW227750   4.533   4.338   6.331
 8951SOL     OW27751   1.454   2.043   5.436
 8951SOL    HW127752   1.459   2.140   5.459
 8951SOL    HW227753   1.544   2.000   5.451
 8952SOL     OW27754   1.624   6.855   2.198
 8952SOL    HW127755   1.616   6.755   2.202
 8952SOL    HW227756   1.652   6.889   2.288
 8953SOL     OW27757   1.551   4.117   0.119
 8953SOL    HW127758   1.622   4.073   0.173
 8953SOL    HW227759   1.461   4.091   0.154
 8954SOL     OW27760   0.772   0.535   5.789
 8954SOL    HW127761   0.803   0.569   5.700
 8954SOL    HW227762   0.828   0.457   5.816
 8955SOL     OW27763   0.288   5.270   2.343
 8955SOL    HW127764   0.220   5.272   2.270
 8955SOL    HW227765   0.324   5.178   2.354
 8956SOL     OW27766   1.124   1.692   6.668
 8956SOL    HW127767   1.210   1.671   6.713
 8956SOL    HW227768   1.061   1.733   6.733
 8957SOL     OW27769   2.933   4.230   1.610
 8957SOL    HW127770   3.007   4.176   1.649
 8957SOL    HW227771   2.908   4.303   1.674
 8958SOL     OW27772   6.933   0.817   4.573
 8958SOL    HW127773   6.845   0.770   4.573
 8958SOL    HW227774   6.975   0.809   4.483
 8959SOL     OW27775   1.427   4.697   1.962
 8959SOL    HW127776   1.508   4.665   1.913
 8959SOL    HW227777   1.443   4.790   1.995
 8960SOL     OW27778   4.604   4.713   2.918
 8960SOL    HW127779   4.622   4.742   2.824
 8960SOL    HW227780   4.622   4.789   2.980
 8961SOL     OW27781   2.647   1.480   4.575
 8961SOL    HW127782   2.581   1.554   4.565
 8961SOL    HW227783   2.680   1.452   4.485
 8962SOL     OW27784   6.600   6.198   2.143
 8962SOL    HW127785   6.609   6.293   2.173
 8962SOL    HW227786   6.610   6.192   2.044
 8963SOL     OW27787   4.761   6.455   4.095
 8963SOL    HW127788   4.731   6.475   4.189
 8963SOL    HW227789   4.681   6.439   4.038
 8964SOL     OW27790   4.891   3.162   3.074
 8964SOL    HW127791   4.841   3.150   3.160
 8964SOL    HW227792   4.989   3.154   3.090
 8965SOL     OW27793   2.235   4.877   0.940
 8965SOL    HW127794   2.315   4.818   0.928
 8965SOL    HW227795   2.251   4.964   0.893
 8966SOL     OW27796   6.815   4.137   6.292
 8966SOL    HW127797   6.731   4.084   6.299
 8966SOL    HW227798   6.816   4.188   6.205
 8967SOL     OW27799   3.860   0.184   1.965
 8967SOL    HW127800   3.930   0.251   1.941
 8967SOL    HW227801   3.793   0.225   2.027
 8968SOL     OW27802   5.181   4.973   3.229
 8968SOL    HW127803   5.281   4.984   3.225
 8968SOL    HW227804   5.159   4.890   3.280
 8969SOL     OW27805   6.771   1.376   4.674
 8969SOL    HW127806   6.807   1.284   4.657
 8969SOL    HW227807   6.679   1.369   4.711
 8970SOL     OW27808   2.727   3.522   0.591
 8970SOL    HW127809   2.653   3.588   0.580
 8970SOL    HW227810   2.688   3.432   0.610
 8971SOL     OW27811   4.936   5.571   1.979
 8971SOL    HW127812   4.853   5.545   2.028
 8971SOL    HW227813   5.016   5.544   2.033
 8972SOL     OW27814   5.111   4.473   6.579
 8972SOL    HW127815   5.147   4.454   6.488
 8972SOL    HW227816   5.082   4.569   6.584
 8973SOL     OW27817   1.117   3.520   2.289
 8973SOL    HW127818   1.176   3.586   2.243
 8973SOL    HW227819   1.113   3.542   2.387
 8974SOL     OW27820   1.821   4.429   5.812
 8974SOL    HW127821   1.768   4.508   5.781
 8974SOL    HW227822   1.881   4.399   5.738
 8975SOL     OW27823   2.169   6.900   6.354
 8975SOL    HW127824   2.194   6.811   6.392
 8975SOL    HW227825   2.244   6.935   6.299
 8976SOL     OW27826   0.403   4.836   4.924
 8976SOL    HW127827   0.485   4.892   4.914
 8976SOL    HW227828   0.340   4.880   4.988
 8977SOL     OW27829   6.206   2.601   0.114
 8977SOL    HW127830   6.141   2.557   0.176
 8977SOL    HW227831   6.255   2.673   0.163
 8978SOL     OW27832   5.624   0.408   5.434
 8978SOL    HW127833   5.548   0.431   5.496
 8978SOL    HW227834   5.686   0.345   5.479
 8979SOL     OW27835   1.168   3.383   4.722
 8979SOL    HW127836   1.187   3.431   4.807
 8979SOL    HW227837   1.244   3.323   4.699
 8980SOL     OW27838   2.526   2.941   5.760
 8980SOL    HW127839   2.523   2.849   5.719
 8980SOL    HW227840   2.440   2.958   5.808
 8981SOL     OW27841   4.295   1.984   5.315
 8981SOL    HW127842   4.247   1.955   5.398
 8981SOL    HW227843   4.243   1.953   5.235
 8982SOL     OW27844   1.185   2.548   1.181
 8982SOL    HW127845   1.143   2.628   1.225
 8982SOL    HW227846   1.276   2.573   1.148
 8983SOL     OW27847   1.898   6.350   0.041
 8983SOL    HW127848   1.928   6.298   6.987
 8983SOL    HW227849   1.833   6.420   0.013
 8984SOL     OW27850   0.215   0.295   4.470
 8984SOL    HW127851   0.294   0.293   4.409
 8984SOL    HW227852   0.219   0.218   4.533
 8985SOL     OW27853   2.313   3.296   0.600
 8985SOL    HW127854   2.370   3.253   0.670
 8985SOL    HW227855   2.220   3.261   0.607
 8986SOL     OW27856   5.092   5.211   2.269
 8986SOL    HW127857   5.074   5.162   2.354
 8986SOL    HW227858   5.009   5.259   2.240
 8987SOL     OW27859   4.291   6.630   1.466
 8987SOL    HW127860   4.390   6.637   1.476
 8987SOL    HW227861   4.249   6.627   1.557
 8988SOL     OW27862   1.704   3.487   5.451
 8988SOL    HW127863   1.788   3.536   5.474
 8988SOL    HW227864   1.631   3.552   5.432
 8989SOL     OW27865   5.119   3.973   1.218
 8989SOL    HW127866   5.161   3.960   1.308
 8989SOL    HW227867   5.076   4.064   1.214
 8990SOL     OW27868   1.678   6.274   3.690
 8990SOL    HW127869   1.707   6.179   3.695
 8990SOL    HW227870   1.755   6.334   3.713
 8991SOL     OW27871   1.727   2.414   6.599
 8991SOL    HW127872   1.735   2.363   6.513
 8991SOL    HW227873   1.776   2.365   6.671
 8992SOL     OW27874   5.392   1.638   0.141
 8992SOL    HW127875   5.318   1.609   0.080
 8992SOL    HW227876   5.479   1.603   0.106
 8993SOL     OW27877   5.302   2.527   2.114
 8993SOL    HW127878   5.291   2.622   2.085
 8993SOL    HW227879   5.234   2.505   2.184
 8994SOL     OW27880   1.376   4.341   4.482
 8994SOL    HW127881   1.305   4.366   4.548
 8994SOL    HW227882   1.422   4.257   4.512
 8995SOL     OW27883   1.371   2.999   6.968
 8995SOL    HW127884   1.461   2.955   6.973
 8995SOL    HW227885   1.301   2.931   6.947
 8996SOL     OW27886   5.866   5.435   0.608
 8996SOL    HW127887   5.803   5.360   0.587
 8996SOL    HW227888   5.815   5.513   0.643
 8997SOL     OW27889   4.785   1.548   6.216
 8997SOL    HW127890   4.775   1.608   6.137
 8997SOL    HW227891   4.867   1.491   6.204
 8998SOL     OW27892   6.273   4.023   4.010
 8998SOL    HW127893   6.255   4.098   4.074
 8998SOL    HW227894   6.371   4.009   4.000
 8999SOL     OW27895   5.095   6.371   6.601
 8999SOL    HW127896   5.095   6.464   6.636
 8999SOL    HW227897   5.069   6.308   6.674
 9000SOL     OW27898   1.679   3.909   1.067
 9000SOL    HW127899   1.669   3.809   1.067
 9000SOL    HW227900   1.676   3.943   1.162
 9001SOL     OW27901   1.463   5.747   2.451
 9001SOL    HW127902   1.438   5.844   2.458
 9001SOL    HW227903   1.542   5.729   2.510
 9002SOL     OW27904   0.532   5.145   5.114
 9002SOL    HW127905   0.482   5.213   5.061
 9002SOL    HW227906   0.470   5.071   5.140
 9003SOL     OW27907   5.673   2.896   1.653
 9003SOL    HW127908   5.585   2.859   1.625
 9003SOL    HW227909   5.674   2.995   1.642
 9004SOL     OW27910   3.763   6.497   1.470
 9004SOL    HW127911   3.774   6.525   1.565
 9004SOL    HW227912   3.835   6.538   1.414
 9005SOL     OW27913   5.618   2.954   4.204
 9005SOL    HW127914   5.551   2.894   4.247
 9005SOL    HW227915   5.586   2.981   4.113
 9006SOL     OW27916   2.551   5.665   1.395
 9006SOL    HW127917   2.651   5.675   1.401
 9006SOL    HW227918   2.529   5.582   1.344
 9007SOL     OW27919   3.295   1.219   3.934
 9007SOL    HW127920   3.201   1.199   3.907
 9007SOL    HW227921   3.343   1.261   3.856
 9008SOL     OW27922   1.227   5.798   3.467
 9008SOL    HW127923   1.186   5.861   3.400
 9008SOL    HW227924   1.325   5.789   3.448
 9009SOL     OW27925   2.738   6.931   0.898
 9009SOL    HW127926   2.822   6.934   0.845
 9009SOL    HW227927   2.758   6.953   0.994
 9010SOL     OW27928   1.555   6.749   3.948
 9010SOL    HW127929   1.461   6.777   3.970
 9010SOL    HW227930   1.617   6.824   3.971
 9011SOL     OW27931   5.305   1.926   2.134
 9011SOL    HW127932   5.338   1.840   2.173
 9011SOL    HW227933   5.212   1.945   2.168
 9012SOL     OW27934   2.541   3.714   0.378
 9012SOL    HW127935   2.444   3.701   0.400
 9012SOL    HW227936   2.583   3.770   0.449
 9013SOL     OW27937   0.193   6.657   5.368
 9013SOL    HW127938   0.173   6.711   5.286
 9013SOL    HW227939   0.202   6.718   5.447
 9014SOL     OW27940   6.078   2.051   0.134
 9014SOL    HW127941   6.170   2.047   0.173
 9014SOL    HW227942   6.084   2.075   0.037
 9015SOL     OW27943   4.418   1.281   1.976
 9015SOL    HW127944   4.467   1.328   2.050
 9015SOL    HW227945   4.380   1.348   1.912
 9016SOL     OW27946   0.388   6.487   6.540
 9016SOL    HW127947   0.431   6.525   6.459
 9016SOL    HW227948   0.319   6.550   6.574
 9017SOL     OW27949   4.582   2.222   3.550
 9017SOL    HW127950   4.508   2.194   3.488
 9017SOL    HW227951   4.564   2.314   3.584
 9018SOL     OW27952   3.913   2.479   0.040
 9018SOL    HW127953   3.846   2.524   7.008
 9018SOL    HW227954   4.004   2.490   0.000
 9019SOL     OW27955   1.508   5.456   1.461
 9019SOL    HW127956   1.459   5.471   1.547
 9019SOL    HW227957   1.482   5.526   1.395
 9020SOL     OW27958   0.081   3.756   0.708
 9020SOL    HW127959   7.009   3.736   0.713
 9020SOL    HW227960   0.132   3.680   0.749
 9021SOL     OW27961   6.471   6.562   3.284
 9021SOL    HW127962   6.482   6.605   3.374
 9021SOL    HW227963   6.391   6.501   3.286
 9022SOL     OW27964   3.356   1.837   6.822
 9022SOL    HW127965   3.427   1.868   6.885
 9022SOL    HW227966   3.398   1.780   6.751
 9023SOL     OW27967   3.451   3.149   1.991
 9023SOL    HW127968   3.359   3.113   1.972
 9023SOL    HW227969   3.503   3.080   2.042
 9024SOL     OW27970   0.736   4.511   5.014
 9024SOL    HW127971   0.828   4.518   4.974
 9024SOL    HW227972   0.670   4.494   4.942
 9025SOL     OW27973   0.683   5.239   0.478
 9025SOL    HW127974   0.673   5.158   0.535
 9025SOL    HW227975   0.780   5.260   0.468
 9026SOL     OW27976   4.121   3.063   0.680
 9026SOL    HW127977   4.065   3.128   0.629
 9026SOL    HW227978   4.081   3.047   0.770
 9027SOL     OW27979   1.834   2.239   3.078
 9027SOL    HW127980   1.879   2.154   3.052
 9027SOL    HW227981   1.853   2.259   3.174
 9028SOL     OW27982   2.731   3.803   5.616
 9028SOL    HW127983   2.704   3.825   5.522
 9028SOL    HW227984   2.750   3.887   5.666
 9029SOL     OW27985   4.047   6.545   5.225
 9029SOL    HW127986   4.091   6.492   5.298
 9029SOL    HW227987   4.112   6.612   5.189
 9030SOL     OW27988   2.829   2.015   3.492
 9030SOL    HW127989   2.854   2.109   3.511
 9030SOL    HW227990   2.804   1.969   3.578
 9031SOL     OW27991   4.103   5.864   4.464
 9031SOL    HW127992   4.066   5.956   4.465
 9031SOL    HW227993   4.029   5.797   4.459
 9032SOL     OW27994   3.823   3.958   0.672
 9032SOL    HW127995   3.821   3.864   0.705
 9032SOL    HW227996   3.917   3.984   0.650
 9033SOL     OW27997   0.227   3.960   2.828
 9033SOL    HW127998   0.231   3.972   2.927
 9033SOL    HW227999   0.136   3.925   2.802
 9034SOL     OW28000   3.381   0.074   5.508
 9034SOL    HW128001   3.328   0.038   5.585
 9034SOL    HW228002   3.411   7.025   5.450
 9035SOL     OW28003   2.022   5.359   6.531
 9035SOL    HW128004   2.037   5.296   6.455
 9035SOL    HW228005   2.105   5.413   6.546
 9036SOL     OW28006   2.009   1.608   5.355
 9036SOL    HW128007   1.916   1.599   5.391
 9036SOL    HW228008   2.027   1.704   5.334
 9037SOL     OW28009   1.324   3.948   4.999
 9037SOL    HW128010   1.242   3.944   5.057
 9037SOL    HW228011   1.399   3.899   5.044
 9038SOL     OW28012   4.206   0.976   6.146
 9038SOL    HW128013   4.224   0.904   6.079
 9038SOL    HW228014   4.196   0.936   6.237
 9039SOL     OW28015   2.226   5.648   5.435
 9039SOL    HW128016   2.221   5.740   5.397
 9039SOL    HW228017   2.300   5.597   5.391
 9040SOL     OW28018   3.604   2.045   2.634
 9040SOL    HW128019   3.662   2.026   2.713
 9040SOL    HW228020   3.508   2.036   2.662
 9041SOL     OW28021   1.124   2.410   1.406
 9041SOL    HW128022   1.138   2.429   1.309
 9041SOL    HW228023   1.044   2.351   1.417
 9042SOL     OW28024   3.465   0.097   4.992
 9042SOL    HW128025   3.508   0.020   5.039
 9042SOL    HW228026   3.382   0.066   4.946
 9043SOL     OW28027   1.102   0.767   6.927
 9043SOL    HW128028   1.052   0.776   6.841
 9043SOL    HW228029   1.099   0.854   6.977
 9044SOL     OW28030   6.280   0.317   0.470
 9044SOL    HW128031   6.277   0.304   0.569
 9044SOL    HW228032   6.191   0.352   0.438
 9045SOL     OW28033   2.557   1.784   2.784
 9045SOL    HW128034   2.521   1.698   2.822
 9045SOL    HW228035   2.484   1.853   2.782
 9046SOL     OW28036   3.358   3.585   3.002
 9046SOL    HW128037   3.297   3.513   3.036
 9046SOL    HW228038   3.453   3.557   3.016
 9047SOL     OW28039   1.734   4.126   5.679
 9047SOL    HW128040   1.766   4.149   5.588
 9047SOL    HW228041   1.635   4.138   5.685
 9048SOL     OW28042   5.109   3.304   6.361
 9048SOL    HW128043   5.181   3.304   6.292
 9048SOL    HW228044   5.135   3.246   6.437
 9049SOL     OW28045   3.830   0.104   5.680
 9049SOL    HW128046   3.803   0.008   5.682
 9049SOL    HW228047   3.793   0.146   5.597
 9050SOL     OW28048   0.039   2.942   0.834
 9050SOL    HW128049   6.978   2.912   0.872
 9050SOL    HW228050   0.027   2.964   0.738
 9051SOL     OW28051   3.952   0.287   1.351
 9051SOL    HW128052   3.967   0.310   1.254
 9051SOL    HW228053   3.999   0.202   1.373
 9052SOL     OW28054   2.577   2.425   4.276
 9052SOL    HW128055   2.492   2.381   4.302
 9052SOL    HW228056   2.567   2.466   4.185
 9053SOL     OW28057   2.098   0.608   2.818
 9053SOL    HW128058   2.146   0.574   2.899
 9053SOL    HW228059   2.037   0.537   2.783
 9054SOL     OW28060   2.968   5.991   3.695
 9054SOL    HW128061   2.933   5.943   3.776
 9054SOL    HW228062   2.951   5.936   3.614
 9055SOL     OW28063   6.356   3.030   4.510
 9055SOL    HW128064   6.318   3.034   4.602
 9055SOL    HW228065   6.456   3.024   4.516
 9056SOL     OW28066   0.455   1.947   1.756
 9056SOL    HW128067   0.462   1.962   1.657
 9056SOL    HW228068   0.521   2.006   1.803
 9057SOL     OW28069   4.594   3.921   6.322
 9057SOL    HW128070   4.507   3.914   6.370
 9057SOL    HW228071   4.637   3.830   6.317
 9058SOL     OW28072   2.159   1.386   1.606
 9058SOL    HW128073   2.161   1.477   1.648
 9058SOL    HW228074   2.242   1.372   1.554
 9059SOL     OW28075   1.461   2.121   3.781
 9059SOL    HW128076   1.448   2.085   3.874
 9059SOL    HW228077   1.388   2.185   3.759
 9060SOL     OW28078   6.161   2.908   3.935
 9060SOL    HW128079   6.181   2.843   3.862
 9060SOL    HW228080   6.102   2.981   3.899
 9061SOL     OW28081   2.019   5.093   1.698
 9061SOL    HW128082   1.974   5.087   1.787
 9061SOL    HW228083   2.052   5.003   1.671
 9062SOL     OW28084   1.814   6.239   1.915
 9062SOL    HW128085   1.888   6.173   1.898
 9062SOL    HW228086   1.769   6.217   2.001
 9063SOL     OW28087   3.474   0.169   3.473
 9063SOL    HW128088   3.521   0.120   3.547
 9063SOL    HW228089   3.420   0.104   3.419
 9064SOL     OW28090   6.159   2.226   5.168
 9064SOL    HW128091   6.144   2.291   5.242
 9064SOL    HW228092   6.169   2.274   5.081
 9065SOL     OW28093   3.467   0.470   5.612
 9065SOL    HW128094   3.482   0.406   5.537
 9065SOL    HW228095   3.516   0.555   5.593
 9066SOL     OW28096   4.583   6.541   0.782
 9066SOL    HW128097   4.539   6.596   0.853
 9066SOL    HW228098   4.681   6.561   0.780
 9067SOL     OW28099   0.972   0.509   4.749
 9067SOL    HW128100   0.953   0.489   4.845
 9067SOL    HW228101   0.886   0.510   4.697
 9068SOL     OW28102   2.692   6.790   4.652
 9068SOL    HW128103   2.613   6.847   4.629
 9068SOL    HW228104   2.771   6.848   4.669
 9069SOL     OW28105   1.479   3.418   1.526
 9069SOL    HW128106   1.385   3.424   1.494
 9069SOL    HW228107   1.525   3.506   1.511
 9070SOL     OW28108   1.325   2.983   4.890
 9070SOL    HW128109   1.387   2.996   4.966
 9070SOL    HW228110   1.358   2.908   4.832
 9071SOL     OW28111   5.888   6.253   1.902
 9071SOL    HW128112   5.844   6.340   1.924
 9071SOL    HW228113   5.977   6.248   1.948
 9072SOL     OW28114   0.186   1.706   1.270
 9072SOL    HW128115   0.164   1.609   1.271
 9072SOL    HW228116   0.212   1.736   1.362
 9073SOL     OW28117   3.014   0.063   2.937
 9073SOL    HW128118   3.086   0.132   2.941
 9073SOL    HW228119   2.946   0.081   3.007
 9074SOL     OW28120   1.557   1.730   2.002
 9074SOL    HW128121   1.480   1.670   1.981
 9074SOL    HW228122   1.629   1.677   2.048
 9075SOL     OW28123   0.372   1.243   1.802
 9075SOL    HW128124   0.287   1.213   1.847
 9075SOL    HW228125   0.423   1.302   1.864
 9076SOL     OW28126   0.214   2.704   5.717
 9076SOL    HW128127   0.302   2.749   5.732
 9076SOL    HW228128   0.141   2.773   5.723
 9077SOL     OW28129   4.714   0.480   0.085
 9077SOL    HW128130   4.678   0.471   7.018
 9077SOL    HW228131   4.721   0.389   0.126
 9078SOL     OW28132   3.949   3.437   5.801
 9078SOL    HW128133   4.025   3.465   5.860
 9078SOL    HW228134   3.888   3.378   5.852
 9079SOL     OW28135   3.412   6.950   3.958
 9079SOL    HW128136   3.394   6.877   4.024
 9079SOL    HW228137   3.356   0.003   3.979
 9080SOL     OW28138   4.536   2.409   6.287
 9080SOL    HW128139   4.472   2.485   6.272
 9080SOL    HW228140   4.485   2.326   6.307
 9081SOL     OW28141   4.150   0.041   2.183
 9081SOL    HW128142   4.146   0.136   2.153
 9081SOL    HW228143   4.082   0.025   2.254
 9082SOL     OW28144   2.330   0.387   5.065
 9082SOL    HW128145   2.238   0.359   5.038
 9082SOL    HW228146   2.341   0.371   5.163
 9083SOL     OW28147   3.300   5.239   6.325
 9083SOL    HW128148   3.378   5.178   6.340
 9083SOL    HW228149   3.216   5.193   6.356
 9084SOL     OW28150   3.727   4.029   3.332
 9084SOL    HW128151   3.826   4.020   3.321
 9084SOL    HW228152   3.690   3.944   3.370
 9085SOL     OW28153   2.206   0.898   1.854
 9085SOL    HW128154   2.271   0.870   1.784
 9085SOL    HW228155   2.113   0.876   1.825
 9086SOL     OW28156   0.761   4.716   0.236
 9086SOL    HW128157   0.752   4.709   0.137
 9086SOL    HW228158   0.847   4.673   0.264
 9087SOL     OW28159   4.758   2.212   1.633
 9087SOL    HW128160   4.726   2.133   1.685
 9087SOL    HW228161   4.721   2.208   1.540
 9088SOL     OW28162   6.839   6.715   1.518
 9088SOL    HW128163   6.880   6.642   1.573
 9088SOL    HW228164   6.761   6.754   1.567
 9089SOL     OW28165   5.505   5.450   5.464
 9089SOL    HW128166   5.590   5.407   5.434
 9089SOL    HW228167   5.428   5.409   5.414
 9090SOL     OW28168   6.659   1.508   4.923
 9090SOL    HW128169   6.673   1.410   4.939
 9090SOL    HW228170   6.717   1.561   4.985
 9091SOL     OW28171   2.686   4.365   0.305
 9091SOL    HW128172   2.588   4.373   0.323
 9091SOL    HW228173   2.703   4.286   0.246
 9092SOL     OW28174   6.527   0.780   6.820
 9092SOL    HW128175   6.602   0.778   6.754
 9092SOL    HW228176   6.443   0.749   6.775
 9093SOL     OW28177   1.075   5.636   5.517
 9093SOL    HW128178   1.086   5.562   5.584
 9093SOL    HW228179   1.148   5.631   5.450
 9094SOL     OW28180   6.723   4.970   2.878
 9094SOL    HW128181   6.738   5.014   2.790
 9094SOL    HW228182   6.731   5.038   2.951
 9095SOL     OW28183   5.081   4.778   6.023
 9095SOL    HW128184   5.068   4.745   6.116
 9095SOL    HW228185   5.017   4.733   5.962
 9096SOL     OW28186   6.784   4.813   2.440
 9096SOL    HW128187   6.749   4.831   2.348
 9096SOL    HW228188   6.832   4.725   2.441
 9097SOL     OW28189   1.958   1.766   0.339
 9097SOL    HW128190   1.991   1.745   0.247
 9097SOL    HW228191   1.861   1.792   0.334
 9098SOL     OW28192   3.074   1.875   4.638
 9098SOL    HW128193   3.100   1.935   4.713
 9098SOL    HW228194   3.139   1.799   4.632
 9099SOL     OW28195   2.896   3.199   5.676
 9099SOL    HW128196   2.797   3.209   5.676
 9099SOL    HW228197   2.930   3.194   5.582
 9100SOL     OW28198   0.504   3.588   3.529
 9100SOL    HW128199   0.569   3.608   3.602
 9100SOL    HW228200   0.511   3.492   3.502
 9101SOL     OW28201   2.621   2.250   2.024
 9101SOL    HW128202   2.613   2.313   1.947
 9101SOL    HW228203   2.718   2.239   2.048
 9102SOL     OW28204   3.114   6.779   2.373
 9102SOL    HW128205   3.149   6.755   2.464
 9102SOL    HW228206   3.042   6.847   2.382
 9103SOL     OW28207   5.653   1.673   6.790
 9103SOL    HW128208   5.720   1.714   6.728
 9103SOL    HW228209   5.700   1.615   6.856
 9104SOL     OW28210   6.803   6.295   1.313
 9104SOL    HW128211   6.847   6.264   1.397
 9104SOL    HW228212   6.844   6.249   1.235
 9105SOL     OW28213   0.507   0.459   5.808
 9105SOL    HW128214   0.471   0.553   5.806
 9105SOL    HW228215   0.606   0.461   5.804
 9106SOL     OW28216   5.995   2.958   1.039
 9106SOL    HW128217   6.080   2.922   0.999
 9106SOL    HW228218   5.995   2.940   1.138
 9107SOL     OW28219   1.739   0.556   6.476
 9107SOL    HW128220   1.785   0.628   6.424
 9107SOL    HW228221   1.658   0.526   6.427
 9108SOL     OW28222   4.893   4.626   5.239
 9108SOL    HW128223   4.950   4.665   5.167
 9108SOL    HW228224   4.949   4.605   5.319
 9109SOL     OW28225   5.341   3.390   2.812
 9109SOL    HW128226   5.286   3.369   2.731
 9109SOL    HW228227   5.373   3.304   2.853
 9110SOL     OW28228   1.727   5.236   4.314
 9110SOL    HW128229   1.732   5.137   4.326
 9110SOL    HW228230   1.640   5.270   4.352
 9111SOL     OW28231   4.600   2.690   6.749
 9111SOL    HW128232   4.654   2.764   6.789
 9111SOL    HW228233   4.647   2.655   6.668
 9112SOL     OW28234   1.414   5.090   2.615
 9112SOL    HW128235   1.375   5.106   2.705
 9112SOL    HW228236   1.342   5.067   2.550
 9113SOL     OW28237   5.415   2.312   2.652
 9113SOL    HW128238   5.352   2.367   2.597
 9113SOL    HW228239   5.447   2.234   2.599
 9114SOL     OW28240   0.409   5.414   3.442
 9114SOL    HW128241   0.331   5.382   3.497
 9114SOL    HW228242   0.420   5.512   3.456
 9115SOL     OW28243   5.990   5.310   5.421
 9115SOL    HW128244   5.925   5.270   5.356
 9115SOL    HW228245   5.946   5.321   5.510
 9116SOL     OW28246   0.321   0.047   2.960
 9116SOL    HW128247   0.307   0.006   2.870
 9116SOL    HW228248   0.234   0.086   2.992
 9117SOL     OW28249   3.661   2.584   6.461
 9117SOL    HW128250   3.575   2.630   6.440
 9117SOL    HW228251   3.733   2.619   6.401
 9118SOL     OW28252   6.700   3.543   0.077
 9118SOL    HW128253   6.743   3.457   0.106
 9118SOL    HW228254   6.600   3.534   0.084
 9119SOL     OW28255   3.948   1.435   1.666
 9119SOL    HW128256   3.949   1.479   1.756
 9119SOL    HW228257   3.875   1.475   1.610
 9120SOL     OW28258   6.702   2.727   5.398
 9120SOL    HW128259   6.791   2.764   5.375
 9120SOL    HW228260   6.680   2.749   5.493
 9121SOL     OW28261   3.345   6.324   5.386
 9121SOL    HW128262   3.292   6.405   5.412
 9121SOL    HW228263   3.440   6.350   5.372
 9122SOL     OW28264   2.261   4.626   2.014
 9122SOL    HW128265   2.348   4.639   1.967
 9122SOL    HW228266   2.276   4.570   2.096
 9123SOL     OW28267   1.749   0.267   4.172
 9123SOL    HW128268   1.767   0.365   4.156
 9123SOL    HW228269   1.739   0.251   4.271
 9124SOL     OW28270   3.537   5.398   1.921
 9124SOL    HW128271   3.634   5.392   1.900
 9124SOL    HW228272   3.515   5.490   1.954
 9125SOL     OW28273   4.262   4.542   1.141
 9125SOL    HW128274   4.278   4.596   1.223
 9125SOL    HW228275   4.345   4.488   1.120
 9126SOL     OW28276   4.472   3.984   1.238
 9126SOL    HW128277   4.452   3.931   1.320
 9126SOL    HW228278   4.535   4.059   1.261
 9127SOL     OW28279   7.020   2.577   5.328
 9127SOL    HW128280   0.012   2.498   5.269
 9127SOL    HW228281   6.967   2.548   5.407
 9128SOL     OW28282   5.719   2.423   5.045
 9128SOL    HW128283   5.633   2.375   5.028
 9128SOL    HW228284   5.788   2.393   4.979
 9129SOL     OW28285   6.763   1.883   0.185
 9129SOL    HW128286   6.813   1.884   0.272
 9129SOL    HW228287   6.700   1.805   0.184
 9130SOL     OW28288   0.848   4.387   6.138
 9130SOL    HW128289   0.856   4.462   6.073
 9130SOL    HW228290   0.903   4.406   6.218
 9131SOL     OW28291   5.335   3.212   6.983
 9131SOL    HW128292   5.348   3.310   6.971
 9131SOL    HW228293   5.242   3.195   7.016
 9132SOL     OW28294   0.852   4.169   4.344
 9132SOL    HW128295   0.889   4.082   4.375
 9132SOL    HW228296   0.891   4.243   4.399
 9133SOL     OW28297   3.268   0.792   1.033
 9133SOL    HW128298   3.178   0.794   1.076
 9133SOL    HW228299   3.288   0.882   0.993
 9134SOL     OW28300   4.665   5.776   1.403
 9134SOL    HW128301   4.577   5.810   1.369
 9134SOL    HW228302   4.655   5.681   1.433
 9135SOL     OW28303   1.456   5.841   1.603
 9135SOL    HW128304   1.378   5.861   1.662
 9135SOL    HW228305   1.433   5.764   1.543
 9136SOL     OW28306   4.436   5.890   5.489
 9136SOL    HW128307   4.422   5.938   5.402
 9136SOL    HW228308   4.430   5.791   5.474
 9137SOL     OW28309   4.146   0.177   6.257
 9137SOL    HW128310   4.058   0.200   6.216
 9137SOL    HW228311   4.205   0.258   6.254
 9138SOL     OW28312   1.609   3.422   0.141
 9138SOL    HW128313   1.680   3.485   0.109
 9138SOL    HW228314   1.621   3.404   0.239
 9139SOL     OW28315   0.817   1.118   1.622
 9139SOL    HW128316   0.862   1.156   1.541
 9139SOL    HW228317   0.741   1.176   1.649
 9140SOL     OW28318   0.361   5.046   2.532
 9140SOL    HW128319   0.382   5.115   2.602
 9140SOL    HW228320   0.398   4.958   2.559
 9141SOL     OW28321   6.843   5.900   6.707
 9141SOL    HW128322   6.795   5.813   6.696
 9141SOL    HW228323   6.908   5.912   6.632
 9142SOL     OW28324   0.395   3.091   2.585
 9142SOL    HW128325   0.320   3.027   2.603
 9142SOL    HW228326   0.418   3.090   2.488
 9143SOL     OW28327   0.324   4.026   1.244
 9143SOL    HW128328   0.265   4.103   1.221
 9143SOL    HW228329   0.279   3.968   1.312
 9144SOL     OW28330   2.864   4.808   4.785
 9144SOL    HW128331   2.908   4.788   4.873
 9144SOL    HW228332   2.917   4.879   4.738
 9145SOL     OW28333   1.655   6.489   6.952
 9145SOL    HW128334   1.561   6.456   6.939
 9145SOL    HW228335   1.679   6.549   6.876
 9146SOL     OW28336   5.122   2.881   2.989
 9146SOL    HW128337   5.030   2.860   2.956
 9146SOL    HW228338   5.135   2.980   2.991
 9147SOL     OW28339   6.501   1.275   4.725
 9147SOL    HW128340   6.431   1.211   4.757
 9147SOL    HW228341   6.521   1.340   4.798
 9148SOL     OW28342   5.657   0.201   2.153
 9148SOL    HW128343   5.705   0.232   2.070
 9148SOL    HW228344   5.701   0.117   2.187
 9149SOL     OW28345   5.486   3.104   2.041
 9149SOL    HW128346   5.471   3.101   2.140
 9149SOL    HW228347   5.584   3.110   2.021
 9150SOL     OW28348   3.310   4.517   0.427
 9150SOL    HW128349   3.334   4.425   0.457
 9150SOL    HW228350   3.212   4.521   0.406
 9151SOL     OW28351   2.175   4.152   3.940
 9151SOL    HW128352   2.195   4.130   3.844
 9151SOL    HW228353   2.100   4.094   3.972
 9152SOL     OW28354   1.892   4.332   4.540
 9152SOL    HW128355   1.969   4.270   4.554
 9152SOL    HW228356   1.895   4.370   4.448
 9153SOL     OW28357   0.724   3.590   6.506
 9153SOL    HW128358   0.672   3.565   6.424
 9153SOL    HW228359   0.755   3.507   6.553
 9154SOL     OW28360   4.957   5.053   3.416
 9154SOL    HW128361   4.860   5.032   3.408
 9154SOL    HW228362   5.003   5.032   3.330
 9155SOL     OW28363   2.008   4.465   3.005
 9155SOL    HW128364   2.100   4.432   3.023
 9155SOL    HW228365   1.944   4.424   3.071
 9156SOL     OW28366   6.538   2.946   0.891
 9156SOL    HW128367   6.537   2.898   0.803
 9156SOL    HW228368   6.538   3.045   0.876
 9157SOL     OW28369   3.243   4.279   6.470
 9157SOL    HW128370   3.297   4.359   6.442
 9157SOL    HW228371   3.240   4.274   6.570
 9158SOL     OW28372   6.519   4.718   4.252
 9158SOL    HW128373   6.442   4.655   4.243
 9158SOL    HW228374   6.508   4.772   4.335
 9159SOL     OW28375   2.140   0.061   3.541
 9159SOL    HW128376   2.080   0.122   3.593
 9159SOL    HW228377   2.086   7.015   3.500
 9160SOL     OW28378   0.542   4.913   5.920
 9160SOL    HW128379   0.498   4.825   5.899
 9160SOL    HW228380   0.545   4.925   6.019
 9161SOL     OW28381   6.036   5.130   3.211
 9161SOL    HW128382   6.101   5.206   3.207
 9161SOL    HW228383   5.944   5.166   3.222
 9162SOL     OW28384   3.724   0.866   3.233
 9162SOL    HW128385   3.693   0.828   3.145
 9162SOL    HW228386   3.646   0.910   3.279
 9163SOL     OW28387   6.984   3.057   1.820
 9163SOL    HW128388   0.043   3.108   1.825
 9163SOL    HW228389   6.908   3.118   1.845
 9164SOL     OW28390   1.516   0.731   6.712
 9164SOL    HW128391   1.458   0.658   6.676
 9164SOL    HW228392   1.468   0.780   6.785
 9165SOL     OW28393   5.340   1.842   5.640
 9165SOL    HW128394   5.264   1.789   5.677
 9165SOL    HW228395   5.316   1.938   5.636
 9166SOL     OW28396   3.901   5.513   1.160
 9166SOL    HW128397   3.818   5.497   1.213
 9166SOL    HW228398   3.970   5.445   1.184
 9167SOL     OW28399   0.939   2.353   6.537
 9167SOL    HW128400   0.859   2.321   6.487
 9167SOL    HW228401   0.928   2.450   6.558
 9168SOL     OW28402   6.206   5.607   6.269
 9168SOL    HW128403   6.214   5.516   6.228
 9168SOL    HW228404   6.228   5.677   6.201
 9169SOL     OW28405   6.694   6.107   6.143
 9169SOL    HW128406   6.676   6.167   6.222
 9169SOL    HW228407   6.732   6.020   6.176
 9170SOL     OW28408   1.866   1.403   6.188
 9170SOL    HW128409   1.912   1.490   6.203
 9170SOL    HW228410   1.836   1.397   6.093
 9171SOL     OW28411   2.439   5.386   0.858
 9171SOL    HW128412   2.362   5.450   0.855
 9171SOL    HW228413   2.409   5.300   0.898
 9172SOL     OW28414   4.560   1.900   4.773
 9172SOL    HW128415   4.509   1.971   4.725
 9172SOL    HW228416   4.568   1.819   4.715
 9173SOL     OW28417   0.075   3.262   4.643
 9173SOL    HW128418   0.017   3.220   4.713
 9173SOL    HW228419   0.145   3.318   4.688
 9174SOL     OW28420   0.522   5.964   6.760
 9174SOL    HW128421   0.428   5.995   6.743
 9174SOL    HW228422   0.526   5.865   6.752
 9175SOL     OW28423   1.487   6.064   0.586
 9175SOL    HW128424   1.512   6.087   0.680
 9175SOL    HW228425   1.476   5.965   0.578
 9176SOL     OW28426   2.584   6.997   2.123
 9176SOL    HW128427   2.599   6.898   2.124
 9176SOL    HW228428   2.548   7.026   2.212
 9177SOL     OW28429   1.636   2.523   3.755
 9177SOL    HW128430   1.583   2.586   3.812
 9177SOL    HW228431   1.677   2.452   3.812
 9178SOL     OW28432   2.386   5.619   6.567
 9178SOL    HW128433   2.483   5.642   6.570
 9178SOL    HW228434   2.375   5.528   6.526
 9179SOL     OW28435   2.549   5.844   4.771
 9179SOL    HW128436   2.598   5.830   4.685
 9179SOL    HW228437   2.613   5.878   4.841
 9180SOL     OW28438   6.750   2.082   4.058
 9180SOL    HW128439   6.835   2.034   4.036
 9180SOL    HW228440   6.753   2.174   4.020
 9181SOL     OW28441   4.814   2.789   3.440
 9181SOL    HW128442   4.843   2.760   3.531
 9181SOL    HW228443   4.750   2.722   3.402
 9182SOL     OW28444   2.929   1.085   3.063
 9182SOL    HW128445   2.867   1.138   3.120
 9182SOL    HW228446   2.969   1.011   3.117
 9183SOL     OW28447   4.432   3.989   6.587
 9183SOL    HW128448   4.382   3.924   6.530
 9183SOL    HW228449   4.379   4.074   6.594
 9184SOL     OW28450   3.577   1.992   1.028
 9184SOL    HW128451   3.628   2.071   1.061
 9184SOL    HW228452   3.486   2.021   0.998
 9185SOL     OW28453   0.816   6.878   6.598
 9185SOL    HW128454   0.822   6.935   6.516
 9185SOL    HW228455   0.752   6.802   6.582
 9186SOL     OW28456   4.870   0.604   5.512
 9186SOL    HW128457   4.871   0.504   5.503
 9186SOL    HW228458   4.783   0.632   5.554
 9187SOL     OW28459   4.483   2.038   6.947
 9187SOL    HW128460   4.401   2.054   7.003
 9187SOL    HW228461   4.562   2.023   7.007
 9188SOL     OW28462   1.821   0.849   1.243
 9188SOL    HW128463   1.768   0.866   1.160
 9188SOL    HW228464   1.762   0.856   1.323
 9189SOL     OW28465   3.504   0.813   3.687
 9189SOL    HW128466   3.595   0.854   3.696
 9189SOL    HW228467   3.514   0.716   3.665
 9190SOL     OW28468   6.445   4.049   5.220
 9190SOL    HW128469   6.527   3.993   5.208
 9190SOL    HW228470   6.364   3.994   5.198
 9191SOL     OW28471   5.011   0.112   6.827
 9191SOL    HW128472   5.005   0.167   6.910
 9191SOL    HW228473   4.966   0.160   6.752
 9192SOL     OW28474   6.165   3.761   6.032
 9192SOL    HW128475   6.187   3.702   6.109
 9192SOL    HW228476   6.068   3.751   6.008
 9193SOL     OW28477   3.359   3.778   3.604
 9193SOL    HW128478   3.456   3.798   3.618
 9193SOL    HW228479   3.330   3.815   3.515
 9194SOL     OW28480   3.507   6.023   2.039
 9194SOL    HW128481   3.434   5.955   2.040
 9194SOL    HW228482   3.586   5.989   2.091
 9195SOL     OW28483   1.922   2.830   3.622
 9195SOL    HW128484   1.993   2.774   3.665
 9195SOL    HW228485   1.886   2.783   3.542
 9196SOL     OW28486   4.878   0.522   3.999
 9196SOL    HW128487   4.882   0.464   3.918
 9196SOL    HW228488   4.898   0.467   4.080
 9197SOL     OW28489   2.817   3.466   0.895
 9197SOL    HW128490   2.913   3.492   0.905
 9197SOL    HW228491   2.798   3.444   0.799
 9198SOL     OW28492   5.694   3.971   6.185
 9198SOL    HW128493   5.746   4.031   6.124
 9198SOL    HW228494   5.661   4.023   6.263
 9199SOL     OW28495   1.125   3.324   6.415
 9199SOL    HW128496   1.109   3.410   6.463
 9199SOL    HW228497   1.207   3.280   6.452
 9200SOL     OW28498   1.291   6.169   6.863
 9200SOL    HW128499   1.322   6.077   6.890
 9200SOL    HW228500   1.192   6.171   6.859
 9201SOL     OW28501   0.797   4.218   1.227
 9201SOL    HW128502   0.856   4.166   1.289
 9201SOL    HW228503   0.819   4.193   1.132
 9202SOL     OW28504   2.289   5.480   4.606
 9202SOL    HW128505   2.294   5.568   4.653
 9202SOL    HW228506   2.361   5.419   4.641
 9203SOL     OW28507   4.884   2.196   6.484
 9203SOL    HW128508   4.932   2.252   6.417
 9203SOL    HW228509   4.797   2.238   6.508
 9204SOL     OW28510   5.693   3.837   3.371
 9204SOL    HW128511   5.710   3.831   3.469
 9204SOL    HW228512   5.606   3.792   3.349
 9205SOL     OW28513   4.962   3.198   2.301
 9205SOL    HW128514   4.989   3.272   2.239
 9205SOL    HW228515   5.043   3.158   2.343
 9206SOL     OW28516   3.110   0.558   5.045
 9206SOL    HW128517   3.058   0.599   4.970
 9206SOL    HW228518   3.180   0.497   5.008
 9207SOL     OW28519   3.559   6.241   6.075
 9207SOL    HW128520   3.475   6.249   6.021
 9207SOL    HW228521   3.608   6.158   6.048
 9208SOL     OW28522   5.091   3.382   2.117
 9208SOL    HW128523   5.050   3.409   2.030
 9208SOL    HW228524   5.190   3.375   2.107
 9209SOL     OW28525   4.051   0.890   1.946
 9209SOL    HW128526   4.080   0.966   2.004
 9209SOL    HW228527   4.077   0.804   1.989
 9210SOL     OW28528   2.007   0.214   1.461
 9210SOL    HW128529   2.010   0.225   1.561
 9210SOL    HW228530   2.101   0.215   1.425
 9211SOL     OW28531   5.064   1.713   6.521
 9211SOL    HW128532   5.036   1.804   6.553
 9211SOL    HW228533   5.158   1.718   6.485
 9212SOL     OW28534   4.677   4.273   4.943
 9212SOL    HW128535   4.723   4.360   4.928
 9212SOL    HW228536   4.593   4.269   4.888
 9213SOL     OW28537   5.719   6.743   4.356
 9213SOL    HW128538   5.805   6.792   4.373
 9213SOL    HW228539   5.721   6.703   4.264
 9214SOL     OW28540   1.131   2.484   5.105
 9214SOL    HW128541   1.053   2.422   5.109
 9214SOL    HW228542   1.152   2.506   5.010
 9215SOL     OW28543   0.088   4.107   2.288
 9215SOL    HW128544   0.172   4.059   2.264
 9215SOL    HW228545   0.095   4.143   2.381
 9216SOL     OW28546   2.498   6.415   4.718
 9216SOL    HW128547   2.443   6.360   4.654
 9216SOL    HW228548   2.563   6.470   4.666
 9217SOL     OW28549   5.540   1.462   6.658
 9217SOL    HW128550   5.466   1.415   6.706
 9217SOL    HW228551   5.580   1.530   6.719
 9218SOL     OW28552   4.174   0.168   6.572
 9218SOL    HW128553   4.256   0.124   6.606
 9218SOL    HW228554   4.169   0.159   6.473
 9219SOL     OW28555   4.021   2.952   5.366
 9219SOL    HW128556   3.921   2.947   5.356
 9219SOL    HW228557   4.055   3.034   5.320
 9220SOL     OW28558   2.121   5.947   2.781
 9220SOL    HW128559   2.186   6.013   2.743
 9220SOL    HW228560   2.048   5.996   2.829
 9221SOL     OW28561   2.243   0.652   5.738
 9221SOL    HW128562   2.152   0.615   5.756
 9221SOL    HW228563   2.310   0.604   5.795
 9222SOL     OW28564   2.560   4.507   4.105
 9222SOL    HW128565   2.574   4.504   4.204
 9222SOL    HW228566   2.503   4.430   4.076
 9223SOL     OW28567   0.934   2.996   3.971
 9223SOL    HW128568   0.847   3.009   3.922
 9223SOL    HW228569   0.933   3.050   4.055
 9224SOL     OW28570   1.234   3.239   3.827
 9224SOL    HW128571   1.231   3.336   3.852
 9224SOL    HW228572   1.174   3.187   3.888
 9225SOL     OW28573   3.564   6.929   6.103
 9225SOL    HW128574   3.595   6.998   6.037
 9225SOL    HW228575   3.557   6.840   6.058
 9226SOL     OW28576   1.224   0.355   1.728
 9226SOL    HW128577   1.148   0.418   1.748
 9226SOL    HW228578   1.190   0.261   1.730
 9227SOL     OW28579   1.337   4.973   1.240
 9227SOL    HW128580   1.406   4.930   1.299
 9227SOL    HW228581   1.359   5.071   1.231
 9228SOL     OW28582   2.216   2.448   6.171
 9228SOL    HW128583   2.130   2.471   6.125
 9228SOL    HW228584   2.288   2.436   6.103
 9229SOL     OW28585   1.229   5.067   6.785
 9229SOL    HW128586   1.203   5.010   6.707
 9229SOL    HW228587   1.173   5.150   6.785
 9230SOL     OW28588   4.796   2.876   3.803
 9230SOL    HW128589   4.844   2.795   3.770
 9230SOL    HW228590   4.822   2.894   3.898
 9231SOL     OW28591   0.592   5.223   5.862
 9231SOL    HW128592   0.536   5.282   5.803
 9231SOL    HW228593   0.570   5.243   5.958
 9232SOL     OW28594   1.610   4.764   0.920
 9232SOL    HW128595   1.646   4.851   0.953
 9232SOL    HW228596   1.578   4.774   0.826
 9233SOL     OW28597   1.203   6.642   1.127
 9233SOL    HW128598   1.239   6.595   1.046
 9233SOL    HW228599   1.146   6.579   1.179
 9234SOL     OW28600   2.290   5.304   1.145
 9234SOL    HW128601   2.234   5.317   1.227
 9234SOL    HW228602   2.353   5.228   1.160
 9235SOL     OW28603   2.420   1.920   3.793
 9235SOL    HW128604   2.407   1.920   3.892
 9235SOL    HW228605   2.393   2.009   3.756
 9236SOL     OW28606   2.398   3.232   6.729
 9236SOL    HW128607   2.346   3.317   6.738
 9236SOL    HW228608   2.471   3.246   6.661
 9237SOL     OW28609   6.948   6.056   2.922
 9237SOL    HW128610   6.994   6.144   2.935
 9237SOL    HW228611   6.996   5.986   2.975
 9238SOL     OW28612   2.602   2.675   6.095
 9238SOL    HW128613   2.614   2.638   6.002
 9238SOL    HW228614   2.580   2.600   6.157
 9239SOL     OW28615   0.001   4.479   6.483
 9239SOL    HW128616   6.986   4.570   6.480
 9239SOL    HW228617   6.955   4.409   6.478
 9240SOL     OW28618   5.438   3.133   2.890
 9240SOL    HW128619   5.480   3.095   2.808
 9240SOL    HW228620   5.431   3.062   2.960
 9241SOL     OW28621   6.884   5.904   0.249
 9241SOL    HW128622   6.920   5.947   0.166
 9241SOL    HW228623   6.818   5.965   0.292
 9242SOL     OW28624   2.037   2.036   1.938
 9242SOL    HW128625   2.090   1.990   1.867
 9242SOL    HW228626   1.984   2.110   1.896
 9243SOL     OW28627   1.528   0.615   2.049
 9243SOL    HW128628   1.500   0.683   2.117
 9243SOL    HW228629   1.469   0.535   2.055
 9244SOL     OW28630   2.950   6.391   6.222
 9244SOL    HW128631   2.902   6.309   6.253
 9244SOL    HW228632   2.945   6.461   6.294
 9245SOL     OW28633   1.126   4.151   3.536
 9245SOL    HW128634   1.156   4.058   3.557
 9245SOL    HW228635   1.047   4.148   3.474
 9246SOL     OW28636   5.943   0.611   4.352
 9246SOL    HW128637   5.904   0.590   4.263
 9246SOL    HW228638   6.036   0.647   4.340
 9247SOL     OW28639   3.966   5.234   3.163
 9247SOL    HW128640   3.867   5.227   3.173
 9247SOL    HW228641   3.994   5.194   3.076
 9248SOL     OW28642   2.972   1.611   5.191
 9248SOL    HW128643   2.941   1.698   5.228
 9248SOL    HW228644   3.001   1.623   5.096
 9249SOL     OW28645   3.948   5.045   1.644
 9249SOL    HW128646   4.016   5.093   1.700
 9249SOL    HW228647   3.959   4.947   1.655
 9250SOL     OW28648   6.748   3.763   4.040
 9250SOL    HW128649   6.814   3.747   4.114
 9250SOL    HW228650   6.793   3.750   3.952
 9251SOL     OW28651   4.097   2.646   1.659
 9251SOL    HW128652   4.191   2.657   1.626
 9251SOL    HW228653   4.073   2.724   1.717
 9252SOL     OW28654   5.161   0.700   5.186
 9252SOL    HW128655   5.116   0.789   5.175
 9252SOL    HW228656   5.204   0.673   5.099
 9253SOL     OW28657   5.615   4.692   5.458
 9253SOL    HW128658   5.638   4.614   5.517
 9253SOL    HW228659   5.542   4.745   5.501
 9254SOL     OW28660   5.333   4.272   2.432
 9254SOL    HW128661   5.425   4.250   2.465
 9254SOL    HW228662   5.328   4.368   2.406
 9255SOL     OW28663   5.827   3.475   6.588
 9255SOL    HW128664   5.914   3.438   6.622
 9255SOL    HW228665   5.812   3.446   6.494
 9256SOL     OW28666   2.215   0.016   1.823
 9256SOL    HW128667   2.140   0.074   1.855
 9256SOL    HW228668   2.263   7.004   1.902
 9257SOL     OW28669   6.055   5.909   3.281
 9257SOL    HW128670   6.079   5.812   3.281
 9257SOL    HW228671   6.000   5.929   3.362
 9258SOL     OW28672   3.467   3.431   0.713
 9258SOL    HW128673   3.440   3.376   0.792
 9258SOL    HW228674   3.462   3.528   0.736
 9259SOL     OW28675   1.815   1.513   0.145
 9259SOL    HW128676   1.865   1.470   0.070
 9259SOL    HW228677   1.865   1.592   0.178
 9260SOL     OW28678   6.928   2.804   6.279
 9260SOL    HW128679   6.839   2.763   6.300
 9260SOL    HW228680   6.969   2.757   6.201
 9261SOL     OW28681   4.558   1.159   6.921
 9261SOL    HW128682   4.629   1.164   6.991
 9261SOL    HW228683   4.494   1.235   6.933
 9262SOL     OW28684   0.844   6.961   5.090
 9262SOL    HW128685   0.897   6.879   5.110
 9262SOL    HW228686   0.904   0.015   5.092
 9263SOL     OW28687   3.282   5.752   3.083
 9263SOL    HW128688   3.183   5.753   3.069
 9263SOL    HW228689   3.304   5.684   3.153
 9264SOL     OW28690   4.769   3.689   6.359
 9264SOL    HW128691   4.831   3.611   6.362
 9264SOL    HW228692   4.794   3.754   6.431
 9265SOL     OW28693   4.083   2.054   6.553
 9265SOL    HW128694   4.123   2.064   6.462
 9265SOL    HW228695   4.051   2.144   6.585
 9266SOL     OW28696   0.376   5.649   1.307
 9266SOL    HW128697   0.282   5.625   1.287
 9266SOL    HW228698   0.428   5.567   1.332
 9267SOL     OW28699   0.949   1.603   4.187
 9267SOL    HW128700   0.927   1.595   4.284
 9267SOL    HW228701   1.009   1.528   4.160
 9268SOL     OW28702   0.925   6.491   2.472
 9268SOL    HW128703   0.840   6.524   2.513
 9268SOL    HW228704   0.989   6.566   2.464
 9269SOL     OW28705   4.285   0.521   6.425
 9269SOL    HW128706   4.353   0.448   6.423
 9269SOL    HW228707   4.247   0.535   6.334
 9270SOL     OW28708   3.423   0.896   5.602
 9270SOL    HW128709   3.430   0.989   5.566
 9270SOL    HW228710   3.342   0.851   5.563
 9271SOL     OW28711   0.388   6.941   0.630
 9271SOL    HW128712   0.331   6.930   0.548
 9271SOL    HW228713   0.395   0.012   0.653
 9272SOL     OW28714   0.884   6.470   6.847
 9272SOL    HW128715   0.791   6.454   6.816
 9272SOL    HW228716   0.941   6.391   6.827
 9273SOL     OW28717   5.117   6.285   3.533
 9273SOL    HW128718   5.060   6.312   3.611
 9273SOL    HW228719   5.066   6.223   3.474
 9274SOL     OW28720   0.046   2.233   0.182
 9274SOL    HW128721   0.029   2.143   0.141
 9274SOL    HW228722   0.100   2.289   0.118
 9275SOL     OW28723   0.229   6.604   0.124
 9275SOL    HW128724   0.251   6.514   0.085
 9275SOL    HW228725   0.281   6.675   0.076
 9276SOL     OW28726   2.643   4.269   6.868
 9276SOL    HW128727   2.621   4.237   6.776
 9276SOL    HW228728   2.741   4.289   6.873
 9277SOL     OW28729   3.923   4.901   3.388
 9277SOL    HW128730   4.000   4.854   3.433
 9277SOL    HW228731   3.864   4.941   3.458
 9278SOL     OW28732   0.226   0.594   5.536
 9278SOL    HW128733   0.153   0.662   5.549
 9278SOL    HW228734   0.193   0.504   5.563
 9279SOL     OW28735   3.103   6.313   1.735
 9279SOL    HW128736   3.075   6.355   1.649
 9279SOL    HW228737   3.196   6.278   1.726
 9280SOL     OW28738   2.230   2.501   2.426
 9280SOL    HW128739   2.211   2.598   2.443
 9280SOL    HW228740   2.305   2.493   2.359
 9281SOL     OW28741   3.416   3.814   5.808
 9281SOL    HW128742   3.510   3.781   5.812
 9281SOL    HW228743   3.377   3.813   5.901
 9282SOL     OW28744   4.763   1.444   4.357
 9282SOL    HW128745   4.687   1.433   4.293
 9282SOL    HW228746   4.749   1.384   4.436
 9283SOL     OW28747   5.284   0.416   6.075
 9283SOL    HW128748   5.330   0.404   6.164
 9283SOL    HW228749   5.305   0.507   6.039
 9284SOL     OW28750   2.949   3.788   4.911
 9284SOL    HW128751   2.885   3.860   4.939
 9284SOL    HW228752   2.897   3.705   4.889
 9285SOL     OW28753   5.269   3.220   1.144
 9285SOL    HW128754   5.191   3.282   1.134
 9285SOL    HW228755   5.337   3.263   1.204
 9286SOL     OW28756   4.931   5.621   0.118
 9286SOL    HW128757   4.954   5.674   0.199
 9286SOL    HW228758   5.002   5.553   0.101
 9287SOL     OW28759   2.826   4.082   5.590
 9287SOL    HW128760   2.890   4.159   5.582
 9287SOL    HW228761   2.809   4.043   5.500
 9288SOL     OW28762   4.758   2.353   3.138
 9288SOL    HW128763   4.765   2.283   3.210
 9288SOL    HW228764   4.695   2.424   3.169
 9289SOL     OW28765   4.503   0.604   6.588
 9289SOL    HW128766   4.431   0.548   6.547
 9289SOL    HW228767   4.592   0.574   6.554
 9290SOL     OW28768   6.346   0.724   4.139
 9290SOL    HW128769   6.362   0.637   4.092
 9290SOL    HW228770   6.357   0.799   4.074
 9291SOL     OW28771   1.344   6.175   6.020
 9291SOL    HW128772   1.254   6.147   6.054
 9291SOL    HW228773   1.408   6.180   6.097
 9292SOL     OW28774   1.549   1.079   6.869
 9292SOL    HW128775   1.498   1.081   6.783
 9292SOL    HW228776   1.522   0.999   6.922
 9293SOL     OW28777   5.264   2.758   6.970
 9293SOL    HW128778   5.307   2.715   0.023
 9293SOL    HW228779   5.294   2.712   6.887
 9294SOL     OW28780   4.774   1.065   0.146
 9294SOL    HW128781   4.822   0.980   0.128
 9294SOL    HW228782   4.837   1.142   0.137
 9295SOL     OW28783   0.059   0.837   5.594
 9295SOL    HW128784   0.123   0.903   5.555
 9295SOL    HW228785   6.999   0.882   5.614
 9296SOL     OW28786   2.073   3.795   0.997
 9296SOL    HW128787   2.121   3.876   1.030
 9296SOL    HW228788   2.137   3.718   0.993
 9297SOL     OW28789   0.573   6.218   2.814
 9297SOL    HW128790   0.620   6.131   2.806
 9297SOL    HW228791   0.552   6.254   2.723
 9298SOL     OW28792   1.042   6.921   6.046
 9298SOL    HW128793   1.135   6.952   6.064
 9298SOL    HW228794   0.986   6.938   6.127
 9299SOL     OW28795   1.689   1.072   3.579
 9299SOL    HW128796   1.705   1.169   3.562
 9299SOL    HW228797   1.776   1.022   3.572
 9300SOL     OW28798   0.230   5.512   5.106
 9300SOL    HW128799   0.233   5.555   5.196
 9300SOL    HW228800   0.144   5.462   5.096
 9301SOL     OW28801   0.217   4.569   5.045
 9301SOL    HW128802   0.250   4.607   4.959
 9301SOL    HW228803   0.123   4.538   5.033
 9302SOL     OW28804   2.204   2.922   4.513
 9302SOL    HW128805   2.204   2.989   4.587
 9302SOL    HW228806   2.262   2.845   4.537
 9303SOL     OW28807   3.191   4.854   0.490
 9303SOL    HW128808   3.169   4.812   0.402
 9303SOL    HW228809   3.133   4.935   0.504
 9304SOL     OW28810   4.657   5.268   0.364
 9304SOL    HW128811   4.561   5.241   0.372
 9304SOL    HW228812   4.671   5.358   0.405
 9305SOL     OW28813   3.657   1.324   0.362
 9305SOL    HW128814   3.659   1.224   0.373
 9305SOL    HW228815   3.589   1.363   0.423
 9306SOL     OW28816   0.055   3.782   4.903
 9306SOL    HW128817   6.985   3.810   4.911
 9306SOL    HW228818   0.095   3.826   4.823
 9307SOL     OW28819   1.636   3.962   0.527
 9307SOL    HW128820   1.564   4.025   0.555
 9307SOL    HW228821   1.673   3.915   0.607
 9308SOL     OW28822   0.831   4.710   1.435
 9308SOL    HW128823   0.885   4.661   1.367
 9308SOL    HW228824   0.743   4.664   1.447
 9309SOL     OW28825   4.029   6.578   6.387
 9309SOL    HW128826   3.934   6.580   6.418
 9309SOL    HW228827   4.086   6.533   6.455
 9310SOL     OW28828   5.254   5.966   5.726
 9310SOL    HW128829   5.274   6.037   5.659
 9310SOL    HW228830   5.328   5.898   5.727
 9311SOL     OW28831   4.724   4.424   1.208
 9311SOL    HW128832   4.771   4.464   1.128
 9311SOL    HW228833   4.787   4.424   1.286
 9312SOL     OW28834   1.959   2.022   1.304
 9312SOL    HW128835   1.975   2.116   1.335
 9312SOL    HW228836   1.866   2.014   1.269
 9313SOL     OW28837   0.645   0.929   1.793
 9313SOL    HW128838   0.729   0.971   1.760
 9313SOL    HW228839   0.666   0.843   1.841
 9314SOL     OW28840   6.048   3.558   0.583
 9314SOL    HW128841   6.047   3.488   0.512
 9314SOL    HW228842   6.034   3.514   0.672
 9315SOL     OW28843   6.355   0.928   6.227
 9315SOL    HW128844   6.284   0.987   6.187
 9315SOL    HW228845   6.406   0.884   6.153
 9316SOL     OW28846   6.049   0.219   4.791
 9316SOL    HW128847   6.049   0.307   4.839
 9316SOL    HW228848   6.134   0.171   4.809
 9317SOL     OW28849   3.720   5.408   3.354
 9317SOL    HW128850   3.809   5.418   3.398
 9317SOL    HW228851   3.717   5.322   3.305
 9318SOL     OW28852   4.332   5.882   0.330
 9318SOL    HW128853   4.251   5.891   0.271
 9318SOL    HW228854   4.303   5.881   0.425
 9319SOL     OW28855   2.370   2.835   0.524
 9319SOL    HW128856   2.410   2.768   0.461
 9319SOL    HW228857   2.438   2.859   0.594
 9320SOL     OW28858   4.274   0.031   5.829
 9320SOL    HW128859   4.312   0.057   5.740
 9320SOL    HW228860   4.192   0.085   5.848
 9321SOL     OW28861   0.976   2.034   5.530
 9321SOL    HW128862   0.883   1.996   5.529
 9321SOL    HW228863   1.042   1.960   5.545
 9322SOL     OW28864   6.413   4.772   5.840
 9322SOL    HW128865   6.492   4.726   5.801
 9322SOL    HW228866   6.330   4.721   5.817
 9323SOL     OW28867   2.131   2.521   4.702
 9323SOL    HW128868   2.183   2.586   4.646
 9323SOL    HW228869   2.037   2.515   4.668
 9324SOL     OW28870   1.911   3.691   1.192
 9324SOL    HW128871   1.983   3.706   1.124
 9324SOL    HW228872   1.851   3.617   1.161
 9325SOL     OW28873   1.025   6.187   1.650
 9325SOL    HW128874   1.035   6.270   1.596
 9325SOL    HW228875   0.995   6.112   1.591
 9326SOL     OW28876   3.254   5.445   0.274
 9326SOL    HW128877   3.259   5.540   0.305
 9326SOL    HW228878   3.344   5.417   0.239
 9327SOL     OW28879   4.610   0.203   2.860
 9327SOL    HW128880   4.560   0.277   2.904
 9327SOL    HW228881   4.706   0.207   2.887
 9328SOL     OW28882   2.370   6.761   4.649
 9328SOL    HW128883   2.295   6.816   4.684
 9328SOL    HW228884   2.417   6.716   4.725
 9329SOL     OW28885   6.901   5.473   0.057
 9329SOL    HW128886   6.925   5.430   6.996
 9329SOL    HW228887   6.867   5.404   0.120
 9330SOL     OW28888   0.637   0.215   6.518
 9330SOL    HW128889   0.650   0.270   6.601
 9330SOL    HW228890   0.542   0.182   6.515
 9331SOL     OW28891   1.829   2.700   5.673
 9331SOL    HW128892   1.772   2.658   5.744
 9331SOL    HW228893   1.809   2.658   5.585
 9332SOL     OW28894   4.406   5.255   0.502
 9332SOL    HW128895   4.359   5.341   0.483
 9332SOL    HW228896   4.369   5.214   0.585
 9333SOL     OW28897   3.973   5.667   0.688
 9333SOL    HW128898   4.059   5.616   0.681
 9333SOL    HW228899   3.918   5.629   0.762
 9334SOL     OW28900   5.561   0.446   4.138
 9334SOL    HW128901   5.610   0.379   4.194
 9334SOL    HW228902   5.478   0.404   4.102
 9335SOL     OW28903   1.724   2.303   0.649
 9335SOL    HW128904   1.788   2.378   0.666
 9335SOL    HW228905   1.684   2.314   0.558
 9336SOL     OW28906   5.694   7.020   4.198
 9336SOL    HW128907   5.658   6.980   4.114
 9336SOL    HW228908   5.741   6.949   4.251
 9337SOL     OW28909   4.826   0.779   0.107
 9337SOL    HW128910   4.764   0.777   0.028
 9337SOL    HW228911   4.792   0.717   0.177
 9338SOL     OW28912   6.903   5.755   0.471
 9338SOL    HW128913   6.914   5.658   0.450
 9338SOL    HW228914   6.911   5.808   0.387
 9339SOL     OW28915   5.934   5.844   0.406
 9339SOL    HW128916   5.867   5.874   0.474
 9339SOL    HW228917   5.933   5.907   0.328
 9340SOL     OW28918   4.041   5.033   2.961
 9340SOL    HW128919   3.969   5.025   2.892
 9340SOL    HW228920   4.033   4.958   3.026
 9341SOL     OW28921   6.834   4.256   6.549
 9341SOL    HW128922   6.825   4.230   6.645
 9341SOL    HW228923   6.844   4.174   6.492
 9342SOL     OW28924   2.922   0.563   4.829
 9342SOL    HW128925   3.012   0.548   4.789
 9342SOL    HW228926   2.851   0.526   4.768
 9343SOL     OW28927   5.030   3.505   1.875
 9343SOL    HW128928   5.002   3.585   1.929
 9343SOL    HW228929   5.038   3.532   1.779
 9344SOL     OW28930   5.019   5.568   6.327
 9344SOL    HW128931   5.060   5.490   6.374
 9344SOL    HW228932   5.004   5.545   6.231
 9345SOL     OW28933   6.056   5.349   6.684
 9345SOL    HW128934   6.007   5.391   6.761
 9345SOL    HW228935   6.153   5.373   6.689
 9346SOL     OW28936   4.780   5.994   2.413
 9346SOL    HW128937   4.862   6.016   2.361
 9346SOL    HW228938   4.712   5.952   2.352
 9347SOL     OW28939   3.795   5.835   0.547
 9347SOL    HW128940   3.836   5.864   0.460
 9347SOL    HW228941   3.855   5.768   0.591
 9348SOL     OW28942   2.700   5.510   3.143
 9348SOL    HW128943   2.672   5.563   3.063
 9348SOL    HW228944   2.640   5.530   3.220
 9349SOL     OW28945   6.229   5.793   2.097
 9349SOL    HW128946   6.300   5.841   2.045
 9349SOL    HW228947   6.144   5.846   2.095
 9350SOL     OW28948   6.874   1.500   4.154
 9350SOL    HW128949   6.929   1.528   4.076
 9350SOL    HW228950   6.934   1.476   4.231
 9351SOL     OW28951   2.523   0.672   6.247
 9351SOL    HW128952   2.427   0.661   6.218
 9351SOL    HW228953   2.555   0.587   6.290
 9352SOL     OW28954   1.896   3.151   5.949
 9352SOL    HW128955   1.846   3.069   5.922
 9352SOL    HW228956   1.835   3.214   5.996
 9353SOL     OW28957   1.504   4.218   1.921
 9353SOL    HW128958   1.417   4.263   1.941
 9353SOL    HW228959   1.519   4.143   1.985
 9354SOL     OW28960   5.921   1.516   0.890
 9354SOL    HW128961   5.907   1.417   0.888
 9354SOL    HW228962   5.911   1.553   0.798
 9355SOL     OW28963   6.387   0.990   4.032
 9355SOL    HW128964   6.364   1.031   4.121
 9355SOL    HW228965   6.452   1.049   3.984
 9356SOL     OW28966   4.830   5.283   2.184
 9356SOL    HW128967   4.829   5.383   2.187
 9356SOL    HW228968   4.764   5.247   2.250
 9357SOL     OW28969   2.322   4.321   6.898
 9357SOL    HW128970   2.351   4.391   6.963
 9357SOL    HW228971   2.265   4.253   6.946
 9358SOL     OW28972   5.777   3.139   1.576
 9358SOL    HW128973   5.863   3.146   1.628
 9358SOL    HW228974   5.788   3.185   1.488
 9359SOL     OW28975   0.336   3.662   5.424
 9359SOL    HW128976   0.394   3.676   5.343
 9359SOL    HW228977   0.263   3.730   5.425
 9360SOL     OW28978   0.920   0.323   5.841
 9360SOL    HW128979   0.989   0.338   5.769
 9360SOL    HW228980   0.906   0.225   5.852
 9361SOL     OW28981   2.410   6.639   3.433
 9361SOL    HW128982   2.347   6.716   3.424
 9361SOL    HW228983   2.366   6.555   3.402
 9362SOL     OW28984   1.482   1.264   1.741
 9362SOL    HW128985   1.504   1.300   1.831
 9362SOL    HW228986   1.386   1.237   1.739
 9363SOL     OW28987   4.122   5.369   2.015
 9363SOL    HW128988   4.078   5.359   2.105
 9363SOL    HW228989   4.125   5.466   1.991
 9364SOL     OW28990   4.138   3.570   5.973
 9364SOL    HW128991   4.222   3.519   5.991
 9364SOL    HW228992   4.104   3.609   6.059
 9365SOL     OW28993   2.724   1.587   4.966
 9365SOL    HW128994   2.768   1.543   4.888
 9365SOL    HW228995   2.773   1.564   5.050
 9366SOL     OW28996   3.157   1.652   6.760
 9366SOL    HW128997   3.243   1.678   6.803
 9366SOL    HW228998   3.085   1.716   6.787
 9367SOL     OW28999   0.233   6.109   3.559
 9367SOL    HW129000   0.315   6.132   3.612
 9367SOL    HW229001   0.257   6.043   3.488
 9368SOL     OW29002   3.183   1.850   3.459
 9368SOL    HW129003   3.127   1.926   3.493
 9368SOL    HW229004   3.249   1.884   3.393
 9369SOL     OW29005   0.741   0.763   5.969
 9369SOL    HW129006   0.753   0.695   5.898
 9369SOL    HW229007   0.757   0.721   6.059
 9370SOL     OW29008   5.154   0.561   2.495
 9370SOL    HW129009   5.207   0.480   2.515
 9370SOL    HW229010   5.197   0.641   2.537
 9371SOL     OW29011   2.242   4.742   0.130
 9371SOL    HW129012   2.275   4.762   0.222
 9371SOL    HW229013   2.152   4.699   0.135
 9372SOL     OW29014   5.664   5.879   3.170
 9372SOL    HW129015   5.625   5.791   3.197
 9372SOL    HW229016   5.737   5.905   3.233
 9373SOL     OW29017   4.585   2.139   2.529
 9373SOL    HW129018   4.651   2.183   2.590
 9373SOL    HW229019   4.511   2.204   2.508
 9374SOL     OW29020   6.597   3.038   6.720
 9374SOL    HW129021   6.536   2.988   6.659
 9374SOL    HW229022   6.548   3.113   6.763
 9375SOL     OW29023   6.797   2.244   3.299
 9375SOL    HW129024   6.766   2.161   3.344
 9375SOL    HW229025   6.855   2.220   3.221
 9376SOL     OW29026   2.670   3.719   1.222
 9376SOL    HW129027   2.667   3.620   1.238
 9376SOL    HW229028   2.692   3.736   1.125
 9377SOL     OW29029   1.454   5.961   3.691
 9377SOL    HW129030   1.408   5.979   3.779
 9377SOL    HW229031   1.476   5.864   3.684
 9378SOL     OW29032   0.737   0.156   5.367
 9378SOL    HW129033   0.713   0.113   5.454
 9378SOL    HW229034   0.821   0.210   5.378
 9379SOL     OW29035   4.524   5.005   5.246
 9379SOL    HW129036   4.568   4.977   5.161
 9379SOL    HW229037   4.572   5.085   5.284
 9380SOL     OW29038   6.348   4.834   4.839
 9380SOL    HW129039   6.370   4.776   4.917
 9380SOL    HW229040   6.260   4.879   4.854
 9381SOL     OW29041   1.975   3.427   5.917
 9381SOL    HW129042   2.019   3.421   5.827
 9381SOL    HW229043   1.957   3.335   5.951
 9382SOL     OW29044   3.522   1.517   3.456
 9382SOL    HW129045   3.507   1.596   3.397
 9382SOL    HW229046   3.434   1.473   3.475
 9383SOL     OW29047   2.459   6.035   4.590
 9383SOL    HW129048   2.461   5.939   4.562
 9383SOL    HW229049   2.453   6.040   4.689
 9384SOL     OW29050   3.533   5.989   1.567
 9384SOL    HW129051   3.534   6.083   1.532
 9384SOL    HW229052   3.569   5.927   1.497
 9385SOL     OW29053   4.600   1.189   2.423
 9385SOL    HW129054   4.549   1.187   2.509
 9385SOL    HW229055   4.572   1.111   2.366
 9386SOL     OW29056   1.986   6.500   5.076
 9386SOL    HW129057   1.890   6.469   5.075
 9386SOL    HW229058   2.025   6.485   5.167
 9387SOL     OW29059   3.236   0.838   6.853
 9387SOL    HW129060   3.280   0.899   6.788
 9387SOL    HW229061   3.165   0.785   6.806
 9388SOL     OW29062   2.035   5.489   2.610
 9388SOL    HW129063   2.000   5.430   2.537
 9388SOL    HW229064   1.977   5.479   2.691
 9389SOL     OW29065   2.079   0.298   4.987
 9389SOL    HW129066   2.018   0.308   4.908
 9389SOL    HW229067   2.028   0.259   5.063
 9390SOL     OW29068   3.839   5.666   4.893
 9390SOL    HW129069   3.924   5.719   4.889
 9390SOL    HW229070   3.797   5.663   4.803
 9391SOL     OW29071   2.374   0.594   4.905
 9391SOL    HW129072   2.431   0.665   4.946
 9391SOL    HW229073   2.377   0.512   4.963
 9392SOL     OW29074   0.033   0.473   5.207
 9392SOL    HW129075   0.011   0.555   5.260
 9392SOL    HW229076   7.001   0.469   5.127
 9393SOL     OW29077   3.051   0.733   5.335
 9393SOL    HW129078   3.003   0.798   5.276
 9393SOL    HW229079   3.049   0.643   5.294
 9394SOL     OW29080   6.394   1.679   2.240
 9394SOL    HW129081   6.299   1.683   2.210
 9394SOL    HW229082   6.432   1.589   2.219
 9395SOL     OW29083   2.438   2.401   0.329
 9395SOL    HW129084   2.378   2.474   0.361
 9395SOL    HW229085   2.529   2.438   0.310
 9396SOL     OW29086   0.956   5.258   3.166
 9396SOL    HW129087   1.047   5.284   3.134
 9396SOL    HW229088   0.942   5.293   3.259
 9397SOL     OW29089   2.986   0.408   0.963
 9397SOL    HW129090   3.009   0.504   0.948
 9397SOL    HW229091   2.976   0.363   0.874
 9398SOL     OW29092   1.731   0.472   5.602
 9398SOL    HW129093   1.786   0.416   5.540
 9398SOL    HW229094   1.764   0.566   5.601
 9399SOL     OW29095   0.633   1.748   0.027
 9399SOL    HW129096   0.665   1.724   6.962
 9399SOL    HW229097   0.616   1.847   0.032
 9400SOL     OW29098   4.902   2.403   1.362
 9400SOL    HW129099   4.919   2.422   1.265
 9400SOL    HW229100   4.990   2.392   1.409
 9401SOL     OW29101   4.396   6.697   3.159
 9401SOL    HW129102   4.366   6.777   3.211
 9401SOL    HW229103   4.340   6.618   3.185
 9402SOL     OW29104   1.046   4.899   4.244
 9402SOL    HW129105   1.108   4.893   4.323
 9402SOL    HW229106   1.077   4.972   4.184
 9403SOL     OW29107   5.748   1.336   3.266
 9403SOL    HW129108   5.679   1.334   3.339
 9403SOL    HW229109   5.839   1.338   3.307
 9404SOL     OW29110   0.469   3.084   6.228
 9404SOL    HW129111   0.431   2.992   6.218
 9404SOL    HW229112   0.517   3.090   6.316
 9405SOL     OW29113   0.129   6.055   2.359
 9405SOL    HW129114   0.179   6.131   2.316
 9405SOL    HW229115   0.096   5.993   2.288
 9406SOL     OW29116   6.922   3.031   6.106
 9406SOL    HW129117   6.922   2.947   6.161
 9406SOL    HW229118   7.008   3.079   6.118
 9407SOL     OW29119   2.459   5.098   3.512
 9407SOL    HW129120   2.441   5.177   3.453
 9407SOL    HW229121   2.539   5.116   3.568
 9408SOL     OW29122   3.735   1.671   6.143
 9408SOL    HW129123   3.829   1.638   6.157
 9408SOL    HW229124   3.733   1.770   6.155
 9409SOL     OW29125   5.859   4.347   6.273
 9409SOL    HW129126   5.769   4.386   6.290
 9409SOL    HW229127   5.851   4.272   6.207
 9410SOL     OW29128   3.129   6.110   2.039
 9410SOL    HW129129   3.194   6.181   2.064
 9410SOL    HW229130   3.107   6.117   1.942
 9411SOL     OW29131   4.201   3.932   1.378
 9411SOL    HW129132   4.202   3.923   1.278
 9411SOL    HW229133   4.107   3.942   1.409
 9412SOL     OW29134   0.431   3.091   1.811
 9412SOL    HW129135   0.431   3.012   1.750
 9412SOL    HW229136   0.417   3.060   1.905
 9413SOL     OW29137   3.762   5.905   4.149
 9413SOL    HW129138   3.696   5.850   4.098
 9413SOL    HW229139   3.849   5.855   4.156
 9414SOL     OW29140   3.402   0.707   3.967
 9414SOL    HW129141   3.304   0.688   3.963
 9414SOL    HW229142   3.437   0.725   3.875
 9415SOL     OW29143   2.547   0.295   2.492
 9415SOL    HW129144   2.581   0.374   2.440
 9415SOL    HW229145   2.587   0.296   2.584
 9416SOL     OW29146   0.885   1.645   1.113
 9416SOL    HW129147   0.895   1.611   1.206
 9416SOL    HW229148   0.826   1.583   1.061
 9417SOL     OW29149   3.801   6.554   5.852
 9417SOL    HW129150   3.773   6.485   5.785
 9417SOL    HW229151   3.895   6.536   5.881
 9418SOL     OW29152   2.758   6.427   1.160
 9418SOL    HW129153   2.844   6.476   1.143
 9418SOL    HW229154   2.684   6.492   1.173
 9419SOL     OW29155   2.860   4.927   5.798
 9419SOL    HW129156   2.891   4.855   5.860
 9419SOL    HW229157   2.767   4.907   5.766
 9420SOL     OW29158   0.228   2.349   4.293
 9420SOL    HW129159   0.259   2.374   4.201
 9420SOL    HW229160   0.298   2.372   4.360
 9421SOL     OW29161   2.251   6.145   4.882
 9421SOL    HW129162   2.349   6.130   4.866
 9421SOL    HW229163   2.228   6.240   4.861
 9422SOL     OW29164   4.881   6.341   2.631
 9422SOL    HW129165   4.817   6.410   2.665
 9422SOL    HW229166   4.862   6.254   2.676
 9423SOL     OW29167   4.385   0.847   3.063
 9423SOL    HW129168   4.481   0.858   3.036
 9423SOL    HW229169   4.327   0.860   2.983
 9424SOL     OW29170   4.858   1.119   5.404
 9424SOL    HW129171   4.841   1.023   5.424
 9424SOL    HW229172   4.831   1.175   5.482
 9425SOL     OW29173   0.774   3.746   6.210
 9425SOL    HW129174   0.726   3.801   6.142
 9425SOL    HW229175   0.753   3.649   6.196
 9426SOL     OW29176   2.510   2.033   0.050
 9426SOL    HW129177   2.436   2.095   0.074
 9426SOL    HW229178   2.587   2.047   0.112
 9427SOL     OW29179   2.933   5.251   4.720
 9427SOL    HW129180   2.926   5.276   4.817
 9427SOL    HW229181   3.008   5.302   4.678
 9428SOL     OW29182   4.871   0.989   0.940
 9428SOL    HW129183   4.832   0.913   0.887
 9428SOL    HW229184   4.970   0.987   0.933
 9429SOL     OW29185   1.762   4.142   2.388
 9429SOL    HW129186   1.861   4.138   2.394
 9429SOL    HW229187   1.722   4.061   2.431
 9430SOL     OW29188   6.775   4.357   1.791
 9430SOL    HW129189   6.796   4.447   1.827
 9430SOL    HW229190   6.785   4.288   1.863
 9431SOL     OW29191   5.428   3.648   1.016
 9431SOL    HW129192   5.341   3.599   1.006
 9431SOL    HW229193   5.473   3.619   1.100
 9432SOL     OW29194   5.528   1.027   2.745
 9432SOL    HW129195   5.449   0.978   2.781
 9432SOL    HW229196   5.554   1.100   2.808
 9433SOL     OW29197   3.514   4.952   3.841
 9433SOL    HW129198   3.476   4.925   3.752
 9433SOL    HW229199   3.440   4.978   3.902
 9434SOL     OW29200   5.102   4.961   2.960
 9434SOL    HW129201   5.090   4.987   3.056
 9434SOL    HW229202   5.199   4.943   2.942
 9435SOL     OW29203   0.618   2.087   4.630
 9435SOL    HW129204   0.538   2.104   4.686
 9435SOL    HW229205   0.629   1.989   4.615
 9436SOL     OW29206   1.277   3.699   2.140
 9436SOL    HW129207   1.216   3.726   2.065
 9436SOL    HW229208   1.355   3.649   2.103
 9437SOL     OW29209   1.720   6.624   3.484
 9437SOL    HW129210   1.685   6.535   3.454
 9437SOL    HW229211   1.683   6.645   3.575
 9438SOL     OW29212   0.571   6.879   1.913
 9438SOL    HW129213   0.480   6.917   1.929
 9438SOL    HW229214   0.576   6.843   1.820
 9439SOL     OW29215   0.460   2.448   1.915
 9439SOL    HW129216   0.492   2.355   1.935
 9439SOL    HW229217   0.537   2.504   1.886
 9440SOL     OW29218   4.465   5.372   4.297
 9440SOL    HW129219   4.462   5.439   4.371
 9440SOL    HW229220   4.462   5.419   4.209
 9441SOL     OW29221   1.661   3.377   4.824
 9441SOL    HW129222   1.623   3.468   4.838
 9441SOL    HW229223   1.725   3.378   4.747
 9442SOL     OW29224   4.486   3.200   0.133
 9442SOL    HW129225   4.465   3.270   0.201
 9442SOL    HW229226   4.512   3.244   0.047
 9443SOL     OW29227   2.212   5.586   1.137
 9443SOL    HW129228   2.278   5.640   1.189
 9443SOL    HW229229   2.251   5.496   1.116
 9444SOL     OW29230   1.421   3.819   6.577
 9444SOL    HW129231   1.344   3.868   6.618
 9444SOL    HW229232   1.496   3.813   6.644
 9445SOL     OW29233   5.757   3.709   2.771
 9445SOL    HW129234   5.786   3.726   2.865
 9445SOL    HW229235   5.657   3.702   2.768
 9446SOL     OW29236   6.839   6.869   3.911
 9446SOL    HW129237   6.788   6.788   3.939
 9446SOL    HW229238   6.826   6.942   3.978
 9447SOL     OW29239   6.448   3.561   3.327
 9447SOL    HW129240   6.390   3.546   3.247
 9447SOL    HW229241   6.517   3.489   3.333
 9448SOL     OW29242   6.930   6.800   6.162
 9448SOL    HW129243   6.942   6.831   6.068
 9448SOL    HW229244   6.834   6.774   6.176
 9449SOL     OW29245   6.504   5.686   6.539
 9449SOL    HW129246   6.568   5.639   6.599
 9449SOL    HW229247   6.414   5.643   6.546
 9450SOL     OW29248   3.428   5.226   4.722
 9450SOL    HW129249   3.478   5.147   4.686
 9450SOL    HW229250   3.361   5.195   4.789
 9451SOL     OW29251   3.688   6.470   6.199
 9451SOL    HW129252   3.658   6.388   6.150
 9451SOL    HW229253   3.714   6.445   6.292
 9452SOL     OW29254   0.981   3.556   0.839
 9452SOL    HW129255   0.888   3.535   0.811
 9452SOL    HW229256   0.994   3.655   0.840
 9453SOL     OW29257   2.316   5.190   3.739
 9453SOL    HW129258   2.330   5.132   3.820
 9453SOL    HW229259   2.359   5.147   3.660
 9454SOL     OW29260   2.083   3.536   6.451
 9454SOL    HW129261   2.128   3.454   6.488
 9454SOL    HW229262   2.057   3.519   6.356
 9455SOL     OW29263   4.089   1.682   2.911
 9455SOL    HW129264   4.167   1.740   2.888
 9455SOL    HW229265   4.121   1.603   2.962
 9456SOL     OW29266   0.812   3.985   0.673
 9456SOL    HW129267   0.747   4.035   0.731
 9456SOL    HW229268   0.872   4.050   0.626
 9457SOL     OW29269   2.365   4.161   5.393
 9457SOL    HW129270   2.396   4.080   5.345
 9457SOL    HW229271   2.392   4.156   5.489
 9458SOL     OW29272   1.474   2.954   6.617
 9458SOL    HW129273   1.490   2.916   6.526
 9458SOL    HW229274   1.386   3.001   6.619
 9459SOL     OW29275   5.681   4.729   2.899
 9459SOL    HW129276   5.673   4.718   2.800
 9459SOL    HW229277   5.744   4.660   2.935
 9460SOL     OW29278   6.814   2.084   4.709
 9460SOL    HW129279   6.768   2.054   4.793
 9460SOL    HW229280   6.750   2.133   4.651
 9461SOL     OW29281   6.690   1.958   2.634
 9461SOL    HW129282   6.732   1.939   2.546
 9461SOL    HW229283   6.612   1.896   2.648
 9462SOL     OW29284   2.128   3.454   3.383
 9462SOL    HW129285   2.032   3.441   3.361
 9462SOL    HW229286   2.181   3.374   3.352
 9463SOL     OW29287   0.095   0.780   1.376
 9463SOL    HW129288   0.191   0.752   1.369
 9463SOL    HW229289   0.052   0.731   1.452
 9464SOL     OW29290   6.448   6.650   0.763
 9464SOL    HW129291   6.440   6.613   0.670
 9464SOL    HW229292   6.430   6.577   0.829
 9465SOL     OW29293   0.712   6.283   3.016
 9465SOL    HW129294   0.651   6.275   2.937
 9465SOL    HW229295   0.728   6.379   3.035
 9466SOL     OW29296   3.686   4.296   5.485
 9466SOL    HW129297   3.739   4.217   5.513
 9466SOL    HW229298   3.692   4.307   5.386
 9467SOL     OW29299   1.305   2.489   1.596
 9467SOL    HW129300   1.227   2.461   1.540
 9467SOL    HW229301   1.378   2.421   1.587
 9468SOL     OW29302   5.715   2.302   6.099
 9468SOL    HW129303   5.794   2.319   6.158
 9468SOL    HW229304   5.641   2.364   6.123
 9469SOL     OW29305   5.668   5.931   1.219
 9469SOL    HW129306   5.640   5.880   1.301
 9469SOL    HW229307   5.762   5.907   1.195
 9470SOL     OW29308   4.742   4.314   5.536
 9470SOL    HW129309   4.697   4.225   5.546
 9470SOL    HW229310   4.827   4.303   5.484
 9471SOL     OW29311   6.163   1.279   4.087
 9471SOL    HW129312   6.097   1.214   4.126
 9471SOL    HW229313   6.197   1.242   4.001
 9472SOL     OW29314   5.931   2.936   4.656
 9472SOL    HW129315   5.897   2.898   4.570
 9472SOL    HW229316   5.912   3.034   4.658
 9473SOL     OW29317   2.438   5.254   5.890
 9473SOL    HW129318   2.376   5.303   5.828
 9473SOL    HW229319   2.530   5.251   5.850
 9474SOL     OW29320   6.537   3.083   0.045
 9474SOL    HW129321   6.544   3.145   6.993
 9474SOL    HW229322   6.493   2.998   0.016
 9475SOL     OW29323   3.042   3.896   0.402
 9475SOL    HW129324   2.964   3.955   0.380
 9475SOL    HW229325   3.030   3.807   0.360
 9476SOL     OW29326   2.988   3.116   5.136
 9476SOL    HW129327   3.044   3.142   5.058
 9476SOL    HW229328   2.910   3.178   5.144
 9477SOL     OW29329   0.697   3.607   2.467
 9477SOL    HW129330   0.728   3.599   2.372
 9477SOL    HW229331   0.635   3.531   2.488
 9478SOL     OW29332   4.878   3.353   5.858
 9478SOL    HW129333   4.838   3.413   5.789
 9478SOL    HW229334   4.818   3.275   5.874
 9479SOL     OW29335   5.464   6.329   6.956
 9479SOL    HW129336   5.521   6.395   6.907
 9479SOL    HW229337   5.408   6.278   6.891
 9480SOL     OW29338   5.150   4.151   0.671
 9480SOL    HW129339   5.199   4.089   0.732
 9480SOL    HW229340   5.105   4.099   0.599
 9481SOL     OW29341   5.716   3.557   1.613
 9481SOL    HW129342   5.669   3.644   1.626
 9481SOL    HW229343   5.648   3.485   1.597
 9482SOL     OW29344   6.762   0.861   3.038
 9482SOL    HW129345   6.836   0.898   2.981
 9482SOL    HW229346   6.690   0.929   3.049
 9483SOL     OW29347   1.653   1.451   1.113
 9483SOL    HW129348   1.716   1.512   1.160
 9483SOL    HW229349   1.615   1.497   1.033
 9484SOL     OW29350   3.931   1.272   2.808
 9484SOL    HW129351   3.913   1.194   2.868
 9484SOL    HW229352   3.910   1.357   2.856
 9485SOL     OW29353   0.765   0.199   2.556
 9485SOL    HW129354   0.800   0.137   2.486
 9485SOL    HW229355   0.841   0.240   2.606
 9486SOL     OW29356   2.440   4.998   1.884
 9486SOL    HW129357   2.500   4.973   1.961
 9486SOL    HW229358   2.396   4.916   1.849
 9487SOL     OW29359   3.053   3.174   3.410
 9487SOL    HW129360   2.969   3.148   3.457
 9487SOL    HW229361   3.046   3.269   3.380
 9488SOL     OW29362   1.984   6.329   1.431
 9488SOL    HW129363   1.990   6.281   1.344
 9488SOL    HW229364   1.951   6.266   1.502
 9489SOL     OW29365   3.935   4.251   1.364
 9489SOL    HW129366   3.853   4.304   1.345
 9489SOL    HW229367   3.975   4.219   1.278
 9490SOL     OW29368   6.411   5.838   0.861
 9490SOL    HW129369   6.434   5.813   0.766
 9490SOL    HW229370   6.395   5.937   0.866
 9491SOL     OW29371   6.846   4.935   3.982
 9491SOL    HW129372   6.879   4.966   4.071
 9491SOL    HW229373   6.749   4.910   3.989
 9492SOL     OW29374   3.458   2.901   2.988
 9492SOL    HW129375   3.476   2.813   2.946
 9492SOL    HW229376   3.363   2.904   3.020
 9493SOL     OW29377   4.269   5.251   3.853
 9493SOL    HW129378   4.214   5.281   3.931
 9493SOL    HW229379   4.302   5.159   3.869
 9494SOL     OW29380   4.417   4.690   1.356
 9494SOL    HW129381   4.325   4.663   1.386
 9494SOL    HW229382   4.413   4.781   1.316
 9495SOL     OW29383   5.682   1.879   4.518
 9495SOL    HW129384   5.666   1.780   4.522
 9495SOL    HW229385   5.738   1.901   4.439
 9496SOL     OW29386   5.697   4.576   0.916
 9496SOL    HW129387   5.644   4.496   0.944
 9496SOL    HW229388   5.729   4.565   0.822
 9497SOL     OW29389   5.929   4.657   6.968
 9497SOL    HW129390   5.954   4.741   6.921
 9497SOL    HW229391   5.949   4.578   6.910
 9498SOL     OW29392   5.363   0.084   5.424
 9498SOL    HW129393   5.456   0.102   5.454
 9498SOL    HW229394   5.309   0.168   5.428
 9499SOL     OW29395   2.342   4.772   6.255
 9499SOL    HW129396   2.253   4.764   6.211
 9499SOL    HW229397   2.404   4.704   6.216
 9500SOL     OW29398   4.380   0.373   1.491
 9500SOL    HW129399   4.476   0.400   1.500
 9500SOL    HW229400   4.366   0.286   1.538
 9501SOL     OW29401   3.501   1.473   4.876
 9501SOL    HW129402   3.434   1.468   4.951
 9501SOL    HW229403   3.500   1.564   4.836
 9502SOL     OW29404   0.387   2.148   4.767
 9502SOL    HW129405   0.335   2.227   4.801
 9502SOL    HW229406   0.323   2.074   4.745
 9503SOL     OW29407   0.594   1.527   1.010
 9503SOL    HW129408   0.633   1.437   1.024
 9503SOL    HW229409   0.524   1.545   1.079
 9504SOL     OW29410   0.536   1.995   0.594
 9504SOL    HW129411   0.620   1.957   0.631
 9504SOL    HW229412   0.462   1.929   0.603
 9505SOL     OW29413   5.374   3.969   3.679
 9505SOL    HW129414   5.439   3.961   3.755
 9505SOL    HW229415   5.418   3.941   3.595
 9506SOL     OW29416   0.485   3.331   6.848
 9506SOL    HW129417   0.419   3.330   6.924
 9506SOL    HW229418   0.481   3.243   6.800
 9507SOL     OW29419   1.034   1.512   3.430
 9507SOL    HW129420   1.075   1.438   3.484
 9507SOL    HW229421   1.102   1.584   3.418
 9508SOL     OW29422   6.036   3.372   0.794
 9508SOL    HW129423   6.076   3.365   0.885
 9508SOL    HW229424   5.954   3.315   0.789
 9509SOL     OW29425   0.819   0.522   5.488
 9509SOL    HW129426   0.852   0.428   5.500
 9509SOL    HW229427   0.869   0.565   5.413
 9510SOL     OW29428   0.927   4.096   2.201
 9510SOL    HW129429   0.869   4.042   2.262
 9510SOL    HW229430   0.870   4.164   2.154
 9511SOL     OW29431   0.740   1.595   6.815
 9511SOL    HW129432   0.794   1.545   6.884
 9511SOL    HW229433   0.785   1.682   6.795
 9512SOL     OW29434   5.723   1.292   1.628
 9512SOL    HW129435   5.812   1.310   1.587
 9512SOL    HW229436   5.728   1.209   1.684
 9513SOL     OW29437   1.761   3.220   5.378
 9513SOL    HW129438   1.860   3.223   5.362
 9513SOL    HW229439   1.727   3.312   5.395
 9514SOL     OW29440   2.359   4.500   0.079
 9514SOL    HW129441   2.329   4.594   0.097
 9514SOL    HW229442   2.459   4.496   0.078
 9515SOL     OW29443   1.365   5.820   0.445
 9515SOL    HW129444   1.361   5.742   0.507
 9515SOL    HW229445   1.443   5.810   0.384
 9516SOL     OW29446   5.908   3.662   5.219
 9516SOL    HW129447   5.903   3.595   5.293
 9516SOL    HW229448   5.841   3.735   5.234
 9517SOL     OW29449   1.504   4.756   0.661
 9517SOL    HW129450   1.563   4.821   0.614
 9517SOL    HW229451   1.472   4.687   0.595
 9518SOL     OW29452   1.320   2.118   0.062
 9518SOL    HW129453   1.254   2.192   0.079
 9518SOL    HW229454   1.413   2.156   0.063
 9519SOL     OW29455   3.763   3.686   4.081
 9519SOL    HW129456   3.766   3.690   3.981
 9519SOL    HW229457   3.746   3.778   4.117
 9520SOL     OW29458   0.461   1.261   2.891
 9520SOL    HW129459   0.472   1.165   2.867
 9520SOL    HW229460   0.540   1.313   2.857
 9521SOL     OW29461   3.617   4.250   1.098
 9521SOL    HW129462   3.658   4.309   1.168
 9521SOL    HW229463   3.535   4.295   1.061
 9522SOL     OW29464   4.461   5.580   2.047
 9522SOL    HW129465   4.433   5.639   1.971
 9522SOL    HW229466   4.381   5.560   2.105
 9523SOL     OW29467   2.512   4.972   5.084
 9523SOL    HW129468   2.573   4.894   5.098
 9523SOL    HW229469   2.417   4.943   5.092
 9524SOL     OW29470   2.130   2.702   0.208
 9524SOL    HW129471   2.128   2.801   0.216
 9524SOL    HW229472   2.163   2.663   0.295
 9525SOL     OW29473   2.184   2.364   5.683
 9525SOL    HW129474   2.096   2.328   5.714
 9525SOL    HW229475   2.200   2.337   5.588
 9526SOL     OW29476   6.077   4.165   1.365
 9526SOL    HW129477   6.141   4.134   1.436
 9526SOL    HW229478   6.117   4.241   1.314
 9527SOL     OW29479   1.688   0.199   5.047
 9527SOL    HW129480   1.771   0.173   5.097
 9527SOL    HW229481   1.675   0.137   4.970
 9528SOL     OW29482   6.956   1.088   0.270
 9528SOL    HW129483   0.007   1.044   0.224
 9528SOL    HW229484   6.871   1.050   0.235
 9529SOL     OW29485   5.988   3.489   6.178
 9529SOL    HW129486   5.916   3.559   6.184
 9529SOL    HW229487   6.022   3.470   6.270
 9530SOL     OW29488   1.465   2.976   3.811
 9530SOL    HW129489   1.365   2.977   3.821
 9530SOL    HW229490   1.490   2.918   3.734
 9531SOL     OW29491   5.048   4.421   2.433
 9531SOL    HW129492   5.140   4.446   2.465
 9531SOL    HW229493   5.051   4.330   2.393
 9532SOL     OW29494   6.962   5.647   1.110
 9532SOL    HW129495   6.923   5.625   1.021
 9532SOL    HW229496   6.893   5.691   1.168
 9533SOL     OW29497   0.872   5.963   4.777
 9533SOL    HW129498   0.910   5.910   4.854
 9533SOL    HW229499   0.885   5.912   4.692
 9534SOL     OW29500   6.252   3.866   5.206
 9534SOL    HW129501   6.223   3.838   5.115
 9534SOL    HW229502   6.259   3.785   5.265
 9535SOL     OW29503   1.994   0.255   5.614
 9535SOL    HW129504   1.917   0.191   5.623
 9535SOL    HW229505   2.009   0.276   5.517
 9536SOL     OW29506   3.167   3.851   5.051
 9536SOL    HW129507   3.135   3.909   5.126
 9536SOL    HW229508   3.091   3.834   4.988
 9537SOL     OW29509   2.444   0.069   4.088
 9537SOL    HW129510   2.464   0.006   4.163
 9537SOL    HW229511   2.345   0.082   4.081
 9538SOL     OW29512   5.483   1.183   4.269
 9538SOL    HW129513   5.393   1.141   4.253
 9538SOL    HW229514   5.477   1.281   4.252
 9539SOL     OW29515   3.505   4.090   4.432
 9539SOL    HW129516   3.422   4.099   4.376
 9539SOL    HW229517   3.480   4.086   4.528
 9540SOL     OW29518   5.863   4.733   3.990
 9540SOL    HW129519   5.835   4.684   4.072
 9540SOL    HW229520   5.948   4.694   3.955
 9541SOL     OW29521   2.916   0.437   6.093
 9541SOL    HW129522   2.969   0.407   6.173
 9541SOL    HW229523   2.947   0.387   6.012
 9542SOL     OW29524   5.090   4.698   5.060
 9542SOL    HW129525   5.109   4.599   5.061
 9542SOL    HW229526   5.176   4.748   5.046
 9543SOL     OW29527   3.028   0.463   5.847
 9543SOL    HW129528   2.971   0.545   5.855
 9543SOL    HW229529   3.122   0.485   5.873
 9544SOL     OW29530   5.985   3.099   3.816
 9544SOL    HW129531   5.957   3.126   3.724
 9544SOL    HW229532   5.915   3.130   3.881
 9545SOL     OW29533   5.548   5.728   3.628
 9545SOL    HW129534   5.535   5.763   3.721
 9545SOL    HW229535   5.469   5.751   3.572
 9546SOL     OW29536   3.658   2.292   5.548
 9546SOL    HW129537   3.671   2.308   5.451
 9546SOL    HW229538   3.730   2.337   5.600
 9547SOL     OW29539   2.394   5.052   3.984
 9547SOL    HW129540   2.483   5.011   3.964
 9547SOL    HW229541   2.394   5.090   4.076
 9548SOL     OW29542   6.837   4.854   5.296
 9548SOL    HW129543   6.933   4.837   5.272
 9548SOL    HW229544   6.780   4.779   5.265
 9549SOL     OW29545   3.206   2.313   1.479
 9549SOL    HW129546   3.123   2.277   1.521
 9549SOL    HW229547   3.244   2.386   1.536
 9550SOL     OW29548   6.645   0.586   0.437
 9550SOL    HW129549   6.684   0.600   0.346
 9550SOL    HW229550   6.600   0.670   0.468
 9551SOL     OW29551   5.454   2.481   6.210
 9551SOL    HW129552   5.371   2.425   6.206
 9551SOL    HW229553   5.464   2.532   6.125
 9552SOL     OW29554   1.827   6.336   4.133
 9552SOL    HW129555   1.927   6.337   4.131
 9552SOL    HW229556   1.795   6.371   4.221
 9553SOL     OW29557   6.036   2.146   6.594
 9553SOL    HW129558   6.117   2.203   6.611
 9553SOL    HW229559   6.066   2.055   6.565
 9554SOL     OW29560   2.490   0.279   2.788
 9554SOL    HW129561   2.395   0.282   2.819
 9554SOL    HW229562   2.550   0.312   2.861
 9555SOL     OW29563   0.984   1.246   2.488
 9555SOL    HW129564   0.888   1.252   2.515
 9555SOL    HW229565   1.017   1.153   2.505
 9556SOL     OW29566   1.696   3.868   2.010
 9556SOL    HW129567   1.740   3.892   1.923
 9556SOL    HW229568   1.600   3.845   1.994
 9557SOL     OW29569   6.641   6.392   1.746
 9557SOL    HW129570   6.729   6.438   1.731
 9557SOL    HW229571   6.579   6.453   1.795
 9558SOL     OW29572   6.052   5.748   5.680
 9558SOL    HW129573   6.038   5.843   5.707
 9558SOL    HW229574   6.098   5.699   5.753
 9559SOL     OW29575   0.587   4.758   0.961
 9559SOL    HW129576   0.615   4.724   0.871
 9559SOL    HW229577   0.542   4.847   0.951
 9560SOL     OW29578   2.178   0.983   3.738
 9560SOL    HW129579   2.122   1.000   3.819
 9560SOL    HW229580   2.264   1.034   3.746
 9561SOL     OW29581   2.307   0.810   0.577
 9561SOL    HW129582   2.291   0.790   0.480
 9561SOL    HW229583   2.263   0.740   0.633
 9562SOL     OW29584   2.508   0.417   5.525
 9562SOL    HW129585   2.561   0.485   5.576
 9562SOL    HW229586   2.474   0.347   5.588
 9563SOL     OW29587   0.462   6.099   0.425
 9563SOL    HW129588   0.492   6.013   0.383
 9563SOL    HW229589   0.431   6.081   0.518
 9564SOL     OW29590   2.722   1.284   0.849
 9564SOL    HW129591   2.723   1.184   0.848
 9564SOL    HW229592   2.707   1.317   0.756
 9565SOL     OW29593   4.187   0.981   4.503
 9565SOL    HW129594   4.236   0.894   4.502
 9565SOL    HW229595   4.213   1.033   4.584
 9566SOL     OW29596   2.610   4.928   6.822
 9566SOL    HW129597   2.607   5.021   6.786
 9566SOL    HW229598   2.651   4.867   6.754
 9567SOL     OW29599   5.054   5.040   0.654
 9567SOL    HW129600   4.973   5.059   0.597
 9567SOL    HW229601   5.074   4.942   0.650
 9568SOL     OW29602   4.339   2.585   6.244
 9568SOL    HW129603   4.317   2.681   6.258
 9568SOL    HW229604   4.288   2.551   6.164
 9569SOL     OW29605   6.625   1.225   2.586
 9569SOL    HW129606   6.632   1.181   2.497
 9569SOL    HW229607   6.571   1.168   2.647
 9570SOL     OW29608   0.480   3.682   1.784
 9570SOL    HW129609   0.543   3.744   1.832
 9570SOL    HW229610   0.465   3.601   1.841
 9571SOL     OW29611   3.486   4.037   6.411
 9571SOL    HW129612   3.484   4.033   6.312
 9571SOL    HW229613   3.483   4.133   6.441
 9572SOL     OW29614   2.353   4.830   2.307
 9572SOL    HW129615   2.414   4.887   2.254
 9572SOL    HW229616   2.273   4.805   2.252
 9573SOL     OW29617   0.603   2.829   6.863
 9573SOL    HW129618   0.610   2.739   6.820
 9573SOL    HW229619   0.694   2.858   6.894
 9574SOL     OW29620   4.101   3.605   3.055
 9574SOL    HW129621   4.001   3.598   3.053
 9574SOL    HW229622   4.137   3.544   3.126
 9575SOL     OW29623   0.451   1.157   1.324
 9575SOL    HW129624   0.547   1.182   1.323
 9575SOL    HW229625   0.432   1.095   1.248
 9576SOL     OW29626   1.871   1.387   1.551
 9576SOL    HW129627   1.951   1.361   1.606
 9576SOL    HW229628   1.899   1.399   1.456
 9577SOL     OW29629   1.013   0.842   5.960
 9577SOL    HW129630   0.918   0.825   5.986
 9577SOL    HW229631   1.061   0.754   5.952
 9578SOL     OW29632   0.705   3.853   3.542
 9578SOL    HW129633   0.737   3.767   3.580
 9578SOL    HW229634   0.612   3.871   3.573
 9579SOL     OW29635   1.318   5.121   2.866
 9579SOL    HW129636   1.366   5.202   2.900
 9579SOL    HW229637   1.226   5.148   2.836
 9580SOL     OW29638   4.889   4.047   0.913
 9580SOL    HW129639   4.974   3.996   0.926
 9580SOL    HW229640   4.870   4.101   0.995
 9581SOL     OW29641   0.499   5.813   5.688
 9581SOL    HW129642   0.579   5.842   5.634
 9581SOL    HW229643   0.426   5.880   5.677
 9582SOL     OW29644   4.761   5.440   5.916
 9582SOL    HW129645   4.817   5.365   5.951
 9582SOL    HW229646   4.807   5.527   5.934
 9583SOL     OW29647   3.592   4.234   1.495
 9583SOL    HW129648   3.594   4.278   1.584
 9583SOL    HW229649   3.604   4.135   1.505
 9584SOL     OW29650   6.915   5.462   6.706
 9584SOL    HW129651   6.851   5.406   6.758
 9584SOL    HW229652   6.925   5.425   6.613
 9585SOL     OW29653   6.668   6.879   4.932
 9585SOL    HW129654   6.668   6.911   4.837
 9585SOL    HW229655   6.634   6.785   4.935
 9586SOL     OW29656   5.478   4.472   2.137
 9586SOL    HW129657   5.495   4.556   2.086
 9586SOL    HW229658   5.550   4.406   2.119
 9587SOL     OW29659   0.558   0.443   1.721
 9587SOL    HW129660   0.586   0.473   1.630
 9587SOL    HW229661   0.636   0.448   1.783
 9588SOL     OW29662   6.829   1.094   1.269
 9588SOL    HW129663   6.929   1.099   1.260
 9588SOL    HW229664   6.798   1.163   1.335
 9589SOL     OW29665   2.313   4.956   6.987
 9589SOL    HW129666   2.305   4.872   0.014
 9589SOL    HW229667   2.382   4.944   6.916
 9590SOL     OW29668   6.671   2.902   2.048
 9590SOL    HW129669   6.709   2.845   2.120
 9590SOL    HW229670   6.621   2.979   2.089
 9591SOL     OW29671   2.953   5.893   5.725
 9591SOL    HW129672   2.911   5.834   5.655
 9591SOL    HW229673   2.961   5.842   5.811
 9592SOL     OW29674   3.552   4.500   0.762
 9592SOL    HW129675   3.568   4.599   0.763
 9592SOL    HW229676   3.503   4.473   0.844
 9593SOL     OW29677   0.377   0.897   5.952
 9593SOL    HW129678   0.436   0.848   5.887
 9593SOL    HW229679   0.328   0.831   6.009
 9594SOL     OW29680   1.139   5.076   2.453
 9594SOL    HW129681   1.097   5.057   2.364
 9594SOL    HW229682   1.120   5.001   2.516
 9595SOL     OW29683   0.516   3.746   5.228
 9595SOL    HW129684   0.452   3.791   5.167
 9595SOL    HW229685   0.606   3.790   5.222
 9596SOL     OW29686   0.080   5.149   6.492
 9596SOL    HW129687   0.106   5.055   6.472
 9596SOL    HW229688   0.160   5.208   6.488
 9597SOL     OW29689   0.563   4.196   1.342
 9597SOL    HW129690   0.530   4.102   1.338
 9597SOL    HW229691   0.647   4.205   1.289
 9598SOL     OW29692   1.797   4.060   4.193
 9598SOL    HW129693   1.712   4.029   4.235
 9598SOL    HW229694   1.795   4.159   4.183
 9599SOL     OW29695   3.608   0.280   4.816
 9599SOL    HW129696   3.675   0.331   4.870
 9599SOL    HW229697   3.555   0.220   4.877
 9600SOL     OW29698   2.362   6.482   6.647
 9600SOL    HW129699   2.291   6.415   6.669
 9600SOL    HW229700   2.426   6.442   6.581
 9601SOL     OW29701   4.889   4.133   1.185
 9601SOL    HW129702   4.807   4.098   1.230
 9601SOL    HW229703   4.925   4.211   1.237
 9602SOL     OW29704   6.301   4.859   6.123
 9602SOL    HW129705   6.339   4.817   6.040
 9602SOL    HW229706   6.315   4.798   6.201
 9603SOL     OW29707   3.880   1.605   4.066
 9603SOL    HW129708   3.884   1.549   4.149
 9603SOL    HW229709   3.862   1.546   3.987
 9604SOL     OW29710   4.401   0.092   6.678
 9604SOL    HW129711   4.445   0.158   6.739
 9604SOL    HW229712   4.339   0.035   6.730
 9605SOL     OW29713   0.875   5.384   3.394
 9605SOL    HW129714   0.866   5.481   3.374
 9605SOL    HW229715   0.888   5.371   3.493
 9606SOL     OW29716   1.761   6.653   6.740
 9606SOL    HW129717   1.841   6.709   6.724
 9606SOL    HW229718   1.764   6.573   6.680
 9607SOL     OW29719   1.680   1.846   0.368
 9607SOL    HW129720   1.584   1.826   0.389
 9607SOL    HW229721   1.716   1.910   0.435
 9608SOL     OW29722   6.733   5.276   2.257
 9608SOL    HW129723   6.757   5.363   2.214
 9608SOL    HW229724   6.771   5.274   2.349
 9609SOL     OW29725   2.397   4.425   6.635
 9609SOL    HW129726   2.389   4.394   6.730
 9609SOL    HW229727   2.310   4.410   6.588
 9610SOL     OW29728   1.604   4.948   4.040
 9610SOL    HW129729   1.688   4.904   4.069
 9610SOL    HW229730   1.531   4.927   4.105
 9611SOL     OW29731   0.506   6.196   6.590
 9611SOL    HW129732   0.502   6.105   6.631
 9611SOL    HW229733   0.413   6.229   6.573
 9612SOL     OW29734   0.431   3.966   1.859
 9612SOL    HW129735   0.469   3.891   1.913
 9612SOL    HW229736   0.392   4.035   1.920
 9613SOL     OW29737   4.996   6.526   3.275
 9613SOL    HW129738   5.086   6.488   3.295
 9613SOL    HW229739   4.930   6.451   3.264
 9614SOL     OW29740   2.898   2.184   0.553
 9614SOL    HW129741   2.921   2.245   0.478
 9614SOL    HW229742   2.856   2.101   0.518
 9615SOL     OW29743   1.262   0.029   0.530
 9615SOL    HW129744   1.323   0.106   0.511
 9615SOL    HW229745   1.222   0.041   0.621
 9616SOL     OW29746   4.066   4.209   1.116
 9616SOL    HW129747   4.117   4.129   1.085
 9616SOL    HW229748   4.099   4.290   1.068
 9617SOL     OW29749   2.077   2.787   3.336
 9617SOL    HW129750   2.101   2.841   3.417
 9617SOL    HW229751   2.012   2.838   3.280
 9618SOL     OW29752   3.913   6.831   5.447
 9618SOL    HW129753   4.004   6.826   5.487
 9618SOL    HW229754   3.844   6.834   5.519
 9619SOL     OW29755   1.092   6.788   0.445
 9619SOL    HW129756   1.147   6.869   0.465
 9619SOL    HW229757   1.015   6.815   0.387
 9620SOL     OW29758   4.116   2.266   0.216
 9620SOL    HW129759   4.097   2.247   0.312
 9620SOL    HW229760   4.031   2.286   0.168
 9621SOL     OW29761   0.799   1.029   2.145
 9621SOL    HW129762   0.831   1.014   2.238
 9621SOL    HW229763   0.847   1.108   2.105
 9622SOL     OW29764   6.156   1.083   6.971
 9622SOL    HW129765   6.071   1.045   6.934
 9622SOL    HW229766   6.188   1.026   0.020
 9623SOL     OW29767   3.247   4.875   6.015
 9623SOL    HW129768   3.181   4.943   5.983
 9623SOL    HW229769   3.275   4.817   5.939
 9624SOL     OW29770   6.417   4.596   2.090
 9624SOL    HW129771   6.489   4.640   2.036
 9624SOL    HW229772   6.354   4.665   2.124
 9625SOL     OW29773   5.241   5.705   0.091
 9625SOL    HW129774   5.325   5.664   0.125
 9625SOL    HW229775   5.242   5.803   0.108
 9626SOL     OW29776   3.212   6.217   6.992
 9626SOL    HW129777   3.128   6.248   6.948
 9626SOL    HW229778   3.190   6.152   0.039
 9627SOL     OW29779   7.024   5.453   3.108
 9627SOL    HW129780   6.946   5.468   3.168
 9627SOL    HW229781   0.082   5.461   3.160
 9628SOL     OW29782   5.573   5.313   0.032
 9628SOL    HW129783   5.534   5.239   7.005
 9628SOL    HW229784   5.670   5.295   0.049
 9629SOL     OW29785   0.519   6.563   2.814
 9629SOL    HW129786   0.478   6.596   2.730
 9629SOL    HW229787   0.594   6.500   2.793
 9630SOL     OW29788   6.830   6.353   5.765
 9630SOL    HW129789   6.893   6.423   5.797
 9630SOL    HW229790   6.849   6.267   5.812
 9631SOL     OW29791   6.049   0.040   0.024
 9631SOL    HW129792   5.970   0.003   7.002
 9631SOL    HW229793   6.020   0.076   0.113
 9632SOL     OW29794   2.226   5.274   2.737
 9632SOL    HW129795   2.299   5.342   2.743
 9632SOL    HW229796   2.140   5.320   2.712
 9633SOL     OW29797   5.274   5.245   0.017
 9633SOL    HW129798   5.299   5.186   0.094
 9633SOL    HW229799   5.180   5.226   7.017
 9634SOL     OW29800   0.865   0.063   4.312
 9634SOL    HW129801   0.926   0.060   4.233
 9634SOL    HW229802   0.812   7.005   4.317
 9635SOL     OW29803   1.234   4.913   5.553
 9635SOL    HW129804   1.313   4.975   5.557
 9635SOL    HW229805   1.189   4.911   5.642
 9636SOL     OW29806   3.855   1.923   6.183
 9636SOL    HW129807   3.758   1.928   6.206
 9636SOL    HW229808   3.894   2.015   6.187
 9637SOL     OW29809   2.951   1.862   6.793
 9637SOL    HW129810   2.948   1.890   6.696
 9637SOL    HW229811   2.876   1.905   6.842
 9638SOL     OW29812   6.755   3.404   6.851
 9638SOL    HW129813   6.718   3.472   6.915
 9638SOL    HW229814   6.740   3.312   6.887
 9639SOL     OW29815   3.772   1.313   1.946
 9639SOL    HW129816   3.834   1.327   1.869
 9639SOL    HW229817   3.700   1.383   1.944
 9640SOL     OW29818   3.265   1.739   2.823
 9640SOL    HW129819   3.264   1.647   2.784
 9640SOL    HW229820   3.184   1.788   2.794
 9641SOL     OW29821   5.381   6.213   0.988
 9641SOL    HW129822   5.438   6.134   0.966
 9641SOL    HW229823   5.428   6.270   1.056
 9642SOL     OW29824   2.981   6.148   5.183
 9642SOL    HW129825   2.991   6.054   5.213
 9642SOL    HW229826   3.067   6.180   5.144
 9643SOL     OW29827   5.992   4.602   4.298
 9643SOL    HW129828   5.904   4.636   4.263
 9643SOL    HW229829   6.051   4.679   4.321
 9644SOL     OW29830   1.011   5.199   5.137
 9644SOL    HW129831   1.064   5.247   5.066
 9644SOL    HW229832   0.915   5.196   5.111
 9645SOL     OW29833   3.939   4.876   4.080
 9645SOL    HW129834   3.896   4.886   4.170
 9645SOL    HW229835   4.024   4.826   4.090
 9646SOL     OW29836   2.791   4.714   2.269
 9646SOL    HW129837   2.799   4.679   2.176
 9646SOL    HW229838   2.711   4.673   2.314
 9647SOL     OW29839   6.615   5.432   1.276
 9647SOL    HW129840   6.521   5.462   1.297
 9647SOL    HW229841   6.661   5.408   1.361
 9648SOL     OW29842   3.567   1.887   7.009
 9648SOL    HW129843   3.640   1.923   6.952
 9648SOL    HW229844   3.586   1.791   0.004
 9649SOL     OW29845   2.938   5.763   0.228
 9649SOL    HW129846   3.002   5.749   0.303
 9649SOL    HW229847   2.895   5.853   0.238
 9650SOL     OW29848   5.292   4.678   3.171
 9650SOL    HW129849   5.224   4.657   3.101
 9650SOL    HW229850   5.321   4.593   3.216
 9651SOL     OW29851   6.781   0.798   6.946
 9651SOL    HW129852   6.697   0.846   6.969
 9651SOL    HW229853   6.759   0.713   6.897
 9652SOL     OW29854   1.992   4.383   0.326
 9652SOL    HW129855   2.008   4.475   0.363
 9652SOL    HW229856   2.076   4.350   0.284
 9653SOL     OW29857   4.353   5.428   5.093
 9653SOL    HW129858   4.325   5.520   5.121
 9653SOL    HW229859   4.272   5.375   5.066
 9654SOL     OW29860   3.931   3.232   1.798
 9654SOL    HW129861   3.864   3.203   1.868
 9654SOL    HW229862   4.017   3.254   1.843
 9655SOL     OW29863   0.050   1.283   0.010
 9655SOL    HW129864   0.096   1.196   7.020
 9655SOL    HW229865   0.077   1.349   6.966
 9656SOL     OW29866   3.510   2.318   0.835
 9656SOL    HW129867   3.601   2.277   0.848
 9656SOL    HW229868   3.460   2.315   0.922
 9657SOL     OW29869   6.242   2.193   3.525
 9657SOL    HW129870   6.272   2.098   3.516
 9657SOL    HW229871   6.210   2.227   3.437
 9658SOL     OW29872   5.984   1.329   2.547
 9658SOL    HW129873   5.905   1.285   2.504
 9658SOL    HW229874   6.020   1.400   2.487
 9659SOL     OW29875   6.999   4.083   0.307
 9659SOL    HW129876   0.071   4.091   0.286
 9659SOL    HW229877   6.987   4.071   0.405
 9660SOL     OW29878   0.510   5.911   1.381
 9660SOL    HW129879   0.419   5.878   1.404
 9660SOL    HW229880   0.546   5.860   1.303
 9661SOL     OW29881   3.571   6.393   1.830
 9661SOL    HW129882   3.596   6.474   1.777
 9661SOL    HW229883   3.620   6.395   1.918
 9662SOL     OW29884   5.041   2.936   5.179
 9662SOL    HW129885   4.972   2.864   5.188
 9662SOL    HW229886   5.002   3.013   5.128
 9663SOL     OW29887   0.742   6.316   4.494
 9663SOL    HW129888   0.786   6.308   4.584
 9663SOL    HW229889   0.692   6.402   4.488
 9664SOL     OW29890   5.978   6.657   3.941
 9664SOL    HW129891   5.965   6.724   3.868
 9664SOL    HW229892   6.003   6.569   3.901
 9665SOL     OW29893   5.332   5.896   6.753
 9665SOL    HW129894   5.329   5.887   6.653
 9665SOL    HW229895   5.314   5.808   6.795
 9666SOL     OW29896   5.534   4.039   1.433
 9666SOL    HW129897   5.626   4.016   1.465
 9666SOL    HW229898   5.480   3.956   1.421
 9667SOL     OW29899   3.707   3.806   4.883
 9667SOL    HW129900   3.706   3.717   4.929
 9667SOL    HW229901   3.614   3.831   4.857
 9668SOL     OW29902   6.540   1.517   6.738
 9668SOL    HW129903   6.625   1.495   6.690
 9668SOL    HW229904   6.547   1.488   6.833
 9669SOL     OW29905   1.224   0.166   2.099
 9669SOL    HW129906   1.245   0.078   2.057
 9669SOL    HW229907   1.232   0.158   2.198
 9670SOL     OW29908   5.501   4.701   5.971
 9670SOL    HW129909   5.561   4.624   5.996
 9670SOL    HW229910   5.439   4.720   6.047
 9671SOL     OW29911   5.850   5.709   6.973
 9671SOL    HW129912   5.853   5.629   0.007
 9671SOL    HW229913   5.933   5.711   6.917
 9672SOL     OW29914   1.146   5.776   4.466
 9672SOL    HW129915   1.116   5.835   4.541
 9672SOL    HW229916   1.219   5.716   4.498
 9673SOL     OW29917   6.150   3.970   0.039
 9673SOL    HW129918   6.246   3.965   0.065
 9673SOL    HW229919   6.095   3.919   0.105
 9674SOL     OW29920   2.478   5.852   2.947
 9674SOL    HW129921   2.551   5.820   2.887
 9674SOL    HW229922   2.452   5.780   3.010
 9675SOL     OW29923   6.110   2.260   0.438
 9675SOL    HW129924   6.077   2.316   0.514
 9675SOL    HW229925   6.123   2.319   0.358
 9676SOL     OW29926   1.252   3.516   5.481
 9676SOL    HW129927   1.201   3.582   5.536
 9676SOL    HW229928   1.232   3.424   5.513
 9677SOL     OW29929   1.622   5.792   5.169
 9677SOL    HW129930   1.605   5.871   5.229
 9677SOL    HW229931   1.692   5.734   5.211
 9678SOL     OW29932   3.190   3.375   3.052
 9678SOL    HW129933   3.093   3.353   3.042
 9678SOL    HW229934   3.231   3.316   3.121
 9679SOL     OW29935   2.425   1.125   2.485
 9679SOL    HW129936   2.390   1.051   2.543
 9679SOL    HW229937   2.409   1.102   2.389
 9680SOL     OW29938   5.706   0.847   3.134
 9680SOL    HW129939   5.650   0.927   3.152
 9680SOL    HW229940   5.790   0.874   3.088
 9681SOL     OW29941   3.495   1.483   6.831
 9681SOL    HW129942   3.468   1.452   6.922
 9681SOL    HW229943   3.595   1.492   6.827
 9682SOL     OW29944   4.935   4.979   4.197
 9682SOL    HW129945   4.855   4.966   4.139
 9682SOL    HW229946   4.963   5.075   4.196
 9683SOL     OW29947   2.910   5.404   1.041
 9683SOL    HW129948   2.824   5.393   0.990
 9683SOL    HW229949   2.963   5.319   1.035
 9684SOL     OW29950   0.707   2.571   5.163
 9684SOL    HW129951   0.759   2.655   5.147
 9684SOL    HW229952   0.637   2.587   5.232
 9685SOL     OW29953   1.910   4.009   1.302
 9685SOL    HW129954   1.963   4.084   1.262
 9685SOL    HW229955   1.897   3.937   1.233
 9686SOL     OW29956   6.893   1.290   0.445
 9686SOL    HW129957   6.960   1.274   0.517
 9686SOL    HW229958   6.898   1.215   0.378
 9687SOL     OW29959   2.158   0.595   4.305
 9687SOL    HW129960   2.181   0.666   4.371
 9687SOL    HW229961   2.190   0.506   4.337
 9688SOL     OW29962   6.756   2.184   2.804
 9688SOL    HW129963   6.723   2.109   2.747
 9688SOL    HW229964   6.765   2.152   2.898
 9689SOL     OW29965   1.557   6.041   0.318
 9689SOL    HW129966   1.559   6.072   0.414
 9689SOL    HW229967   1.640   5.990   0.298
 9690SOL     OW29968   5.844   6.048   6.394
 9690SOL    HW129969   5.897   6.129   6.369
 9690SOL    HW229970   5.857   6.028   6.491
 9691SOL     OW29971   3.076   4.828   2.005
 9691SOL    HW129972   3.021   4.800   1.926
 9691SOL    HW229973   3.059   4.766   2.081
 9692SOL     OW29974   3.510   5.130   2.992
 9692SOL    HW129975   3.442   5.172   2.931
 9692SOL    HW229976   3.533   5.039   2.958
 9693SOL     OW29977   6.399   5.942   1.623
 9693SOL    HW129978   6.328   5.956   1.554
 9693SOL    HW229979   6.489   5.951   1.581
 9694SOL     OW29980   2.241   0.903   0.034
 9694SOL    HW129981   2.174   0.855   7.005
 9694SOL    HW229982   2.245   0.999   0.007
 9695SOL     OW29983   0.180   3.234   1.829
 9695SOL    HW129984   0.265   3.185   1.812
 9695SOL    HW229985   0.200   3.331   1.840
 9696SOL     OW29986   4.977   3.457   0.771
 9696SOL    HW129987   4.892   3.507   0.758
 9696SOL    HW229988   5.022   3.445   0.683
 9697SOL     OW29989   6.960   6.176   6.317
 9697SOL    HW129990   6.876   6.214   6.356
 9697SOL    HW229991   6.986   6.227   6.236
 9698SOL     OW29992   4.846   1.707   5.998
 9698SOL    HW129993   4.928   1.765   6.008
 9698SOL    HW229994   4.765   1.765   5.993
 9699SOL     OW29995   0.015   5.092   6.769
 9699SOL    HW129996   6.946   5.064   6.771
 9699SOL    HW229997   0.034   5.142   6.685
 9700SOL     OW29998   4.646   5.019   4.965
 9700SOL    HW129999   4.633   5.091   4.896
 9700SOL    HW230000   4.729   4.967   4.943
 9701SOL     OW30001   3.814   5.054   4.780
 9701SOL    HW130002   3.833   5.046   4.878
 9701SOL    HW230003   3.716   5.060   4.765
 9702SOL     OW30004   5.264   0.494   0.134
 9702SOL    HW130005   5.355   0.504   0.173
 9702SOL    HW230006   5.211   0.428   0.189
 9703SOL     OW30007   4.620   5.069   4.332
 9703SOL    HW130008   4.538   5.094   4.383
 9703SOL    HW230009   4.620   4.971   4.315
 9704SOL     OW30010   2.459   1.146   3.138
 9704SOL    HW130011   2.544   1.193   3.112
 9704SOL    HW230012   2.396   1.146   3.061
 9705SOL     OW30013   4.814   5.338   6.335
 9705SOL    HW130014   4.727   5.315   6.293
 9705SOL    HW230015   4.840   5.432   6.310
 9706SOL     OW30016   0.827   2.822   0.830
 9706SOL    HW130017   0.804   2.860   0.919
 9706SOL    HW230018   0.893   2.747   0.841
 9707SOL     OW30019   6.125   4.426   1.448
 9707SOL    HW130020   6.119   4.466   1.539
 9707SOL    HW230021   6.204   4.464   1.400
 9708SOL     OW30022   1.429   1.894   2.515
 9708SOL    HW130023   1.440   1.859   2.422
 9708SOL    HW230024   1.368   1.974   2.514
 9709SOL     OW30025   5.899   6.019   2.942
 9709SOL    HW130026   5.907   5.919   2.942
 9709SOL    HW230027   5.990   6.059   2.951
 9710SOL     OW30028   0.189   1.597   1.709
 9710SOL    HW130029   0.267   1.637   1.757
 9710SOL    HW230030   0.217   1.512   1.664
 9711SOL     OW30031   2.489   4.575   6.151
 9711SOL    HW130032   2.559   4.571   6.222
 9711SOL    HW230033   2.472   4.483   6.116
 9712SOL     OW30034   5.966   4.642   6.258
 9712SOL    HW130035   6.049   4.607   6.301
 9712SOL    HW230036   5.926   4.572   6.200
 9713SOL     OW30037   1.417   5.106   3.596
 9713SOL    HW130038   1.422   5.070   3.503
 9713SOL    HW230039   1.339   5.065   3.643
 9714SOL     OW30040   2.888   1.447   0.996
 9714SOL    HW130041   2.814   1.427   0.932
 9714SOL    HW230042   2.950   1.368   1.001
 9715SOL     OW30043   5.390   3.926   6.142
 9715SOL    HW130044   5.380   3.829   6.165
 9715SOL    HW230045   5.390   3.981   6.225
 9716SOL     OW30046   4.262   2.856   6.583
 9716SOL    HW130047   4.346   2.883   6.630
 9716SOL    HW230048   4.258   2.898   6.493
 9717SOL     OW30049   5.355   5.814   6.016
 9717SOL    HW130050   5.368   5.826   5.918
 9717SOL    HW230051   5.389   5.895   6.065
 9718SOL     OW30052   4.961   2.419   1.098
 9718SOL    HW130053   4.894   2.385   1.032
 9718SOL    HW230054   4.948   2.518   1.110
 9719SOL     OW30055   0.059   2.001   6.664
 9719SOL    HW130056   0.047   2.099   6.680
 9719SOL    HW230057   0.111   1.986   6.580
 9720SOL     OW30058   6.876   5.528   2.196
 9720SOL    HW130059   6.926   5.463   2.139
 9720SOL    HW230060   6.858   5.612   2.144
 9721SOL     OW30061   0.257   3.270   1.294
 9721SOL    HW130062   0.343   3.251   1.248
 9721SOL    HW230063   0.227   3.190   1.344
 9722SOL     OW30064   6.903   0.323   4.318
 9722SOL    HW130065   6.996   0.356   4.333
 9722SOL    HW230066   6.891   0.303   4.220
 9723SOL     OW30067   2.235   6.447   3.335
 9723SOL    HW130068   2.225   6.446   3.236
 9723SOL    HW230069   2.191   6.365   3.373
 9724SOL     OW30070   1.940   3.362   0.369
 9724SOL    HW130071   1.970   3.302   0.443
 9724SOL    HW230072   1.898   3.308   0.296
 9725SOL     OW30073   3.334   4.527   6.384
 9725SOL    HW130074   3.301   4.580   6.306
 9725SOL    HW230075   3.430   4.548   6.400
 9726SOL     OW30076   5.264   0.488   3.795
 9726SOL    HW130077   5.240   0.450   3.885
 9726SOL    HW230078   5.214   0.574   3.782
 9727SOL     OW30079   0.814   3.229   5.700
 9727SOL    HW130080   0.817   3.260   5.605
 9727SOL    HW230081   0.907   3.217   5.735
 9728SOL     OW30082   0.324   0.479   6.253
 9728SOL    HW130083   0.227   0.475   6.277
 9728SOL    HW230084   0.346   0.405   6.190
 9729SOL     OW30085   0.943   4.078   3.129
 9729SOL    HW130086   1.039   4.053   3.138
 9729SOL    HW230087   0.887   3.995   3.124
 9730SOL     OW30088   0.766   3.500   3.100
 9730SOL    HW130089   0.717   3.416   3.118
 9730SOL    HW230090   0.728   3.574   3.157
 9731SOL     OW30091   4.370   4.177   0.977
 9731SOL    HW130092   4.293   4.202   0.918
 9731SOL    HW230093   4.407   4.259   1.020
 9732SOL     OW30094   5.358   5.644   3.006
 9732SOL    HW130095   5.368   5.553   3.046
 9732SOL    HW230096   5.433   5.663   2.944
 9733SOL     OW30097   5.652   5.002   0.613
 9733SOL    HW130098   5.697   4.951   0.686
 9733SOL    HW230099   5.576   4.948   0.577
 9734SOL     OW30100   6.308   1.370   2.725
 9734SOL    HW130101   6.385   1.325   2.680
 9734SOL    HW230102   6.225   1.317   2.709
 9735SOL     OW30103   2.255   4.403   3.148
 9735SOL    HW130104   2.244   4.304   3.149
 9735SOL    HW230105   2.347   4.427   3.117
 9736SOL     OW30106   5.904   1.653   6.028
 9736SOL    HW130107   5.977   1.619   6.087
 9736SOL    HW230108   5.940   1.665   5.935
 9737SOL     OW30109   6.521   3.387   4.477
 9737SOL    HW130110   6.574   3.352   4.554
 9737SOL    HW230111   6.427   3.353   4.483
 9738SOL     OW30112   1.927   0.107   1.892
 9738SOL    HW130113   1.880   0.186   1.852
 9738SOL    HW230114   1.863   0.030   1.898
 9739SOL     OW30115   5.960   5.134   2.497
 9739SOL    HW130116   5.911   5.070   2.556
 9739SOL    HW230117   6.041   5.168   2.546
 9740SOL     OW30118   6.491   2.268   3.646
 9740SOL    HW130119   6.475   2.170   3.633
 9740SOL    HW230120   6.403   2.315   3.654
 9741SOL     OW30121   5.031   2.062   2.483
 9741SOL    HW130122   5.078   2.140   2.441
 9741SOL    HW230123   4.984   2.092   2.566
 9742SOL     OW30124   3.509   0.629   1.419
 9742SOL    HW130125   3.571   0.602   1.492
 9742SOL    HW230126   3.422   0.581   1.429
 9743SOL     OW30127   0.954   2.124   4.319
 9743SOL    HW130128   1.009   2.128   4.235
 9743SOL    HW230129   1.015   2.126   4.399
 9744SOL     OW30130   0.341   0.198   2.447
 9744SOL    HW130131   0.314   0.273   2.387
 9744SOL    HW230132   0.298   0.209   2.536
 9745SOL     OW30133   6.472   3.242   6.139
 9745SOL    HW130134   6.444   3.338   6.144
 9745SOL    HW230135   6.500   3.220   6.045
 9746SOL     OW30136   6.628   0.761   5.872
 9746SOL    HW130137   6.617   0.773   5.773
 9746SOL    HW230138   6.541   0.781   5.917
 9747SOL     OW30139   1.757   0.282   1.776
 9747SOL    HW130140   1.758   0.367   1.829
 9747SOL    HW230141   1.663   0.261   1.749
 9748SOL     OW30142   0.956   1.678   3.741
 9748SOL    HW130143   0.912   1.663   3.653
 9748SOL    HW230144   1.049   1.711   3.727
 9749SOL     OW30145   2.116   1.703   5.000
 9749SOL    HW130146   2.118   1.615   5.046
 9749SOL    HW230147   2.065   1.694   4.914
 9750SOL     OW30148   5.529   4.715   3.819
 9750SOL    HW130149   5.600   4.760   3.764
 9750SOL    HW230150   5.563   4.628   3.853
 9751SOL     OW30151   1.896   0.931   0.040
 9751SOL    HW130152   1.832   0.995   7.025
 9751SOL    HW230153   1.950   0.887   6.995
 9752SOL     OW30154   5.362   2.277   6.957
 9752SOL    HW130155   5.318   2.335   6.888
 9752SOL    HW230156   5.429   2.218   6.913
 9753SOL     OW30157   6.166   5.494   5.525
 9753SOL    HW130158   6.124   5.415   5.481
 9753SOL    HW230159   6.099   5.568   5.530
 9754SOL     OW30160   0.968   1.778   6.468
 9754SOL    HW130161   0.922   1.696   6.435
 9754SOL    HW230162   1.028   1.754   6.544
 9755SOL     OW30163   4.122   4.013   5.586
 9755SOL    HW130164   4.124   3.913   5.577
 9755SOL    HW230165   4.031   4.047   5.562
 9756SOL     OW30166   6.051   3.276   0.465
 9756SOL    HW130167   6.054   3.232   0.555
 9756SOL    HW230168   6.099   3.220   0.398
 9757SOL     OW30169   5.892   3.626   3.353
 9757SOL    HW130170   5.816   3.680   3.316
 9757SOL    HW230171   5.913   3.551   3.291
 9758SOL     OW30172   2.466   0.030   6.950
 9758SOL    HW130173   2.416   0.087   7.015
 9758SOL    HW230174   2.405   0.007   6.873
 9759SOL     OW30175   2.370   6.721   6.792
 9759SOL    HW130176   2.375   6.632   6.748
 9759SOL    HW230177   2.360   6.709   6.891
 9760SOL     OW30178   4.657   3.336   5.339
 9760SOL    HW130179   4.657   3.422   5.289
 9760SOL    HW230180   4.747   3.321   5.380
 9761SOL     OW30181   5.966   0.599   1.920
 9761SOL    HW130182   6.045   0.584   1.979
 9761SOL    HW230183   5.981   0.554   1.832
 9762SOL     OW30184   2.792   1.916   4.243
 9762SOL    HW130185   2.773   2.014   4.250
 9762SOL    HW230186   2.801   1.891   4.147
 9763SOL     OW30187   5.028   1.609   1.873
 9763SOL    HW130188   5.013   1.580   1.968
 9763SOL    HW230189   5.087   1.689   1.872
 9764SOL     OW30190   0.735   2.639   2.975
 9764SOL    HW130191   0.793   2.617   3.053
 9764SOL    HW230192   0.677   2.717   2.997
 9765SOL     OW30193   6.917   1.606   2.628
 9765SOL    HW130194   6.966   1.521   2.608
 9765SOL    HW230195   6.919   1.623   2.726
 9766SOL     OW30196   2.891   0.518   3.434
 9766SOL    HW130197   2.870   0.583   3.360
 9766SOL    HW230198   2.881   0.425   3.399
 9767SOL     OW30199   5.398   1.712   5.390
 9767SOL    HW130200   5.385   1.755   5.479
 9767SOL    HW230201   5.334   1.751   5.324
 9768SOL     OW30202   4.867   1.516   2.202
 9768SOL    HW130203   4.789   1.546   2.257
 9768SOL    HW230204   4.834   1.478   2.115
 9769SOL     OW30205   2.294   0.626   2.517
 9769SOL    HW130206   2.286   0.527   2.504
 9769SOL    HW230207   2.388   0.654   2.498
 9770SOL     OW30208   5.271   0.565   6.910
 9770SOL    HW130209   5.341   0.504   6.874
 9770SOL    HW230210   5.238   0.531   6.998
 9771SOL     OW30211   3.313   4.997   1.375
 9771SOL    HW130212   3.397   5.031   1.418
 9771SOL    HW230213   3.241   5.065   1.384
 9772SOL     OW30214   1.297   6.415   2.937
 9772SOL    HW130215   1.253   6.477   3.002
 9772SOL    HW230216   1.393   6.439   2.927
 9773SOL     OW30217   5.385   6.624   4.693
 9773SOL    HW130218   5.456   6.655   4.629
 9773SOL    HW230219   5.380   6.686   4.771
 9774SOL     OW30220   6.293   4.926   1.671
 9774SOL    HW130221   6.229   4.905   1.744
 9774SOL    HW230222   6.338   4.841   1.641
 9775SOL     OW30223   2.455   1.048   3.654
 9775SOL    HW130224   2.415   1.130   3.696
 9775SOL    HW230225   2.453   1.057   3.554
 9776SOL     OW30226   0.383   5.670   4.403
 9776SOL    HW130227   0.340   5.623   4.481
 9776SOL    HW230228   0.355   5.626   4.318
 9777SOL     OW30229   5.310   4.540   5.845
 9777SOL    HW130230   5.244   4.518   5.916
 9777SOL    HW230231   5.396   4.569   5.886
 9778SOL     OW30232   0.766   0.739   3.313
 9778SOL    HW130233   0.733   0.799   3.239
 9778SOL    HW230234   0.699   0.667   3.330
 9779SOL     OW30235   1.958   1.100   5.103
 9779SOL    HW130236   2.006   1.146   5.178
 9779SOL    HW230237   1.998   1.010   5.089
 9780SOL     OW30238   2.445   2.057   0.848
 9780SOL    HW130239   2.537   2.023   0.866
 9780SOL    HW230240   2.450   2.148   0.808
 9781SOL     OW30241   0.903   3.871   4.399
 9781SOL    HW130242   0.885   3.793   4.339
 9781SOL    HW230243   0.978   3.850   4.461
 9782SOL     OW30244   6.712   1.084   1.566
 9782SOL    HW130245   6.650   1.008   1.546
 9782SOL    HW230246   6.668   1.170   1.539
 9783SOL     OW30247   5.432   2.247   2.918
 9783SOL    HW130248   5.505   2.179   2.921
 9783SOL    HW230249   5.430   2.290   2.828
 9784SOL     OW30250   3.543   1.688   4.079
 9784SOL    HW130251   3.555   1.593   4.105
 9784SOL    HW230252   3.448   1.705   4.054
 9785SOL     OW30253   6.952   3.916   5.535
 9785SOL    HW130254   6.918   3.983   5.601
 9785SOL    HW230255   6.876   3.859   5.504
 9786SOL     OW30256   2.014   5.181   6.318
 9786SOL    HW130257   2.073   5.120   6.372
 9786SOL    HW230258   1.926   5.136   6.302
 9787SOL     OW30259   4.540   3.437   1.666
 9787SOL    HW130260   4.627   3.469   1.630
 9787SOL    HW230261   4.484   3.516   1.692
 9788SOL     OW30262   0.133   0.536   3.776
 9788SOL    HW130263   0.179   0.487   3.702
 9788SOL    HW230264   0.060   0.592   3.738
 9789SOL     OW30265   1.265   5.553   0.056
 9789SOL    HW130266   1.181   5.511   0.091
 9789SOL    HW230267   1.290   5.631   0.114
 9790SOL     OW30268   5.693   3.776   5.979
 9790SOL    HW130269   5.760   3.827   5.924
 9790SOL    HW230270   5.677   3.825   6.065
 9791SOL     OW30271   0.078   1.991   2.884
 9791SOL    HW130272   0.149   1.936   2.927
 9791SOL    HW230273   7.017   1.944   2.892
 9792SOL     OW30274   5.466   5.477   2.145
 9792SOL    HW130275   5.559   5.441   2.156
 9792SOL    HW230276   5.465   5.575   2.166
 9793SOL     OW30277   5.536   5.222   3.346
 9793SOL    HW130278   5.502   5.135   3.312
 9793SOL    HW230279   5.483   5.250   3.426
 9794SOL     OW30280   6.555   4.718   6.624
 9794SOL    HW130281   6.619   4.642   6.637
 9794SOL    HW230282   6.461   4.685   6.637
 9795SOL     OW30283   1.393   1.988   4.009
 9795SOL    HW130284   1.326   2.005   4.082
 9795SOL    HW230285   1.483   1.975   4.049
 9796SOL     OW30286   4.322   2.884   1.427
 9796SOL    HW130287   4.355   2.807   1.481
 9796SOL    HW230288   4.352   2.874   1.332
 9797SOL     OW30289   3.516   5.046   6.339
 9797SOL    HW130290   3.542   4.988   6.262
 9797SOL    HW230291   3.596   5.064   6.396
 9798SOL     OW30292   2.305   0.656   1.024
 9798SOL    HW130293   2.333   0.752   1.029
 9798SOL    HW230294   2.344   0.605   1.101
 9799SOL     OW30295   3.446   3.705   3.258
 9799SOL    HW130296   3.415   3.615   3.290
 9799SOL    HW230297   3.462   3.702   3.159
 9800SOL     OW30298   2.920   6.488   5.305
 9800SOL    HW130299   2.913   6.549   5.226
 9800SOL    HW230300   3.002   6.512   5.358
 9801SOL     OW30301   4.761   4.456   0.340
 9801SOL    HW130302   4.681   4.451   0.399
 9801SOL    HW230303   4.809   4.543   0.357
 9802SOL     OW30304   0.788   2.693   2.287
 9802SOL    HW130305   0.755   2.651   2.372
 9802SOL    HW230306   0.820   2.786   2.306
 9803SOL     OW30307   6.252   1.483   0.181
 9803SOL    HW130308   6.349   1.461   0.168
 9803SOL    HW230309   6.244   1.566   0.236
 9804SOL     OW30310   0.948   5.792   3.075
 9804SOL    HW130311   0.911   5.852   3.146
 9804SOL    HW230312   0.901   5.809   2.989
 9805SOL     OW30313   1.083   5.897   5.617
 9805SOL    HW130314   1.165   5.950   5.595
 9805SOL    HW230315   1.106   5.800   5.623
 9806SOL     OW30316   1.173   2.053   0.291
 9806SOL    HW130317   1.219   2.056   0.203
 9806SOL    HW230318   1.191   1.966   0.336
 9807SOL     OW30319   2.180   2.854   6.964
 9807SOL    HW130320   2.171   2.773   6.907
 9807SOL    HW230321   2.214   2.930   6.908
 9808SOL     OW30322   5.753   1.245   5.939
 9808SOL    HW130323   5.827   1.262   5.874
 9808SOL    HW230324   5.790   1.209   6.024
 9809SOL     OW30325   1.101   2.090   6.473
 9809SOL    HW130326   1.100   2.180   6.430
 9809SOL    HW230327   1.147   2.096   6.562
 9810SOL     OW30328   2.533   2.526   4.013
 9810SOL    HW130329   2.505   2.502   3.920
 9810SOL    HW230330   2.519   2.624   4.027
 9811SOL     OW30331   5.542   5.823   4.223
 9811SOL    HW130332   5.452   5.827   4.179
 9811SOL    HW230333   5.557   5.907   4.276
 9812SOL     OW30334   3.065   2.565   6.164
 9812SOL    HW130335   3.082   2.518   6.077
 9812SOL    HW230336   2.984   2.622   6.156
 9813SOL     OW30337   5.766   6.963   0.122
 9813SOL    HW130338   5.751   6.948   0.220
 9813SOL    HW230339   5.679   6.961   0.074
 9814SOL     OW30340   0.730   1.121   6.880
 9814SOL    HW130341   0.714   1.186   6.806
 9814SOL    HW230342   0.816   1.072   6.864
 9815SOL     OW30343   6.099   3.346   2.467
 9815SOL    HW130344   6.047   3.420   2.509
 9815SOL    HW230345   6.044   3.304   2.394
 9816SOL     OW30346   6.897   1.302   6.219
 9816SOL    HW130347   6.831   1.233   6.188
 9816SOL    HW230348   6.862   1.347   6.301
 9817SOL     OW30349   3.119   5.365   2.473
 9817SOL    HW130350   3.079   5.438   2.528
 9817SOL    HW230351   3.092   5.377   2.378
 9818SOL     OW30352   1.835   1.146   3.882
 9818SOL    HW130353   1.816   1.067   3.823
 9818SOL    HW230354   1.926   1.137   3.922
 9819SOL     OW30355   5.204   2.967   5.410
 9819SOL    HW130356   5.131   2.936   5.350
 9819SOL    HW230357   5.221   2.898   5.481
 9820SOL     OW30358   3.744   3.280   6.607
 9820SOL    HW130359   3.788   3.203   6.653
 9820SOL    HW230360   3.658   3.302   6.655
 9821SOL     OW30361   4.017   1.355   1.105
 9821SOL    HW130362   4.048   1.260   1.105
 9821SOL    HW230363   4.096   1.415   1.112
 9822SOL     OW30364   3.643   5.508   3.753
 9822SOL    HW130365   3.619   5.458   3.836
 9822SOL    HW230366   3.561   5.551   3.715
 9823SOL     OW30367   1.932   0.115   2.147
 9823SOL    HW130368   1.838   0.149   2.149
 9823SOL    HW230369   1.971   0.127   2.056
 9824SOL     OW30370   1.870   6.049   5.100
 9824SOL    HW130371   1.837   6.065   5.007
 9824SOL    HW230372   1.840   6.124   5.159
 9825SOL     OW30373   5.937   6.082   5.120
 9825SOL    HW130374   5.885   6.095   5.204
 9825SOL    HW230375   6.035   6.093   5.139
 9826SOL     OW30376   3.597   6.432   5.389
 9826SOL    HW130377   3.616   6.396   5.480
 9826SOL    HW230378   3.627   6.527   5.383
 9827SOL     OW30379   1.881   3.758   3.377
 9827SOL    HW130380   1.969   3.804   3.386
 9827SOL    HW230381   1.844   3.775   3.285
 9828SOL     OW30382   3.071   2.225   4.709
 9828SOL    HW130383   3.124   2.264   4.784
 9828SOL    HW230384   2.974   2.227   4.733
 9829SOL     OW30385   4.755   5.667   6.137
 9829SOL    HW130386   4.747   5.766   6.124
 9829SOL    HW230387   4.765   5.646   6.234
 9830SOL     OW30388   5.103   1.748   1.385
 9830SOL    HW130389   5.136   1.703   1.467
 9830SOL    HW230390   5.036   1.689   1.339
 9831SOL     OW30391   0.514   4.466   2.311
 9831SOL    HW130392   0.494   4.456   2.213
 9831SOL    HW230393   0.446   4.416   2.364
 9832SOL     OW30394   4.477   5.759   2.964
 9832SOL    HW130395   4.552   5.783   2.903
 9832SOL    HW230396   4.483   5.663   2.989
 9833SOL     OW30397   3.542   2.923   3.255
 9833SOL    HW130398   3.453   2.908   3.298
 9833SOL    HW230399   3.532   2.922   3.156
 9834SOL     OW30400   1.661   4.647   5.704
 9834SOL    HW130401   1.706   4.718   5.650
 9834SOL    HW230402   1.562   4.654   5.691
 9835SOL     OW30403   3.721   3.230   4.457
 9835SOL    HW130404   3.651   3.252   4.388
 9835SOL    HW230405   3.724   3.302   4.526
 9836SOL     OW30406   0.597   4.444   4.807
 9836SOL    HW130407   0.511   4.402   4.836
 9836SOL    HW230408   0.652   4.377   4.756
 9837SOL     OW30409   5.797   0.909   2.339
 9837SOL    HW130410   5.736   0.858   2.279
 9837SOL    HW230411   5.756   0.918   2.430
 9838SOL     OW30412   1.534   0.101   0.873
 9838SOL    HW130413   1.615   0.133   0.823
 9838SOL    HW230414   1.559   0.085   0.969
 9839SOL     OW30415   4.613   6.900   3.069
 9839SOL    HW130416   4.567   6.830   3.124
 9839SOL    HW230417   4.583   6.892   2.974
 9840SOL     OW30418   4.664   1.745   0.440
 9840SOL    HW130419   4.673   1.825   0.381
 9840SOL    HW230420   4.607   1.768   0.519
 9841SOL     OW30421   0.881   4.951   3.501
 9841SOL    HW130422   0.870   4.955   3.401
 9841SOL    HW230423   0.792   4.941   3.544
 9842SOL     OW30424   3.602   3.072   0.240
 9842SOL    HW130425   3.647   2.993   0.282
 9842SOL    HW230426   3.564   3.045   0.151
 9843SOL     OW30427   6.947   0.136   1.960
 9843SOL    HW130428   6.945   0.051   2.012
 9843SOL    HW230429   6.980   0.211   2.018
 9844SOL     OW30430   5.945   1.085   4.058
 9844SOL    HW130431   5.966   1.083   4.156
 9844SOL    HW230432   5.935   0.991   4.024
 9845SOL     OW30433   1.346   2.523   2.494
 9845SOL    HW130434   1.445   2.519   2.500
 9845SOL    HW230435   1.306   2.509   2.585
 9846SOL     OW30436   4.772   1.569   0.613
 9846SOL    HW130437   4.772   1.642   0.544
 9846SOL    HW230438   4.730   1.603   0.697
 9847SOL     OW30439   3.927   3.003   2.082
 9847SOL    HW130440   3.917   2.960   2.171
 9847SOL    HW230441   3.843   2.992   2.029
 9848SOL     OW30442   3.726   4.889   5.247
 9848SOL    HW130443   3.744   4.795   5.276
 9848SOL    HW230444   3.629   4.910   5.261
 9849SOL     OW30445   0.828   6.726   7.016
 9849SOL    HW130446   0.819   6.635   6.976
 9849SOL    HW230447   0.739   6.772   7.014
 9850SOL     OW30448   6.970   0.722   3.342
 9850SOL    HW130449   6.907   0.796   3.319
 9850SOL    HW230450   6.990   0.725   3.440
 9851SOL     OW30451   2.722   6.229   4.585
 9851SOL    HW130452   2.735   6.301   4.516
 9851SOL    HW230453   2.649   6.167   4.555
 9852SOL     OW30454   1.427   1.483   5.146
 9852SOL    HW130455   1.335   1.443   5.140
 9852SOL    HW230456   1.440   1.547   5.070
 9853SOL     OW30457   6.774   3.268   5.397
 9853SOL    HW130458   6.776   3.177   5.438
 9853SOL    HW230459   6.735   3.334   5.461
 9854SOL     OW30460   0.644   5.661   4.917
 9854SOL    HW130461   0.695   5.671   4.831
 9854SOL    HW230462   0.694   5.705   4.991
 9855SOL     OW30463   1.310   3.268   0.998
 9855SOL    HW130464   1.262   3.185   1.025
 9855SOL    HW230465   1.406   3.261   1.023
 9856SOL     OW30466   5.300   4.621   4.256
 9856SOL    HW130467   5.212   4.666   4.276
 9856SOL    HW230468   5.359   4.685   4.207
 9857SOL     OW30469   5.582   3.090   2.574
 9857SOL    HW130470   5.555   3.015   2.634
 9857SOL    HW230471   5.669   3.068   2.529
 9858SOL     OW30472   0.707   6.622   1.525
 9858SOL    HW130473   0.798   6.662   1.532
 9858SOL    HW230474   0.708   6.548   1.458
 9859SOL     OW30475   6.607   4.753   4.499
 9859SOL    HW130476   6.595   4.799   4.587
 9859SOL    HW230477   6.612   4.654   4.514
 9860SOL     OW30478   1.609   2.379   5.220
 9860SOL    HW130479   1.666   2.329   5.285
 9860SOL    HW230480   1.514   2.377   5.251
 9861SOL     OW30481   3.215   0.653   3.729
 9861SOL    HW130482   3.144   0.594   3.691
 9861SOL    HW230483   3.185   0.749   3.723
 9862SOL     OW30484   2.653   3.958   0.739
 9862SOL    HW130485   2.584   4.026   0.765
 9862SOL    HW230486   2.622   3.907   0.659
 9863SOL     OW30487   3.134   5.759   1.127
 9863SOL    HW130488   3.233   5.752   1.139
 9863SOL    HW230489   3.088   5.684   1.175
 9864SOL     OW30490   3.227   0.728   5.524
 9864SOL    HW130491   3.164   0.726   5.446
 9864SOL    HW230492   3.274   0.640   5.531
 9865SOL     OW30493   0.895   6.314   4.709
 9865SOL    HW130494   0.899   6.215   4.723
 9865SOL    HW230495   0.947   6.360   4.781
 9866SOL     OW30496   6.153   4.324   4.884
 9866SOL    HW130497   6.238   4.273   4.867
 9866SOL    HW230498   6.161   4.373   4.971
 9867SOL     OW30499   6.340   2.424   2.572
 9867SOL    HW130500   6.272   2.485   2.531
 9867SOL    HW230501   6.360   2.455   2.665
 9868SOL     OW30502   0.499   3.738   4.462
 9868SOL    HW130503   0.508   3.736   4.362
 9868SOL    HW230504   0.581   3.780   4.501
 9869SOL     OW30505   0.828   2.950   1.093
 9869SOL    HW130506   0.827   3.045   1.062
 9869SOL    HW230507   0.870   2.944   1.183
 9870SOL     OW30508   4.020   0.363   2.795
 9870SOL    HW130509   4.007   0.299   2.871
 9870SOL    HW230510   4.115   0.357   2.762
 9871SOL     OW30511   0.087   3.423   5.897
 9871SOL    HW130512   0.105   3.440   5.994
 9871SOL    HW230513   0.084   3.325   5.880
 9872SOL     OW30514   2.089   5.536   5.075
 9872SOL    HW130515   2.125   5.628   5.090
 9872SOL    HW230516   2.165   5.474   5.054
 9873SOL     OW30517   2.126   2.067   5.979
 9873SOL    HW130518   2.068   2.131   6.030
 9873SOL    HW230519   2.095   2.060   5.885
 9874SOL     OW30520   0.220   3.409   4.834
 9874SOL    HW130521   0.293   3.477   4.837
 9874SOL    HW230522   0.205   3.373   4.926
 9875SOL     OW30523   6.789   5.717   2.436
 9875SOL    HW130524   6.819   5.796   2.489
 9875SOL    HW230525   6.839   5.715   2.349
 9876SOL     OW30526   5.203   0.720   4.188
 9876SOL    HW130527   5.219   0.654   4.114
 9876SOL    HW230528   5.106   0.724   4.209
 9877SOL     OW30529   6.737   4.384   4.424
 9877SOL    HW130530   6.722   4.285   4.425
 9877SOL    HW230531   6.756   4.415   4.331
 9878SOL     OW30532   2.329   3.928   6.731
 9878SOL    HW130533   2.321   3.868   6.650
 9878SOL    HW230534   2.306   4.021   6.705
 9879SOL     OW30535   0.477   4.982   5.641
 9879SOL    HW130536   0.523   4.915   5.583
 9879SOL    HW230537   0.507   4.971   5.735
 9880SOL     OW30538   2.399   0.482   0.371
 9880SOL    HW130539   2.467   0.496   0.443
 9880SOL    HW230540   2.386   0.567   0.320
 9881SOL     OW30541   6.414   0.748   4.868
 9881SOL    HW130542   6.417   0.733   4.769
 9881SOL    HW230543   6.325   0.786   4.893
 9882SOL     OW30544   3.646   3.523   4.957
 9882SOL    HW130545   3.583   3.479   4.893
 9882SOL    HW230546   3.724   3.463   4.975
 9883SOL     OW30547   1.999   5.851   1.688
 9883SOL    HW130548   1.920   5.792   1.672
 9883SOL    HW230549   2.069   5.802   1.739
 9884SOL     OW30550   3.071   2.539   0.213
 9884SOL    HW130551   2.992   2.547   0.151
 9884SOL    HW230552   3.151   2.581   0.171
 9885SOL     OW30553   1.328   3.527   4.322
 9885SOL    HW130554   1.371   3.593   4.260
 9885SOL    HW230555   1.233   3.512   4.294
 9886SOL     OW30556   6.418   6.919   2.027
 9886SOL    HW130557   6.500   6.906   1.972
 9886SOL    HW230558   6.338   6.885   1.976
 9887SOL     OW30559   3.380   0.119   0.608
 9887SOL    HW130560   3.410   0.214   0.616
 9887SOL    HW230561   3.408   0.068   0.689
 9888SOL     OW30562   5.607   6.051   3.609
 9888SOL    HW130563   5.615   6.128   3.672
 9888SOL    HW230564   5.514   6.048   3.572
 9889SOL     OW30565   0.778   4.899   2.682
 9889SOL    HW130566   0.820   4.832   2.744
 9889SOL    HW230567   0.753   4.981   2.733
 9890SOL     OW30568   6.448   3.195   0.264
 9890SOL    HW130569   6.513   3.171   0.336
 9890SOL    HW230570   6.491   3.182   0.174
 9891SOL     OW30571   5.160   4.827   1.664
 9891SOL    HW130572   5.074   4.852   1.707
 9891SOL    HW230573   5.161   4.860   1.569
 9892SOL     OW30574   2.228   5.430   4.014
 9892SOL    HW130575   2.155   5.411   4.080
 9892SOL    HW230576   2.194   5.417   3.921
 9893SOL     OW30577   6.522   5.749   2.333
 9893SOL    HW130578   6.602   5.688   2.338
 9893SOL    HW230579   6.452   5.716   2.397
 9894SOL     OW30580   2.834   1.328   6.637
 9894SOL    HW130581   2.839   1.375   6.549
 9894SOL    HW230582   2.842   1.395   6.711
 9895SOL     OW30583   6.236   2.085   5.691
 9895SOL    HW130584   6.188   2.058   5.608
 9895SOL    HW230585   6.169   2.103   5.763
 9896SOL     OW30586   4.611   2.382   1.024
 9896SOL    HW130587   4.597   2.286   1.048
 9896SOL    HW230588   4.648   2.431   1.103
 9897SOL     OW30589   5.253   1.382   2.346
 9897SOL    HW130590   5.344   1.369   2.306
 9897SOL    HW230591   5.262   1.408   2.442
 9898SOL     OW30592   0.689   5.259   5.317
 9898SOL    HW130593   0.747   5.339   5.300
 9898SOL    HW230594   0.658   5.221   5.230
 9899SOL     OW30595   6.150   4.380   2.210
 9899SOL    HW130596   6.138   4.335   2.121
 9899SOL    HW230597   6.101   4.467   2.210
 9900SOL     OW30598   1.906   1.857   2.505
 9900SOL    HW130599   1.965   1.913   2.447
 9900SOL    HW230600   1.945   1.852   2.597
 9901SOL     OW30601   1.230   2.334   0.395
 9901SOL    HW130602   1.150   2.393   0.382
 9901SOL    HW230603   1.227   2.259   0.330
 9902SOL     OW30604   3.355   3.166   1.177
 9902SOL    HW130605   3.339   3.070   1.154
 9902SOL    HW230606   3.439   3.175   1.230
 9903SOL     OW30607   4.525   0.371   2.517
 9903SOL    HW130608   4.442   0.328   2.481
 9903SOL    HW230609   4.602   0.308   2.508
 9904SOL     OW30610   0.221   3.239   6.723
 9904SOL    HW130611   0.230   3.213   6.819
 9904SOL    HW230612   0.151   3.183   6.680
 9905SOL     OW30613   1.711   6.587   0.780
 9905SOL    HW130614   1.632   6.589   0.719
 9905SOL    HW230615   1.752   6.678   0.784
 9906SOL     OW30616   1.629   3.222   6.938
 9906SOL    HW130617   1.666   3.249   0.001
 9906SOL    HW230618   1.531   3.241   6.936
 9907SOL     OW30619   2.562   6.927   3.380
 9907SOL    HW130620   2.635   6.948   3.315
 9907SOL    HW230621   2.564   6.829   3.401
 9908SOL     OW30622   0.971   3.300   6.202
 9908SOL    HW130623   1.027   3.293   6.285
 9908SOL    HW230624   0.995   3.225   6.140
 9909SOL     OW30625   3.501   0.869   3.415
 9909SOL    HW130626   3.441   0.929   3.360
 9909SOL    HW230627   3.465   0.864   3.508
 9910SOL     OW30628   6.992   4.742   1.762
 9910SOL    HW130629   0.064   4.723   1.762
 9910SOL    HW230630   6.977   4.838   1.740
 9911SOL     OW30631   4.717   5.120   3.220
 9911SOL    HW130632   4.685   5.110   3.315
 9911SOL    HW230633   4.675   5.201   3.179
 9912SOL     OW30634   4.103   0.635   2.704
 9912SOL    HW130635   4.092   0.706   2.773
 9912SOL    HW230636   4.077   0.546   2.742
 9913SOL     OW30637   6.346   2.943   2.055
 9913SOL    HW130638   6.256   2.964   2.015
 9913SOL    HW230639   6.385   2.864   2.009
 9914SOL     OW30640   0.806   0.872   5.523
 9914SOL    HW130641   0.801   0.775   5.548
 9914SOL    HW230642   0.821   0.927   5.604
 9915SOL     OW30643   5.580   3.898   3.871
 9915SOL    HW130644   5.532   3.922   3.955
 9915SOL    HW230645   5.658   3.839   3.893
 9916SOL     OW30646   2.800   1.915   3.961
 9916SOL    HW130647   2.886   1.964   3.949
 9916SOL    HW230648   2.729   1.978   3.991
 9917SOL     OW30649   3.093   3.208   4.566
 9917SOL    HW130650   3.083   3.251   4.476
 9917SOL    HW230651   3.156   3.130   4.558
 9918SOL     OW30652   1.316   1.371   0.525
 9918SOL    HW130653   1.359   1.284   0.498
 9918SOL    HW230654   1.386   1.431   0.563
 9919SOL     OW30655   2.048   4.990   2.403
 9919SOL    HW130656   2.020   5.000   2.499
 9919SOL    HW230657   1.989   5.047   2.346
 9920SOL     OW30658   3.428   1.104   2.920
 9920SOL    HW130659   3.468   1.157   2.846
 9920SOL    HW230660   3.416   1.163   3.001
 9921SOL     OW30661   6.111   6.379   3.962
 9921SOL    HW130662   6.015   6.378   3.989
 9921SOL    HW230663   6.136   6.289   3.926
 9922SOL     OW30664   4.447   4.378   0.716
 9922SOL    HW130665   4.406   4.312   0.779
 9922SOL    HW230666   4.546   4.366   0.714
 9923SOL     OW30667   6.656   3.126   0.454
 9923SOL    HW130668   6.723   3.196   0.481
 9923SOL    HW230669   6.635   3.068   0.533
 9924SOL     OW30670   5.578   1.563   1.567
 9924SOL    HW130671   5.575   1.643   1.626
 9924SOL    HW230672   5.658   1.567   1.508
 9925SOL     OW30673   2.024   4.327   5.322
 9925SOL    HW130674   2.075   4.259   5.268
 9925SOL    HW230675   2.041   4.418   5.285
 9926SOL     OW30676   3.460   2.591   1.367
 9926SOL    HW130677   3.478   2.496   1.392
 9926SOL    HW230678   3.481   2.650   1.445
 9927SOL     OW30679   1.068   2.767   1.290
 9927SOL    HW130680   0.981   2.791   1.332
 9927SOL    HW230681   1.125   2.850   1.281
 9928SOL     OW30682   5.879   4.441   2.336
 9928SOL    HW130683   5.927   4.382   2.401
 9928SOL    HW230684   5.803   4.486   2.382
 9929SOL     OW30685   2.799   4.046   5.277
 9929SOL    HW130686   2.737   3.972   5.302
 9929SOL    HW230687   2.758   4.134   5.301
 9930SOL     OW30688   6.870   0.444   5.679
 9930SOL    HW130689   6.889   0.347   5.670
 9930SOL    HW230690   6.847   0.466   5.774
 9931SOL     OW30691   0.279   5.811   5.032
 9931SOL    HW130692   0.259   5.810   4.934
 9931SOL    HW230693   0.250   5.724   5.072
 9932SOL     OW30694   1.420   2.065   0.550
 9932SOL    HW130695   1.457   2.111   0.469
 9932SOL    HW230696   1.349   2.123   0.592
 9933SOL     OW30697   2.659   0.905   3.783
 9933SOL    HW130698   2.580   0.946   3.738
 9933SOL    HW230699   2.637   0.813   3.814
 9934SOL     OW30700   5.841   1.929   0.310
 9934SOL    HW130701   5.757   1.982   0.295
 9934SOL    HW230702   5.919   1.991   0.314
 9935SOL     OW30703   2.921   2.378   0.778
 9935SOL    HW130704   2.899   2.330   0.863
 9935SOL    HW230705   2.875   2.332   0.701
 9936SOL     OW30706   5.611   4.435   6.076
 9936SOL    HW130707   5.599   4.350   6.025
 9936SOL    HW230708   5.568   4.427   6.165
 9937SOL     OW30709   1.078   0.998   3.040
 9937SOL    HW130710   1.074   0.926   3.110
 9937SOL    HW230711   0.988   1.009   2.998
 9938SOL     OW30712   5.475   0.409   3.608
 9938SOL    HW130713   5.566   0.445   3.628
 9938SOL    HW230714   5.406   0.477   3.635
 9939SOL     OW30715   1.599   3.008   0.903
 9939SOL    HW130716   1.640   2.947   0.972
 9939SOL    HW230717   1.599   3.102   0.937
 9940SOL     OW30718   0.086   0.220   3.594
 9940SOL    HW130719   0.010   0.236   3.656
 9940SOL    HW230720   0.157   0.289   3.610
 9941SOL     OW30721   3.445   5.751   5.679
 9941SOL    HW130722   3.470   5.782   5.587
 9941SOL    HW230723   3.375   5.813   5.716
 9942SOL     OW30724   4.887   4.418   2.676
 9942SOL    HW130725   4.884   4.515   2.700
 9942SOL    HW230726   4.951   4.405   2.600
 9943SOL     OW30727   1.052   4.428   6.347
 9943SOL    HW130728   1.111   4.440   6.267
 9943SOL    HW230729   1.043   4.515   6.395
 9944SOL     OW30730   6.728   5.651   6.701
 9944SOL    HW130731   6.798   5.582   6.682
 9944SOL    HW230732   6.697   5.643   6.796
 9945SOL     OW30733   5.472   3.949   6.635
 9945SOL    HW130734   5.453   3.852   6.618
 9945SOL    HW230735   5.510   3.960   6.726
 9946SOL     OW30736   6.311   0.320   3.732
 9946SOL    HW130737   6.354   0.387   3.793
 9946SOL    HW230738   6.318   0.352   3.637
 9947SOL     OW30739   1.658   1.421   3.280
 9947SOL    HW130740   1.669   1.358   3.203
 9947SOL    HW230741   1.707   1.384   3.359
 9948SOL     OW30742   7.025   5.912   4.926
 9948SOL    HW130743   0.088   5.956   4.931
 9948SOL    HW230744   6.965   5.950   4.996
 9949SOL     OW30745   0.581   5.189   4.171
 9949SOL    HW130746   0.627   5.105   4.200
 9949SOL    HW230747   0.519   5.168   4.095
 9950SOL     OW30748   6.505   5.024   6.267
 9950SOL    HW130749   6.473   5.008   6.360
 9950SOL    HW230750   6.456   4.964   6.203
 9951SOL     OW30751   1.589   2.596   2.820
 9951SOL    HW130752   1.644   2.531   2.873
 9951SOL    HW230753   1.617   2.689   2.842
 9952SOL     OW30754   1.173   3.834   1.906
 9952SOL    HW130755   1.099   3.812   1.842
 9952SOL    HW230756   1.162   3.928   1.939
 9953SOL     OW30757   5.999   2.537   3.183
 9953SOL    HW130758   5.986   2.443   3.214
 9953SOL    HW230759   6.087   2.570   3.215
 9954SOL     OW30760   1.742   1.139   4.955
 9954SOL    HW130761   1.829   1.131   5.003
 9954SOL    HW230762   1.739   1.074   4.879
 9955SOL     OW30763   4.836   3.156   6.928
 9955SOL    HW130764   4.817   3.128   6.833
 9955SOL    HW230765   4.758   3.209   6.963
 9956SOL     OW30766   0.471   3.810   2.395
 9956SOL    HW130767   0.393   3.814   2.334
 9956SOL    HW230768   0.499   3.714   2.407
 9957SOL     OW30769   5.728   0.186   1.081
 9957SOL    HW130770   5.693   0.142   1.163
 9957SOL    HW230771   5.828   0.182   1.081
 9958SOL     OW30772   3.581   5.733   6.372
 9958SOL    HW130773   3.487   5.746   6.339
 9958SOL    HW230774   3.591   5.780   6.460
 9959SOL     OW30775   4.223   3.484   1.433
 9959SOL    HW130776   4.234   3.520   1.525
 9959SOL    HW230777   4.126   3.465   1.416
 9960SOL     OW30778   0.181   6.529   1.493
 9960SOL    HW130779   0.224   6.599   1.435
 9960SOL    HW230780   0.101   6.493   1.446
 9961SOL     OW30781   1.940   4.399   2.528
 9961SOL    HW130782   1.937   4.471   2.598
 9961SOL    HW230783   1.873   4.419   2.456
 9962SOL     OW30784   3.796   0.845   1.891
 9962SOL    HW130785   3.896   0.844   1.902
 9962SOL    HW230786   3.769   0.931   1.847
 9963SOL     OW30787   2.825   2.596   0.067
 9963SOL    HW130788   2.748   2.588   0.003
 9963SOL    HW230789   2.862   2.689   0.062
 9964SOL     OW30790   3.516   4.949   5.779
 9964SOL    HW130791   3.447   5.021   5.774
 9964SOL    HW230792   3.569   4.948   5.695
 9965SOL     OW30793   3.551   5.462   4.505
 9965SOL    HW130794   3.470   5.473   4.562
 9965SOL    HW230795   3.543   5.378   4.451
 9966SOL     OW30796   2.794   5.092   2.320
 9966SOL    HW130797   2.893   5.086   2.329
 9966SOL    HW230798   2.759   5.165   2.379
 9967SOL     OW30799   5.956   5.407   2.961
 9967SOL    HW130800   5.978   5.358   3.045
 9967SOL    HW230801   5.887   5.478   2.980
 9968SOL     OW30802   4.345   5.717   6.897
 9968SOL    HW130803   4.248   5.709   6.921
 9968SOL    HW230804   4.363   5.665   6.814
 9969SOL     OW30805   2.065   3.264   4.346
 9969SOL    HW130806   2.121   3.347   4.343
 9969SOL    HW230807   2.017   3.260   4.433
 9970SOL     OW30808   6.339   5.247   1.333
 9970SOL    HW130809   6.250   5.221   1.295
 9970SOL    HW230810   6.342   5.346   1.348
 9971SOL     OW30811   1.807   2.701   1.386
 9971SOL    HW130812   1.781   2.769   1.454
 9971SOL    HW230813   1.765   2.613   1.409
 9972SOL     OW30814   2.493   3.944   1.172
 9972SOL    HW130815   2.457   3.985   1.256
 9972SOL    HW230816   2.549   3.865   1.195
 9973SOL     OW30817   4.874   2.905   4.525
 9973SOL    HW130818   4.836   2.873   4.612
 9973SOL    HW230819   4.949   2.969   4.542
 9974SOL     OW30820   0.175   2.380   3.296
 9974SOL    HW130821   0.204   2.310   3.363
 9974SOL    HW230822   0.237   2.379   3.219
 9975SOL     OW30823   0.762   5.597   6.320
 9975SOL    HW130824   0.850   5.644   6.326
 9975SOL    HW230825   0.691   5.653   6.361
 9976SOL     OW30826   1.215   5.015   5.255
 9976SOL    HW130827   1.156   5.052   5.183
 9976SOL    HW230828   1.199   5.066   5.340
 9977SOL     OW30829   5.189   4.871   5.786
 9977SOL    HW130830   5.170   4.843   5.880
 9977SOL    HW230831   5.135   4.815   5.723
 9978SOL     OW30832   6.936   1.785   5.450
 9978SOL    HW130833   6.839   1.765   5.436
 9978SOL    HW230834   6.991   1.711   5.410
 9979SOL     OW30835   6.199   4.033   6.109
 9979SOL    HW130836   6.273   4.086   6.067
 9979SOL    HW230837   6.195   3.943   6.067
 9980SOL     OW30838   2.038   0.318   1.009
 9980SOL    HW130839   2.122   0.317   0.955
 9980SOL    HW230840   2.023   0.410   1.046
 9981SOL     OW30841   1.693   2.088   0.831
 9981SOL    HW130842   1.696   2.176   0.783
 9981SOL    HW230843   1.785   2.051   0.838
 9982SOL     OW30844   0.993   1.173   4.150
 9982SOL    HW130845   0.982   1.081   4.187
 9982SOL    HW230846   0.902   1.211   4.130
 9983SOL     OW30847   7.007   1.703   2.125
 9983SOL    HW130848   0.064   1.741   2.085
 9983SOL    HW230849   6.928   1.750   2.086
 9984SOL     OW30850   0.955   5.914   0.362
 9984SOL    HW130851   1.005   5.948   0.442
 9984SOL    HW230852   0.949   5.988   0.294
 9985SOL     OW30853   2.901   5.253   1.318
 9985SOL    HW130854   2.900   5.306   1.233
 9985SOL    HW230855   2.839   5.295   1.384
 9986SOL     OW30856   5.916   5.105   0.820
 9986SOL    HW130857   5.853   5.029   0.833
 9986SOL    HW230858   5.985   5.080   0.752
 9987SOL     OW30859   6.177   2.655   2.110
 9987SOL    HW130860   6.269   2.646   2.073
 9987SOL    HW230861   6.150   2.570   2.154
 9988SOL     OW30862   6.548   5.510   4.268
 9988SOL    HW130863   6.472   5.484   4.210
 9988SOL    HW230864   6.604   5.430   4.289
 9989SOL     OW30865   6.182   4.102   2.282
 9989SOL    HW130866   6.139   4.068   2.365
 9989SOL    HW230867   6.151   4.195   2.264
 9990SOL     OW30868   1.967   6.631   3.303
 9990SOL    HW130869   2.022   6.550   3.325
 9990SOL    HW230870   1.885   6.632   3.360
 9991SOL     OW30871   2.170   3.575   3.660
 9991SOL    HW130872   2.227   3.521   3.722
 9991SOL    HW230873   2.163   3.529   3.572
 9992SOL     OW30874   3.718   3.602   0.967
 9992SOL    HW130875   3.693   3.552   1.050
 9992SOL    HW230876   3.771   3.541   0.908
 9993SOL     OW30877   4.191   6.517   4.009
 9993SOL    HW130878   4.125   6.461   3.958
 9993SOL    HW230879   4.212   6.599   3.956
 9994SOL     OW30880   0.144   3.907   2.520
 9994SOL    HW130881   0.242   3.925   2.519
 9994SOL    HW230882   0.094   3.993   2.533
 9995SOL     OW30883   3.747   1.220   3.740
 9995SOL    HW130884   3.692   1.218   3.657
 9995SOL    HW230885   3.692   1.190   3.818
 9996SOL     OW30886   2.767   3.788   1.456
 9996SOL    HW130887   2.705   3.788   1.535
 9996SOL    HW230888   2.717   3.756   1.375
 9997SOL     OW30889   5.720   0.682   2.657
 9997SOL    HW130890   5.654   0.667   2.583
 9997SOL    HW230891   5.811   0.655   2.626
 9998SOL     OW30892   5.535   3.329   1.596
 9998SOL    HW130893   5.623   3.293   1.628
 9998SOL    HW230894   5.461   3.287   1.649
 9999SOL     OW30895   7.004   6.182   5.118
 9999SOL    HW130896   0.057   6.188   5.179
 9999SOL    HW230897   6.921   6.204   5.169
10000SOL     OW30898   5.600   2.334   0.267
10000SOL    HW130899   5.551   2.248   0.255
10000SOL    HW230900   5.691   2.326   0.226
10001SOL     OW30901   3.189   0.347   1.352
10001SOL    HW130902   3.283   0.333   1.319
10001SOL    HW230903   3.188   0.426   1.415
10002SOL     OW30904   1.672   1.069   1.734
10002SOL    HW130905   1.608   1.144   1.719
10002SOL    HW230906   1.738   1.095   1.805
10003SOL     OW30907   2.999   2.161   2.363
10003SOL    HW130908   3.018   2.235   2.298
10003SOL    HW230909   2.920   2.108   2.330
10004SOL     OW30910   5.464   2.943   5.345
10004SOL    HW130911   5.365   2.951   5.357
10004SOL    HW230912   5.484   2.888   5.264
10005SOL     OW30913   3.395   5.509   3.212
10005SOL    HW130914   3.413   5.452   3.292
10005SOL    HW230915   3.423   5.461   3.129
10006SOL     OW30916   6.032   0.084   5.683
10006SOL    HW130917   6.113   0.025   5.684
10006SOL    HW230918   5.977   0.063   5.602
10007SOL     OW30919   0.915   3.160   4.237
10007SOL    HW130920   1.007   3.130   4.260
10007SOL    HW230921   0.856   3.154   4.317
10008SOL     OW30922   4.964   1.127   3.580
10008SOL    HW130923   5.050   1.079   3.568
10008SOL    HW230924   4.951   1.148   3.677
10009SOL     OW30925   1.662   3.914   1.702
10009SOL    HW130926   1.631   4.001   1.664
10009SOL    HW230927   1.596   3.881   1.769
10010SOL     OW30928   2.450   6.098   0.699
10010SOL    HW130929   2.453   6.011   0.649
10010SOL    HW230930   2.365   6.145   0.679
10011SOL     OW30931   0.359   4.380   6.727
10011SOL    HW130932   0.332   4.397   6.822
10011SOL    HW230933   0.336   4.286   6.702
10012SOL     OW30934   5.321   6.962   1.690
10012SOL    HW130935   5.401   6.953   1.631
10012SOL    HW230936   5.326   0.023   1.740
10013SOL     OW30937   1.941   2.568   4.473
10013SOL    HW130938   2.032   2.548   4.438
10013SOL    HW230939   1.912   2.659   4.442
10014SOL     OW30940   1.053   0.818   1.676
10014SOL    HW130941   0.980   0.848   1.738
10014SOL    HW230942   1.141   0.827   1.722
10015SOL     OW30943   4.210   5.134   0.164
10015SOL    HW130944   4.260   5.055   0.131
10015SOL    HW230945   4.145   5.106   0.234
10016SOL     OW30946   1.732   0.969   4.708
10016SOL    HW130947   1.640   0.933   4.690
10016SOL    HW230948   1.789   0.959   4.626
10017SOL     OW30949   1.923   1.327   2.815
10017SOL    HW130950   1.963   1.236   2.802
10017SOL    HW230951   1.996   1.392   2.832
10018SOL     OW30952   6.639   5.018   5.510
10018SOL    HW130953   6.681   4.997   5.598
10018SOL    HW230954   6.697   4.983   5.436
10019SOL     OW30955   0.636   1.703   3.333
10019SOL    HW130956   0.536   1.697   3.332
10019SOL    HW230957   0.664   1.787   3.380
10020SOL     OW30958   0.127   1.002   1.623
10020SOL    HW130959   0.173   1.014   1.711
10020SOL    HW230960   0.164   1.068   1.557
10021SOL     OW30961   0.753   3.003   2.516
10021SOL    HW130962   0.702   3.073   2.465
10021SOL    HW230963   0.830   2.971   2.460
10022SOL     OW30964   3.166   6.718   0.900
10022SOL    HW130965   3.261   6.693   0.917
10022SOL    HW230966   3.160   6.816   0.884
10023SOL     OW30967   2.007   5.135   3.957
10023SOL    HW130968   1.976   5.128   4.052
10023SOL    HW230969   2.106   5.146   3.955
10024SOL     OW30970   2.028   5.716   2.126
10024SOL    HW130971   2.017   5.737   2.223
10024SOL    HW230972   2.022   5.617   2.113
10025SOL     OW30973   1.271   3.003   2.245
10025SOL    HW130974   1.246   2.981   2.151
10025SOL    HW230975   1.283   3.102   2.255
10026SOL     OW30976   5.315   0.506   3.053
10026SOL    HW130977   5.247   0.442   3.088
10026SOL    HW230978   5.305   0.515   2.954
10027SOL     OW30979   0.854   2.344   5.207
10027SOL    HW130980   0.810   2.295   5.282
10027SOL    HW230981   0.818   2.437   5.203
10028SOL     OW30982   1.970   1.575   1.996
10028SOL    HW130983   2.006   1.574   1.902
10028SOL    HW230984   1.961   1.669   2.027
10029SOL     OW30985   1.719   2.284   3.497
10029SOL    HW130986   1.636   2.332   3.525
10029SOL    HW230987   1.725   2.197   3.546
10030SOL     OW30988   3.521   0.403   5.171
10030SOL    HW130989   3.611   0.424   5.135
10030SOL    HW230990   3.530   0.360   5.261
10031SOL     OW30991   5.415   4.426   4.708
10031SOL    HW130992   5.364   4.413   4.623
10031SOL    HW230993   5.487   4.494   4.694
10032SOL     OW30994   4.530   0.554   5.326
10032SOL    HW130995   4.586   0.504   5.259
10032SOL    HW230996   4.485   0.631   5.280
10033SOL     OW30997   4.586   2.638   3.830
10033SOL    HW130998   4.519   2.702   3.868
10033SOL    HW230999   4.649   2.686   3.770
10034SOL     OW31000   3.120   0.373   4.038
10034SOL    HW131001   3.035   0.371   3.985
10034SOL    HW231002   3.197   0.355   3.977
10035SOL     OW31003   6.612   5.038   1.264
10035SOL    HW131004   6.542   5.022   1.333
10035SOL    HW231005   6.576   5.014   1.174
10036SOL     OW31006   6.476   0.497   0.827
10036SOL    HW131007   6.561   0.502   0.773
10036SOL    HW231008   6.398   0.484   0.765
10037SOL     OW31009   5.949   0.653   0.287
10037SOL    HW131010   5.915   0.671   0.380
10037SOL    HW231011   6.038   0.607   0.293
10038SOL     OW31012   4.113   6.838   6.430
10038SOL    HW131013   4.070   6.877   6.511
10038SOL    HW231014   4.052   6.772   6.388
10039SOL     OW31015   4.430   6.692   5.211
10039SOL    HW131016   4.501   6.622   5.206
10039SOL    HW231017   4.372   6.674   5.290
10040SOL     OW31018   4.208   5.901   6.419
10040SOL    HW131019   4.280   5.963   6.451
10040SOL    HW231020   4.178   5.929   6.327
10041SOL     OW31021   5.035   6.122   6.768
10041SOL    HW131022   4.986   6.065   6.702
10041SOL    HW231023   4.992   6.116   6.857
10042SOL     OW31024   1.338   2.030   5.182
10042SOL    HW131025   1.381   2.042   5.271
10042SOL    HW231026   1.259   2.091   5.174
10043SOL     OW31027   0.325   2.037   4.330
10043SOL    HW131028   0.398   2.094   4.293
10043SOL    HW231029   0.238   2.064   4.289
10044SOL     OW31030   2.407   1.620   3.926
10044SOL    HW131031   2.492   1.630   3.977
10044SOL    HW231032   2.428   1.610   3.829
10045SOL     OW31033   5.187   6.938   3.922
10045SOL    HW131034   5.173   6.846   3.886
10045SOL    HW231035   5.189   6.935   4.022
10046SOL     OW31036   1.009   3.590   1.421
10046SOL    HW131037   0.936   3.651   1.448
10046SOL    HW231038   1.014   3.585   1.321
10047SOL     OW31039   6.236   3.817   4.932
10047SOL    HW131040   6.258   3.720   4.934
10047SOL    HW231041   6.214   3.845   4.839
10048SOL     OW31042   4.821   2.108   2.298
10048SOL    HW131043   4.882   2.075   2.370
10048SOL    HW231044   4.763   2.181   2.335
10049SOL     OW31045   0.804   0.274   6.769
10049SOL    HW131046   0.765   0.364   6.790
10049SOL    HW231047   0.820   0.225   6.854
10050SOL     OW31048   6.831   2.857   5.039
10050SOL    HW131049   6.868   2.768   5.067
10050SOL    HW231050   6.735   2.863   5.068
10051SOL     OW31051   6.149   2.411   4.885
10051SOL    HW131052   6.203   2.367   4.813
10051SOL    HW231053   6.135   2.507   4.862
10052SOL     OW31054   3.160   2.120   3.074
10052SOL    HW131055   3.170   2.200   3.016
10052SOL    HW231056   3.225   2.050   3.046
10053SOL     OW31057   3.657   5.748   1.756
10053SOL    HW131058   3.637   5.837   1.715
10053SOL    HW231059   3.691   5.761   1.849
10054SOL     OW31060   4.695   4.911   5.964
10054SOL    HW131061   4.679   4.986   5.901
10054SOL    HW231062   4.653   4.828   5.928
10055SOL     OW31063   6.134   2.059   5.423
10055SOL    HW131064   6.176   2.144   5.390
10055SOL    HW231065   6.035   2.062   5.409
10056SOL     OW31066   5.585   4.235   1.737
10056SOL    HW131067   5.554   4.329   1.753
10056SOL    HW231068   5.651   4.234   1.662
10057SOL     OW31069   4.350   2.300   4.854
10057SOL    HW131070   4.293   2.246   4.791
10057SOL    HW231071   4.291   2.354   4.914
10058SOL     OW31072   0.268   3.948   4.499
10058SOL    HW131073   0.304   4.020   4.438
10058SOL    HW231074   0.330   3.870   4.498
10059SOL     OW31075   5.136   6.253   0.859
10059SOL    HW131076   5.218   6.236   0.915
10059SOL    HW231077   5.142   6.343   0.817
10060SOL     OW31078   1.557   1.783   1.571
10060SOL    HW131079   1.497   1.776   1.491
10060SOL    HW231080   1.582   1.691   1.601
10061SOL     OW31081   5.406   1.140   4.606
10061SOL    HW131082   5.358   1.134   4.693
10061SOL    HW231083   5.462   1.058   4.593
10062SOL     OW31084   6.545   0.346   4.480
10062SOL    HW131085   6.626   0.288   4.472
10062SOL    HW231086   6.464   0.290   4.494
10063SOL     OW31087   1.774   1.530   4.119
10063SOL    HW131088   1.783   1.625   4.145
10063SOL    HW231089   1.860   1.482   4.134
10064SOL     OW31090   4.966   6.569   0.334
10064SOL    HW131091   4.874   6.594   0.363
10064SOL    HW231092   4.970   6.565   0.234
10065SOL     OW31093   2.018   0.015   2.538
10065SOL    HW131094   2.072   6.996   2.467
10065SOL    HW231095   2.078   0.069   2.597
10066SOL     OW31096   0.975   1.868   3.319
10066SOL    HW131097   1.008   1.963   3.321
10066SOL    HW231098   1.036   1.811   3.374
10067SOL     OW31099   6.409   4.243   4.749
10067SOL    HW131100   6.509   4.241   4.762
10067SOL    HW231101   6.385   4.189   4.669
10068SOL     OW31102   6.551   3.366   2.629
10068SOL    HW131103   6.467   3.406   2.593
10068SOL    HW231104   6.572   3.282   2.580
10069SOL     OW31105   1.798   5.372   3.494
10069SOL    HW131106   1.710   5.417   3.480
10069SOL    HW231107   1.831   5.391   3.587
10070SOL     OW31108   6.328   0.210   5.175
10070SOL    HW131109   6.396   0.143   5.144
10070SOL    HW231110   6.285   0.178   5.259
10071SOL     OW31111   6.458   5.773   3.797
10071SOL    HW131112   6.469   5.740   3.891
10071SOL    HW231113   6.384   5.721   3.752
10072SOL     OW31114   6.986   6.449   3.846
10072SOL    HW131115   0.021   6.511   3.893
10072SOL    HW231116   7.005   6.450   3.748
10073SOL     OW31117   6.013   4.775   5.153
10073SOL    HW131118   6.023   4.804   5.057
10073SOL    HW231119   6.003   4.856   5.211
10074SOL     OW31120   1.432   0.645   5.414
10074SOL    HW131121   1.436   0.741   5.443
10074SOL    HW231122   1.341   0.608   5.433
10075SOL     OW31123   1.383   3.023   3.319
10075SOL    HW131124   1.351   2.967   3.242
10075SOL    HW231125   1.388   3.119   3.290
10076SOL     OW31126   6.979   0.173   3.361
10076SOL    HW131127   0.013   0.163   3.440
10076SOL    HW231128   7.000   0.259   3.314
10077SOL     OW31129   3.713   3.170   6.277
10077SOL    HW131130   3.765   3.255   6.286
10077SOL    HW231131   3.615   3.190   6.287
10078SOL     OW31132   0.384   5.207   3.869
10078SOL    HW131133   0.399   5.118   3.913
10078SOL    HW231134   0.433   5.210   3.782
10079SOL     OW31135   6.874   3.644   2.647
10079SOL    HW131136   6.777   3.668   2.653
10079SOL    HW231137   6.907   3.666   2.555
10080SOL     OW31138   3.917   1.183   5.169
10080SOL    HW131139   3.831   1.224   5.200
10080SOL    HW231140   3.952   1.233   5.090
10081SOL     OW31141   0.246   6.744   0.426
10081SOL    HW131142   0.161   6.749   0.478
10081SOL    HW231143   0.264   6.650   0.399
10082SOL     OW31144   6.636   4.923   1.686
10082SOL    HW131145   6.726   4.915   1.729
10082SOL    HW231146   6.593   5.008   1.714
10083SOL     OW31147   4.949   1.012   3.174
10083SOL    HW131148   4.948   1.079   3.100
10083SOL    HW231149   5.028   1.029   3.233
10084SOL     OW31150   2.161   0.907   5.307
10084SOL    HW131151   2.207   0.854   5.378
10084SOL    HW231152   2.125   0.991   5.347
10085SOL     OW31153   1.790   6.050   2.193
10085SOL    HW131154   1.884   6.059   2.227
10085SOL    HW231155   1.769   5.953   2.180
10086SOL     OW31156   4.983   5.697   2.219
10086SOL    HW131157   4.914   5.644   2.169
10086SOL    HW231158   4.960   5.697   2.317
10087SOL     OW31159   0.298   0.073   3.759
10087SOL    HW131160   0.243   0.147   3.720
10087SOL    HW231161   0.237   0.002   3.794
10088SOL     OW31162   6.930   6.897   1.075
10088SOL    HW131163   6.841   6.906   1.030
10088SOL    HW231164   7.001   6.936   1.016
10089SOL     OW31165   2.984   1.749   2.196
10089SOL    HW131166   2.930   1.666   2.179
10089SOL    HW231167   3.039   1.769   2.115
10090SOL     OW31168   1.185   4.552   1.368
10090SOL    HW131169   1.197   4.578   1.272
10090SOL    HW231170   1.088   4.536   1.386
10091SOL     OW31171   1.198   3.856   6.024
10091SOL    HW131172   1.120   3.793   6.022
10091SOL    HW231173   1.167   3.947   6.052
10092SOL     OW31174   1.942   2.890   4.957
10092SOL    HW131175   1.876   2.940   5.013
10092SOL    HW231176   2.026   2.877   5.009
10093SOL     OW31177   6.591   3.486   5.260
10093SOL    HW131178   6.586   3.490   5.360
10093SOL    HW231179   6.668   3.543   5.229
10094SOL     OW31180   2.643   5.716   2.219
10094SOL    HW131181   2.712   5.649   2.190
10094SOL    HW231182   2.569   5.717   2.152
10095SOL     OW31183   5.655   1.759   5.318
10095SOL    HW131184   5.629   1.735   5.225
10095SOL    HW231185   5.584   1.729   5.382
10096SOL     OW31186   4.700   4.876   2.259
10096SOL    HW131187   4.607   4.840   2.259
10096SOL    HW231188   4.756   4.825   2.194
10097SOL     OW31189   1.045   0.736   0.964
10097SOL    HW131190   1.041   0.815   0.902
10097SOL    HW231191   1.017   0.653   0.914
10098SOL     OW31192   2.838   0.484   5.124
10098SOL    HW131193   2.843   0.408   5.189
10098SOL    HW231194   2.923   0.490   5.072
10099SOL     OW31195   6.925   5.076   0.968
10099SOL    HW131196   6.876   5.110   1.048
10099SOL    HW231197   7.009   5.031   0.997
10100SOL     OW31198   5.383   0.141   4.821
10100SOL    HW131199   5.427   0.100   4.741
10100SOL    HW231200   5.420   0.099   4.904
10101SOL     OW31201   5.961   3.805   1.703
10101SOL    HW131202   5.871   3.848   1.713
10101SOL    HW231203   5.960   3.745   1.623
10102SOL     OW31204   1.225   1.095   2.079
10102SOL    HW131205   1.183   1.165   2.138
10102SOL    HW231206   1.175   1.089   1.993
10103SOL     OW31207   2.456   0.225   5.904
10103SOL    HW131208   2.436   0.172   5.987
10103SOL    HW231209   2.542   0.194   5.865
10104SOL     OW31210   1.833   1.908   3.883
10104SOL    HW131211   1.833   1.934   3.979
10104SOL    HW231212   1.919   1.862   3.861
10105SOL     OW31213   1.542   0.791   0.564
10105SOL    HW131214   1.634   0.754   0.575
10105SOL    HW231215   1.546   0.891   0.564
10106SOL     OW31216   3.989   6.786   0.719
10106SOL    HW131217   3.917   6.719   0.699
10106SOL    HW231218   3.954   6.855   0.781
10107SOL     OW31219   6.741   1.320   6.448
10107SOL    HW131220   6.696   1.238   6.484
10107SOL    HW231221   6.758   1.384   6.523
10108SOL     OW31222   6.638   6.760   0.371
10108SOL    HW131223   6.632   6.720   0.280
10108SOL    HW231224   6.660   6.857   0.364
10109SOL     OW31225   5.193   0.137   0.752
10109SOL    HW131226   5.174   0.233   0.733
10109SOL    HW231227   5.242   0.097   0.674
10110SOL     OW31228   3.946   5.618   4.457
10110SOL    HW131229   4.014   5.546   4.460
10110SOL    HW231230   3.878   5.598   4.386
10111SOL     OW31231   5.345   3.504   3.647
10111SOL    HW131232   5.425   3.488   3.704
10111SOL    HW231233   5.262   3.500   3.703
10112SOL     OW31234   5.755   3.697   3.891
10112SOL    HW131235   5.720   3.620   3.945
10112SOL    HW231236   5.853   3.709   3.909
10113SOL     OW31237   4.327   0.362   6.166
10113SOL    HW131238   4.308   0.398   6.075
10113SOL    HW231239   4.408   0.305   6.163
10114SOL     OW31240   5.683   1.347   0.959
10114SOL    HW131241   5.765   1.297   0.932
10114SOL    HW231242   5.653   1.405   0.884
10115SOL     OW31243   3.794   1.502   4.618
10115SOL    HW131244   3.753   1.431   4.675
10115SOL    HW231245   3.867   1.548   4.669
10116SOL     OW31246   0.571   6.430   0.866
10116SOL    HW131247   0.596   6.522   0.896
10116SOL    HW231248   0.483   6.432   0.820
10117SOL     OW31249   6.566   6.064   5.746
10117SOL    HW131250   6.547   6.126   5.823
10117SOL    HW231251   6.640   6.002   5.770
10118SOL     OW31252   1.801   4.910   2.780
10118SOL    HW131253   1.886   4.935   2.827
10118SOL    HW231254   1.763   4.991   2.736
10119SOL     OW31255   0.585   5.838   4.497
10119SOL    HW131256   0.546   5.883   4.577
10119SOL    HW231257   0.515   5.782   4.453
10120SOL     OW31258   1.497   3.314   5.190
10120SOL    HW131259   1.559   3.392   5.197
10120SOL    HW231260   1.481   3.293   5.094
10121SOL     OW31261   6.483   4.067   6.633
10121SOL    HW131262   6.572   4.029   6.656
10121SOL    HW231263   6.483   4.098   6.538
10122SOL     OW31264   6.006   3.197   1.681
10122SOL    HW131265   6.055   3.283   1.691
10122SOL    HW231266   6.068   3.127   1.645
10123SOL     OW31267   5.509   6.982   0.021
10123SOL    HW131268   5.489   6.907   0.085
10123SOL    HW231269   5.468   0.040   0.055
10124SOL     OW31270   1.421   4.342   0.206
10124SOL    HW131271   1.480   4.262   0.209
10124SOL    HW231272   1.425   4.383   0.115
10125SOL     OW31273   2.110   1.234   1.984
10125SOL    HW131274   2.047   1.286   2.041
10125SOL    HW231275   2.174   1.296   1.940
10126SOL     OW31276   0.052   6.632   6.329
10126SOL    HW131277   0.016   6.707   6.274
10126SOL    HW231278   7.008   6.562   6.340
10127SOL     OW31279   2.845   4.766   6.339
10127SOL    HW131280   2.759   4.804   6.304
10127SOL    HW231281   2.917   4.836   6.333
10128SOL     OW31282   2.539   1.454   0.949
10128SOL    HW131283   2.462   1.414   0.998
10128SOL    HW231284   2.601   1.382   0.918
10129SOL     OW31285   5.724   1.578   2.514
10129SOL    HW131286   5.760   1.659   2.560
10129SOL    HW231287   5.771   1.565   2.427
10130SOL     OW31288   1.481   3.562   2.030
10130SOL    HW131289   1.436   3.473   2.040
10130SOL    HW231290   1.578   3.549   2.011
10131SOL     OW31291   1.053   0.215   4.526
10131SOL    HW131292   1.053   0.210   4.625
10131SOL    HW231293   1.027   0.125   4.488
10132SOL     OW31294   3.753   0.286   4.527
10132SOL    HW131295   3.791   0.203   4.485
10132SOL    HW231296   3.736   0.269   4.624
10133SOL     OW31297   3.671   6.131   1.132
10133SOL    HW131298   3.742   6.068   1.162
10133SOL    HW231299   3.634   6.100   1.044
10134SOL     OW31300   0.565   5.883   3.260
10134SOL    HW131301   0.540   5.882   3.164
10134SOL    HW231302   0.618   5.966   3.280
10135SOL     OW31303   5.013   3.500   3.368
10135SOL    HW131304   4.951   3.441   3.316
10135SOL    HW231305   5.105   3.461   3.365
10136SOL     OW31306   5.327   0.794   2.579
10136SOL    HW131307   5.278   0.824   2.498
10136SOL    HW231308   5.315   0.860   2.652
10137SOL     OW31309   6.529   3.945   3.911
10137SOL    HW131310   6.626   3.934   3.934
10137SOL    HW231311   6.488   3.856   3.893
10138SOL     OW31312   5.127   3.704   0.585
10138SOL    HW131313   5.180   3.674   0.506
10138SOL    HW231314   5.044   3.649   0.593
10139SOL     OW31315   3.063   3.885   3.266
10139SOL    HW131316   3.038   3.814   3.333
10139SOL    HW231317   3.160   3.907   3.276
10140SOL     OW31318   5.809   6.303   0.202
10140SOL    HW131319   5.807   6.232   0.132
10140SOL    HW231320   5.849   6.265   0.286
10141SOL     OW31321   3.670   1.677   5.251
10141SOL    HW131322   3.627   1.762   5.219
10141SOL    HW231323   3.706   1.627   5.172
10142SOL     OW31324   6.286   6.861   5.037
10142SOL    HW131325   6.216   6.831   5.102
10142SOL    HW231326   6.301   6.789   4.969
10143SOL     OW31327   5.353   1.309   6.984
10143SOL    HW131328   5.439   1.337   0.000
10143SOL    HW231329   5.301   1.391   6.959
10144SOL     OW31330   2.841   0.635   5.927
10144SOL    HW131331   2.856   0.576   6.005
10144SOL    HW231332   2.770   0.702   5.948
10145SOL     OW31333   2.694   5.314   4.056
10145SOL    HW131334   2.610   5.266   4.028
10145SOL    HW231335   2.677   5.363   4.141
10146SOL     OW31336   4.370   4.649   4.721
10146SOL    HW131337   4.323   4.623   4.805
10146SOL    HW231338   4.412   4.740   4.734
10147SOL     OW31339   5.686   3.868   5.273
10147SOL    HW131340   5.595   3.852   5.237
10147SOL    HW231341   5.720   3.956   5.240
10148SOL     OW31342   4.988   4.727   6.595
10148SOL    HW131343   4.893   4.720   6.568
10148SOL    HW231344   5.009   4.822   6.620
10149SOL     OW31345   6.022   3.087   0.695
10149SOL    HW131346   5.964   3.088   0.776
10149SOL    HW231347   6.114   3.119   0.719
10150SOL     OW31348   3.414   3.975   0.410
10150SOL    HW131349   3.437   3.953   0.505
10150SOL    HW231350   3.389   4.072   0.403
10151SOL     OW31351   0.797   6.047   6.746
10151SOL    HW131352   0.707   6.010   6.767
10151SOL    HW231353   0.864   5.973   6.740
10152SOL     OW31354   0.074   6.068   4.451
10152SOL    HW131355   0.170   6.040   4.450
10152SOL    HW231356   0.022   6.006   4.510
10153SOL     OW31357   4.748   6.280   3.682
10153SOL    HW131358   4.846   6.298   3.691
10153SOL    HW231359   4.709   6.340   3.611
10154SOL     OW31360   4.296   6.600   5.417
10154SOL    HW131361   4.244   6.520   5.445
10154SOL    HW231362   4.258   6.682   5.461
10155SOL     OW31363   3.806   2.513   5.790
10155SOL    HW131364   3.825   2.422   5.754
10155SOL    HW231365   3.815   2.581   5.718
10156SOL     OW31366   5.864   0.300   2.390
10156SOL    HW131367   5.779   0.351   2.402
10156SOL    HW231368   5.873   0.272   2.294
10157SOL     OW31369   0.154   1.641   0.801
10157SOL    HW131370   0.207   1.725   0.817
10157SOL    HW231371   0.191   1.593   0.723
10158SOL     OW31372   5.874   5.581   0.354
10158SOL    HW131373   5.854   5.535   0.441
10158SOL    HW231374   5.936   5.658   0.371
10159SOL     OW31375   2.396   3.323   0.328
10159SOL    HW131376   2.494   3.305   0.318
10159SOL    HW231377   2.365   3.289   0.417
10160SOL     OW31378   1.850   3.013   2.293
10160SOL    HW131379   1.757   2.975   2.286
10160SOL    HW231380   1.855   3.075   2.372
10161SOL     OW31381   3.257   3.040   0.580
10161SOL    HW131382   3.210   2.978   0.643
10161SOL    HW231383   3.222   3.133   0.592
10162SOL     OW31384   3.510   4.713   1.141
10162SOL    HW131385   3.503   4.674   1.233
10162SOL    HW231386   3.604   4.703   1.108
10163SOL     OW31387   6.499   4.394   6.797
10163SOL    HW131388   6.425   4.327   6.797
10163SOL    HW231389   6.528   4.411   6.703
10164SOL     OW31390   6.173   3.749   4.119
10164SOL    HW131391   6.205   3.669   4.069
10164SOL    HW231392   6.145   3.820   4.055
10165SOL     OW31393   6.710   1.999   3.398
10165SOL    HW131394   6.637   1.969   3.337
10165SOL    HW231395   6.773   1.923   3.414
10166SOL     OW31396   3.414   1.848   2.006
10166SOL    HW131397   3.347   1.893   1.946
10166SOL    HW231398   3.497   1.904   2.011
10167SOL     OW31399   2.003   4.630   6.885
10167SOL    HW131400   1.961   4.542   6.863
10167SOL    HW231401   2.076   4.649   6.820
10168SOL     OW31402   5.898   2.666   6.129
10168SOL    HW131403   5.835   2.735   6.165
10168SOL    HW231404   5.896   2.669   6.029
10169SOL     OW31405   6.463   4.878   3.662
10169SOL    HW131406   6.555   4.863   3.625
10169SOL    HW231407   6.396   4.871   3.588
10170SOL     OW31408   6.979   5.856   5.265
10170SOL    HW131409   0.032   5.884   5.320
10170SOL    HW231410   6.977   5.756   5.259
10171SOL     OW31411   0.044   2.765   4.514
10171SOL    HW131412   0.131   2.813   4.501
10171SOL    HW231413   7.002   2.829   4.549
10172SOL     OW31414   0.394   6.077   5.095
10172SOL    HW131415   0.491   6.079   5.116
10172SOL    HW231416   0.366   5.984   5.071
10173SOL     OW31417   1.462   2.892   0.688
10173SOL    HW131418   1.478   2.984   0.724
10173SOL    HW231419   1.542   2.834   0.708
10174SOL     OW31420   5.106   4.719   3.424
10174SOL    HW131421   5.146   4.767   3.502
10174SOL    HW231422   5.164   4.641   3.400
10175SOL     OW31423   6.068   1.925   3.318
10175SOL    HW131424   6.157   1.945   3.359
10175SOL    HW231425   5.999   1.987   3.356
10176SOL     OW31426   0.837   3.552   4.721
10176SOL    HW131427   0.786   3.633   4.749
10176SOL    HW231428   0.923   3.580   4.679
10177SOL     OW31429   2.334   0.826   1.619
10177SOL    HW131430   2.427   0.815   1.654
10177SOL    HW231431   2.308   0.745   1.567
10178SOL     OW31432   0.591   1.152   6.400
10178SOL    HW131433   0.616   1.082   6.466
10178SOL    HW231434   0.585   1.111   6.309
10179SOL     OW31435   0.311   2.669   6.742
10179SOL    HW131436   0.348   2.718   6.821
10179SOL    HW231437   0.273   2.735   6.677
10180SOL     OW31438   4.218   0.664   6.068
10180SOL    HW131439   4.146   0.648   6.001
10180SOL    HW231440   4.302   0.693   6.021
10181SOL     OW31441   6.115   3.349   1.037
10181SOL    HW131442   6.125   3.446   1.057
10181SOL    HW231443   6.069   3.304   1.113
10182SOL     OW31444   4.600   0.672   1.643
10182SOL    HW131445   4.520   0.633   1.688
10182SOL    HW231446   4.626   0.756   1.691
10183SOL     OW31447   7.017   3.086   6.683
10183SOL    HW131448   6.976   3.169   6.646
10183SOL    HW231449   6.968   3.058   6.766
10184SOL     OW31450   3.973   1.515   6.165
10184SOL    HW131451   4.007   1.570   6.089
10184SOL    HW231452   4.049   1.489   6.224
10185SOL     OW31453   6.207   5.755   2.871
10185SOL    HW131454   6.218   5.699   2.789
10185SOL    HW231455   6.272   5.725   2.941
10186SOL     OW31456   6.011   3.656   3.841
10186SOL    HW131457   6.051   3.579   3.890
10186SOL    HW231458   6.039   3.653   3.745
10187SOL     OW31459   1.222   3.771   0.620
10187SOL    HW131460   1.282   3.712   0.566
10187SOL    HW231461   1.127   3.744   0.605
10188SOL     OW31462   4.363   4.986   0.498
10188SOL    HW131463   4.269   5.001   0.469
10188SOL    HW231464   4.412   5.073   0.501
10189SOL     OW31465   1.127   1.125   5.963
10189SOL    HW131466   1.216   1.106   5.921
10189SOL    HW231467   1.086   1.040   5.994
10190SOL     OW31468   4.921   3.201   1.511
10190SOL    HW131469   4.890   3.108   1.491
10190SOL    HW231470   4.871   3.238   1.589
10191SOL     OW31471   4.339   6.279   6.625
10191SOL    HW131472   4.388   6.342   6.685
10191SOL    HW231473   4.375   6.186   6.637
10192SOL     OW31474   4.273   1.457   5.000
10192SOL    HW131475   4.348   1.402   4.962
10192SOL    HW231476   4.292   1.554   4.984
10193SOL     OW31477   3.774   3.312   2.028
10193SOL    HW131478   3.680   3.343   2.016
10193SOL    HW231479   3.791   3.294   2.125
10194SOL     OW31480   5.582   5.995   5.432
10194SOL    HW131481   5.567   6.066   5.501
10194SOL    HW231482   5.516   6.006   5.358
10195SOL     OW31483   6.201   5.650   0.277
10195SOL    HW131484   6.226   5.741   0.243
10195SOL    HW231485   6.120   5.617   0.230
10196SOL     OW31486   4.443   1.959   3.803
10196SOL    HW131487   4.420   1.954   3.900
10196SOL    HW231488   4.522   2.020   3.791
10197SOL     OW31489   5.848   1.054   4.967
10197SOL    HW131490   5.787   1.030   4.891
10197SOL    HW231491   5.842   0.985   5.038
10198SOL     OW31492   2.892   6.740   2.695
10198SOL    HW131493   2.820   6.795   2.737
10198SOL    HW231494   2.938   6.686   2.766
10199SOL     OW31495   2.069   3.189   0.566
10199SOL    HW131496   2.108   3.105   0.530
10199SOL    HW231497   2.005   3.167   0.640
10200SOL     OW31498   5.040   2.618   6.358
10200SOL    HW131499   4.956   2.581   6.319
10200SOL    HW231500   5.022   2.708   6.399
10201SOL     OW31501   1.345   5.226   0.256
10201SOL    HW131502   1.390   5.145   0.219
10201SOL    HW231503   1.402   5.307   0.238
10202SOL     OW31504   3.369   4.936   1.111
10202SOL    HW131505   3.365   4.966   1.206
10202SOL    HW231506   3.422   4.851   1.104
10203SOL     OW31507   6.741   2.705   2.232
10203SOL    HW131508   6.817   2.673   2.175
10203SOL    HW231509   6.672   2.632   2.239
10204SOL     OW31510   4.938   5.883   6.940
10204SOL    HW131511   4.959   5.973   6.978
10204SOL    HW231512   4.940   5.815   7.013
10205SOL     OW31513   2.620   0.685   2.106
10205SOL    HW131514   2.522   0.706   2.098
10205SOL    HW231515   2.655   0.658   2.017
10206SOL     OW31516   6.835   0.245   6.542
10206SOL    HW131517   6.784   0.325   6.511
10206SOL    HW231518   6.774   0.166   6.545
10207SOL     OW31519   1.464   2.350   6.895
10207SOL    HW131520   1.495   2.431   6.845
10207SOL    HW231521   1.490   2.267   6.846
10208SOL     OW31522   6.346   4.937   3.925
10208SOL    HW131523   6.418   4.908   3.862
10208SOL    HW231524   6.380   5.010   3.984
10209SOL     OW31525   0.462   0.177   6.926
10209SOL    HW131526   0.488   0.108   6.858
10209SOL    HW231527   0.426   0.132   7.007
10210SOL     OW31528   4.394   6.772   1.845
10210SOL    HW131529   4.381   6.853   1.787
10210SOL    HW231530   4.345   6.784   1.931
10211SOL     OW31531   4.722   6.728   4.224
10211SOL    HW131532   4.631   6.688   4.228
10211SOL    HW231533   4.762   6.728   4.315
10212SOL     OW31534   0.028   0.326   5.501
10212SOL    HW131535   0.071   0.239   5.524
10212SOL    HW231536   0.011   0.331   5.403
10213SOL     OW31537   5.447   2.451   1.671
10213SOL    HW131538   5.521   2.454   1.604
10213SOL    HW231539   5.376   2.516   1.646
10214SOL     OW31540   0.686   1.967   1.301
10214SOL    HW131541   0.728   1.890   1.347
10214SOL    HW231542   0.663   1.941   1.207
10215SOL     OW31543   4.032   3.148   4.020
10215SOL    HW131544   4.017   3.051   4.040
10215SOL    HW231545   4.048   3.197   4.106
10216SOL     OW31546   6.895   0.872   1.672
10216SOL    HW131547   6.820   0.928   1.637
10216SOL    HW231548   6.982   0.917   1.651
10217SOL     OW31549   2.932   1.227   3.533
10217SOL    HW131550   2.990   1.278   3.469
10217SOL    HW231551   2.936   1.129   3.511
10218SOL     OW31552   1.214   1.296   1.668
10218SOL    HW131553   1.235   1.288   1.570
10218SOL    HW231554   1.153   1.374   1.682
10219SOL     OW31555   0.306   2.070   3.355
10219SOL    HW131556   0.303   2.031   3.448
10219SOL    HW231557   0.256   2.010   3.293
10220SOL     OW31558   4.997   1.891   0.839
10220SOL    HW131559   4.935   1.947   0.784
10220SOL    HW231560   4.949   1.808   0.868
10221SOL     OW31561   1.743   4.316   4.152
10221SOL    HW131562   1.767   4.326   4.055
10221SOL    HW231563   1.813   4.359   4.208
10222SOL     OW31564   3.146   4.351   5.293
10222SOL    HW131565   3.070   4.406   5.259
10222SOL    HW231566   3.131   4.255   5.271
10223SOL     OW31567   2.293   4.622   1.275
10223SOL    HW131568   2.207   4.579   1.300
10223SOL    HW231569   2.298   4.714   1.313
10224SOL     OW31570   5.891   2.793   5.876
10224SOL    HW131571   5.943   2.845   5.943
10224SOL    HW231572   5.952   2.759   5.804
10225SOL     OW31573   1.355   5.812   5.176
10225SOL    HW131574   1.326   5.740   5.239
10225SOL    HW231575   1.444   5.787   5.136
10226SOL     OW31576   2.218   0.277   6.134
10226SOL    HW131577   2.217   0.335   6.215
10226SOL    HW231578   2.134   0.292   6.081
10227SOL     OW31579   5.946   4.744   0.967
10227SOL    HW131580   5.872   4.695   1.013
10227SOL    HW231581   5.998   4.679   0.911
10228SOL     OW31582   0.766   6.267   2.019
10228SOL    HW131583   0.713   6.325   1.957
10228SOL    HW231584   0.743   6.290   2.114
10229SOL     OW31585   1.827   3.286   5.031
10229SOL    HW131586   1.791   3.194   5.044
10229SOL    HW231587   1.764   3.339   4.975
10230SOL     OW31588   6.208   6.166   3.221
10230SOL    HW131589   6.185   6.070   3.235
10230SOL    HW231590   6.203   6.188   3.124
10231SOL     OW31591   6.629   4.734   5.177
10231SOL    HW131592   6.548   4.740   5.118
10231SOL    HW231593   6.601   4.714   5.270
10232SOL     OW31594   3.571   1.157   3.958
10232SOL    HW131595   3.611   1.207   4.034
10232SOL    HW231596   3.473   1.177   3.953
10233SOL     OW31597   3.889   4.034   4.858
10233SOL    HW131598   3.931   4.048   4.769
10233SOL    HW231599   3.823   3.959   4.852
10234SOL     OW31600   5.896   0.600   0.549
10234SOL    HW131601   5.954   0.611   0.630
10234SOL    HW231602   5.802   0.623   0.573
10235SOL     OW31603   3.457   2.272   1.081
10235SOL    HW131604   3.538   2.317   1.118
10235SOL    HW231605   3.419   2.209   1.149
10236SOL     OW31606   2.438   0.947   0.762
10236SOL    HW131607   2.378   0.898   0.698
10236SOL    HW231608   2.487   1.018   0.712
10237SOL     OW31609   0.807   4.328   6.423
10237SOL    HW131610   0.746   4.408   6.426
10237SOL    HW231611   0.901   4.359   6.404
10238SOL     OW31612   3.858   4.248   1.685
10238SOL    HW131613   3.779   4.303   1.709
10238SOL    HW231614   3.858   4.164   1.739
10239SOL     OW31615   2.055   3.471   6.193
10239SOL    HW131616   2.132   3.411   6.173
10239SOL    HW231617   2.029   3.520   6.111
10240SOL     OW31618   1.749   4.765   2.503
10240SOL    HW131619   1.749   4.860   2.469
10240SOL    HW231620   1.778   4.704   2.429
10241SOL     OW31621   0.128   6.163   3.222
10241SOL    HW131622   0.045   6.147   3.276
10241SOL    HW231623   0.204   6.113   3.263
10242SOL     OW31624   0.271   1.056   1.108
10242SOL    HW131625   0.329   1.117   1.053
10242SOL    HW231626   0.313   0.965   1.110
10243SOL     OW31627   2.176   4.266   2.421
10243SOL    HW131628   2.087   4.307   2.441
10243SOL    HW231629   2.167   4.167   2.413
10244SOL     OW31630   1.591   4.253   0.887
10244SOL    HW131631   1.649   4.315   0.835
10244SOL    HW231632   1.498   4.290   0.892
10245SOL     OW31633   3.459   3.781   1.714
10245SOL    HW131634   3.380   3.721   1.702
10245SOL    HW231635   3.537   3.726   1.746
10246SOL     OW31636   3.133   3.281   4.309
10246SOL    HW131637   3.216   3.230   4.331
10246SOL    HW231638   3.092   3.244   4.226
10247SOL     OW31639   6.826   4.272   6.048
10247SOL    HW131640   6.903   4.241   5.992
10247SOL    HW231641   6.756   4.312   5.988
10248SOL     OW31642   1.645   6.537   2.604
10248SOL    HW131643   1.726   6.575   2.561
10248SOL    HW231644   1.619   6.452   2.557
10249SOL     OW31645   3.437   5.965   6.546
10249SOL    HW131646   3.472   6.053   6.516
10249SOL    HW231647   3.349   5.978   6.592
10250SOL     OW31648   6.681   2.577   1.597
10250SOL    HW131649   6.590   2.543   1.620
10250SOL    HW231650   6.705   2.652   1.659
10251SOL     OW31651   2.080   1.460   5.106
10251SOL    HW131652   2.012   1.435   5.037
10251SOL    HW231653   2.034   1.470   5.195
10252SOL     OW31654   3.777   4.362   6.198
10252SOL    HW131655   3.723   4.313   6.129
10252SOL    HW231656   3.738   4.453   6.212
10253SOL     OW31657   2.832   6.389   0.624
10253SOL    HW131658   2.788   6.419   0.540
10253SOL    HW231659   2.797   6.299   0.650
10254SOL     OW31660   5.316   1.389   5.811
10254SOL    HW131661   5.357   1.481   5.811
10254SOL    HW231662   5.389   1.321   5.803
10255SOL     OW31663   2.526   5.945   1.622
10255SOL    HW131664   2.478   6.033   1.626
10255SOL    HW231665   2.501   5.889   1.701
10256SOL     OW31666   4.878   2.141   1.988
10256SOL    HW131667   4.862   2.049   2.024
10256SOL    HW231668   4.957   2.139   1.927
10257SOL     OW31669   1.770   4.593   4.624
10257SOL    HW131670   1.827   4.673   4.608
10257SOL    HW231671   1.810   4.513   4.578
10258SOL     OW31672   3.443   1.345   3.727
10258SOL    HW131673   3.442   1.292   3.643
10258SOL    HW231674   3.536   1.376   3.746
10259SOL     OW31675   1.196   4.735   3.034
10259SOL    HW131676   1.265   4.799   3.000
10259SOL    HW231677   1.236   4.676   3.103
10260SOL     OW31678   1.191   1.723   3.436
10260SOL    HW131679   1.186   1.783   3.516
10260SOL    HW231680   1.286   1.716   3.406
10261SOL     OW31681   6.717   4.274   2.322
10261SOL    HW131682   6.752   4.229   2.239
10261SOL    HW231683   6.617   4.279   2.317
10262SOL     OW31684   2.468   6.778   5.573
10262SOL    HW131685   2.449   6.682   5.554
10262SOL    HW231686   2.383   6.828   5.582
10263SOL     OW31687   5.343   0.148   0.127
10263SOL    HW131688   5.318   0.195   0.212
10263SOL    HW231689   5.295   0.190   0.051
10264SOL     OW31690   5.972   0.001   6.634
10264SOL    HW131691   5.961   0.021   6.537
10264SOL    HW231692   5.939   0.078   6.688
10265SOL     OW31693   2.584   2.568   1.287
10265SOL    HW131694   2.602   2.657   1.245
10265SOL    HW231695   2.493   2.537   1.263
10266SOL     OW31696   3.926   3.188   3.408
10266SOL    HW131697   3.869   3.111   3.380
10266SOL    HW231698   3.878   3.274   3.393
10267SOL     OW31699   5.997   2.669   6.997
10267SOL    HW131700   5.986   2.588   6.941
10267SOL    HW231701   6.077   2.659   0.030
10268SOL     OW31702   5.648   5.651   2.771
10268SOL    HW131703   5.726   5.692   2.722
10268SOL    HW231704   5.614   5.572   2.719
10269SOL     OW31705   0.837   3.733   6.869
10269SOL    HW131706   0.863   3.820   6.827
10269SOL    HW231707   0.797   3.673   6.800
10270SOL     OW31708   3.276   4.844   2.530
10270SOL    HW131709   3.328   4.875   2.450
10270SOL    HW231710   3.191   4.800   2.500
10271SOL     OW31711   3.839   2.546   6.701
10271SOL    HW131712   3.932   2.579   6.684
10271SOL    HW231713   3.778   2.581   6.630
10272SOL     OW31714   1.563   1.460   5.379
10272SOL    HW131715   1.600   1.372   5.351
10272SOL    HW231716   1.520   1.505   5.301
10273SOL     OW31717   2.657   5.234   2.750
10273SOL    HW131718   2.754   5.255   2.739
10273SOL    HW231719   2.644   5.179   2.833
10274SOL     OW31720   0.838   5.089   5.463
10274SOL    HW131721   0.852   4.997   5.426
10274SOL    HW231722   0.774   5.139   5.405
10275SOL     OW31723   0.662   6.565   2.535
10275SOL    HW131724   0.616   6.477   2.541
10275SOL    HW231725   0.664   6.595   2.439
10276SOL     OW31726   5.604   5.158   5.523
10276SOL    HW131727   5.682   5.100   5.502
10276SOL    HW231728   5.633   5.234   5.582
10277SOL     OW31729   1.452   5.995   4.321
10277SOL    HW131730   1.440   5.896   4.308
10277SOL    HW231731   1.363   6.037   4.333
10278SOL     OW31732   1.151   1.925   3.673
10278SOL    HW131733   1.105   1.985   3.739
10278SOL    HW231734   1.229   1.881   3.717
10279SOL     OW31735   1.836   4.813   4.156
10279SOL    HW131736   1.761   4.747   4.149
10279SOL    HW231737   1.913   4.781   4.102
10280SOL     OW31738   6.989   3.145   0.149
10280SOL    HW131739   6.984   3.064   0.090
10280SOL    HW231740   0.018   3.125   0.230
10281SOL     OW31741   5.519   1.298   2.938
10281SOL    HW131742   5.516   1.327   2.842
10281SOL    HW231743   5.613   1.303   2.972
10282SOL     OW31744   5.548   4.056   4.497
10282SOL    HW131745   5.603   3.986   4.452
10282SOL    HW231746   5.482   4.013   4.558
10283SOL     OW31747   2.084   3.044   0.925
10283SOL    HW131748   2.129   2.974   0.869
10283SOL    HW231749   2.124   3.042   1.017
10284SOL     OW31750   5.260   2.173   5.102
10284SOL    HW131751   5.294   2.199   5.192
10284SOL    HW231752   5.172   2.126   5.111
10285SOL     OW31753   5.476   6.833   2.614
10285SOL    HW131754   5.402   6.765   2.613
10285SOL    HW231755   5.462   6.897   2.689
10286SOL     OW31756   3.343   1.987   3.305
10286SOL    HW131757   3.357   2.013   3.210
10286SOL    HW231758   3.429   1.950   3.342
10287SOL     OW31759   2.421   6.173   1.864
10287SOL    HW131760   2.341   6.193   1.921
10287SOL    HW231761   2.502   6.217   1.902
10288SOL     OW31762   4.785   5.389   2.803
10288SOL    HW131763   4.808   5.292   2.807
10288SOL    HW231764   4.760   5.414   2.710
10289SOL     OW31765   2.458   6.104   0.320
10289SOL    HW131766   2.458   6.193   0.275
10289SOL    HW231767   2.365   6.068   0.323
10290SOL     OW31768   2.893   3.726   2.696
10290SOL    HW131769   2.969   3.775   2.739
10290SOL    HW231770   2.890   3.748   2.599
10291SOL     OW31771   3.850   1.543   2.874
10291SOL    HW131772   3.818   1.533   2.780
10291SOL    HW231773   3.938   1.590   2.874
10292SOL     OW31774   1.752   1.631   5.466
10292SOL    HW131775   1.720   1.725   5.482
10292SOL    HW231776   1.680   1.579   5.420
10293SOL     OW31777   1.952   3.807   2.459
10293SOL    HW131778   1.997   3.858   2.532
10293SOL    HW231779   2.018   3.787   2.387
10294SOL     OW31780   5.474   3.019   3.127
10294SOL    HW131781   5.408   2.998   3.199
10294SOL    HW231782   5.517   2.935   3.094
10295SOL     OW31783   0.545   3.570   5.580
10295SOL    HW131784   0.484   3.623   5.520
10295SOL    HW231785   0.491   3.501   5.629
10296SOL     OW31786   4.851   1.552   0.140
10296SOL    HW131787   4.917   1.595   0.203
10296SOL    HW231788   4.859   1.594   0.050
10297SOL     OW31789   2.053   0.091   6.480
10297SOL    HW131790   2.087   0.026   6.412
10297SOL    HW231791   1.968   0.057   6.519
10298SOL     OW31792   2.108   4.458   1.421
10298SOL    HW131793   2.114   4.364   1.389
10298SOL    HW231794   2.032   4.466   1.486
10299SOL     OW31795   4.524   4.460   2.946
10299SOL    HW131796   4.562   4.435   3.035
10299SOL    HW231797   4.514   4.559   2.940
10300SOL     OW31798   1.105   4.205   2.400
10300SOL    HW131799   1.059   4.146   2.334
10300SOL    HW231800   1.196   4.229   2.367
10301SOL     OW31801   5.275   2.581   3.894
10301SOL    HW131802   5.326   2.667   3.898
10301SOL    HW231803   5.199   2.584   3.959
10302SOL     OW31804   1.891   6.639   4.456
10302SOL    HW131805   1.879   6.666   4.552
10302SOL    HW231806   1.879   6.540   4.448
10303SOL     OW31807   1.679   5.852   3.137
10303SOL    HW131808   1.698   5.793   3.059
10303SOL    HW231809   1.640   5.938   3.105
10304SOL     OW31810   5.569   0.103   1.378
10304SOL    HW131811   5.476   0.140   1.378
10304SOL    HW231812   5.626   0.157   1.440
10305SOL     OW31813   1.469   4.264   6.920
10305SOL    HW131814   1.527   4.248   6.841
10305SOL    HW231815   1.496   4.204   6.995
10306SOL     OW31816   5.192   6.674   6.699
10306SOL    HW131817   5.102   6.657   6.739
10306SOL    HW231818   5.238   6.746   6.751
10307SOL     OW31819   2.959   2.101   5.066
10307SOL    HW131820   2.904   2.144   5.138
10307SOL    HW231821   3.040   2.157   5.048
10308SOL     OW31822   1.833   3.563   2.997
10308SOL    HW131823   1.796   3.500   3.066
10308SOL    HW231824   1.838   3.517   2.909
10309SOL     OW31825   6.794   1.511   6.663
10309SOL    HW131826   6.878   1.458   6.677
10309SOL    HW231827   6.813   1.608   6.677
10310SOL     OW31828   3.197   3.399   1.144
10310SOL    HW131829   3.258   3.321   1.140
10310SOL    HW231830   3.123   3.381   1.208
10311SOL     OW31831   0.107   6.049   0.475
10311SOL    HW131832   0.077   5.960   0.511
10311SOL    HW231833   0.030   6.093   0.427
10312SOL     OW31834   3.594   5.317   2.772
10312SOL    HW131835   3.679   5.301   2.722
10312SOL    HW231836   3.614   5.358   2.861
10313SOL     OW31837   4.624   6.357   1.984
10313SOL    HW131838   4.620   6.439   2.042
10313SOL    HW231839   4.554   6.292   2.014
10314SOL     OW31840   6.336   0.746   1.678
10314SOL    HW131841   6.429   0.778   1.656
10314SOL    HW231842   6.342   0.656   1.721
10315SOL     OW31843   5.140   5.669   5.285
10315SOL    HW131844   5.205   5.675   5.361
10315SOL    HW231845   5.049   5.697   5.316
10316SOL     OW31846   5.495   1.792   4.226
10316SOL    HW131847   5.494   1.705   4.275
10316SOL    HW231848   5.533   1.778   4.135
10317SOL     OW31849   4.865   5.841   4.895
10317SOL    HW131850   4.872   5.881   4.804
10317SOL    HW231851   4.956   5.820   4.930
10318SOL     OW31852   5.325   6.581   6.478
10318SOL    HW131853   5.279   6.616   6.560
10318SOL    HW231854   5.405   6.637   6.458
10319SOL     OW31855   1.163   2.389   5.605
10319SOL    HW131856   1.166   2.320   5.677
10319SOL    HW231857   1.246   2.382   5.549
10320SOL     OW31858   0.415   0.983   2.769
10320SOL    HW131859   0.477   0.905   2.765
10320SOL    HW231860   0.324   0.955   2.740
10321SOL     OW31861   4.108   1.849   1.629
10321SOL    HW131862   4.040   1.807   1.688
10321SOL    HW231863   4.062   1.910   1.563
10322SOL     OW31864   6.551   5.804   5.359
10322SOL    HW131865   6.549   5.717   5.409
10322SOL    HW231866   6.545   5.786   5.261
10323SOL     OW31867   5.651   3.100   5.620
10323SOL    HW131868   5.651   3.142   5.529
10323SOL    HW231869   5.615   3.007   5.614
10324SOL     OW31870   3.382   3.220   2.283
10324SOL    HW131871   3.400   3.238   2.187
10324SOL    HW231872   3.287   3.243   2.304
10325SOL     OW31873   7.003   3.491   2.021
10325SOL    HW131874   6.946   3.573   2.013
10325SOL    HW231875   6.950   3.412   1.990
10326SOL     OW31876   3.237   5.123   0.182
10326SOL    HW131877   3.253   5.156   0.089
10326SOL    HW231878   3.158   5.062   0.183
10327SOL     OW31879   2.342   1.331   1.075
10327SOL    HW131880   2.313   1.386   1.154
10327SOL    HW231881   2.264   1.312   1.017
10328SOL     OW31882   6.067   2.450   0.649
10328SOL    HW131883   6.050   2.410   0.740
10328SOL    HW231884   6.086   2.548   0.659
10329SOL     OW31885   3.981   0.340   3.723
10329SOL    HW131886   3.928   0.419   3.692
10329SOL    HW231887   3.974   0.267   3.655
10330SOL     OW31888   4.677   0.495   2.189
10330SOL    HW131889   4.662   0.508   2.091
10330SOL    HW231890   4.671   0.398   2.212
10331SOL     OW31891   6.676   0.781   5.605
10331SOL    HW131892   6.718   0.867   5.633
10331SOL    HW231893   6.653   0.785   5.508
10332SOL     OW31894   7.024   6.770   0.538
10332SOL    HW131895   0.003   6.722   0.625
10332SOL    HW231896   6.970   6.853   0.548
10333SOL     OW31897   6.653   5.020   4.388
10333SOL    HW131898   6.661   4.929   4.428
10333SOL    HW231899   6.707   5.085   4.441
10334SOL     OW31900   4.158   6.657   3.378
10334SOL    HW131901   4.189   6.580   3.322
10334SOL    HW231902   4.108   6.722   3.322
10335SOL     OW31903   3.343   4.313   0.045
10335SOL    HW131904   3.354   4.382   7.001
10335SOL    HW231905   3.284   4.349   0.118
10336SOL     OW31906   6.892   6.601   2.255
10336SOL    HW131907   6.809   6.646   2.288
10336SOL    HW231908   6.972   6.642   2.298
10337SOL     OW31909   0.175   6.634   5.937
10337SOL    HW131910   0.169   6.677   5.847
10337SOL    HW231911   0.091   6.584   5.956
10338SOL     OW31912   2.468   6.748   2.723
10338SOL    HW131913   2.433   6.829   2.676
10338SOL    HW231914   2.444   6.754   2.820
10339SOL     OW31915   3.514   4.867   0.209
10339SOL    HW131916   3.518   4.914   0.121
10339SOL    HW231917   3.528   4.933   0.283
10340SOL     OW31918   1.972   4.218   0.742
10340SOL    HW131919   1.913   4.177   0.812
10340SOL    HW231920   1.973   4.317   0.754
10341SOL     OW31921   1.968   3.484   1.902
10341SOL    HW131922   1.968   3.521   1.809
10341SOL    HW231923   2.062   3.461   1.929
10342SOL     OW31924   0.991   0.191   5.482
10342SOL    HW131925   1.055   0.238   5.544
10342SOL    HW231926   0.953   0.111   5.529
10343SOL     OW31927   3.510   6.075   6.306
10343SOL    HW131928   3.414   6.047   6.315
10343SOL    HW231929   3.517   6.152   6.242
10344SOL     OW31930   4.506   4.069   1.624
10344SOL    HW131931   4.601   4.090   1.601
10344SOL    HW231932   4.480   4.117   1.708
10345SOL     OW31933   1.926   1.014   6.640
10345SOL    HW131934   1.844   0.963   6.613
10345SOL    HW231935   1.989   1.020   6.562
10346SOL     OW31936   6.387   6.676   1.705
10346SOL    HW131937   6.366   6.637   1.615
10346SOL    HW231938   6.303   6.704   1.751
10347SOL     OW31939   4.888   2.246   2.909
10347SOL    HW131940   4.855   2.316   2.972
10347SOL    HW231941   4.979   2.216   2.937
10348SOL     OW31942   6.809   1.365   0.004
10348SOL    HW131943   6.900   1.324   7.026
10348SOL    HW231944   6.811   1.453   6.982
10349SOL     OW31945   0.097   0.644   1.082
10349SOL    HW131946   0.111   0.655   1.180
10349SOL    HW231947   0.003   0.615   1.064
10350SOL     OW31948   1.914   6.937   5.318
10350SOL    HW131949   1.992   6.912   5.375
10350SOL    HW231950   1.890   6.859   5.260
10351SOL     OW31951   4.365   5.346   6.303
10351SOL    HW131952   4.327   5.387   6.386
10351SOL    HW231953   4.295   5.345   6.231
10352SOL     OW31954   4.305   2.066   5.756
10352SOL    HW131955   4.222   2.013   5.776
10352SOL    HW231956   4.288   2.128   5.679
10353SOL     OW31957   6.832   2.405   5.482
10353SOL    HW131958   6.822   2.434   5.577
10353SOL    HW231959   6.900   2.333   5.475
10354SOL     OW31960   6.062   2.660   1.838
10354SOL    HW131961   6.122   2.629   1.912
10354SOL    HW231962   5.968   2.637   1.860
10355SOL     OW31963   1.562   0.308   2.010
10355SOL    HW131964   1.476   0.357   2.027
10355SOL    HW231965   1.564   0.276   1.915
10356SOL     OW31966   0.583   4.329   6.251
10356SOL    HW131967   0.681   4.350   6.254
10356SOL    HW231968   0.568   4.233   6.273
10357SOL     OW31969   2.578   3.296   5.975
10357SOL    HW131970   2.643   3.221   5.973
10357SOL    HW231971   2.626   3.381   6.000
10358SOL     OW31972   6.685   2.897   2.436
10358SOL    HW131973   6.754   2.871   2.504
10358SOL    HW231974   6.691   2.836   2.357
10359SOL     OW31975   0.151   1.808   1.518
10359SOL    HW131976   0.146   1.739   1.590
10359SOL    HW231977   0.094   1.887   1.543
10360SOL     OW31978   4.813   5.618   2.470
10360SOL    HW131979   4.864   5.532   2.474
10360SOL    HW231980   4.715   5.598   2.472
10361SOL     OW31981   3.074   0.441   3.103
10361SOL    HW131982   3.114   0.511   3.161
10361SOL    HW231983   3.076   0.472   3.008
10362SOL     OW31984   0.993   5.172   4.636
10362SOL    HW131985   0.912   5.171   4.695
10362SOL    HW231986   0.965   5.193   4.542
10363SOL     OW31987   4.455   1.611   0.898
10363SOL    HW131988   4.481   1.523   0.858
10363SOL    HW231989   4.503   1.625   0.984
10364SOL     OW31990   3.130   3.646   1.932
10364SOL    HW131991   3.043   3.597   1.930
10364SOL    HW231992   3.158   3.661   2.027
10365SOL     OW31993   4.925   4.622   5.852
10365SOL    HW131994   4.941   4.659   5.761
10365SOL    HW231995   4.984   4.542   5.867
10366SOL     OW31996   4.532   0.541   4.321
10366SOL    HW131997   4.494   0.594   4.397
10366SOL    HW231998   4.508   0.584   4.234
10367SOL     OW31999   6.795   1.538   2.233
10367SOL    HW132000   6.884   1.584   2.236
10367SOL    HW232001   6.759   1.540   2.140
10368SOL     OW32002   1.827   1.138   1.920
10368SOL    HW132003   1.797   1.204   1.989
10368SOL    HW232004   1.921   1.157   1.893
10369SOL     OW32005   3.957   1.359   4.958
10369SOL    HW132006   3.929   1.319   4.870
10369SOL    HW232007   4.047   1.401   4.949
10370SOL     OW32008   5.429   1.886   5.046
10370SOL    HW132009   5.456   1.908   4.952
10370SOL    HW232010   5.493   1.930   5.109
10371SOL     OW32011   2.290   5.827   4.384
10371SOL    HW132012   2.239   5.893   4.439
10371SOL    HW232013   2.238   5.806   4.301
10372SOL     OW32014   1.218   1.421   0.208
10372SOL    HW132015   1.243   1.366   0.128
10372SOL    HW232016   1.296   1.426   0.270
10373SOL     OW32017   2.079   6.215   4.489
10373SOL    HW132018   2.047   6.123   4.469
10373SOL    HW232019   2.002   6.279   4.486
10374SOL     OW32020   4.106   1.017   2.573
10374SOL    HW132021   4.098   1.079   2.495
10374SOL    HW232022   4.123   1.070   2.656
10375SOL     OW32023   2.818   1.464   6.161
10375SOL    HW132024   2.746   1.397   6.179
10375SOL    HW232025   2.792   1.522   6.084
10376SOL     OW32026   1.484   6.392   4.217
10376SOL    HW132027   1.403   6.434   4.257
10376SOL    HW232028   1.562   6.455   4.227
10377SOL     OW32029   6.859   0.746   4.101
10377SOL    HW132030   6.868   0.773   4.005
10377SOL    HW232031   6.785   0.679   4.109
10378SOL     OW32032   6.118   7.022   6.174
10378SOL    HW132033   6.116   6.939   6.229
10378SOL    HW232034   6.140   0.074   6.232
10379SOL     OW32035   3.207   6.516   4.687
10379SOL    HW132036   3.227   6.614   4.682
10379SOL    HW232037   3.108   6.502   4.684
10380SOL     OW32038   0.807   1.701   3.977
10380SOL    HW132039   0.868   1.684   4.054
10380SOL    HW232040   0.859   1.701   3.892
10381SOL     OW32041   4.173   5.397   0.153
10381SOL    HW132042   4.084   5.415   0.110
10381SOL    HW232043   4.175   5.304   0.187
10382SOL     OW32044   2.230   4.300   0.211
10382SOL    HW132045   2.212   4.223   0.150
10382SOL    HW232046   2.265   4.377   0.158
10383SOL     OW32047   0.091   3.970   0.539
10383SOL    HW132048   0.190   3.982   0.543
10383SOL    HW232049   0.065   3.884   0.582
10384SOL     OW32050   0.845   0.005   1.047
10384SOL    HW132051   0.878   6.991   0.962
10384SOL    HW232052   0.900   6.999   1.124
10385SOL     OW32053   3.101   6.358   5.611
10385SOL    HW132054   3.026   6.369   5.675
10385SOL    HW232055   3.115   6.444   5.561
10386SOL     OW32056   6.155   2.845   5.950
10386SOL    HW132057   6.201   2.854   5.862
10386SOL    HW232058   6.159   2.932   5.999
10387SOL     OW32059   4.229   2.322   3.018
10387SOL    HW132060   4.269   2.242   2.973
10387SOL    HW232061   4.271   2.406   2.982
10388SOL     OW32062   2.234   5.666   2.719
10388SOL    HW132063   2.148   5.625   2.690
10388SOL    HW232064   2.216   5.752   2.768
10389SOL     OW32065   0.432   6.570   1.757
10389SOL    HW132066   0.333   6.565   1.749
10389SOL    HW232067   0.466   6.647   1.702
10390SOL     OW32068   1.881   2.984   1.555
10390SOL    HW132069   1.802   2.924   1.564
10390SOL    HW232070   1.954   2.952   1.615
10391SOL     OW32071   1.325   5.591   4.579
10391SOL    HW132072   1.241   5.573   4.631
10391SOL    HW232073   1.399   5.613   4.641
10392SOL     OW32074   6.413   3.986   0.150
10392SOL    HW132075   6.490   4.034   0.109
10392SOL    HW232076   6.375   4.041   0.224
10393SOL     OW32077   2.236   2.206   2.686
10393SOL    HW132078   2.247   2.207   2.587
10393SOL    HW232079   2.139   2.216   2.709
10394SOL     OW32080   2.209   6.433   4.906
10394SOL    HW132081   2.127   6.473   4.947
10394SOL    HW232082   2.234   6.485   4.824
10395SOL     OW32083   6.624   0.484   3.256
10395SOL    HW132084   6.694   0.526   3.199
10395SOL    HW232085   6.537   0.482   3.205
10396SOL     OW32086   2.310   0.737   4.130
10396SOL    HW132087   2.340   0.696   4.043
10396SOL    HW232088   2.290   0.663   4.195
10397SOL     OW32089   2.884   2.278   3.820
10397SOL    HW132090   2.981   2.262   3.803
10397SOL    HW232091   2.869   2.289   3.919
10398SOL     OW32092   5.847   2.662   0.724
10398SOL    HW132093   5.803   2.614   0.648
10398SOL    HW232094   5.777   2.713   0.775
10399SOL     OW32095   4.345   1.976   4.630
10399SOL    HW132096   4.354   1.918   4.549
10399SOL    HW232097   4.274   2.045   4.614
10400SOL     OW32098   3.586   5.541   1.561
10400SOL    HW132099   3.630   5.619   1.606
10400SOL    HW232100   3.564   5.472   1.630
10401SOL     OW32101   6.789   0.602   2.989
10401SOL    HW132102   6.809   0.696   3.015
10401SOL    HW232103   6.743   0.601   2.900
10402SOL     OW32104   0.217   2.714   5.451
10402SOL    HW132105   0.152   2.657   5.402
10402SOL    HW232106   0.214   2.693   5.549
10403SOL     OW32107   5.167   1.286   2.750
10403SOL    HW132108   5.234   1.342   2.700
10403SOL    HW232109   5.079   1.333   2.751
10404SOL     OW32110   0.434   6.381   3.543
10404SOL    HW132111   0.474   6.291   3.529
10404SOL    HW232112   0.393   6.413   3.457
10405SOL     OW32113   1.458   5.384   4.887
10405SOL    HW132114   1.487   5.436   4.806
10405SOL    HW232115   1.537   5.344   4.931
10406SOL     OW32116   1.983   3.813   5.208
10406SOL    HW132117   2.065   3.855   5.247
10406SOL    HW232118   1.951   3.867   5.131
10407SOL     OW32119   1.374   0.451   6.724
10407SOL    HW132120   1.433   0.374   6.749
10407SOL    HW232121   1.313   0.472   6.801
10408SOL     OW32122   3.973   5.993   1.969
10408SOL    HW132123   3.927   5.906   1.949
10408SOL    HW232124   3.914   6.069   1.941
10409SOL     OW32125   0.020   4.094   1.037
10409SOL    HW132126   0.080   4.134   1.106
10409SOL    HW232127   0.076   4.048   0.967
10410SOL     OW32128   5.114   1.413   1.091
10410SOL    HW132129   5.152   1.320   1.088
10410SOL    HW232130   5.189   1.478   1.102
10411SOL     OW32131   3.713   5.590   4.290
10411SOL    HW132132   3.645   5.535   4.339
10411SOL    HW232133   3.669   5.641   4.217
10412SOL     OW32134   0.410   1.046   0.523
10412SOL    HW132135   0.486   1.026   0.585
10412SOL    HW232136   0.332   0.988   0.546
10413SOL     OW32137   0.149   2.067   0.654
10413SOL    HW132138   0.111   2.110   0.736
10413SOL    HW232139   0.144   2.132   0.578
10414SOL     OW32140   4.732   6.365   5.768
10414SOL    HW132141   4.819   6.414   5.755
10414SOL    HW232142   4.739   6.274   5.728
10415SOL     OW32143   2.616   4.644   3.731
10415SOL    HW132144   2.564   4.567   3.769
10415SOL    HW232145   2.558   4.697   3.669
10416SOL     OW32146   6.607   1.206   5.528
10416SOL    HW132147   6.515   1.202   5.567
10416SOL    HW232148   6.624   1.122   5.475
10417SOL     OW32149   4.746   4.127   3.681
10417SOL    HW132150   4.716   4.057   3.746
10417SOL    HW232151   4.817   4.089   3.621
10418SOL     OW32152   6.355   4.274   5.078
10418SOL    HW132153   6.404   4.192   5.106
10418SOL    HW232154   6.284   4.296   5.145
10419SOL     OW32155   2.831   0.282   5.334
10419SOL    HW132156   2.779   0.262   5.417
10419SOL    HW232157   2.929   0.279   5.354
10420SOL     OW32158   6.906   3.631   3.819
10420SOL    HW132159   6.886   3.534   3.831
10420SOL    HW232160   7.003   3.648   3.836
10421SOL     OW32161   1.319   3.053   4.119
10421SOL    HW132162   1.387   3.121   4.092
10421SOL    HW232163   1.293   2.998   4.040
10422SOL     OW32164   6.707   3.635   5.746
10422SOL    HW132165   6.689   3.657   5.842
10422SOL    HW232166   6.790   3.578   5.740
10423SOL     OW32167   4.173   5.167   4.857
10423SOL    HW132168   4.197   5.150   4.953
10423SOL    HW232169   4.095   5.230   4.853
10424SOL     OW32170   4.414   2.423   6.701
10424SOL    HW132171   4.352   2.354   6.738
10424SOL    HW232172   4.397   2.511   6.746
10425SOL     OW32173   0.385   6.407   2.030
10425SOL    HW132174   0.413   6.434   1.938
10425SOL    HW232175   0.380   6.488   2.088
10426SOL     OW32176   5.293   3.520   5.958
10426SOL    HW132177   5.255   3.558   6.043
10426SOL    HW232178   5.217   3.495   5.897
10427SOL     OW32179   5.240   6.195   6.238
10427SOL    HW132180   5.268   6.284   6.274
10427SOL    HW232181   5.206   6.138   6.313
10428SOL     OW32182   1.858   1.784   4.166
10428SOL    HW132183   1.955   1.769   4.146
10428SOL    HW232184   1.844   1.784   4.265
10429SOL     OW32185   1.168   3.588   2.951
10429SOL    HW132186   1.104   3.607   2.876
10429SOL    HW232187   1.123   3.529   3.018
10430SOL     OW32188   4.001   6.116   4.410
10430SOL    HW132189   4.030   6.203   4.450
10430SOL    HW232190   3.901   6.113   4.407
10431SOL     OW32191   2.872   0.738   4.057
10431SOL    HW132192   2.815   0.702   3.984
10431SOL    HW232193   2.961   0.765   4.019
10432SOL     OW32194   0.483   1.694   5.197
10432SOL    HW132195   0.442   1.641   5.122
10432SOL    HW232196   0.578   1.665   5.209
10433SOL     OW32197   0.165   6.542   1.758
10433SOL    HW132198   0.164   6.526   1.659
10433SOL    HW232199   0.138   6.459   1.806
10434SOL     OW32200   4.715   5.999   4.655
10434SOL    HW132201   4.629   6.010   4.605
10434SOL    HW232202   4.765   5.921   4.617
10435SOL     OW32203   1.715   2.002   5.914
10435SOL    HW132204   1.669   1.955   5.989
10435SOL    HW232205   1.648   2.049   5.857
10436SOL     OW32206   6.526   4.191   3.784
10436SOL    HW132207   6.612   4.190   3.835
10436SOL    HW232208   6.487   4.099   3.784
10437SOL     OW32209   5.617   4.877   5.257
10437SOL    HW132210   5.711   4.893   5.227
10437SOL    HW232211   5.614   4.794   5.314
10438SOL     OW32212   6.973   5.823   5.997
10438SOL    HW132213   6.874   5.823   6.011
10438SOL    HW232214   6.996   5.885   5.922
10439SOL     OW32215   5.345   1.043   5.342
10439SOL    HW132216   5.387   1.056   5.252
10439SOL    HW232217   5.269   1.107   5.353
10440SOL     OW32218   6.723   6.476   6.694
10440SOL    HW132219   6.643   6.534   6.710
10440SOL    HW232220   6.804   6.533   6.687
10441SOL     OW32221   3.237   1.604   1.069
10441SOL    HW132222   3.327   1.633   1.102
10441SOL    HW232223   3.245   1.570   0.975
10442SOL     OW32224   4.503   0.361   4.814
10442SOL    HW132225   4.593   0.364   4.858
10442SOL    HW232226   4.514   0.345   4.716
10443SOL     OW32227   6.369   2.451   2.845
10443SOL    HW132228   6.418   2.392   2.909
10443SOL    HW232229   6.312   2.515   2.896
10444SOL     OW32230   2.978   5.116   3.047
10444SOL    HW132231   3.002   5.056   3.123
10444SOL    HW232232   2.915   5.188   3.079
10445SOL     OW32233   0.737   3.651   2.728
10445SOL    HW132234   0.716   3.648   2.631
10445SOL    HW232235   0.712   3.564   2.770
10446SOL     OW32236   1.809   3.998   6.283
10446SOL    HW132237   1.865   3.971   6.362
10446SOL    HW232238   1.860   3.980   6.199
10447SOL     OW32239   6.663   0.279   2.126
10447SOL    HW132240   6.629   0.188   2.151
10447SOL    HW232241   6.669   0.336   2.207
10448SOL     OW32242   3.219   0.194   3.128
10448SOL    HW132243   3.234   0.120   3.194
10448SOL    HW232244   3.159   0.263   3.168
10449SOL     OW32245   3.161   5.969   6.625
10449SOL    HW132246   3.105   5.936   6.701
10449SOL    HW232247   3.105   6.026   6.565
10450SOL     OW32248   6.690   0.810   6.620
10450SOL    HW132249   6.739   0.896   6.607
10450SOL    HW232250   6.741   0.736   6.578
10451SOL     OW32251   3.426   0.311   2.978
10451SOL    HW132252   3.363   0.266   3.041
10451SOL    HW232253   3.509   0.339   3.026
10452SOL     OW32254   0.018   3.020   2.283
10452SOL    HW132255   6.960   2.984   2.321
10452SOL    HW232256   0.077   2.944   2.255
10453SOL     OW32257   4.458   6.303   2.303
10453SOL    HW132258   4.546   6.349   2.317
10453SOL    HW232259   4.470   6.231   2.233
10454SOL     OW32260   6.168   0.807   0.603
10454SOL    HW132261   6.124   0.894   0.580
10454SOL    HW232262   6.245   0.792   0.541
10455SOL     OW32263   0.287   5.917   4.404
10455SOL    HW132264   0.331   5.838   4.444
10455SOL    HW232265   0.325   5.933   4.312
10456SOL     OW32266   0.350   5.750   0.515
10456SOL    HW132267   0.415   5.804   0.568
10456SOL    HW232268   0.260   5.793   0.520
10457SOL     OW32269   3.927   3.345   0.002
10457SOL    HW132270   3.912   3.370   6.932
10457SOL    HW232271   4.025   3.335   0.018
10458SOL     OW32272   6.854   6.785   6.527
10458SOL    HW132273   6.772   6.830   6.563
10458SOL    HW232274   6.935   6.818   6.575
10459SOL     OW32275   5.749   4.861   0.829
10459SOL    HW132276   5.818   4.822   0.891
10459SOL    HW232277   5.677   4.904   0.883
10460SOL     OW32278   0.209   3.731   2.155
10460SOL    HW132279   0.164   3.742   2.066
10460SOL    HW232280   0.261   3.813   2.177
10461SOL     OW32281   6.112   4.728   5.447
10461SOL    HW132282   6.068   4.723   5.357
10461SOL    HW232283   6.126   4.824   5.471
10462SOL     OW32284   5.729   2.170   2.619
10462SOL    HW132285   5.636   2.174   2.584
10462SOL    HW232286   5.753   2.259   2.658
10463SOL     OW32287   4.392   1.803   5.703
10463SOL    HW132288   4.350   1.792   5.612
10463SOL    HW232289   4.382   1.897   5.733
10464SOL     OW32290   5.489   6.230   2.020
10464SOL    HW132291   5.443   6.186   1.942
10464SOL    HW232292   5.558   6.167   2.056
10465SOL     OW32293   4.732   5.604   2.142
10465SOL    HW132294   4.649   5.569   2.099
10465SOL    HW232295   4.719   5.700   2.166
10466SOL     OW32296   4.829   4.223   6.490
10466SOL    HW132297   4.853   4.319   6.477
10466SOL    HW232298   4.841   4.174   6.403
10467SOL     OW32299   1.622   2.647   0.708
10467SOL    HW132300   1.720   2.631   0.718
10467SOL    HW232301   1.572   2.568   0.744
10468SOL     OW32302   4.397   4.978   3.729
10468SOL    HW132303   4.306   4.940   3.748
10468SOL    HW232304   4.393   5.035   3.647
10469SOL     OW32305   4.321   4.134   5.700
10469SOL    HW132306   4.245   4.096   5.646
10469SOL    HW232307   4.311   4.106   5.795
10470SOL     OW32308   2.585   1.492   3.301
10470SOL    HW132309   2.636   1.434   3.365
10470SOL    HW232310   2.488   1.471   3.307
10471SOL     OW32311   3.313   0.393   0.358
10471SOL    HW132312   3.407   0.419   0.337
10471SOL    HW232313   3.280   0.447   0.436
10472SOL     OW32314   2.705   5.415   0.833
10472SOL    HW132315   2.613   5.375   0.842
10472SOL    HW232316   2.700   5.514   0.850
10473SOL     OW32317   5.888   6.357   5.712
10473SOL    HW132318   5.933   6.289   5.654
10473SOL    HW232319   5.956   6.421   5.747
10474SOL     OW32320   4.720   1.607   3.668
10474SOL    HW132321   4.766   1.641   3.750
10474SOL    HW232322   4.624   1.635   3.670
10475SOL     OW32323   3.108   6.763   1.714
10475SOL    HW132324   3.107   6.808   1.803
10475SOL    HW232325   3.047   6.813   1.652
10476SOL     OW32326   4.873   6.417   6.107
10476SOL    HW132327   4.783   6.450   6.133
10476SOL    HW232328   4.900   6.343   6.169
10477SOL     OW32329   6.689   0.579   4.783
10477SOL    HW132330   6.684   0.663   4.729
10477SOL    HW232331   6.596   0.549   4.805
10478SOL     OW32332   6.616   6.245   6.946
10478SOL    HW132333   6.659   6.155   6.957
10478SOL    HW232334   6.686   6.312   6.921
10479SOL     OW32335   6.624   1.070   2.363
10479SOL    HW132336   6.601   0.981   2.402
10479SOL    HW232337   6.701   1.060   2.299
10480SOL     OW32338   1.170   0.804   2.055
10480SOL    HW132339   1.200   0.894   2.025
10480SOL    HW232340   1.234   0.767   2.122
10481SOL     OW32341   1.944   6.317   2.750
10481SOL    HW132342   1.930   6.413   2.775
10481SOL    HW232343   1.942   6.260   2.832
10482SOL     OW32344   6.165   5.379   4.609
10482SOL    HW132345   6.181   5.477   4.621
10482SOL    HW232346   6.193   5.330   4.691
10483SOL     OW32347   5.494   5.904   0.214
10483SOL    HW132348   5.527   5.862   0.129
10483SOL    HW232349   5.409   5.953   0.195
10484SOL     OW32350   4.670   1.988   1.746
10484SOL    HW132351   4.685   1.895   1.779
10484SOL    HW232352   4.574   2.013   1.758
10485SOL     OW32353   3.162   4.732   7.013
10485SOL    HW132354   3.193   4.739   0.082
10485SOL    HW232355   3.087   4.666   7.007
10486SOL     OW32356   7.005   0.655   0.389
10486SOL    HW132357   6.923   0.705   0.362
10486SOL    HW232358   0.048   0.664   0.318
10487SOL     OW32359   5.053   6.667   1.893
10487SOL    HW132360   4.975   6.605   1.884
10487SOL    HW232361   5.075   6.679   1.990
10488SOL     OW32362   3.127   1.486   5.764
10488SOL    HW132363   3.111   1.482   5.862
10488SOL    HW232364   3.057   1.542   5.720
10489SOL     OW32365   0.319   6.428   5.346
10489SOL    HW132366   0.362   6.442   5.257
10489SOL    HW232367   0.285   6.515   5.381
10490SOL     OW32368   5.990   1.341   1.552
10490SOL    HW132369   6.040   1.403   1.492
10490SOL    HW232370   6.033   1.340   1.643
10491SOL     OW32371   2.049   3.860   0.060
10491SOL    HW132372   2.044   3.838   0.157
10491SOL    HW232373   2.127   3.813   0.019
10492SOL     OW32374   6.262   4.185   5.698
10492SOL    HW132375   6.313   4.109   5.658
10492SOL    HW232376   6.307   4.271   5.676
10493SOL     OW32377   3.587   1.002   1.685
10493SOL    HW132378   3.558   1.019   1.591
10493SOL    HW232379   3.681   1.033   1.696
10494SOL     OW32380   4.856   3.652   5.773
10494SOL    HW132381   4.814   3.730   5.820
10494SOL    HW232382   4.790   3.611   5.710
10495SOL     OW32383   2.028   6.696   0.668
10495SOL    HW132384   2.124   6.692   0.643
10495SOL    HW232385   2.010   6.631   0.742
10496SOL     OW32386   0.222   4.909   6.512
10496SOL    HW132387   0.222   4.835   6.445
10496SOL    HW232388   0.168   4.882   6.592
10497SOL     OW32389   2.475   0.048   2.351
10497SOL    HW132390   2.543   0.102   2.401
10497SOL    HW232391   2.404   0.108   2.315
10498SOL     OW32392   2.921   6.220   1.517
10498SOL    HW132393   2.869   6.135   1.513
10498SOL    HW232394   2.858   6.297   1.521
10499SOL     OW32395   3.361   0.050   2.455
10499SOL    HW132396   3.329   6.982   2.456
10499SOL    HW232397   3.296   0.109   2.503
10500SOL     OW32398   6.745   0.530   6.725
10500SOL    HW132399   6.681   0.471   6.776
10500SOL    HW232400   6.828   0.479   6.705
10501SOL     OW32401   2.272   5.508   2.968
10501SOL    HW132402   2.217   5.553   2.898
10501SOL    HW232403   2.360   5.482   2.930
10502SOL     OW32404   2.971   0.291   1.202
10502SOL    HW132405   2.967   0.345   1.118
10502SOL    HW232406   3.045   0.325   1.260
10503SOL     OW32407   3.801   3.269   0.235
10503SOL    HW132408   3.734   3.195   0.233
10503SOL    HW232409   3.845   3.277   0.145
10504SOL     OW32410   1.921   1.420   6.890
10504SOL    HW132411   2.012   1.446   6.859
10504SOL    HW232412   1.863   1.501   6.897
10505SOL     OW32413   5.281   6.211   0.449
10505SOL    HW132414   5.290   6.118   0.487
10505SOL    HW232415   5.194   6.219   0.402
10506SOL     OW32416   6.783   5.007   6.682
10506SOL    HW132417   6.771   4.995   6.583
10506SOL    HW232418   6.741   4.930   6.730
10507SOL     OW32419   2.265   0.075   0.079
10507SOL    HW132420   2.293   0.014   0.154
10507SOL    HW232421   2.187   0.035   0.031
10508SOL     OW32422   6.222   6.315   4.418
10508SOL    HW132423   6.184   6.306   4.326
10508SOL    HW232424   6.188   6.398   4.461
10509SOL     OW32425   0.673   6.436   5.026
10509SOL    HW132426   0.690   6.338   5.029
10509SOL    HW232427   0.575   6.454   5.035
10510SOL     OW32428   4.944   5.951   6.069
10510SOL    HW132429   4.902   6.041   6.080
10510SOL    HW232430   4.973   5.938   5.974
10511SOL     OW32431   4.432   1.612   1.589
10511SOL    HW132432   4.393   1.547   1.655
10511SOL    HW232433   4.394   1.593   1.498
10512SOL     OW32434   4.050   0.231   5.846
10512SOL    HW132435   4.025   0.316   5.799
10512SOL    HW232436   3.974   0.166   5.838
10513SOL     OW32437   6.731   2.602   4.586
10513SOL    HW132438   6.767   2.549   4.663
10513SOL    HW232439   6.800   2.608   4.514
10514SOL     OW32440   0.099   3.465   0.233
10514SOL    HW132441   0.051   3.539   0.186
10514SOL    HW232442   0.190   3.496   0.260
10515SOL     OW32443   0.215   3.043   2.952
10515SOL    HW132444   0.124   3.012   2.979
10515SOL    HW232445   0.243   2.996   2.868
10516SOL     OW32446   3.702   0.780   7.003
10516SOL    HW132447   3.645   0.741   6.931
10516SOL    HW232448   3.665   0.869   0.004
10517SOL     OW32449   0.237   2.503   2.939
10517SOL    HW132450   0.205   2.416   2.900
10517SOL    HW232451   0.245   2.571   2.866
10518SOL     OW32452   1.108   5.186   6.458
10518SOL    HW132453   1.168   5.205   6.381
10518SOL    HW232454   1.032   5.251   6.458
10519SOL     OW32455   2.813   2.771   6.772
10519SOL    HW132456   2.836   2.863   6.804
10519SOL    HW232457   2.806   2.771   6.673
10520SOL     OW32458   1.330   2.761   6.830
10520SOL    HW132459   1.408   2.722   6.878
10520SOL    HW232460   1.361   2.835   6.770
10521SOL     OW32461   5.423   5.750   1.881
10521SOL    HW132462   5.325   5.750   1.898
10521SOL    HW232463   5.444   5.808   1.803
10522SOL     OW32464   6.228   0.209   6.302
10522SOL    HW132465   6.314   0.259   6.311
10522SOL    HW232466   6.155   0.260   6.347
10523SOL     OW32467   0.764   4.933   4.263
10523SOL    HW132468   0.741   4.861   4.328
10523SOL    HW232469   0.861   4.926   4.239
10524SOL     OW32470   1.653   0.453   4.906
10524SOL    HW132471   1.749   0.478   4.913
10524SOL    HW232472   1.639   0.362   4.943
10525SOL     OW32473   3.138   0.182   6.137
10525SOL    HW132474   3.199   0.103   6.141
10525SOL    HW232475   3.043   0.151   6.132
10526SOL     OW32476   0.480   6.805   2.970
10526SOL    HW132477   0.523   6.718   2.945
10526SOL    HW232478   0.548   6.878   2.963
10527SOL     OW32479   5.881   2.361   4.824
10527SOL    HW132480   5.980   2.345   4.835
10527SOL    HW232481   5.862   2.383   4.728
10528SOL     OW32482   1.337   3.183   6.012
10528SOL    HW132483   1.261   3.240   5.981
10528SOL    HW232484   1.420   3.209   5.963
10529SOL     OW32485   2.410   5.873   4.022
10529SOL    HW132486   2.503   5.908   4.029
10529SOL    HW232487   2.412   5.773   4.029
10530SOL     OW32488   2.465   0.660   6.779
10530SOL    HW132489   2.387   0.606   6.746
10530SOL    HW232490   2.498   0.719   6.706
10531SOL     OW32491   0.861   2.736   4.062
10531SOL    HW132492   0.911   2.817   4.030
10531SOL    HW232493   0.861   2.734   4.162
10532SOL     OW32494   1.774   4.653   6.457
10532SOL    HW132495   1.823   4.735   6.489
10532SOL    HW232496   1.695   4.637   6.517
10533SOL     OW32497   3.100   1.278   4.708
10533SOL    HW132498   3.126   1.234   4.794
10533SOL    HW232499   3.181   1.317   4.664
10534SOL     OW32500   5.598   5.628   1.295
10534SOL    HW132501   5.567   5.701   1.234
10534SOL    HW232502   5.525   5.606   1.360
10535SOL     OW32503   0.849   1.993   0.951
10535SOL    HW132504   0.885   2.086   0.953
10535SOL    HW232505   0.922   1.928   0.973
10536SOL     OW32506   4.264   1.023   3.276
10536SOL    HW132507   4.293   1.084   3.350
10536SOL    HW232508   4.344   0.988   3.228
10537SOL     OW32509   3.584   5.274   4.323
10537SOL    HW132510   3.682   5.252   4.318
10537SOL    HW232511   3.537   5.235   4.244
10538SOL     OW32512   5.218   2.701   0.587
10538SOL    HW132513   5.176   2.790   0.602
10538SOL    HW232514   5.194   2.640   0.663
10539SOL     OW32515   0.369   3.575   6.741
10539SOL    HW132516   0.414   3.486   6.741
10539SOL    HW232517   0.272   3.563   6.764
10540SOL     OW32518   1.320   2.718   5.104
10540SOL    HW132519   1.228   2.720   5.064
10540SOL    HW232520   1.368   2.635   5.075
10541SOL     OW32521   3.583   3.699   2.247
10541SOL    HW132522   3.563   3.602   2.260
10541SOL    HW232523   3.521   3.753   2.303
10542SOL     OW32524   6.554   1.346   6.253
10542SOL    HW132525   6.611   1.348   6.170
10542SOL    HW232526   6.613   1.339   6.333
10543SOL     OW32527   6.930   1.043   5.374
10543SOL    HW132528   0.000   1.019   5.375
10543SOL    HW232529   6.916   1.128   5.324
10544SOL     OW32530   1.928   6.730   2.138
10544SOL    HW132531   1.976   6.677   2.068
10544SOL    HW232532   1.832   6.742   2.112
10545SOL     OW32533   6.005   1.099   3.342
10545SOL    HW132534   6.007   1.195   3.368
10545SOL    HW232535   5.912   1.063   3.357
10546SOL     OW32536   1.163   0.828   6.493
10546SOL    HW132537   1.073   0.803   6.527
10546SOL    HW232538   1.156   0.857   6.398
10547SOL     OW32539   5.269   1.786   1.867
10547SOL    HW132540   5.311   1.876   1.860
10547SOL    HW232541   5.292   1.745   1.955
10548SOL     OW32542   5.268   4.463   4.974
10548SOL    HW132543   5.326   4.533   4.933
10548SOL    HW232544   5.218   4.415   4.902
10549SOL     OW32545   6.527   0.040   2.238
10549SOL    HW132546   6.450   0.064   2.298
10549SOL    HW232547   6.495   7.003   2.167
10550SOL     OW32548   4.291   6.048   5.127
10550SOL    HW132549   4.346   6.127   5.155
10550SOL    HW232550   4.212   6.080   5.073
10551SOL     OW32551   1.929   2.663   6.479
10551SOL    HW132552   1.893   2.751   6.510
10551SOL    HW232553   1.862   2.591   6.499
10552SOL     OW32554   3.621   2.077   6.271
10552SOL    HW132555   3.597   2.149   6.205
10552SOL    HW232556   3.641   2.119   6.359
10553SOL     OW32557   0.533   5.437   1.320
10553SOL    HW132558   0.445   5.390   1.311
10553SOL    HW232559   0.603   5.371   1.347
10554SOL     OW32560   5.140   5.449   0.174
10554SOL    HW132561   5.183   5.538   0.165
10554SOL    HW232562   5.177   5.386   0.105
10555SOL     OW32563   2.175   2.972   0.422
10555SOL    HW132564   2.246   2.905   0.445
10555SOL    HW232565   2.206   3.029   0.347
10556SOL     OW32566   2.138   2.640   5.102
10556SOL    HW132567   2.147   2.739   5.093
10556SOL    HW232568   2.114   2.617   5.196
10557SOL     OW32569   2.481   2.221   2.803
10557SOL    HW132570   2.388   2.213   2.770
10557SOL    HW232571   2.527   2.297   2.758
10558SOL     OW32572   4.230   0.457   3.780
10558SOL    HW132573   4.211   0.553   3.763
10558SOL    HW232574   4.153   0.401   3.750
10559SOL     OW32575   4.803   0.236   1.502
10559SOL    HW132576   4.737   0.307   1.480
10559SOL    HW232577   4.769   0.147   1.470
10560SOL     OW32578   3.723   6.268   3.456
10560SOL    HW132579   3.656   6.215   3.405
10560SOL    HW232580   3.811   6.265   3.410
10561SOL     OW32581   3.075   4.565   1.022
10561SOL    HW132582   3.048   4.660   1.041
10561SOL    HW232583   3.131   4.530   1.097
10562SOL     OW32584   4.853   5.917   0.208
10562SOL    HW132585   4.877   5.829   0.249
10562SOL    HW232586   4.755   5.919   0.188
10563SOL     OW32587   0.426   0.842   3.744
10563SOL    HW132588   0.371   0.909   3.793
10563SOL    HW232589   0.517   0.880   3.726
10564SOL     OW32590   5.845   6.527   2.582
10564SOL    HW132591   5.749   6.514   2.558
10564SOL    HW232592   5.879   6.445   2.628
10565SOL     OW32593   6.882   0.807   5.982
10565SOL    HW132594   6.798   0.770   5.942
10565SOL    HW232595   6.957   0.743   5.969
10566SOL     OW32596   4.227   3.041   7.021
10566SOL    HW132597   4.309   2.984   7.014
10566SOL    HW232598   4.149   2.992   6.983
10567SOL     OW32599   2.139   1.774   4.479
10567SOL    HW132600   2.158   1.676   4.479
10567SOL    HW232601   2.224   1.824   4.497
10568SOL     OW32602   6.105   1.990   0.939
10568SOL    HW132603   6.074   1.953   0.851
10568SOL    HW232604   6.028   2.031   0.986
10569SOL     OW32605   6.105   2.070   1.247
10569SOL    HW132606   6.056   2.111   1.170
10569SOL    HW232607   6.195   2.111   1.254
10570SOL     OW32608   1.605   5.066   3.275
10570SOL    HW132609   1.617   5.017   3.188
10570SOL    HW232610   1.515   5.045   3.313
10571SOL     OW32611   6.818   5.192   4.533
10571SOL    HW132612   6.791   5.288   4.540
10571SOL    HW232613   6.911   5.181   4.566
10572SOL     OW32614   0.282   4.178   3.877
10572SOL    HW132615   0.261   4.172   3.779
10572SOL    HW232616   0.223   4.116   3.928
10573SOL     OW32617   4.890   0.564   4.529
10573SOL    HW132618   4.853   0.472   4.516
10573SOL    HW232619   4.969   0.560   4.589
10574SOL     OW32620   0.911   1.646   4.460
10574SOL    HW132621   0.882   1.707   4.533
10574SOL    HW232622   1.006   1.618   4.476
10575SOL     OW32623   0.208   1.246   2.836
10575SOL    HW132624   0.171   1.236   2.928
10575SOL    HW232625   0.305   1.266   2.840
10576SOL     OW32626   0.001   6.099   5.523
10576SOL    HW132627   6.943   6.100   5.470
10576SOL    HW232628   0.061   6.174   5.492
10577SOL     OW32629   1.993   2.707   6.815
10577SOL    HW132630   2.014   2.733   6.721
10577SOL    HW232631   1.898   2.731   6.835
10578SOL     OW32632   6.129   0.707   3.247
10578SOL    HW132633   6.163   0.791   3.204
10578SOL    HW232634   6.120   0.636   3.178
10579SOL     OW32635   4.279   1.609   0.555
10579SOL    HW132636   4.348   1.543   0.586
10579SOL    HW232637   4.313   1.657   0.474
10580SOL     OW32638   6.578   0.319   6.865
10580SOL    HW132639   6.522   0.342   6.945
10580SOL    HW232640   6.519   0.282   6.793
10581SOL     OW32641   0.054   6.780   3.191
10581SOL    HW132642   0.128   6.840   3.222
10581SOL    HW232643   7.008   6.834   3.149
10582SOL     OW32644   4.754   5.084   6.643
10582SOL    HW132645   4.713   5.016   6.705
10582SOL    HW232646   4.839   5.048   6.606
10583SOL     OW32647   3.952   0.892   5.200
10583SOL    HW132648   3.875   0.853   5.149
10583SOL    HW232649   3.937   0.990   5.214
10584SOL     OW32650   6.194   6.358   1.375
10584SOL    HW132651   6.240   6.289   1.319
10584SOL    HW232652   6.103   6.324   1.401
10585SOL     OW32653   2.230   2.818   5.370
10585SOL    HW132654   2.314   2.783   5.329
10585SOL    HW232655   2.235   2.917   5.377
10586SOL     OW32656   0.743   5.188   4.733
10586SOL    HW132657   0.759   5.132   4.814
10586SOL    HW232658   0.714   5.130   4.657
10587SOL     OW32659   6.401   3.904   0.483
10587SOL    HW132660   6.361   3.995   0.493
10587SOL    HW232661   6.433   3.891   0.389
10588SOL     OW32662   7.013   3.842   2.798
10588SOL    HW132663   6.961   3.771   2.749
10588SOL    HW232664   6.952   3.891   2.860
10589SOL     OW32665   6.274   1.124   4.795
10589SOL    HW132666   6.176   1.139   4.782
10589SOL    HW232667   6.289   1.079   4.883
10590SOL     OW32668   1.306   0.458   1.495
10590SOL    HW132669   1.267   0.412   1.575
10590SOL    HW232670   1.236   0.514   1.451
10591SOL     OW32671   1.172   1.647   6.095
10591SOL    HW132672   1.157   1.548   6.106
10591SOL    HW232673   1.086   1.691   6.071
10592SOL     OW32674   6.360   2.928   0.592
10592SOL    HW132675   6.447   2.925   0.545
10592SOL    HW232676   6.346   3.019   0.631
10593SOL     OW32677   2.188   5.104   0.489
10593SOL    HW132678   2.224   5.157   0.412
10593SOL    HW232679   2.220   5.144   0.575
10594SOL     OW32680   5.262   0.942   2.332
10594SOL    HW132681   5.194   0.880   2.293
10594SOL    HW232682   5.225   1.035   2.336
10595SOL     OW32683   3.878   6.975   5.125
10595SOL    HW132684   3.865   6.942   5.032
10595SOL    HW232685   3.970   6.951   5.156
10596SOL     OW32686   4.972   7.017   0.228
10596SOL    HW132687   5.054   6.965   0.252
10596SOL    HW232688   4.898   6.955   0.203
10597SOL     OW32689   3.670   1.261   4.829
10597SOL    HW132690   3.595   1.327   4.822
10597SOL    HW232691   3.676   1.228   4.923
10598SOL     OW32692   2.575   2.523   6.982
10598SOL    HW132693   2.479   2.537   7.007
10598SOL    HW232694   2.582   2.445   6.919
10599SOL     OW32695   5.271   2.495   6.753
10599SOL    HW132696   5.194   2.485   6.816
10599SOL    HW232697   5.263   2.428   6.679
10600SOL     OW32698   1.621   2.386   0.369
10600SOL    HW132699   1.706   2.423   0.332
10600SOL    HW232700   1.561   2.462   0.397
10601SOL     OW32701   1.674   4.340   6.399
10601SOL    HW132702   1.582   4.356   6.363
10601SOL    HW232703   1.720   4.428   6.413
10602SOL     OW32704   4.958   1.913   3.017
10602SOL    HW132705   5.020   1.916   2.938
10602SOL    HW232706   5.011   1.925   3.101
10603SOL     OW32707   1.792   5.494   4.093
10603SOL    HW132708   1.849   5.565   4.135
10603SOL    HW232709   1.799   5.410   4.147
10604SOL     OW32710   6.006   3.814   5.538
10604SOL    HW132711   6.059   3.789   5.618
10604SOL    HW232712   5.972   3.731   5.493
10605SOL     OW32713   1.714   4.448   0.748
10605SOL    HW132714   1.790   4.510   0.771
10605SOL    HW232715   1.726   4.414   0.655
10606SOL     OW32716   6.740   6.967   2.387
10606SOL    HW132717   6.708   6.980   2.481
10606SOL    HW232718   6.672   7.003   2.324
10607SOL     OW32719   3.897   4.626   5.786
10607SOL    HW132720   3.908   4.710   5.838
10607SOL    HW232721   3.957   4.555   5.823
10608SOL     OW32722   5.190   1.748   6.004
10608SOL    HW132723   5.278   1.700   6.000
10608SOL    HW232724   5.157   1.750   6.098
10609SOL     OW32725   3.182   6.488   1.920
10609SOL    HW132726   3.242   6.440   1.983
10609SOL    HW232727   3.144   6.423   1.854
10610SOL     OW32728   0.807   3.536   5.908
10610SOL    HW132729   0.777   3.563   5.817
10610SOL    HW232730   0.834   3.617   5.960
10611SOL     OW32731   4.533   3.790   5.698
10611SOL    HW132732   4.599   3.865   5.695
10611SOL    HW232733   4.440   3.827   5.691
10612SOL     OW32734   2.699   0.175   5.787
10612SOL    HW132735   2.669   0.123   5.708
10612SOL    HW232736   2.799   0.179   5.790
10613SOL     OW32737   6.647   0.424   5.235
10613SOL    HW132738   6.706   0.501   5.212
10613SOL    HW232739   6.565   0.458   5.281
10614SOL     OW32740   6.860   2.465   4.794
10614SOL    HW132741   6.883   2.517   4.876
10614SOL    HW232742   6.834   2.372   4.819
10615SOL     OW32743   3.262   6.082   5.927
10615SOL    HW132744   3.165   6.106   5.919
10615SOL    HW232745   3.310   6.111   5.844
10616SOL     OW32746   2.791   6.619   1.402
10616SOL    HW132747   2.782   6.558   1.481
10616SOL    HW232748   2.862   6.585   1.341
10617SOL     OW32749   1.952   2.809   0.465
10617SOL    HW132750   2.019   2.876   0.432
10617SOL    HW232751   1.970   2.788   0.561
10618SOL     OW32752   6.088   3.517   6.442
10618SOL    HW132753   6.110   3.469   6.527
10618SOL    HW232754   6.063   3.611   6.463
10619SOL     OW32755   6.988   3.751   2.412
10619SOL    HW132756   6.928   3.796   2.346
10619SOL    HW232757   0.024   3.819   2.451
10620SOL     OW32758   1.369   5.448   5.840
10620SOL    HW132759   1.441   5.506   5.877
10620SOL    HW232760   1.287   5.455   5.898
10621SOL     OW32761   0.935   5.993   1.413
10621SOL    HW132762   0.855   6.043   1.378
10621SOL    HW232763   1.016   6.020   1.361
10622SOL     OW32764   5.398   0.791   1.171
10622SOL    HW132765   5.495   0.816   1.173
10622SOL    HW232766   5.360   0.810   1.081
10623SOL     OW32767   0.070   4.955   4.302
10623SOL    HW132768   0.142   5.022   4.286
10623SOL    HW232769   0.074   4.922   4.396
10624SOL     OW32770   0.421   1.793   4.714
10624SOL    HW132771   0.331   1.766   4.680
10624SOL    HW232772   0.476   1.828   4.638
10625SOL     OW32773   0.436   5.109   6.822
10625SOL    HW132774   0.421   5.024   6.872
10625SOL    HW232775   0.384   5.183   6.866
10626SOL     OW32776   1.803   3.080   1.104
10626SOL    HW132777   1.842   3.114   1.189
10626SOL    HW232778   1.852   2.997   1.075
10627SOL     OW32779   5.559   5.988   0.931
10627SOL    HW132780   5.631   5.994   1.000
10627SOL    HW232781   5.600   5.973   0.841
10628SOL     OW32782   5.307   5.597   6.290
10628SOL    HW132783   5.233   5.661   6.270
10628SOL    HW232784   5.364   5.585   6.209
10629SOL     OW32785   2.523   4.544   4.807
10629SOL    HW132786   2.449   4.588   4.857
10629SOL    HW232787   2.557   4.466   4.860
10630SOL     OW32788   6.165   1.245   3.818
10630SOL    HW132789   6.163   1.167   3.754
10630SOL    HW232790   6.072   1.269   3.843
10631SOL     OW32791   1.804   4.895   5.278
10631SOL    HW132792   1.812   4.835   5.198
10631SOL    HW232793   1.711   4.931   5.284
10632SOL     OW32794   5.791   1.567   4.015
10632SOL    HW132795   5.731   1.600   4.088
10632SOL    HW232796   5.841   1.487   4.047
10633SOL     OW32797   2.375   3.475   1.385
10633SOL    HW132798   2.287   3.429   1.389
10633SOL    HW232799   2.363   3.568   1.352
10634SOL     OW32800   3.110   5.182   1.477
10634SOL    HW132801   3.171   5.261   1.483
10634SOL    HW232802   3.024   5.211   1.435
10635SOL     OW32803   3.552   1.832   0.776
10635SOL    HW132804   3.485   1.867   0.842
10635SOL    HW232805   3.577   1.738   0.800
10636SOL     OW32806   1.472   1.809   1.260
10636SOL    HW132807   1.470   1.710   1.246
10636SOL    HW232808   1.428   1.854   1.183
10637SOL     OW32809   3.239   4.993   5.508
10637SOL    HW132810   3.293   5.074   5.530
10637SOL    HW232811   3.290   4.936   5.444
10638SOL     OW32812   6.973   5.567   2.850
10638SOL    HW132813   6.976   5.515   2.936
10638SOL    HW232814   0.040   5.586   2.820
10639SOL     OW32815   0.428   3.219   2.990
10639SOL    HW132816   0.425   3.290   2.919
10639SOL    HW232817   0.342   3.168   2.990
10640SOL     OW32818   4.005   0.483   5.712
10640SOL    HW132819   4.038   0.570   5.748
10640SOL    HW232820   3.905   0.478   5.722
10641SOL     OW32821   3.577   2.382   0.190
10641SOL    HW132822   3.512   2.418   0.123
10641SOL    HW232823   3.568   2.283   0.194
10642SOL     OW32824   6.688   2.403   1.362
10642SOL    HW132825   6.775   2.396   1.314
10642SOL    HW232826   6.702   2.445   1.451
10643SOL     OW32827   2.070   4.699   5.601
10643SOL    HW132828   2.132   4.745   5.666
10643SOL    HW232829   1.985   4.751   5.593
10644SOL     OW32830   5.739   1.912   3.099
10644SOL    HW132831   5.689   1.834   3.138
10644SOL    HW232832   5.832   1.884   3.075
10645SOL     OW32833   0.096   1.273   4.737
10645SOL    HW132834   0.142   1.255   4.650
10645SOL    HW232835   0.009   1.224   4.739
10646SOL     OW32836   0.462   1.473   6.086
10646SOL    HW132837   0.396   1.452   6.014
10646SOL    HW232838   0.495   1.566   6.075
10647SOL     OW32839   3.807   5.459   0.074
10647SOL    HW132840   3.787   5.548   0.032
10647SOL    HW232841   3.739   5.439   0.144
10648SOL     OW32842   4.524   4.381   6.766
10648SOL    HW132843   4.540   4.478   6.745
10648SOL    HW232844   4.513   4.330   6.680
10649SOL     OW32845   0.803   4.331   3.245
10649SOL    HW132846   0.855   4.256   3.205
10649SOL    HW232847   0.835   4.418   3.206
10650SOL     OW32848   1.530   6.541   2.851
10650SOL    HW132849   1.583   6.593   2.917
10650SOL    HW232850   1.574   6.546   2.761
10651SOL     OW32851   4.777   6.724   5.595
10651SOL    HW132852   4.828   6.733   5.681
10651SOL    HW232853   4.833   6.675   5.528
10652SOL     OW32854   3.407   0.145   6.339
10652SOL    HW132855   3.486   0.180   6.390
10652SOL    HW232856   3.324   0.188   6.374
10653SOL     OW32857   5.479   3.956   4.134
10653SOL    HW132858   5.427   3.893   4.192
10653SOL    HW232859   5.569   3.970   4.174
10654SOL     OW32860   4.158   1.094   0.683
10654SOL    HW132861   4.196   1.052   0.601
10654SOL    HW232862   4.069   1.135   0.663
10655SOL     OW32863   2.749   5.340   1.510
10655SOL    HW132864   2.792   5.412   1.564
10655SOL    HW232865   2.745   5.255   1.564
10656SOL     OW32866   6.258   2.854   0.259
10656SOL    HW132867   6.186   2.872   0.326
10656SOL    HW232868   6.338   2.818   0.306
10657SOL     OW32869   6.845   6.703   6.823
10657SOL    HW132870   6.905   6.754   6.885
10657SOL    HW232871   6.778   6.764   6.783
10658SOL     OW32872   6.638   3.869   4.292
10658SOL    HW132873   6.647   3.775   4.327
10658SOL    HW232874   6.679   3.873   4.201
10659SOL     OW32875   6.659   6.212   0.873
10659SOL    HW132876   6.621   6.184   0.785
10659SOL    HW232877   6.751   6.174   0.883
10660SOL     OW32878   5.525   4.332   6.317
10660SOL    HW132879   5.567   4.345   6.407
10660SOL    HW232880   5.513   4.235   6.300
10661SOL     OW32881   0.245   6.357   2.587
10661SOL    HW132882   0.271   6.454   2.591
10661SOL    HW232883   0.170   6.346   2.521
10662SOL     OW32884   5.823   0.994   2.043
10662SOL    HW132885   5.857   0.979   1.950
10662SOL    HW232886   5.888   0.957   2.109
10663SOL     OW32887   0.323   7.008   1.930
10663SOL    HW132888   0.251   0.018   1.989
10663SOL    HW232889   0.288   6.995   1.838
10664SOL     OW32890   1.984   4.447   5.579
10664SOL    HW132891   2.001   4.391   5.498
10664SOL    HW232892   2.039   4.530   5.574
10665SOL     OW32893   0.413   0.423   0.893
10665SOL    HW132894   0.380   0.411   0.800
10665SOL    HW232895   0.472   0.503   0.898
10666SOL     OW32896   3.435   5.174   0.748
10666SOL    HW132897   3.390   5.208   0.830
10666SOL    HW232898   3.400   5.222   0.668
10667SOL     OW32899   3.674   2.746   5.375
10667SOL    HW132900   3.653   2.834   5.332
10667SOL    HW232901   3.613   2.676   5.339
10668SOL     OW32902   1.065   1.772   5.184
10668SOL    HW132903   0.971   1.769   5.150
10668SOL    HW232904   1.084   1.863   5.221
10669SOL     OW32905   5.990   6.670   0.785
10669SOL    HW132906   5.976   6.714   0.696
10669SOL    HW232907   6.038   6.734   0.846
10670SOL     OW32908   4.655   4.205   5.213
10670SOL    HW132909   4.741   4.198   5.263
10670SOL    HW232910   4.674   4.222   5.116
10671SOL     OW32911   2.660   2.379   2.618
10671SOL    HW132912   2.648   2.478   2.611
10671SOL    HW232913   2.710   2.345   2.539
10672SOL     OW32914   6.928   2.459   0.512
10672SOL    HW132915   6.846   2.453   0.569
10672SOL    HW232916   6.988   2.531   0.548
10673SOL     OW32917   1.546   2.555   6.737
10673SOL    HW132918   1.591   2.642   6.758
10673SOL    HW232919   1.608   2.498   6.683
10674SOL     OW32920   3.469   3.268   0.932
10674SOL    HW132921   3.411   3.240   1.009
10674SOL    HW232922   3.553   3.310   0.967
10675SOL     OW32923   1.699   0.382   6.151
10675SOL    HW132924   1.766   0.350   6.218
10675SOL    HW232925   1.741   0.452   6.093
10676SOL     OW32926   6.645   6.717   6.160
10676SOL    HW132927   6.585   6.760   6.092
10676SOL    HW232928   6.589   6.666   6.225
10677SOL     OW32929   0.523   0.336   2.244
10677SOL    HW132930   0.579   0.255   2.262
10677SOL    HW232931   0.457   0.315   2.172
10678SOL     OW32932   3.679   5.202   3.195
10678SOL    HW132933   3.620   5.180   3.118
10678SOL    HW232934   3.666   5.134   3.267
10679SOL     OW32935   5.089   4.428   5.994
10679SOL    HW132936   5.148   4.348   5.985
10679SOL    HW232937   5.037   4.422   6.079
10680SOL     OW32938   1.995   2.223   4.125
10680SOL    HW132939   1.944   2.244   4.209
10680SOL    HW232940   1.936   2.239   4.046
10681SOL     OW32941   0.298   3.811   6.367
10681SOL    HW132942   0.270   3.853   6.453
10681SOL    HW232943   0.329   3.717   6.383
10682SOL     OW32944   1.977   2.312   2.759
10682SOL    HW132945   2.055   2.357   2.804
10682SOL    HW232946   1.910   2.286   2.828
10683SOL     OW32947   3.280   1.693   3.930
10683SOL    HW132948   3.319   1.682   3.838
10683SOL    HW232949   3.203   1.631   3.941
10684SOL     OW32950   4.402   3.770   0.349
10684SOL    HW132951   4.398   3.829   0.268
10684SOL    HW232952   4.476   3.802   0.408
10685SOL     OW32953   6.625   3.951   2.069
10685SOL    HW132954   6.563   3.933   2.146
10685SOL    HW232955   6.611   3.881   1.999
10686SOL     OW32956   4.086   5.243   6.685
10686SOL    HW132957   4.168   5.186   6.672
10686SOL    HW232958   4.075   5.304   6.607
10687SOL     OW32959   7.011   4.987   1.661
10687SOL    HW132960   6.940   5.006   1.592
10687SOL    HW232961   0.039   5.069   1.675
10688SOL     OW32962   6.195   4.542   2.559
10688SOL    HW132963   6.219   4.629   2.515
10688SOL    HW232964   6.278   4.491   2.581
10689SOL     OW32965   0.370   0.138   3.395
10689SOL    HW132966   0.307   0.068   3.429
10689SOL    HW232967   0.418   0.104   3.315
10690SOL     OW32968   5.603   5.357   4.215
10690SOL    HW132969   5.563   5.416   4.145
10690SOL    HW232970   5.592   5.399   4.305
10691SOL     OW32971   0.072   1.713   2.381
10691SOL    HW132972   7.011   1.746   2.417
10691SOL    HW232973   0.065   1.700   2.282
10692SOL     OW32974   3.482   5.602   3.538
10692SOL    HW132975   3.575   5.609   3.503
10692SOL    HW232976   3.424   5.670   3.493
10693SOL     OW32977   1.793   0.947   2.117
10693SOL    HW132978   1.848   0.871   2.151
10693SOL    HW232979   1.813   0.962   2.020
10694SOL     OW32980   3.342   6.154   1.272
10694SOL    HW132981   3.345   6.139   1.173
10694SOL    HW232982   3.435   6.163   1.307
10695SOL     OW32983   6.266   2.225   3.253
10695SOL    HW132984   6.327   2.164   3.203
10695SOL    HW232985   6.188   2.248   3.195
10696SOL     OW32986   0.071   5.148   2.175
10696SOL    HW132987   0.093   5.097   2.092
10696SOL    HW232988   0.037   5.239   2.151
10697SOL     OW32989   0.237   6.090   4.076
10697SOL    HW132990   0.315   6.046   4.120
10697SOL    HW232991   0.268   6.171   4.025
10698SOL     OW32992   3.421   6.757   4.158
10698SOL    HW132993   3.473   6.740   4.241
10698SOL    HW232994   3.385   6.671   4.123
10699SOL     OW32995   4.388   1.831   2.801
10699SOL    HW132996   4.412   1.786   2.887
10699SOL    HW232997   4.466   1.883   2.768
10700SOL     OW32998   0.969   0.171   0.437
10700SOL    HW132999   1.051   0.121   0.408
10700SOL    HW233000   0.911   0.112   0.493
10701SOL     OW33001   4.071   5.759   0.085
10701SOL    HW133002   4.035   5.666   0.091
10701SOL    HW233003   4.035   5.804   0.004
10702SOL     OW33004   5.833   2.500   2.296
10702SOL    HW133005   5.861   2.417   2.344
10702SOL    HW233006   5.740   2.525   2.324
10703SOL     OW33007   3.750   2.941   3.881
10703SOL    HW133008   3.726   2.944   3.784
10703SOL    HW233009   3.739   3.031   3.921
10704SOL     OW33010   4.972   5.936   1.841
10704SOL    HW133011   4.883   5.936   1.885
10704SOL    HW233012   5.044   5.925   1.910
10705SOL     OW33013   0.641   3.776   0.679
10705SOL    HW133014   0.665   3.702   0.615
10705SOL    HW233015   0.710   3.847   0.675
10706SOL     OW33016   4.544   6.903   2.055
10706SOL    HW133017   4.542   6.844   2.136
10706SOL    HW233018   4.551   6.846   1.973
10707SOL     OW33019   0.376   6.868   4.563
10707SOL    HW133020   0.317   6.806   4.511
10707SOL    HW233021   0.336   6.883   4.654
10708SOL     OW33022   4.733   1.181   1.642
10708SOL    HW133023   4.643   1.138   1.650
10708SOL    HW233024   4.793   1.146   1.714
10709SOL     OW33025   6.563   0.786   5.350
10709SOL    HW133026   6.592   0.824   5.262
10709SOL    HW233027   6.494   0.847   5.391
10710SOL     OW33028   0.720   6.769   4.955
10710SOL    HW133029   0.739   6.858   4.996
10710SOL    HW233030   0.793   6.705   4.977
10711SOL     OW33031   1.960   6.891   3.840
10711SOL    HW133032   1.913   6.904   3.753
10711SOL    HW233033   1.915   6.946   3.911
10712SOL     OW33034   4.106   0.868   3.461
10712SOL    HW133035   4.169   0.798   3.425
10712SOL    HW233036   4.111   0.950   3.404
10713SOL     OW33037   1.675   4.862   1.635
10713SOL    HW133038   1.763   4.871   1.587
10713SOL    HW233039   1.602   4.848   1.567
10714SOL     OW33040   6.760   3.775   5.393
10714SOL    HW133041   6.686   3.837   5.417
10714SOL    HW233042   6.751   3.748   5.297
10715SOL     OW33043   5.103   0.375   3.189
10715SOL    HW133044   5.005   0.392   3.183
10715SOL    HW233045   5.138   0.411   3.275
10716SOL     OW33046   6.931   2.281   3.545
10716SOL    HW133047   6.894   2.291   3.452
10716SOL    HW233048   6.856   2.268   3.610
10717SOL     OW33049   0.549   1.306   0.774
10717SOL    HW133050   0.527   1.240   0.846
10717SOL    HW233051   0.482   1.297   0.700
10718SOL     OW33052   6.548   4.646   0.100
10718SOL    HW133053   6.468   4.600   0.138
10718SOL    HW233054   6.622   4.644   0.166
10719SOL     OW33055   4.837   6.498   1.889
10719SOL    HW133056   4.894   6.418   1.903
10719SOL    HW233057   4.749   6.487   1.936
10720SOL     OW33058   6.382   3.504   6.015
10720SOL    HW133059   6.426   3.589   5.985
10720SOL    HW233060   6.350   3.515   6.109
10721SOL     OW33061   6.589   2.035   4.263
10721SOL    HW133062   6.662   2.051   4.195
10721SOL    HW233063   6.508   2.087   4.236
10722SOL     OW33064   0.153   3.573   6.897
10722SOL    HW133065   0.110   3.489   6.928
10722SOL    HW233066   0.150   3.642   6.969
10723SOL     OW33067   5.606   3.854   6.890
10723SOL    HW133068   5.557   3.783   6.940
10723SOL    HW233069   5.673   3.811   6.828
10724SOL     OW33070   4.064   6.489   5.912
10724SOL    HW133071   4.138   6.550   5.941
10724SOL    HW233072   4.040   6.428   5.986
10725SOL     OW33073   0.333   5.505   4.134
10725SOL    HW133074   0.272   5.426   4.119
10725SOL    HW233075   0.326   5.567   4.055
10726SOL     OW33076   6.382   6.994   4.677
10726SOL    HW133077   6.472   6.993   4.721
10726SOL    HW233078   6.325   6.922   4.717
10727SOL     OW33079   1.726   5.175   5.468
10727SOL    HW133080   1.657   5.104   5.452
10727SOL    HW233081   1.698   5.231   5.546
10728SOL     OW33082   5.719   6.382   2.856
10728SOL    HW133083   5.635   6.329   2.857
10728SOL    HW233084   5.714   6.451   2.784
10729SOL     OW33085   6.641   1.541   2.603
10729SOL    HW133086   6.636   1.455   2.553
10729SOL    HW233087   6.731   1.583   2.589
10730SOL     OW33088   2.752   6.524   2.092
10730SOL    HW133089   2.834   6.543   2.038
10730SOL    HW233090   2.689   6.601   2.087
10731SOL     OW33091   2.492   5.537   0.536
10731SOL    HW133092   2.484   5.525   0.437
10731SOL    HW233093   2.584   5.511   0.565
10732SOL     OW33094   6.545   0.128   2.855
10732SOL    HW133095   6.542   0.222   2.891
10732SOL    HW233096   6.602   0.072   2.915
10733SOL     OW33097   6.108   2.062   6.873
10733SOL    HW133098   6.053   2.095   6.796
10733SOL    HW233099   6.194   2.112   6.877
10734SOL     OW33100   0.620   0.551   6.207
10734SOL    HW133101   0.604   0.640   6.250
10734SOL    HW233102   0.535   0.499   6.204
10735SOL     OW33103   0.808   4.836   2.429
10735SOL    HW133104   0.797   4.856   2.526
10735SOL    HW233105   0.793   4.738   2.413
10736SOL     OW33106   0.490   1.236   3.201
10736SOL    HW133107   0.473   1.149   3.156
10736SOL    HW233108   0.403   1.271   3.237
10737SOL     OW33109   0.764   1.851   0.718
10737SOL    HW133110   0.747   1.755   0.741
10737SOL    HW233111   0.784   1.902   0.802
10738SOL     OW33112   2.174   0.141   2.697
10738SOL    HW133113   2.214   0.208   2.635
10738SOL    HW233114   2.156   0.185   2.785
10739SOL     OW33115   6.597   1.855   2.331
10739SOL    HW133116   6.542   1.790   2.279
10739SOL    HW233117   6.550   1.943   2.337
10740SOL     OW33118   1.281   6.089   5.627
10740SOL    HW133119   1.335   6.104   5.709
10740SOL    HW233120   1.330   6.125   5.547
10741SOL     OW33121   2.017   1.546   3.232
10741SOL    HW133122   1.919   1.561   3.221
10741SOL    HW233123   2.062   1.632   3.255
10742SOL     OW33124   5.729   6.969   2.230
10742SOL    HW133125   5.822   6.953   2.196
10742SOL    HW233126   5.666   6.904   2.188
10743SOL     OW33127   3.300   1.451   4.519
10743SOL    HW133128   3.300   1.540   4.566
10743SOL    HW233129   3.220   1.444   4.460
10744SOL     OW33130   3.091   1.545   2.014
10744SOL    HW133131   3.074   1.457   1.971
10744SOL    HW233132   3.138   1.532   2.101
10745SOL     OW33133   2.097   4.586   0.459
10745SOL    HW133134   2.185   4.595   0.506
10745SOL    HW233135   2.058   4.677   0.445
10746SOL     OW33136   2.248   5.573   0.800
10746SOL    HW133137   2.312   5.642   0.835
10746SOL    HW233138   2.166   5.570   0.857
10747SOL     OW33139   5.334   1.510   3.299
10747SOL    HW133140   5.396   1.448   3.346
10747SOL    HW233141   5.353   1.509   3.201
10748SOL     OW33142   5.288   5.685   0.999
10748SOL    HW133143   5.209   5.653   1.051
10748SOL    HW233144   5.359   5.614   1.000
10749SOL     OW33145   7.011   4.634   2.581
10749SOL    HW133146   6.973   4.705   2.640
10749SOL    HW233147   6.937   4.582   2.540
10750SOL     OW33148   4.898   4.033   4.507
10750SOL    HW133149   4.898   3.941   4.468
10750SOL    HW233150   4.884   4.028   4.605
10751SOL     OW33151   1.750   3.046   5.127
10751SOL    HW133152   1.760   3.100   5.211
10751SOL    HW233153   1.668   2.989   5.133
10752SOL     OW33154   6.084   4.470   6.856
10752SOL    HW133155   6.102   4.377   6.890
10752SOL    HW233156   6.099   4.472   6.758
10753SOL     OW33157   5.180   0.299   3.618
10753SOL    HW133158   5.208   0.380   3.669
10753SOL    HW233159   5.127   0.327   3.538
10754SOL     OW33160   1.251   2.642   2.285
10754SOL    HW133161   1.308   2.707   2.237
10754SOL    HW233162   1.292   2.622   2.375
10755SOL     OW33163   6.859   2.037   0.578
10755SOL    HW133164   6.902   1.974   0.642
10755SOL    HW233165   6.796   2.097   0.627
10756SOL     OW33166   6.563   2.564   0.028
10756SOL    HW133167   6.490   2.556   6.988
10756SOL    HW233168   6.651   2.543   7.011
10757SOL     OW33169   0.190   3.924   0.908
10757SOL    HW133170   0.160   3.906   0.815
10757SOL    HW233171   0.289   3.937   0.910
10758SOL     OW33172   0.835   5.610   5.649
10758SOL    HW133173   0.807   5.519   5.621
10758SOL    HW233174   0.925   5.631   5.610
10759SOL     OW33175   1.752   3.325   6.119
10759SOL    HW133176   1.814   3.388   6.166
10759SOL    HW233177   1.658   3.346   6.145
10760SOL     OW33178   0.606   5.591   1.069
10760SOL    HW133179   0.575   5.550   1.155
10760SOL    HW233180   0.647   5.680   1.088
10761SOL     OW33181   0.848   2.550   6.034
10761SOL    HW133182   0.847   2.530   6.132
10761SOL    HW233183   0.893   2.475   5.986
10762SOL     OW33184   4.696   0.894   5.686
10762SOL    HW133185   4.629   0.963   5.659
10762SOL    HW233186   4.664   0.804   5.656
10763SOL     OW33187   4.749   0.302   1.777
10763SOL    HW133188   4.754   0.269   1.683
10763SOL    HW233189   4.683   0.247   1.828
10764SOL     OW33190   5.367   1.552   6.134
10764SOL    HW133191   5.409   1.561   6.225
10764SOL    HW233192   5.439   1.535   6.066
10765SOL     OW33193   5.831   1.536   2.267
10765SOL    HW133194   5.789   1.449   2.241
10765SOL    HW233195   5.810   1.605   2.198
10766SOL     OW33196   2.215   4.110   0.014
10766SOL    HW133197   2.294   4.051   0.032
10766SOL    HW233198   2.161   4.072   6.965
10767SOL     OW33199   1.614   6.398   0.955
10767SOL    HW133200   1.638   6.481   0.904
10767SOL    HW233201   1.569   6.423   1.040
10768SOL     OW33202   5.113   5.649   6.863
10768SOL    HW133203   5.086   5.736   6.821
10768SOL    HW233204   5.137   5.665   6.959
10769SOL     OW33205   2.753   4.348   5.336
10769SOL    HW133206   2.826   4.391   5.283
10769SOL    HW233207   2.666   4.360   5.289
10770SOL     OW33208   5.546   0.264   4.538
10770SOL    HW133209   5.614   0.230   4.472
10770SOL    HW233210   5.494   0.339   4.496
10771SOL     OW33211   4.217   0.169   5.510
10771SOL    HW133212   4.301   0.219   5.529
10771SOL    HW233213   4.207   0.094   5.576
10772SOL     OW33214   6.683   6.507   3.670
10772SOL    HW133215   6.622   6.571   3.623
10772SOL    HW233216   6.706   6.543   3.761
10773SOL     OW33217   0.060   4.436   6.770
10773SOL    HW133218   0.082   4.519   6.820
10773SOL    HW233219   0.032   4.459   6.677
10774SOL     OW33220   1.524   2.301   1.566
10774SOL    HW133221   1.588   2.225   1.548
10774SOL    HW233222   1.543   2.340   1.656
10775SOL     OW33223   2.200   4.310   0.962
10775SOL    HW133224   2.230   4.304   0.867
10775SOL    HW233225   2.267   4.361   1.015
10776SOL     OW33226   0.320   6.676   2.079
10776SOL    HW133227   0.395   6.729   2.042
10776SOL    HW233228   0.242   6.679   2.016
10777SOL     OW33229   4.056   0.495   3.116
10777SOL    HW133230   4.014   0.501   3.207
10777SOL    HW233231   4.053   0.400   3.085
10778SOL     OW33232   6.224   6.368   4.867
10778SOL    HW133233   6.272   6.431   4.806
10778SOL    HW233234   6.127   6.367   4.845
10779SOL     OW33235   6.442   4.343   2.293
10779SOL    HW133236   6.367   4.282   2.269
10779SOL    HW233237   6.433   4.428   2.241
10780SOL     OW33238   0.664   5.653   4.194
10780SOL    HW133239   0.610   5.711   4.255
10780SOL    HW233240   0.636   5.668   4.100
10781SOL     OW33241   5.161   1.315   4.277
10781SOL    HW133242   5.196   1.252   4.208
10781SOL    HW233243   5.141   1.403   4.235
10782SOL     OW33244   6.293   3.029   4.139
10782SOL    HW133245   6.222   2.989   4.082
10782SOL    HW233246   6.321   3.117   4.101
10783SOL     OW33247   2.182   3.013   2.431
10783SOL    HW133248   2.193   2.944   2.502
10783SOL    HW233249   2.207   2.974   2.342
10784SOL     OW33250   2.774   7.013   2.340
10784SOL    HW133251   2.810   6.967   2.258
10784SOL    HW233252   2.741   6.944   2.405
10785SOL     OW33253   1.453   5.080   1.647
10785SOL    HW133254   1.497   4.992   1.662
10785SOL    HW233255   1.473   5.111   1.554
10786SOL     OW33256   4.822   1.911   2.118
10786SOL    HW133257   4.891   1.847   2.152
10786SOL    HW233258   4.825   1.995   2.171
10787SOL     OW33259   3.462   1.151   4.451
10787SOL    HW133260   3.427   1.194   4.368
10787SOL    HW233261   3.486   1.222   4.517
10788SOL     OW33262   2.117   3.912   0.501
10788SOL    HW133263   2.109   3.873   0.593
10788SOL    HW233264   2.189   3.981   0.500
10789SOL     OW33265   6.176   0.532   0.230
10789SOL    HW133266   6.269   0.556   0.257
10789SOL    HW233267   6.176   0.499   0.136
10790SOL     OW33268   7.011   1.039   5.885
10790SOL    HW133269   6.992   0.943   5.904
10790SOL    HW233270   0.059   1.071   5.944
10791SOL     OW33271   1.846   1.700   1.729
10791SOL    HW133272   1.762   1.647   1.719
10791SOL    HW233273   1.831   1.794   1.699
10792SOL     OW33274   3.196   3.120   1.447
10792SOL    HW133275   3.209   3.121   1.348
10792SOL    HW233276   3.206   3.026   1.480
10793SOL     OW33277   5.484   2.374   3.905
10793SOL    HW133278   5.578   2.409   3.901
10793SOL    HW233279   5.420   2.449   3.890
10794SOL     OW33280   3.880   4.005   1.850
10794SOL    HW133281   3.907   3.978   1.942
10794SOL    HW233282   3.780   4.004   1.843
10795SOL     OW33283   6.248   3.714   2.712
10795SOL    HW133284   6.250   3.792   2.649
10795SOL    HW233285   6.256   3.629   2.661
10796SOL     OW33286   3.638   0.173   6.466
10796SOL    HW133287   3.647   0.086   6.418
10796SOL    HW233288   3.651   0.159   6.564
10797SOL     OW33289   4.221   2.839   0.455
10797SOL    HW133290   4.307   2.858   0.407
10797SOL    HW233291   4.220   2.886   0.543
10798SOL     OW33292   2.499   0.321   6.969
10798SOL    HW133293   2.533   0.234   6.935
10798SOL    HW233294   2.399   0.318   6.974
10799SOL     OW33295   3.606   1.824   2.507
10799SOL    HW133296   3.584   1.772   2.590
10799SOL    HW233297   3.613   1.921   2.530
10800SOL     OW33298   1.925   6.206   0.810
10800SOL    HW133299   1.858   6.171   0.876
10800SOL    HW233300   1.892   6.187   0.717
10801SOL     OW33301   1.915   6.787   4.702
10801SOL    HW133302   1.854   6.863   4.722
10801SOL    HW233303   2.010   6.820   4.700
10802SOL     OW33304   2.333   2.868   3.969
10802SOL    HW133305   2.386   2.946   4.001
10802SOL    HW233306   2.268   2.840   4.040
10803SOL     OW33307   5.095   4.424   5.358
10803SOL    HW133308   5.185   4.413   5.317
10803SOL    HW233309   5.104   4.462   5.449
10804SOL     OW33310   0.021   4.410   0.453
10804SOL    HW133311   0.101   4.351   0.465
10804SOL    HW233312   0.040   4.501   0.490
10805SOL     OW33313   3.609   0.276   6.830
10805SOL    HW133314   3.694   0.309   6.871
10805SOL    HW233315   3.541   0.350   6.831
10806SOL     OW33316   6.104   4.246   0.011
10806SOL    HW133317   6.106   4.146   0.005
10806SOL    HW233318   6.197   4.282   0.015
10807SOL     OW33319   3.626   7.026   3.648
10807SOL    HW133320   3.673   0.037   3.728
10807SOL    HW233321   3.595   6.933   3.669
10808SOL     OW33322   0.034   3.704   0.073
10808SOL    HW133323   0.074   3.793   0.094
10808SOL    HW233324   6.973   3.717   0.025
10809SOL     OW33325   2.829   0.541   4.254
10809SOL    HW133326   2.828   0.604   4.331
10809SOL    HW233327   2.842   0.592   4.169
10810SOL     OW33328   0.659   1.335   5.653
10810SOL    HW133329   0.597   1.376   5.585
10810SOL    HW233330   0.612   1.261   5.701
10811SOL     OW33331   3.879   5.057   5.507
10811SOL    HW133332   3.937   5.080   5.430
10811SOL    HW233333   3.887   4.959   5.526
10812SOL     OW33334   0.417   2.790   2.465
10812SOL    HW133335   0.426   2.879   2.419
10812SOL    HW233336   0.464   2.720   2.411
10813SOL     OW33337   2.736   5.997   1.459
10813SOL    HW133338   2.664   5.956   1.514
10813SOL    HW233339   2.749   5.944   1.375
10814SOL     OW33340   1.654   0.262   5.895
10814SOL    HW133341   1.612   0.171   5.900
10814SOL    HW233342   1.641   0.310   5.982
10815SOL     OW33343   4.726   4.809   3.493
10815SOL    HW133344   4.728   4.710   3.508
10815SOL    HW233345   4.745   4.829   3.397
10816SOL     OW33346   1.887   1.350   2.095
10816SOL    HW133347   1.868   1.363   2.192
10816SOL    HW233348   1.914   1.438   2.055
10817SOL     OW33349   5.235   6.161   3.175
10817SOL    HW133350   5.317   6.190   3.225
10817SOL    HW233351   5.192   6.242   3.134
10818SOL     OW33352   5.741   2.598   5.773
10818SOL    HW133353   5.789   2.678   5.807
10818SOL    HW233354   5.744   2.598   5.673
10819SOL     OW33355   1.253   3.574   6.646
10819SOL    HW133356   1.187   3.600   6.576
10819SOL    HW233357   1.330   3.527   6.603
10820SOL     OW33358   0.232   6.721   3.623
10820SOL    HW133359   0.260   6.655   3.691
10820SOL    HW233360   0.184   6.797   3.667
10821SOL     OW33361   6.265   6.024   2.711
10821SOL    HW133362   6.263   5.936   2.759
10821SOL    HW233363   6.204   6.088   2.758
10822SOL     OW33364   1.557   3.416   2.718
10822SOL    HW133365   1.519   3.465   2.797
10822SOL    HW233366   1.483   3.376   2.664
10823SOL     OW33367   1.771   5.725   1.604
10823SOL    HW133368   1.743   5.710   1.699
10823SOL    HW233369   1.701   5.779   1.557
10824SOL     OW33370   5.180   6.955   3.472
10824SOL    HW133371   5.216   0.008   3.423
10824SOL    HW233372   5.137   6.892   3.408
10825SOL     OW33373   2.539   1.712   0.641
10825SOL    HW133374   2.460   1.717   0.703
10825SOL    HW233375   2.530   1.782   0.570
10826SOL     OW33376   6.522   3.464   2.282
10826SOL    HW133377   6.597   3.515   2.322
10826SOL    HW233378   6.556   3.409   2.206
10827SOL     OW33379   6.424   3.697   3.810
10827SOL    HW133380   6.434   3.657   3.901
10827SOL    HW233381   6.511   3.691   3.761
10828SOL     OW33382   0.705   5.891   1.603
10828SOL    HW133383   0.638   5.914   1.532
10828SOL    HW233384   0.788   5.944   1.588
10829SOL     OW33385   2.474   3.212   1.346
10829SOL    HW133386   2.550   3.271   1.318
10829SOL    HW233387   2.387   3.258   1.327
10830SOL     OW33388   5.924   2.618   4.161
10830SOL    HW133389   6.007   2.667   4.134
10830SOL    HW233390   5.940   2.520   4.155
10831SOL     OW33391   4.993   0.258   1.929
10831SOL    HW133392   4.960   0.260   2.023
10831SOL    HW233393   4.916   0.271   1.866
10832SOL     OW33394   0.421   2.236   0.723
10832SOL    HW133395   0.443   2.155   0.669
10832SOL    HW233396   0.387   2.208   0.813
10833SOL     OW33397   2.357   0.556   3.711
10833SOL    HW133398   2.346   0.620   3.634
10833SOL    HW233399   2.268   0.521   3.739
10834SOL     OW33400   0.311   1.096   5.186
10834SOL    HW133401   0.298   1.096   5.087
10834SOL    HW233402   0.394   1.146   5.208
10835SOL     OW33403   6.123   1.479   1.366
10835SOL    HW133404   6.064   1.449   1.291
10835SOL    HW233405   6.138   1.577   1.360
10836SOL     OW33406   6.694   1.796   5.338
10836SOL    HW133407   6.697   1.861   5.262
10836SOL    HW233408   6.600   1.775   5.362
10837SOL     OW33409   0.089   4.669   6.928
10837SOL    HW133410   0.029   4.699   7.002
10837SOL    HW233411   0.184   4.688   6.953
10838SOL     OW33412   5.743   0.702   5.602
10838SOL    HW133413   5.688   0.625   5.569
10838SOL    HW233414   5.820   0.717   5.540
10839SOL     OW33415   2.866   2.851   0.147
10839SOL    HW133416   2.921   2.931   0.123
10839SOL    HW233417   2.826   2.864   0.238
10840SOL     OW33418   3.735   5.892   1.385
10840SOL    HW133419   3.705   5.872   1.292
10840SOL    HW233420   3.780   5.982   1.386
10841SOL     OW33421   3.241   5.920   5.694
10841SOL    HW133422   3.144   5.942   5.703
10841SOL    HW233423   3.292   6.003   5.672
10842SOL     OW33424   6.213   2.639   1.034
10842SOL    HW133425   6.172   2.714   0.982
10842SOL    HW233426   6.291   2.602   0.983
10843SOL     OW33427   0.864   1.797   1.459
10843SOL    HW133428   0.865   1.698   1.442
10843SOL    HW233429   0.946   1.822   1.510
10844SOL     OW33430   6.660   6.506   4.581
10844SOL    HW133431   6.746   6.543   4.545
10844SOL    HW233432   6.680   6.427   4.639
10845SOL     OW33433   2.034   0.994   1.422
10845SOL    HW133434   2.113   0.962   1.370
10845SOL    HW233435   2.062   1.016   1.516
10846SOL     OW33436   4.753   1.989   0.713
10846SOL    HW133437   4.688   2.051   0.757
10846SOL    HW233438   4.712   1.898   0.706
10847SOL     OW33439   2.371   2.030   6.080
10847SOL    HW133440   2.389   1.950   6.137
10847SOL    HW233441   2.275   2.032   6.055
10848SOL     OW33442   2.693   1.629   0.027
10848SOL    HW133443   2.743   1.640   6.967
10848SOL    HW233444   2.744   1.673   0.101
10849SOL     OW33445   3.819   4.896   3.829
10849SOL    HW133446   3.872   4.897   3.914
10849SOL    HW233447   3.722   4.893   3.850
10850SOL     OW33448   3.747   6.759   6.954
10850SOL    HW133449   3.805   6.692   6.908
10850SOL    HW233450   3.658   6.763   6.908
10851SOL     OW33451   2.860   2.750   6.178
10851SOL    HW133452   2.772   2.710   6.150
10851SOL    HW233453   2.848   2.802   6.263
10852SOL     OW33454   0.390   0.354   6.701
10852SOL    HW133455   0.404   0.294   6.780
10852SOL    HW233456   0.309   0.411   6.717
10853SOL     OW33457   4.072   1.751   4.538
10853SOL    HW133458   4.126   1.735   4.456
10853SOL    HW233459   3.992   1.808   4.515
10854SOL     OW33460   6.007   0.224   6.841
10854SOL    HW133461   5.916   0.257   6.867
10854SOL    HW233462   6.041   0.163   6.912
10855SOL     OW33463   2.787   6.077   2.797
10855SOL    HW133464   2.755   6.167   2.766
10855SOL    HW233465   2.732   6.006   2.753
10856SOL     OW33466   6.208   0.125   1.005
10856SOL    HW133467   6.144   0.138   0.929
10856SOL    HW233468   6.302   0.140   0.973
10857SOL     OW33469   6.410   2.894   3.072
10857SOL    HW133470   6.322   2.936   3.095
10857SOL    HW233471   6.476   2.913   3.145
10858SOL     OW33472   1.916   3.152   6.723
10858SOL    HW133473   1.970   3.189   6.799
10858SOL    HW233474   1.819   3.174   6.738
10859SOL     OW33475   1.585   3.515   3.586
10859SOL    HW133476   1.616   3.425   3.617
10859SOL    HW233477   1.622   3.534   3.496
10860SOL     OW33478   6.505   0.910   0.033
10860SOL    HW133479   6.493   0.875   6.966
10860SOL    HW233480   6.520   1.008   0.030
10861SOL     OW33481   3.668   2.626   1.794
10861SOL    HW133482   3.706   2.674   1.873
10861SOL    HW233483   3.678   2.527   1.807
10862SOL     OW33484   2.498   1.777   6.298
10862SOL    HW133485   2.570   1.846   6.298
10862SOL    HW233486   2.467   1.760   6.392
10863SOL     OW33487   2.791   0.696   3.240
10863SOL    HW133488   2.730   0.754   3.294
10863SOL    HW233489   2.749   0.680   3.150
10864SOL     OW33490   2.026   4.584   1.778
10864SOL    HW133491   2.104   4.528   1.751
10864SOL    HW233492   1.943   4.549   1.734
10865SOL     OW33493   5.927   3.202   3.580
10865SOL    HW133494   6.019   3.226   3.548
10865SOL    HW233495   5.859   3.253   3.528
10866SOL     OW33496   5.825   3.129   0.897
10866SOL    HW133497   5.756   3.069   0.856
10866SOL    HW233498   5.875   3.078   0.968
10867SOL     OW33499   2.965   2.855   0.515
10867SOL    HW133500   2.980   2.934   0.456
10867SOL    HW233501   3.031   2.855   0.589
10868SOL     OW33502   1.197   2.046   2.964
10868SOL    HW133503   1.259   2.083   2.895
10868SOL    HW233504   1.115   2.104   2.969
10869NA      NA33505   0.882   2.013   6.461
10870NA      NA33506   4.472   4.637   5.146
10871NA      NA33507   1.743   4.690   2.718
10872NA      NA33508   5.165   4.484   3.823
10873NA      NA33509   4.382   2.456   5.241
10874NA      NA33510   3.028   4.747   1.602
10875NA      NA33511   1.154   4.787   0.119
10876NA      NA33512   4.012   4.356   1.553
10877NA      NA33513   4.438   3.929   1.020
10878NA      NA33514   3.700   1.396   5.685
10879NA      NA33515   4.929   5.655   1.763
10880NA      NA33516   1.546   0.439   5.784
10881NA      NA33517   4.975   4.910   1.973
10882NA      NA33518   3.483   3.402   0.455
   7.02653   7.02653   7.02653
