Generated by trjconv : CNT in water t= 165.00000
33518
    1C        C    1   2.839   2.767   4.744
    1C        C    2   2.896   2.721   4.865
    1C        C    3   2.839   2.772   4.982
    1C        C    4   2.841   2.766   4.259
    1C        C    5   2.895   2.722   4.381
    1C        C    6   2.845   2.771   4.504
    1C        C    7   3.012   2.639   4.626
    1C        C    8   2.895   2.717   4.625
    1C        C    9   3.074   2.606   4.748
    1C        C   10   3.005   2.631   4.869
    1C        C   11   3.182   2.494   4.978
    1C        C   12   3.061   2.565   4.979
    1C        C   13   2.845   2.764   3.768
    1C        C   14   2.895   2.715   3.891
    1C        C   15   2.848   2.769   4.013
    1C        C   16   3.014   2.643   4.138
    1C        C   17   2.897   2.722   4.137
    1C        C   18   3.075   2.604   4.259
    1C        C   19   3.013   2.643   4.380
    1C        C   20   3.205   2.555   4.503
    1C        C   21   3.073   2.607   4.502
    1C        C   22   3.276   2.537   4.624
    1C        C   23   3.207   2.556   4.746
    1C        C   24   3.409   2.485   4.864
    1C        C   25   3.267   2.503   4.863
    1C        C   26   3.489   2.478   4.979
    1C        C   27   2.846   2.763   3.281
    1C        C   28   2.896   2.713   3.403
    1C        C   29   2.848   2.766   3.524
    1C        C   30   3.011   2.632   3.647
    1C        C   31   2.895   2.712   3.646
    1C        C   32   3.073   2.603   3.771
    1C        C   33   3.010   2.633   3.894
    1C        C   34   3.205   2.551   4.015
    1C        C   35   3.074   2.604   4.016
    1C        C   36   3.274   2.534   4.138
    1C        C   37   3.208   2.557   4.260
    1C        C   38   3.414   2.508   4.380
    1C        C   39   3.276   2.538   4.383
    1C        C   40   3.485   2.499   4.502
    1C        C   41   3.414   2.505   4.624
    1C        C   42   3.627   2.490   4.745
    1C        C   43   3.485   2.485   4.744
    1C        C   44   3.704   2.482   4.863
    1C        C   45   3.628   2.474   4.981
    1C        C   46   2.835   2.749   2.793
    1C        C   47   2.891   2.705   2.915
    1C        C   48   2.845   2.759   3.037
    1C        C   49   3.014   2.633   3.161
    1C        C   50   2.897   2.712   3.159
    1C        C   51   3.075   2.600   3.284
    1C        C   52   3.011   2.630   3.406
    1C        C   53   3.206   2.543   3.527
    1C        C   54   3.074   2.593   3.527
    1C        C   55   3.274   2.525   3.650
    1C        C   56   3.203   2.549   3.770
    1C        C   57   3.411   2.507   3.892
    1C        C   58   3.271   2.530   3.892
    1C        C   59   3.483   2.502   4.013
    1C        C   60   3.413   2.512   4.136
    1C        C   61   3.624   2.500   4.258
    1C        C   62   3.483   2.496   4.258
    1C        C   63   3.698   2.508   4.378
    1C        C   64   3.626   2.503   4.499
    1C        C   65   3.832   2.539   4.623
    1C        C   66   3.695   2.505   4.622
    1C        C   67   3.904   2.563   4.742
    1C        C   68   3.837   2.528   4.862
    1C        C   69   4.052   2.583   4.973
    1C        C   70   3.921   2.532   4.974
    1C        C   71   2.822   2.733   2.307
    1C        C   72   2.882   2.692   2.428
    1C        C   73   2.831   2.744   2.550
    1C        C   74   3.004   2.619   2.672
    1C        C   75   2.887   2.698   2.671
    1C        C   76   3.068   2.590   2.793
    1C        C   77   3.011   2.630   2.916
    1C        C   78   3.205   2.545   3.037
    1C        C   79   3.073   2.595   3.038
    1C        C   80   3.274   2.526   3.159
    1C        C   81   3.206   2.547   3.281
    1C        C   82   3.412   2.499   3.402
    1C        C   83   3.273   2.525   3.404
    1C        C   84   3.483   2.495   3.524
    1C        C   85   3.413   2.503   3.647
    1C        C   86   3.623   2.502   3.769
    1C        C   87   3.482   2.497   3.770
    1C        C   88   3.693   2.512   3.891
    1C        C   89   3.624   2.504   4.014
    1C        C   90   3.831   2.549   4.137
    1C        C   91   3.696   2.509   4.136
    1C        C   92   3.897   2.576   4.259
    1C        C   93   3.835   2.544   4.381
    1C        C   94   4.025   2.636   4.501
    1C        C   95   3.904   2.563   4.503
    1C        C   96   4.090   2.674   4.620
    1C        C   97   4.028   2.633   4.740
    1C        C   98   4.192   2.767   4.863
    1C        C   99   4.095   2.661   4.862
    1C        C  100   4.215   2.844   4.978
    1C        C  101   2.826   2.732   2.069
    1C        C  102   2.987   2.588   2.190
    1C        C  103   2.874   2.675   2.187
    1C        C  104   3.061   2.571   2.310
    1C        C  105   3.000   2.615   2.430
    1C        C  106   3.199   2.534   2.552
    1C        C  107   3.068   2.587   2.550
    1C        C  108   3.269   2.516   2.674
    1C        C  109   3.200   2.538   2.795
    1C        C  110   3.411   2.496   2.915
    1C        C  111   3.272   2.521   2.915
    1C        C  112   3.484   2.489   3.036
    1C        C  113   3.413   2.499   3.158
    1C        C  114   3.624   2.497   3.280
    1C        C  115   3.483   2.495   3.280
    1C        C  116   3.694   2.508   3.403
    1C        C  117   3.624   2.504   3.525
    1C        C  118   3.832   2.549   3.648
    1C        C  119   3.695   2.515   3.647
    1C        C  120   3.895   2.576   3.771
    1C        C  121   3.828   2.553   3.893
    1C        C  122   4.023   2.638   4.017
    1C        C  123   3.896   2.576   4.015
    1C        C  124   4.084   2.680   4.137
    1C        C  125   4.019   2.647   4.258
    1C        C  126   4.193   2.768   4.377
    1C        C  127   4.084   2.678   4.380
    1C        C  128   4.245   2.819   4.498
    1C        C  129   4.199   2.764   4.619
    1C        C  130   4.327   2.934   4.738
    1C        C  131   4.245   2.819   4.741
    1C        C  132   4.353   3.004   4.858
    1C        C  133   4.285   2.963   4.974
    1C        C  134   3.171   2.469   2.080
    1C        C  135   3.036   2.507   2.083
    1C        C  136   3.257   2.478   2.191
    1C        C  137   3.192   2.514   2.311
    1C        C  138   3.405   2.482   2.428
    1C        C  139   3.266   2.505   2.431
    1C        C  140   3.477   2.483   2.550
    1C        C  141   3.408   2.493   2.673
    1C        C  142   3.624   2.501   2.791
    1C        C  143   3.482   2.494   2.793
    1C        C  144   3.694   2.506   2.914
    1C        C  145   3.625   2.495   3.037
    1C        C  146   3.832   2.541   3.157
    1C        C  147   3.696   2.501   3.159
    1C        C  148   3.896   2.569   3.280
    1C        C  149   3.831   2.544   3.402
    1C        C  150   4.024   2.631   3.525
    1C        C  151   3.898   2.568   3.524
    1C        C  152   4.081   2.672   3.648
    1C        C  153   4.020   2.642   3.772
    1C        C  154   4.195   2.761   3.888
    1C        C  155   4.080   2.680   3.894
    1C        C  156   4.246   2.813   4.009
    1C        C  157   4.198   2.764   4.133
    1C        C  158   4.336   2.923   4.252
    1C        C  159   4.249   2.812   4.255
    1C        C  160   4.369   2.988   4.373
    1C        C  161   4.331   2.931   4.497
    1C        C  162   4.442   3.115   4.614
    1C        C  163   4.370   2.994   4.617
    1C        C  164   4.469   3.183   4.735
    1C        C  165   4.432   3.121   4.856
    1C        C  166   4.513   3.320   4.972
    1C        C  167   4.482   3.184   4.971
    1C        C  168   3.474   2.440   2.073
    1C        C  169   3.397   2.463   2.188
    1C        C  170   3.617   2.474   2.306
    1C        C  171   3.475   2.466   2.307
    1C        C  172   3.690   2.499   2.424
    1C        C  173   3.617   2.497   2.545
    1C        C  174   3.826   2.546   2.669
    1C        C  175   3.689   2.513   2.666
    1C        C  176   3.897   2.561   2.790
    1C        C  177   3.831   2.541   2.913
    1C        C  178   4.025   2.628   3.032
    1C        C  179   3.896   2.571   3.035
    1C        C  180   4.084   2.663   3.155
    1C        C  181   4.023   2.632   3.279
    1C        C  182   4.196   2.752   3.399
    1C        C  183   4.082   2.668   3.402
    1C        C  184   4.249   2.801   3.520
    1C        C  185   4.195   2.756   3.642
    1C        C  186   4.332   2.918   3.765
    1C        C  187   4.248   2.804   3.764
    1C        C  188   4.376   2.977   3.885
    1C        C  189   4.333   2.924   4.009
    1C        C  190   4.442   3.107   4.127
    1C        C  191   4.373   2.984   4.130
    1C        C  192   4.468   3.175   4.248
    1C        C  193   4.439   3.111   4.370
    1C        C  194   4.511   3.313   4.491
    1C        C  195   4.467   3.179   4.491
    1C        C  196   4.524   3.387   4.611
    1C        C  197   4.510   3.319   4.734
    1C        C  198   4.552   3.535   4.850
    1C        C  199   4.528   3.394   4.854
    1C        C  200   4.593   3.617   4.959
    1C        C  201   3.613   2.421   2.074
    1C        C  202   3.829   2.503   2.186
    1C        C  203   3.692   2.463   2.186
    1C        C  204   3.900   2.540   2.303
    1C        C  205   3.828   2.528   2.425
    1C        C  206   4.023   2.617   2.546
    1C        C  207   3.894   2.559   2.546
    1C        C  208   4.084   2.660   2.666
    1C        C  209   4.023   2.625   2.788
    1C        C  210   4.201   2.745   2.908
    1C        C  211   4.086   2.662   2.909
    1C        C  212   4.252   2.793   3.031
    1C        C  213   4.197   2.748   3.153
    1C        C  214   4.333   2.910   3.273
    1C        C  215   4.249   2.797   3.275
    1C        C  216   4.369   2.972   3.395
    1C        C  217   4.335   2.913   3.519
    1C        C  218   4.432   3.101   3.640
    1C        C  219   4.373   2.972   3.641
    1C        C  220   4.460   3.171   3.760
    1C        C  221   4.439   3.104   3.882
    1C        C  222   4.506   3.307   4.002
    1C        C  223   4.470   3.170   4.003
    1C        C  224   4.517   3.379   4.123
    1C        C  225   4.507   3.311   4.246
    1C        C  226   4.517   3.524   4.366
    1C        C  227   4.518   3.382   4.368
    1C        C  228   4.508   3.597   4.487
    1C        C  229   4.525   3.528   4.609
    1C        C  230   4.502   3.743   4.728
    1C        C  231   4.532   3.604   4.728
    1C        C  232   4.492   3.817   4.848
    1C        C  233   4.555   3.752   4.955
    1C        C  234   4.018   2.604   2.065
    1C        C  235   3.898   2.534   2.068
    1C        C  236   4.084   2.648   2.181
    1C        C  237   4.026   2.606   2.303
    1C        C  238   4.205   2.726   2.423
    1C        C  239   4.087   2.647   2.423
    1C        C  240   4.256   2.782   2.542
    1C        C  241   4.198   2.743   2.665
    1C        C  242   4.338   2.905   2.786
    1C        C  243   4.252   2.793   2.786
    1C        C  244   4.379   2.963   2.908
    1C        C  245   4.339   2.904   3.030
    1C        C  246   4.439   3.093   3.151
    1C        C  247   4.375   2.967   3.151
    1C        C  248   4.461   3.161   3.273
    1C        C  249   4.435   3.097   3.396
    1C        C  250   4.501   3.300   3.514
    1C        C  251   4.462   3.164   3.517
    1C        C  252   4.513   3.371   3.636
    1C        C  253   4.502   3.305   3.760
    1C        C  254   4.520   3.519   3.879
    1C        C  255   4.519   3.377   3.880
    1C        C  256   4.521   3.590   4.001
    1C        C  257   4.528   3.520   4.123
    1C        C  258   4.495   3.732   4.242
    1C        C  259   4.520   3.593   4.244
    1C        C  260   4.479   3.805   4.362
    1C        C  261   4.483   3.736   4.485
    1C        C  262   4.423   3.941   4.607
    1C        C  263   4.472   3.808   4.606
    1C        C  264   4.398   4.009   4.728
    1C        C  265   4.428   3.943   4.849
    1C        C  266   4.317   4.134   4.959
    1C        C  267   4.385   4.013   4.963
    1C        C  268   4.259   2.780   2.065
    1C        C  269   4.199   2.730   2.181
    1C        C  270   4.344   2.889   2.300
    1C        C  271   4.255   2.778   2.302
    1C        C  272   4.387   2.951   2.420
    1C        C  273   4.345   2.892   2.541
    1C        C  274   4.445   3.083   2.660
    1C        C  275   4.381   2.957   2.661
    1C        C  276   4.468   3.150   2.782
    1C        C  277   4.446   3.087   2.906
    1C        C  278   4.504   3.292   3.025
    1C        C  279   4.471   3.155   3.028
    1C        C  280   4.517   3.365   3.146
    1C        C  281   4.500   3.297   3.268
    1C        C  282   4.517   3.508   3.390
    1C        C  283   4.510   3.367   3.391
    1C        C  284   4.513   3.581   3.511
    1C        C  285   4.518   3.513   3.634
    1C        C  286   4.492   3.725   3.754
    1C        C  287   4.519   3.586   3.755
    1C        C  288   4.477   3.794   3.876
    1C        C  289   4.495   3.729   4.000
    1C        C  290   4.426   3.933   4.117
    1C        C  291   4.477   3.801   4.120
    1C        C  292   4.395   3.998   4.239
    1C        C  293   4.427   3.936   4.362
    1C        C  294   4.325   4.125   4.480
    1C        C  295   4.397   4.003   4.482
    1C        C  296   4.281   4.184   4.601
    1C        C  297   4.326   4.131   4.724
    1C        C  298   4.200   4.316   4.839
    1C        C  299   4.284   4.201   4.841
    1C        C  300   4.171   4.409   4.944
    1C        C  301   4.352   2.883   2.062
    1C        C  302   4.468   3.069   2.176
    1C        C  303   4.392   2.948   2.180
    1C        C  304   4.482   3.143   2.297
    1C        C  305   4.452   3.076   2.418
    1C        C  306   4.511   3.283   2.537
    1C        C  307   4.480   3.145   2.538
    1C        C  308   4.515   3.355   2.659
    1C        C  309   4.503   3.287   2.782
    1C        C  310   4.525   3.501   2.901
    1C        C  311   4.518   3.360   2.902
    1C        C  312   4.520   3.575   3.022
    1C        C  313   4.522   3.506   3.145
    1C        C  314   4.489   3.717   3.265
    1C        C  315   4.516   3.578   3.267
    1C        C  316   4.473   3.787   3.386
    1C        C  317   4.490   3.720   3.510
    1C        C  318   4.425   3.924   3.626
    1C        C  319   4.473   3.792   3.631
    1C        C  320   4.389   3.985   3.749
    1C        C  321   4.422   3.925   3.872
    1C        C  322   4.314   4.109   3.992
    1C        C  323   4.393   3.992   3.993
    1C        C  324   4.278   4.171   4.114
    1C        C  325   4.323   4.120   4.238
    1C        C  326   4.186   4.285   4.356
    1C        C  327   4.282   4.181   4.358
    1C        C  328   4.135   4.338   4.476
    1C        C  329   4.186   4.289   4.598
    1C        C  330   4.022   4.433   4.712
    1C        C  331   4.136   4.347   4.716
    1C        C  332   3.969   4.492   4.830
    1C        C  333   4.052   4.482   4.943
    1C        C  334   4.556   3.264   2.064
    1C        C  335   4.534   3.126   2.063
    1C        C  336   4.541   3.348   2.175
    1C        C  337   4.514   3.281   2.297
    1C        C  338   4.523   3.497   2.413
    1C        C  339   4.523   3.356   2.417
    1C        C  340   4.518   3.567   2.535
    1C        C  341   4.513   3.496   2.657
    1C        C  342   4.490   3.709   2.774
    1C        C  343   4.511   3.569   2.778
    1C        C  344   4.474   3.780   2.895
    1C        C  345   4.493   3.714   3.018
    1C        C  346   4.416   3.911   3.138
    1C        C  347   4.467   3.780   3.140
    1C        C  348   4.391   3.982   3.258
    1C        C  349   4.425   3.919   3.380
    1C        C  350   4.317   4.102   3.501
    1C        C  351   4.395   3.984   3.502
    1C        C  352   4.273   4.159   3.622
    1C        C  353   4.318   4.107   3.746
    1C        C  354   4.177   4.266   3.868
    1C        C  355   4.275   4.164   3.868
    1C        C  356   4.123   4.316   3.988
    1C        C  357   4.178   4.270   4.110
    1C        C  358   4.008   4.396   4.231
    1C        C  359   4.127   4.320   4.232
    1C        C  360   3.951   4.445   4.350
    1C        C  361   4.020   4.420   4.471
    1C        C  362   3.827   4.516   4.591
    1C        C  363   3.959   4.464   4.590
    1C        C  364   3.762   4.546   4.712
    1C        C  365   3.837   4.541   4.831
    1C        C  366   3.625   4.588   4.950
    1C        C  367   3.763   4.570   4.946
    1C        C  368   4.518   3.563   2.052
    1C        C  369   4.530   3.488   2.170
    1C        C  370   4.501   3.704   2.288
    1C        C  371   4.519   3.564   2.288
    1C        C  372   4.487   3.776   2.409
    1C        C  373   4.499   3.707   2.532
    1C        C  374   4.427   3.910   2.649
    1C        C  375   4.481   3.780   2.652
    1C        C  376   4.387   3.971   2.770
    1C        C  377   4.415   3.908   2.893
    1C        C  378   4.316   4.096   3.010
    1C        C  379   4.388   3.975   3.015
    1C        C  380   4.274   4.156   3.131
    1C        C  381   4.315   4.101   3.255
    1C        C  382   4.173   4.256   3.378
    1C        C  383   4.272   4.155   3.378
    1C        C  384   4.125   4.308   3.500
    1C        C  385   4.173   4.259   3.623
    1C        C  386   4.006   4.389   3.742
    1C        C  387   4.123   4.310   3.745
    1C        C  388   3.944   4.428   3.863
    1C        C  389   4.006   4.395   3.985
    1C        C  390   3.818   4.486   4.108
    1C        C  391   3.949   4.433   4.108
    1C        C  392   3.750   4.515   4.228
    1C        C  393   3.820   4.499   4.350
    1C        C  394   3.617   4.557   4.475
    1C        C  395   3.756   4.535   4.470
    1C        C  396   3.544   4.567   4.596
    1C        C  397   3.621   4.562   4.714
    1C        C  398   3.409   4.544   4.839
    1C        C  399   3.548   4.567   4.835
    1C        C  400   3.337   4.513   4.955
    1C        C  401   4.501   3.701   2.053
    1C        C  402   4.456   3.915   2.169
    1C        C  403   4.492   3.779   2.169
    1C        C  404   4.411   3.977   2.287
    1C        C  405   4.434   3.907   2.408
    1C        C  406   4.326   4.096   2.521
    1C        C  407   4.397   3.974   2.526
    1C        C  408   4.281   4.153   2.643
    1C        C  409   4.316   4.094   2.766
    1C        C  410   4.175   4.252   2.887
    1C        C  411   4.276   4.154   2.888
    1C        C  412   4.119   4.294   3.010
    1C        C  413   4.174   4.256   3.134
    1C        C  414   4.005   4.386   3.252
    1C        C  415   4.121   4.305   3.256
    1C        C  416   3.945   4.416   3.376
    1C        C  417   4.006   4.384   3.500
    1C        C  418   3.812   4.475   3.618
    1C        C  419   3.943   4.422   3.620
    1C        C  420   3.747   4.505   3.739
    1C        C  421   3.815   4.484   3.861
    1C        C  422   3.612   4.537   3.987
    1C        C  423   3.750   4.505   3.985
    1C        C  424   3.542   4.536   4.110
    1C        C  425   3.610   4.538   4.233
    1C        C  426   3.400   4.549   4.357
    1C        C  427   3.542   4.550   4.356
    1C        C  428   3.328   4.546   4.479
    1C        C  429   3.404   4.555   4.598
    1C        C  430   3.192   4.521   4.722
    1C        C  431   3.333   4.543   4.719
    1C        C  432   3.123   4.494   4.842
    1C        C  433   3.200   4.490   4.959
    1C        C  434   4.383   4.120   2.050
    1C        C  435   4.446   3.995   2.054
    1C        C  436   4.299   4.158   2.159
    1C        C  437   4.333   4.097   2.282
    1C        C  438   4.184   4.256   2.404
    1C        C  439   4.284   4.156   2.401
    1C        C  440   4.128   4.303   2.524
    1C        C  441   4.179   4.249   2.645
    1C        C  442   4.007   4.380   2.765
    1C        C  443   4.124   4.301   2.765
    1C        C  444   3.945   4.414   2.888
    1C        C  445   4.005   4.378   3.010
    1C        C  446   3.810   4.469   3.130
    1C        C  447   3.942   4.417   3.130
    1C        C  448   3.745   4.490   3.253
    1C        C  449   3.815   4.470   3.375
    1C        C  450   3.607   4.526   3.496
    1C        C  451   3.744   4.493   3.495
    1C        C  452   3.540   4.539   3.619
    1C        C  453   3.608   4.532   3.743
    1C        C  454   3.400   4.543   3.867
    1C        C  455   3.541   4.548   3.866
    1C        C  456   3.330   4.532   3.990
    1C        C  457   3.400   4.533   4.112
    1C        C  458   3.194   4.499   4.239
    1C        C  459   3.331   4.530   4.235
    1C        C  460   3.122   4.485   4.360
    1C        C  461   3.191   4.515   4.479
    1C        C  462   2.993   4.439   4.603
    1C        C  463   3.122   4.498   4.601
    1C        C  464   2.927   4.407   4.723
    1C        C  465   2.987   4.449   4.845
    1C        C  466   2.799   4.340   4.959
    1C        C  467   2.906   4.431   4.962
    1C        C  468   4.122   4.285   2.045
    1C        C  469   4.190   4.251   2.162
    1C        C  470   4.002   4.365   2.280
    1C        C  471   4.126   4.295   2.281
    1C        C  472   3.942   4.405   2.401
    1C        C  473   4.007   4.375   2.523
    1C        C  474   3.813   4.468   2.644
    1C        C  475   3.943   4.412   2.644
    1C        C  476   3.747   4.493   2.766
    1C        C  477   3.814   4.468   2.888
    1C        C  478   3.605   4.520   3.008
    1C        C  479   3.743   4.490   3.007
    1C        C  480   3.536   4.529   3.132
    1C        C  481   3.608   4.525   3.253
    1C        C  482   3.395   4.532   3.379
    1C        C  483   3.536   4.536   3.374
    1C        C  484   3.325   4.528   3.501
    1C        C  485   3.398   4.537   3.622
    1C        C  486   3.193   4.496   3.746
    1C        C  487   3.330   4.530   3.745
    1C        C  488   3.127   4.474   3.869
    1C        C  489   3.192   4.500   3.991
    1C        C  490   3.003   4.416   4.115
    1C        C  491   3.127   4.482   4.115
    1C        C  492   2.940   4.383   4.238
    1C        C  493   2.993   4.427   4.361
    1C        C  494   2.819   4.310   4.483
    1C        C  495   2.929   4.399   4.484
    1C        C  496   2.768   4.260   4.605
    1C        C  497   2.816   4.318   4.725
    1C        C  498   2.667   4.164   4.842
    1C        C  499   2.752   4.277   4.843
    1C        C  500   2.598   4.117   4.954
    1C        C  501   4.000   4.352   2.042
    1C        C  502   3.809   4.457   2.156
    1C        C  503   3.937   4.397   2.159
    1C        C  504   3.742   4.478   2.279
    1C        C  505   3.812   4.460   2.400
    1C        C  506   3.605   4.508   2.522
    1C        C  507   3.744   4.482   2.522
    1C        C  508   3.534   4.516   2.644
    1C        C  509   3.607   4.516   2.764
    1C        C  510   3.395   4.523   2.886
    1C        C  511   3.536   4.532   2.885
    1C        C  512   3.325   4.523   3.009
    1C        C  513   3.395   4.531   3.131
    1C        C  514   3.189   4.492   3.257
    1C        C  515   3.328   4.521   3.255
    1C        C  516   3.121   4.470   3.378
    1C        C  517   3.187   4.495   3.501
    1C        C  518   2.996   4.414   3.627
    1C        C  519   3.124   4.473   3.625
    1C        C  520   2.937   4.374   3.749
    1C        C  521   3.003   4.405   3.870
    1C        C  522   2.832   4.286   3.996
    1C        C  523   2.944   4.373   3.994
    1C        C  524   2.786   4.237   4.120
    1C        C  525   2.830   4.295   4.242
    1C        C  526   2.693   4.135   4.366
    1C        C  527   2.771   4.253   4.363
    1C        C  528   2.650   4.079   4.488
    1C        C  529   2.685   4.146   4.607
    1C        C  530   2.577   3.960   4.733
    1C        C  531   2.634   4.090   4.726
    1C        C  532   2.542   3.899   4.857
    1C        C  533   2.530   3.995   4.963
    1C        C  534   3.613   4.552   2.040
    1C        C  535   3.747   4.511   2.043
    1C        C  536   3.534   4.535   2.158
    1C        C  537   3.604   4.512   2.280
    1C        C  538   3.390   4.512   2.401
    1C        C  539   3.531   4.513   2.401
    1C        C  540   3.319   4.508   2.523
    1C        C  541   3.393   4.512   2.643
    1C        C  542   3.184   4.481   2.768
    1C        C  543   3.323   4.508   2.766
    1C        C  544   3.120   4.463   2.892
    1C        C  545   3.189   4.485   3.014
    1C        C  546   2.993   4.406   3.134
    1C        C  547   3.120   4.467   3.136
    1C        C  548   2.938   4.369   3.259
    1C        C  549   2.993   4.410   3.382
    1C        C  550   2.824   4.287   3.504
    1C        C  551   2.932   4.378   3.506
    1C        C  552   2.776   4.239   3.628
    1C        C  553   2.826   4.287   3.751
    1C        C  554   2.697   4.123   3.876
    1C        C  555   2.776   4.240   3.875
    1C        C  556   2.659   4.065   3.999
    1C        C  557   2.697   4.128   4.120
    1C        C  558   2.596   3.946   4.243
    1C        C  559   2.660   4.072   4.244
    1C        C  560   2.572   3.882   4.367
    1C        C  561   2.588   3.952   4.489
    1C        C  562   2.536   3.750   4.615
    1C        C  563   2.560   3.889   4.612
    1C        C  564   2.524   3.682   4.738
    1C        C  565   2.529   3.757   4.859
    1C        C  566   2.528   3.547   4.975
    1C        C  567   2.529   3.686   4.980
    1C        C  568   3.325   4.475   2.038
    1C        C  569   3.396   4.504   2.156
    1C        C  570   3.183   4.480   2.280
    1C        C  571   3.322   4.509   2.277
    1C        C  572   3.113   4.462   2.401
    1C        C  573   3.179   4.486   2.523
    1C        C  574   2.985   4.406   2.650
    1C        C  575   3.114   4.462   2.646
    1C        C  576   2.926   4.365   2.772
    1C        C  577   2.992   4.402   2.891
    1C        C  578   2.823   4.276   3.015
    1C        C  579   2.931   4.367   3.013
    1C        C  580   2.777   4.226   3.139
    1C        C  581   2.830   4.278   3.260
    1C        C  582   2.696   4.116   3.384
    1C        C  583   2.781   4.228   3.383
    1C        C  584   2.658   4.062   3.509
    1C        C  585   2.690   4.127   3.630
    1C        C  586   2.597   3.938   3.752
    1C        C  587   2.661   4.064   3.753
    1C        C  588   2.571   3.874   3.876
    1C        C  589   2.604   3.935   3.999
    1C        C  590   2.545   3.736   4.125
    1C        C  591   2.575   3.874   4.123
    1C        C  592   2.531   3.672   4.251
    1C        C  593   2.536   3.746   4.371
    1C        C  594   2.515   3.537   4.495
    1C        C  595   2.526   3.678   4.494
    1C        C  596   2.521   3.467   4.617
    1C        C  597   2.521   3.540   4.739
    1C        C  598   2.539   3.327   4.859
    1C        C  599   2.525   3.467   4.860
    1C        C  600   2.534   3.251   4.977
    1C        C  601   3.191   4.442   2.043
    1C        C  602   2.980   4.395   2.159
    1C        C  603   3.115   4.444   2.161
    1C        C  604   2.927   4.359   2.286
    1C        C  605   2.989   4.394   2.408
    1C        C  606   2.817   4.272   2.529
    1C        C  607   2.924   4.364   2.530
    1C        C  608   2.763   4.226   2.651
    1C        C  609   2.816   4.277   2.772
    1C        C  610   2.685   4.112   2.894
    1C        C  611   2.769   4.226   2.895
    1C        C  612   2.651   4.053   3.018
    1C        C  613   2.689   4.115   3.139
    1C        C  614   2.591   3.932   3.265
    1C        C  615   2.653   4.058   3.262
    1C        C  616   2.571   3.867   3.389
    1C        C  617   2.601   3.932   3.511
    1C        C  618   2.535   3.731   3.636
    1C        C  619   2.570   3.868   3.633
    1C        C  620   2.521   3.664   3.759
    1C        C  621   2.535   3.737   3.879
    1C        C  622   2.522   3.527   4.007
    1C        C  623   2.530   3.668   4.003
    1C        C  624   2.513   3.459   4.130
    1C        C  625   2.516   3.532   4.252
    1C        C  626   2.548   3.323   4.376
    1C        C  627   2.524   3.463   4.375
    1C        C  628   2.564   3.256   4.499
    1C        C  629   2.543   3.328   4.618
    1C        C  630   2.593   3.118   4.743
    1C        C  631   2.552   3.255   4.739
    1C        C  632   2.617   3.049   4.865
    1C        C  633   2.564   3.114   4.981
    1C        C  634   2.784   4.301   2.053
    1C        C  635   2.891   4.392   2.048
    1C        C  636   2.746   4.231   2.168
    1C        C  637   2.813   4.273   2.285
    1C        C  638   2.675   4.112   2.407
    1C        C  639   2.762   4.224   2.408
    1C        C  640   2.636   4.051   2.528
    1C        C  641   2.680   4.112   2.648
    1C        C  642   2.586   3.924   2.775
    1C        C  643   2.648   4.051   2.771
    1C        C  644   2.562   3.860   2.898
    1C        C  645   2.590   3.926   3.020
    1C        C  646   2.535   3.725   3.145
    1C        C  647   2.565   3.863   3.144
    1C        C  648   2.521   3.661   3.270
    1C        C  649   2.532   3.731   3.392
    1C        C  650   2.516   3.519   3.514
    1C        C  651   2.520   3.661   3.514
    1C        C  652   2.523   3.453   3.638
    1C        C  653   2.514   3.523   3.761
    1C        C  654   2.543   3.317   3.887
    1C        C  655   2.520   3.456   3.885
    1C        C  656   2.564   3.252   4.011
    1C        C  657   2.543   3.321   4.132
    1C        C  658   2.609   3.119   4.256
    1C        C  659   2.561   3.252   4.254
    1C        C  660   2.637   3.056   4.379
    1C        C  661   2.609   3.122   4.501
    1C        C  662   2.707   2.936   4.622
    1C        C  663   2.629   3.054   4.623
    1C        C  664   2.744   2.873   4.743
    1C        C  665   2.689   2.926   4.863
    1C        C  666   2.743   2.872   4.981
    1C        C  667   2.678   4.026   2.054
    1C        C  668   2.677   4.108   2.168
    1C        C  669   2.591   3.912   2.288
    1C        C  670   2.639   4.045   2.288
    1C        C  671   2.562   3.848   2.411
    1C        C  672   2.582   3.921   2.531
    1C        C  673   2.524   3.718   2.654
    1C        C  674   2.562   3.854   2.654
    1C        C  675   2.516   3.650   2.778
    1C        C  676   2.530   3.722   2.899
    1C        C  677   2.513   3.514   3.027
    1C        C  678   2.523   3.655   3.023
    1C        C  679   2.517   3.444   3.150
    1C        C  680   2.514   3.520   3.270
    1C        C  681   2.535   3.309   3.397
    1C        C  682   2.513   3.448   3.391
    1C        C  683   2.559   3.245   3.521
    1C        C  684   2.540   3.313   3.644
    1C        C  685   2.608   3.113   3.769
    1C        C  686   2.557   3.245   3.766
    1C        C  687   2.639   3.050   3.891
    1C        C  688   2.610   3.118   4.012
    1C        C  689   2.710   2.932   4.135
    1C        C  690   2.637   3.053   4.135
    1C        C  691   2.753   2.877   4.258
    1C        C  692   2.711   2.936   4.380
    1C        C  693   2.752   2.877   4.502
    1C        C  694   2.629   3.895   2.054
    1C        C  695   2.534   3.701   2.172
    1C        C  696   2.576   3.836   2.170
    1C        C  697   2.508   3.638   2.295
    1C        C  698   2.522   3.713   2.414
    1C        C  699   2.493   3.503   2.539
    1C        C  700   2.505   3.644   2.536
    1C        C  701   2.505   3.436   2.663
    1C        C  702   2.512   3.509   2.784
    1C        C  703   2.538   3.301   2.909
    1C        C  704   2.514   3.440   2.907
    1C        C  705   2.553   3.232   3.032
    1C        C  706   2.539   3.305   3.152
    1C        C  707   2.599   3.104   3.278
    1C        C  708   2.555   3.239   3.276
    1C        C  709   2.634   3.047   3.402
    1C        C  710   2.612   3.114   3.524
    1C        C  711   2.711   2.927   3.647
    1C        C  712   2.639   3.049   3.647
    1C        C  713   2.752   2.871   3.769
    1C        C  714   2.714   2.931   3.891
    1C        C  715   2.758   2.877   4.014
    1C        C  716   2.445   3.500   2.064
    1C        C  717   2.492   3.632   2.058
    1C        C  718   2.467   3.418   2.179
    1C        C  719   2.492   3.496   2.295
    1C        C  720   2.523   3.291   2.422
    1C        C  721   2.493   3.429   2.419
    1C        C  722   2.544   3.224   2.545
    1C        C  723   2.526   3.297   2.665
    1C        C  724   2.593   3.097   2.789
    1C        C  725   2.543   3.229   2.788
    1C        C  726   2.623   3.033   2.912
    1C        C  727   2.595   3.098   3.035
    1C        C  728   2.704   2.918   3.158
    1C        C  729   2.625   3.035   3.158
    1C        C  730   2.748   2.865   3.282
    1C        C  731   2.711   2.928   3.402
    1C        C  732   2.754   2.872   3.524
    1C        C  733   2.491   3.195   2.070
    1C        C  734   2.489   3.277   2.183
    1C        C  735   2.572   3.079   2.303
    1C        C  736   2.523   3.212   2.305
    1C        C  737   2.615   3.021   2.425
    1C        C  738   2.585   3.088   2.545
    1C        C  739   2.695   2.909   2.672
    1C        C  740   2.618   3.028   2.669
    1C        C  741   2.738   2.852   2.794
    1C        C  742   2.699   2.915   2.914
    1C        C  743   2.744   2.859   3.036
    1C        C  744   2.542   3.066   2.073
    1C        C  745   2.682   2.893   2.186
    1C        C  746   2.591   3.001   2.187
    1C        C  747   2.728   2.839   2.308
    1C        C  748   2.691   2.902   2.429
    1C        C  749   2.736   2.849   2.552
    1C        C  750   2.744   2.845   2.070
    1C        C  751   3.655   2.300   2.000
    1C        O  752   3.634   2.184   2.046
    1C        O  753   3.700   2.290   1.868
    1C        C  754   4.649   3.048   2.011
    1C        O  755   4.645   3.011   1.890
    1C        O  756   4.747   2.992   2.094
    1C        C  757   4.452   4.225   1.970
    1C        O  758   4.553   4.288   2.010
    1C        O  759   4.423   4.236   1.833
    1C        C  760   3.589   4.671   1.955
    1C        O  761   3.597   4.786   2.005
    1C        O  762   3.502   4.668   1.846
    1C        C  763   2.870   4.519   1.975
    1C        O  764   2.921   4.529   1.860
    1C        O  765   2.830   4.633   2.045
    1C        C  766   2.337   3.476   1.966
    1C        O  767   2.355   3.423   1.853
    1C        O  768   2.214   3.540   1.988
    1C        C  769   4.699   3.584   5.057
    1C        O  770   4.668   3.594   5.179
    1C        O  771   4.833   3.623   5.044
    1C        C  772   4.276   4.473   5.027
    1C        O  773   4.257   4.458   5.151
    1C        O  774   4.322   4.604   5.011
    1C        C  775   4.134   2.553   5.092
    1C        O  776   4.242   2.488   5.091
    1C        O  777   4.096   2.590   5.222
    1C        C  778   2.880   4.554   5.038
    1C        O  779   2.804   4.649   5.004
    1C        O  780   2.924   4.567   5.171
    1C        C  781   2.461   3.042   5.059
    1C        O  782   2.377   2.964   5.007
    1C        O  783   2.459   3.055   5.197
    1C        C  784   2.414   3.993   5.055
    1C        O  785   2.306   4.029   5.001
    1C        O  786   2.420   4.044   5.186
    1C        C  787   2.956   2.407   2.010
    1C        O  788   2.893   2.441   1.906
    1C        O  789   2.898   2.305   2.085
    1C        C  790   3.175   2.372   5.061
    1C        O  791   3.136   2.261   5.016
    1C        O  792   3.169   2.365   5.201
    1C        H  793   4.265   3.034   5.052
    1C        H  794   4.155   2.820   5.063
    1C        H  795   4.522   3.112   5.039
    1C        H  796   4.477   3.375   5.057
    1C        H  797   4.587   3.814   5.036
    1C        H  798   4.454   4.006   5.045
    1C        H  799   4.319   4.189   5.051
    1C        H  800   4.034   4.552   5.021
    1C        H  801   3.808   4.550   5.042
    1C        H  802   3.580   4.650   5.025
    1C        H  803   3.387   4.494   5.048
    1C        H  804   3.152   4.486   5.055
    1C        H  805   3.901   2.455   5.046
    1C        H  806   3.676   2.461   5.075
    1C        H  807   3.027   2.592   5.076
    1C        H  808   3.439   2.433   5.063
    1C        H  809   2.844   2.705   5.065
    1C        H  810   2.709   2.903   5.078
    1C        H  811   2.502   3.298   5.068
    1C        H  812   2.552   3.497   5.066
    1C        H  813   2.561   3.728   5.073
    1C        H  814   2.575   4.188   5.032
    1C        H  815   2.739   4.342   5.048
    1C        H  816   2.690   2.865   1.980
    1C        H  817   2.819   2.663   1.987
    1C        H  818   3.205   2.431   1.986
    1C        H  819   3.438   2.469   1.976
    1C        H  820   3.832   2.583   1.999
    1C        H  821   4.035   2.656   1.973
    1C        H  822   4.273   2.710   1.985
    1C        H  823   4.429   2.873   1.989
    1C        H  824   4.585   3.301   1.968
    1C        H  825   4.535   3.515   1.958
    1C        H  826   4.452   3.737   1.965
    1C        H  827   3.799   4.525   1.951
    1C        H  828   3.936   4.331   1.959
    1C        H  829   4.149   4.230   1.957
    1C        H  830   4.483   3.950   1.964
    1C        H  831   2.667   3.833   1.976
    1C        H  832   2.703   4.061   1.956
    1C        H  833   2.702   4.317   1.987
    1C        H  834   3.361   4.516   1.946
    1C        H  835   3.140   4.438   1.949
    1C        H  836   2.495   3.000   2.003
    1C        H  837   2.413   3.215   1.999
    1C        H  838   2.489   3.682   1.963
    2V3OU   H29  839   2.801   3.547   1.738
    2V3OU   C27  840   2.783   3.502   1.839
    2V3OU   H27  841   2.725   3.570   1.907
    2V3OU   H28  842   2.728   3.405   1.831
    2V3OU   O11  843   2.911   3.469   1.892
    2V3OU   C15  844   2.927   3.388   2.003
    2V3OU   C13  845   3.054   3.371   2.062
    2V3OU   C14  846   3.076   3.270   2.157
    2V3OU   C16  847   2.973   3.186   2.199
    2V3OU    H6  848   2.987   3.101   2.267
    2V3OU   C12  849   3.212   3.229   2.198
    2V3OU    O2  850   3.231   3.128   2.269
    2V3OU   C10  851   3.329   3.306   2.153
    2V3OU    C8  852   3.460   3.269   2.181
    2V3OU   O10  853   3.487   3.156   2.251
    2V3OU   H26  854   3.403   3.108   2.255
    2V3OU    C6  855   3.565   3.354   2.134
    2V3OU    C5  856   3.539   3.472   2.066
    2V3OU    C4  857   3.702   3.295   2.143
    2V3OU    H4  858   3.722   3.230   2.234
    2V3OU    H5  859   3.705   3.229   2.052
    2V3OU    C2  860   3.814   3.398   2.133
    2V3OU    O6  861   3.808   3.472   2.255
    2V3OU   H21  862   3.760   3.556   2.254
    2V3OU    C3  863   3.782   3.492   2.017
    2V3OU    H2  864   3.862   3.571   2.010
    2V3OU    H3  865   3.784   3.440   1.919
    2V3OU   C25  866   3.948   3.325   2.119
    2V3OU    O7  867   4.002   3.304   2.011
    2V3OU   C26  868   4.034   3.291   2.240
    2V3OU   H22  869   4.071   3.382   2.293
    2V3OU   H23  870   4.118   3.223   2.209
    2V3OU    O8  871   3.963   3.210   2.330
    2V3OU   H24  872   3.921   3.262   2.401
    2V3OU    C1  873   3.649   3.565   2.025
    2V3OU    H1  874   3.626   3.616   1.927
    2V3OU    O3  875   3.664   3.662   2.130
    2V3OU   C19  876   3.616   3.797   2.125
    2V3OU    H9  877   3.515   3.808   2.077
    2V3OU    O4  878   3.712   3.859   2.043
    2V3OU   C20  879   3.846   3.872   2.091
    2V3OU   H10  880   3.894   3.773   2.116
    2V3OU   C24  881   3.612   3.858   2.265
    2V3OU   H16  882   3.548   3.792   2.329
    2V3OU   H17  883   3.563   3.958   2.254
    2V3OU   C23  884   3.752   3.875   2.324
    2V3OU   H15  885   3.791   3.769   2.344
    2V3OU    N1  886   3.737   3.956   2.443
    2V3OU   H19  887   3.811   3.925   2.502
    2V3OU   H20  888   3.653   3.932   2.491
    2V3OU   C21  889   3.852   3.944   2.226
    2V3OU   H11  890   3.955   3.926   2.266
    2V3OU    O5  891   3.836   4.086   2.223
    2V3OU   H18  892   3.777   4.099   2.299
    2V3OU   C22  893   3.916   3.949   1.981
    2V3OU   H12  894   3.861   4.045   1.964
    2V3OU   H13  895   3.903   3.894   1.884
    2V3OU   H14  896   4.027   3.955   1.999
    2V3OU   C11  897   3.163   3.468   2.047
    2V3OU    O1  898   3.137   3.576   1.989
    2V3OU    C9  899   3.301   3.424   2.077
    2V3OU    C7  900   3.404   3.507   2.035
    2V3OU    O9  901   3.388   3.622   1.960
    2V3OU   H25  902   3.292   3.622   1.949
    2V3OU   C17  903   2.823   3.305   2.050
    2V3OU    H7  904   2.719   3.335   2.038
    2V3OU   C18  905   2.847   3.206   2.144
    2V3OU    H8  906   2.765   3.148   2.189
    3SOL     OW  907   2.515   4.174   0.877
    3SOL    HW1  908   2.482   4.222   0.796
    3SOL    HW2  909   2.584   4.230   0.923
    4SOL     OW  910   6.280   5.506   2.026
    4SOL    HW1  911   6.245   5.481   1.936
    4SOL    HW2  912   6.243   5.444   2.095
    5SOL     OW  913   3.583   1.137   3.058
    5SOL    HW1  914   3.567   1.086   3.142
    5SOL    HW2  915   3.544   1.229   3.067
    6SOL     OW  916   4.289   1.412   1.984
    6SOL    HW1  917   4.343   1.444   2.062
    6SOL    HW2  918   4.286   1.483   1.914
    7SOL     OW  919   6.282   3.368   2.159
    7SOL    HW1  920   6.246   3.355   2.252
    7SOL    HW2  921   6.226   3.317   2.094
    8SOL     OW  922   2.617   6.723   5.151
    8SOL    HW1  923   2.672   6.647   5.188
    8SOL    HW2  924   2.597   6.788   5.224
    9SOL     OW  925   0.938   5.231   5.825
    9SOL    HW1  926   0.861   5.277   5.869
    9SOL    HW2  927   0.962   5.149   5.878
   10SOL     OW  928   1.276   4.618   5.679
   10SOL    HW1  929   1.205   4.687   5.662
   10SOL    HW2  930   1.267   4.584   5.773
   11SOL     OW  931   2.755   0.252   6.872
   11SOL    HW1  932   2.806   0.313   6.811
   11SOL    HW2  933   2.734   0.299   6.957
   12SOL     OW  934   4.178   6.195   4.337
   12SOL    HW1  935   4.275   6.177   4.349
   12SOL    HW2  936   4.139   6.227   4.424
   13SOL     OW  937   3.242   5.812   3.982
   13SOL    HW1  938   3.188   5.749   4.038
   13SOL    HW2  939   3.213   5.804   3.886
   14SOL     OW  940   4.843   5.563   6.623
   14SOL    HW1  941   4.753   5.532   6.653
   14SOL    HW2  942   4.839   5.661   6.601
   15SOL     OW  943   1.370   5.049   0.757
   15SOL    HW1  944   1.294   5.066   0.820
   15SOL    HW2  945   1.424   5.132   0.748
   16SOL     OW  946   5.820   2.584   5.607
   16SOL    HW1  947   5.891   2.591   5.676
   16SOL    HW2  948   5.835   2.502   5.552
   17SOL     OW  949   5.920   6.270   4.934
   17SOL    HW1  950   5.988   6.220   4.988
   17SOL    HW2  951   5.888   6.349   4.986
   18SOL     OW  952   3.008   1.279   6.875
   18SOL    HW1  953   2.996   1.335   6.794
   18SOL    HW2  954   2.968   1.189   6.859
   19SOL     OW  955   0.497   0.232   3.339
   19SOL    HW1  956   0.566   0.241   3.267
   19SOL    HW2  957   0.474   0.322   3.375
   20SOL     OW  958   3.963   1.786   3.866
   20SOL    HW1  959   4.056   1.821   3.854
   20SOL    HW2  960   3.955   1.741   3.956
   21SOL     OW  961   3.308   2.090   2.211
   21SOL    HW1  962   3.352   2.102   2.122
   21SOL    HW2  963   3.212   2.117   2.205
   22SOL     OW  964   2.469   0.203   0.653
   22SOL    HW1  965   2.564   0.193   0.622
   22SOL    HW2  966   2.450   0.134   0.723
   23SOL     OW  967   4.192   6.722   3.526
   23SOL    HW1  968   4.279   6.701   3.483
   23SOL    HW2  969   4.144   6.637   3.549
   24SOL     OW  970   4.970   1.451   3.616
   24SOL    HW1  971   4.887   1.461   3.670
   24SOL    HW2  972   4.947   1.430   3.521
   25SOL     OW  973   3.524   6.319   5.689
   25SOL    HW1  974   3.514   6.315   5.590
   25SOL    HW2  975   3.510   6.228   5.728
   26SOL     OW  976   6.408   1.266   0.745
   26SOL    HW1  977   6.480   1.319   0.700
   26SOL    HW2  978   6.421   1.271   0.844
   27SOL     OW  979   0.410   1.668   1.625
   27SOL    HW1  980   0.352   1.643   1.548
   27SOL    HW2  981   0.353   1.696   1.702
   28SOL     OW  982   3.869   1.143   6.902
   28SOL    HW1  983   3.783   1.189   6.886
   28SOL    HW2  984   3.859   1.077   6.977
   29SOL     OW  985   5.896   2.511   1.946
   29SOL    HW1  986   5.934   2.423   1.973
   29SOL    HW2  987   5.970   2.578   1.937
   30SOL     OW  988   4.138   0.165   5.408
   30SOL    HW1  989   4.208   0.094   5.408
   30SOL    HW2  990   4.168   0.241   5.351
   31SOL     OW  991   0.583   2.141   5.987
   31SOL    HW1  992   0.582   2.240   6.003
   31SOL    HW2  993   0.677   2.109   5.987
   32SOL     OW  994   0.013   1.032   2.976
   32SOL    HW1  995   6.942   1.064   2.993
   32SOL    HW2  996   0.065   1.035   3.061
   33SOL     OW  997   2.403   3.736   0.240
   33SOL    HW1  998   2.490   3.687   0.244
   33SOL    HW2  999   2.386   3.766   0.146
   34SOL     OW 1000   1.713   1.099   3.730
   34SOL    HW1 1001   1.761   1.017   3.697
   34SOL    HW2 1002   1.776   1.176   3.731
   35SOL     OW 1003   3.802   1.862   0.089
   35SOL    HW1 1004   3.784   1.801   0.166
   35SOL    HW2 1005   3.727   1.856   0.023
   36SOL     OW 1006   0.679   0.770   6.616
   36SOL    HW1 1007   0.770   0.729   6.608
   36SOL    HW2 1008   0.641   0.785   6.524
   37SOL     OW 1009   1.701   1.050   6.908
   37SOL    HW1 1010   1.771   1.007   6.850
   37SOL    HW2 1011   1.722   1.032   7.004
   38SOL     OW 1012   0.425   5.179   2.549
   38SOL    HW1 1013   0.380   5.248   2.493
   38SOL    HW2 1014   0.374   5.093   2.545
   39SOL     OW 1015   6.363   4.898   6.836
   39SOL    HW1 1016   6.396   4.858   6.750
   39SOL    HW2 1017   6.323   4.825   6.892
   40SOL     OW 1018   5.828   2.554   1.349
   40SOL    HW1 1019   5.840   2.485   1.421
   40SOL    HW2 1020   5.731   2.566   1.329
   41SOL     OW 1021   0.631   6.602   4.230
   41SOL    HW1 1022   0.549   6.546   4.217
   41SOL    HW2 1023   0.611   6.697   4.205
   42SOL     OW 1024   2.820   6.144   6.310
   42SOL    HW1 1025   2.755   6.110   6.241
   42SOL    HW2 1026   2.794   6.111   6.400
   43SOL     OW 1027   5.816   6.398   5.862
   43SOL    HW1 1028   5.821   6.347   5.776
   43SOL    HW2 1029   5.722   6.394   5.897
   44SOL     OW 1030   5.883   2.382   6.056
   44SOL    HW1 1031   5.944   2.303   6.066
   44SOL    HW2 1032   5.911   2.454   6.119
   45SOL     OW 1033   3.265   7.016   3.409
   45SOL    HW1 1034   3.275   6.917   3.418
   45SOL    HW2 1035   3.245   0.033   3.499
   46SOL     OW 1036   1.194   3.452   4.352
   46SOL    HW1 1037   1.260   3.517   4.314
   46SOL    HW2 1038   1.126   3.502   4.406
   47SOL     OW 1039   5.361   4.138   2.775
   47SOL    HW1 1040   5.404   4.226   2.753
   47SOL    HW2 1041   5.432   4.073   2.803
   48SOL     OW 1042   0.098   2.871   5.377
   48SOL    HW1 1043   0.059   2.927   5.450
   48SOL    HW2 1044   0.047   2.785   5.370
   49SOL     OW 1045   4.206   4.130   1.705
   49SOL    HW1 1046   4.236   4.156   1.613
   49SOL    HW2 1047   4.286   4.126   1.766
   50SOL     OW 1048   6.486   2.925   5.657
   50SOL    HW1 1049   6.486   2.847   5.720
   50SOL    HW2 1050   6.417   2.912   5.587
   51SOL     OW 1051   3.089   6.244   3.181
   51SOL    HW1 1052   2.996   6.276   3.159
   51SOL    HW2 1053   3.151   6.323   3.185
   52SOL     OW 1054   5.114   2.723   3.580
   52SOL    HW1 1055   5.109   2.700   3.483
   52SOL    HW2 1056   5.032   2.688   3.626
   53SOL     OW 1057   4.370   0.474   4.816
   53SOL    HW1 1058   4.431   0.553   4.818
   53SOL    HW2 1059   4.385   0.421   4.733
   54SOL     OW 1060   3.968   4.861   0.670
   54SOL    HW1 1061   3.946   4.815   0.583
   54SOL    HW2 1062   3.928   4.952   0.671
   55SOL     OW 1063   3.461   1.293   6.205
   55SOL    HW1 1064   3.538   1.352   6.231
   55SOL    HW2 1065   3.455   1.289   6.105
   56SOL     OW 1066   1.050   0.475   1.481
   56SOL    HW1 1067   0.993   0.395   1.503
   56SOL    HW2 1068   0.993   0.557   1.481
   57SOL     OW 1069   5.587   0.477   0.797
   57SOL    HW1 1070   5.679   0.471   0.759
   57SOL    HW2 1071   5.541   0.388   0.790
   58SOL     OW 1072   6.769   6.633   5.380
   58SOL    HW1 1073   6.758   6.621   5.282
   58SOL    HW2 1074   6.787   6.545   5.423
   59SOL     OW 1075   1.867   1.546   5.857
   59SOL    HW1 1076   1.841   1.572   5.950
   59SOL    HW2 1077   1.950   1.597   5.831
   60SOL     OW 1078   6.070   1.074   6.009
   60SOL    HW1 1079   6.035   0.985   6.037
   60SOL    HW2 1080   6.048   1.090   5.913
   61SOL     OW 1081   5.170   1.721   4.456
   61SOL    HW1 1082   5.219   1.808   4.466
   61SOL    HW2 1083   5.236   1.649   4.434
   62SOL     OW 1084   0.194   0.512   3.400
   62SOL    HW1 1085   0.135   0.512   3.319
   62SOL    HW2 1086   0.290   0.511   3.371
   63SOL     OW 1087   6.683   1.162   3.809
   63SOL    HW1 1088   6.629   1.222   3.868
   63SOL    HW2 1089   6.647   1.069   3.815
   64SOL     OW 1090   0.211   3.869   6.558
   64SOL    HW1 1091   0.219   3.911   6.649
   64SOL    HW2 1092   0.271   3.789   6.552
   65SOL     OW 1093   6.807   4.663   5.131
   65SOL    HW1 1094   6.873   4.730   5.166
   65SOL    HW2 1095   6.816   4.578   5.182
   66SOL     OW 1096   3.716   0.589   6.600
   66SOL    HW1 1097   3.632   0.554   6.641
   66SOL    HW2 1098   3.711   0.580   6.501
   67SOL     OW 1099   5.373   4.671   5.469
   67SOL    HW1 1100   5.401   4.673   5.373
   67SOL    HW2 1101   5.449   4.638   5.525
   68SOL     OW 1102   5.694   0.549   6.531
   68SOL    HW1 1103   5.735   0.461   6.555
   68SOL    HW2 1104   5.760   0.622   6.545
   69SOL     OW 1105   1.250   3.485   6.616
   69SOL    HW1 1106   1.342   3.516   6.639
   69SOL    HW2 1107   1.245   3.466   6.518
   70SOL     OW 1108   6.264   4.848   3.642
   70SOL    HW1 1109   6.199   4.891   3.705
   70SOL    HW2 1110   6.342   4.812   3.693
   71SOL     OW 1111   4.141   1.850   2.851
   71SOL    HW1 1112   4.143   1.941   2.811
   71SOL    HW2 1113   4.047   1.821   2.866
   72SOL     OW 1114   2.870   5.856   4.624
   72SOL    HW1 1115   2.930   5.901   4.690
   72SOL    HW2 1116   2.915   5.851   4.535
   73SOL     OW 1117   3.424   1.840   0.833
   73SOL    HW1 1118   3.481   1.817   0.754
   73SOL    HW2 1119   3.352   1.772   0.843
   74SOL     OW 1120   5.428   6.252   6.242
   74SOL    HW1 1121   5.506   6.197   6.210
   74SOL    HW2 1122   5.362   6.262   6.169
   75SOL     OW 1123   3.945   7.011   6.664
   75SOL    HW1 1124   3.958   0.085   6.640
   75SOL    HW2 1125   4.029   6.961   6.647
   76SOL     OW 1126   2.206   2.771   1.499
   76SOL    HW1 1127   2.193   2.843   1.568
   76SOL    HW2 1128   2.191   2.809   1.408
   77SOL     OW 1129   5.368   6.600   4.301
   77SOL    HW1 1130   5.301   6.655   4.252
   77SOL    HW2 1131   5.327   6.563   4.385
   78SOL     OW 1132   5.744   0.614   5.622
   78SOL    HW1 1133   5.709   0.586   5.711
   78SOL    HW2 1134   5.844   0.623   5.627
   79SOL     OW 1135   3.178   0.201   0.531
   79SOL    HW1 1136   3.274   0.223   0.549
   79SOL    HW2 1137   3.119   0.259   0.587
   80SOL     OW 1138   5.501   1.584   4.801
   80SOL    HW1 1139   5.512   1.663   4.740
   80SOL    HW2 1140   5.411   1.542   4.786
   81SOL     OW 1141   2.035   0.137   2.748
   81SOL    HW1 1142   2.037   0.231   2.780
   81SOL    HW2 1143   2.124   0.094   2.763
   82SOL     OW 1144   6.433   5.505   0.568
   82SOL    HW1 1145   6.443   5.591   0.618
   82SOL    HW2 1146   6.522   5.479   0.530
   83SOL     OW 1147   6.520   0.701   0.793
   83SOL    HW1 1148   6.565   0.659   0.715
   83SOL    HW2 1149   6.503   0.798   0.775
   84SOL     OW 1150   4.857   3.267   3.482
   84SOL    HW1 1151   4.851   3.185   3.425
   84SOL    HW2 1152   4.819   3.248   3.572
   85SOL     OW 1153   1.943   2.115   5.157
   85SOL    HW1 1154   1.879   2.111   5.233
   85SOL    HW2 1155   1.906   2.172   5.083
   86SOL     OW 1156   0.727   0.540   5.834
   86SOL    HW1 1157   0.808   0.573   5.785
   86SOL    HW2 1158   0.754   0.476   5.906
   87SOL     OW 1159   5.089   3.511   0.487
   87SOL    HW1 1160   5.034   3.551   0.560
   87SOL    HW2 1161   5.054   3.544   0.399
   88SOL     OW 1162   4.159   1.924   6.331
   88SOL    HW1 1163   4.235   1.943   6.393
   88SOL    HW2 1164   4.194   1.884   6.246
   89SOL     OW 1165   1.242   2.919   6.182
   89SOL    HW1 1166   1.205   2.847   6.123
   89SOL    HW2 1167   1.181   2.998   6.181
   90SOL     OW 1168   4.214   6.201   3.869
   90SOL    HW1 1169   4.128   6.241   3.838
   90SOL    HW2 1170   4.279   6.196   3.793
   91SOL     OW 1171   4.885   4.242   4.272
   91SOL    HW1 1172   4.930   4.212   4.188
   91SOL    HW2 1173   4.913   4.183   4.348
   92SOL     OW 1174   2.950   3.987   0.827
   92SOL    HW1 1175   2.886   3.950   0.760
   92SOL    HW2 1176   3.002   3.912   0.869
   93SOL     OW 1177   2.469   4.365   6.754
   93SOL    HW1 1178   2.474   4.265   6.756
   93SOL    HW2 1179   2.381   4.394   6.718
   94SOL     OW 1180   2.634   6.042   6.130
   94SOL    HW1 1181   2.550   6.091   6.151
   94SOL    HW2 1182   2.633   6.014   6.034
   95SOL     OW 1183   0.639   1.059   2.866
   95SOL    HW1 1184   0.586   1.110   2.933
   95SOL    HW2 1185   0.735   1.090   2.869
   96SOL     OW 1186   3.483   0.030   5.428
   96SOL    HW1 1187   3.516   6.960   5.447
   96SOL    HW2 1188   3.485   0.047   5.330
   97SOL     OW 1189   1.328   3.416   5.878
   97SOL    HW1 1190   1.423   3.399   5.853
   97SOL    HW2 1191   1.268   3.358   5.823
   98SOL     OW 1192   6.525   3.977   0.344
   98SOL    HW1 1193   6.459   4.045   0.313
   98SOL    HW2 1194   6.481   3.888   0.349
   99SOL     OW 1195   4.464   3.951   0.687
   99SOL    HW1 1196   4.391   3.924   0.750
   99SOL    HW2 1197   4.547   3.970   0.740
  100SOL     OW 1198   0.279   0.264   5.893
  100SOL    HW1 1199   0.279   0.309   5.803
  100SOL    HW2 1200   0.337   0.183   5.890
  101SOL     OW 1201   1.409   5.694   2.879
  101SOL    HW1 1202   1.495   5.744   2.869
  101SOL    HW2 1203   1.426   5.596   2.863
  102SOL     OW 1204   4.224   0.473   2.090
  102SOL    HW1 1205   4.247   0.566   2.059
  102SOL    HW2 1206   4.298   0.438   2.147
  103SOL     OW 1207   3.676   0.920   2.327
  103SOL    HW1 1208   3.598   0.866   2.296
  103SOL    HW2 1209   3.691   0.996   2.264
  104SOL     OW 1210   6.859   5.441   2.652
  104SOL    HW1 1211   6.772   5.413   2.612
  104SOL    HW2 1212   6.881   5.534   2.623
  105SOL     OW 1213   6.772   2.429   6.300
  105SOL    HW1 1214   6.839   2.356   6.314
  105SOL    HW2 1215   6.716   2.439   6.382
  106SOL     OW 1216   3.446   6.333   4.501
  106SOL    HW1 1217   3.544   6.340   4.516
  106SOL    HW2 1218   3.428   6.287   4.414
  107SOL     OW 1219   1.608   2.041   1.721
  107SOL    HW1 1220   1.662   2.119   1.690
  107SOL    HW2 1221   1.511   2.065   1.721
  108SOL     OW 1222   3.916   5.490   5.863
  108SOL    HW1 1223   3.950   5.493   5.769
  108SOL    HW2 1224   3.840   5.425   5.870
  109SOL     OW 1225   0.806   1.286   1.586
  109SOL    HW1 1226   0.796   1.286   1.487
  109SOL    HW2 1227   0.798   1.193   1.621
  110SOL     OW 1228   4.093   6.436   5.182
  110SOL    HW1 1229   4.014   6.390   5.222
  110SOL    HW2 1230   4.163   6.367   5.161
  111SOL     OW 1231   3.210   0.847   5.005
  111SOL    HW1 1232   3.274   0.839   5.082
  111SOL    HW2 1233   3.119   0.868   5.040
  112SOL     OW 1234   5.879   6.366   6.522
  112SOL    HW1 1235   5.798   6.423   6.507
  112SOL    HW2 1236   5.933   6.364   6.438
  113SOL     OW 1237   6.308   4.902   3.389
  113SOL    HW1 1238   6.302   4.902   3.489
  113SOL    HW2 1239   6.403   4.918   3.362
  114SOL     OW 1240   1.236   0.229   1.656
  114SOL    HW1 1241   1.214   0.167   1.731
  114SOL    HW2 1242   1.195   0.318   1.673
  115SOL     OW 1243   3.528   1.360   3.567
  115SOL    HW1 1244   3.515   1.446   3.616
  115SOL    HW2 1245   3.619   1.324   3.585
  116SOL     OW 1246   6.047   5.250   2.060
  116SOL    HW1 1247   6.040   5.272   2.158
  116SOL    HW2 1248   6.138   5.213   2.040
  117SOL     OW 1249   1.380   1.323   6.549
  117SOL    HW1 1250   1.400   1.323   6.451
  117SOL    HW2 1251   1.407   1.234   6.588
  118SOL     OW 1252   1.547   1.508   2.707
  118SOL    HW1 1253   1.458   1.463   2.704
  118SOL    HW2 1254   1.551   1.569   2.786
  119SOL     OW 1255   0.953   1.836   6.298
  119SOL    HW1 1256   0.864   1.868   6.331
  119SOL    HW2 1257   0.945   1.743   6.264
  120SOL     OW 1258   6.089   6.735   0.632
  120SOL    HW1 1259   6.078   6.801   0.559
  120SOL    HW2 1260   6.160   6.669   0.607
  121SOL     OW 1261   2.291   4.100   6.727
  121SOL    HW1 1262   2.382   4.092   6.687
  121SOL    HW2 1263   2.293   4.073   6.823
  122SOL     OW 1264   1.616   4.591   6.932
  122SOL    HW1 1265   1.620   4.529   6.853
  122SOL    HW2 1266   1.605   4.685   6.900
  123SOL     OW 1267   0.094   1.907   1.627
  123SOL    HW1 1268   0.056   1.995   1.601
  123SOL    HW2 1269   0.178   1.921   1.680
  124SOL     OW 1270   5.138   3.281   0.634
  124SOL    HW1 1271   5.139   3.369   0.586
  124SOL    HW2 1272   5.068   3.283   0.706
  125SOL     OW 1273   2.338   1.512   1.913
  125SOL    HW1 1274   2.304   1.419   1.901
  125SOL    HW2 1275   2.320   1.542   2.007
  126SOL     OW 1276   2.714   3.826   1.393
  126SOL    HW1 1277   2.755   3.809   1.482
  126SOL    HW2 1278   2.636   3.887   1.403
  127SOL     OW 1279   0.196   5.790   5.886
  127SOL    HW1 1280   0.258   5.722   5.846
  127SOL    HW2 1281   0.221   5.805   5.982
  128SOL     OW 1282   4.500   2.397   1.560
  128SOL    HW1 1283   4.531   2.416   1.467
  128SOL    HW2 1284   4.446   2.312   1.560
  129SOL     OW 1285   3.642   3.050   5.881
  129SOL    HW1 1286   3.563   3.027   5.824
  129SOL    HW2 1287   3.611   3.072   5.974
  130SOL     OW 1288   0.432   1.391   4.361
  130SOL    HW1 1289   0.443   1.491   4.369
  130SOL    HW2 1290   0.404   1.354   4.450
  131SOL     OW 1291   5.200   1.484   2.736
  131SOL    HW1 1292   5.167   1.462   2.828
  131SOL    HW2 1293   5.291   1.443   2.723
  132SOL     OW 1294   2.567   2.947   0.549
  132SOL    HW1 1295   2.569   2.982   0.456
  132SOL    HW2 1296   2.623   2.864   0.556
  133SOL     OW 1297   4.804   6.718   4.089
  133SOL    HW1 1298   4.716   6.728   4.135
  133SOL    HW2 1299   4.801   6.761   3.999
  134SOL     OW 1300   5.951   1.535   2.460
  134SOL    HW1 1301   5.914   1.515   2.551
  134SOL    HW2 1302   5.936   1.457   2.400
  135SOL     OW 1303   5.660   3.193   2.331
  135SOL    HW1 1304   5.705   3.256   2.268
  135SOL    HW2 1305   5.565   3.222   2.345
  136SOL     OW 1306   3.178   3.660   6.505
  136SOL    HW1 1307   3.256   3.620   6.458
  136SOL    HW2 1308   3.198   3.755   6.528
  137SOL     OW 1309   5.278   0.894   4.947
  137SOL    HW1 1310   5.310   0.989   4.945
  137SOL    HW2 1311   5.302   0.854   5.035
  138SOL     OW 1312   0.395   4.562   3.383
  138SOL    HW1 1313   0.361   4.562   3.289
  138SOL    HW2 1314   0.433   4.652   3.405
  139SOL     OW 1315   3.125   6.524   4.977
  139SOL    HW1 1316   3.203   6.562   4.927
  139SOL    HW2 1317   3.090   6.592   5.041
  140SOL     OW 1318   0.848   5.467   3.447
  140SOL    HW1 1319   0.909   5.431   3.376
  140SOL    HW2 1320   0.891   5.545   3.491
  141SOL     OW 1321   6.165   3.345   5.164
  141SOL    HW1 1322   6.228   3.403   5.113
  141SOL    HW2 1323   6.093   3.401   5.205
  142SOL     OW 1324   1.766   4.350   0.354
  142SOL    HW1 1325   1.686   4.330   0.412
  142SOL    HW2 1326   1.736   4.366   0.260
  143SOL     OW 1327   5.608   4.313   1.706
  143SOL    HW1 1328   5.568   4.252   1.774
  143SOL    HW2 1329   5.708   4.302   1.706
  144SOL     OW 1330   1.359   6.429   6.851
  144SOL    HW1 1331   1.317   6.433   6.942
  144SOL    HW2 1332   1.430   6.499   6.843
  145SOL     OW 1333   0.484   5.039   0.264
  145SOL    HW1 1334   0.498   5.073   0.357
  145SOL    HW2 1335   0.492   5.114   0.199
  146SOL     OW 1336   4.825   0.404   6.394
  146SOL    HW1 1337   4.804   0.486   6.446
  146SOL    HW2 1338   4.864   0.429   6.306
  147SOL     OW 1339   5.653   3.471   6.951
  147SOL    HW1 1340   5.661   3.565   6.919
  147SOL    HW2 1341   5.557   3.443   6.948
  148SOL     OW 1342   0.251   4.879   6.515
  148SOL    HW1 1343   0.304   4.807   6.470
  148SOL    HW2 1344   0.229   4.951   6.450
  149SOL     OW 1345   3.156   2.153   4.671
  149SOL    HW1 1346   3.147   2.068   4.722
  149SOL    HW2 1347   3.112   2.227   4.722
  150SOL     OW 1348   5.764   5.769   6.203
  150SOL    HW1 1349   5.808   5.684   6.173
  150SOL    HW2 1350   5.710   5.808   6.128
  151SOL     OW 1351   3.305   2.487   1.060
  151SOL    HW1 1352   3.210   2.476   1.028
  151SOL    HW2 1353   3.313   2.570   1.114
  152SOL     OW 1354   1.541   1.628   3.436
  152SOL    HW1 1355   1.524   1.628   3.534
  152SOL    HW2 1356   1.582   1.541   3.408
  153SOL     OW 1357   2.609   0.379   1.497
  153SOL    HW1 1358   2.526   0.332   1.526
  153SOL    HW2 1359   2.686   0.315   1.497
  154SOL     OW 1360   0.483   2.084   3.120
  154SOL    HW1 1361   0.525   2.141   3.049
  154SOL    HW2 1362   0.411   2.135   3.166
  155SOL     OW 1363   6.945   1.277   3.380
  155SOL    HW1 1364   6.903   1.351   3.328
  155SOL    HW2 1365   6.921   1.285   3.476
  156SOL     OW 1366   0.087   2.024   0.747
  156SOL    HW1 1367   0.089   1.934   0.791
  156SOL    HW2 1368   0.079   2.095   0.817
  157SOL     OW 1369   6.533   3.206   2.096
  157SOL    HW1 1370   6.469   3.256   2.154
  157SOL    HW2 1371   6.493   3.193   2.005
  158SOL     OW 1372   2.736   5.898   2.197
  158SOL    HW1 1373   2.713   5.943   2.283
  158SOL    HW2 1374   2.662   5.909   2.131
  159SOL     OW 1375   4.610   4.387   1.697
  159SOL    HW1 1376   4.543   4.327   1.741
  159SOL    HW2 1377   4.623   4.357   1.602
  160SOL     OW 1378   6.316   5.432   0.296
  160SOL    HW1 1379   6.356   5.452   0.386
  160SOL    HW2 1380   6.386   5.392   0.237
  161SOL     OW 1381   2.102   5.499   4.930
  161SOL    HW1 1382   2.184   5.445   4.949
  161SOL    HW2 1383   2.079   5.492   4.833
  162SOL     OW 1384   3.736   6.624   0.190
  162SOL    HW1 1385   3.769   6.543   0.238
  162SOL    HW2 1386   3.679   6.596   0.112
  163SOL     OW 1387   5.153   5.545   1.224
  163SOL    HW1 1388   5.201   5.479   1.166
  163SOL    HW2 1389   5.206   5.559   1.308
  164SOL     OW 1390   6.723   5.055   0.787
  164SOL    HW1 1391   6.653   5.025   0.853
  164SOL    HW2 1392   6.814   5.036   0.824
  165SOL     OW 1393   5.452   3.160   1.456
  165SOL    HW1 1394   5.395   3.236   1.426
  165SOL    HW2 1395   5.447   3.152   1.555
  166SOL     OW 1396   0.001   5.072   3.379
  166SOL    HW1 1397   0.085   5.126   3.384
  166SOL    HW2 1398   0.003   5.001   3.450
  167SOL     OW 1399   5.892   2.637   0.078
  167SOL    HW1 1400   5.901   2.669   7.007
  167SOL    HW2 1401   5.916   2.710   0.141
  168SOL     OW 1402   2.335   3.702   1.425
  168SOL    HW1 1403   2.401   3.660   1.487
  168SOL    HW2 1404   2.250   3.722   1.474
  169SOL     OW 1405   4.047   0.567   1.782
  169SOL    HW1 1406   4.077   0.541   1.873
  169SOL    HW2 1407   3.949   0.585   1.782
  170SOL     OW 1408   0.387   0.852   3.426
  170SOL    HW1 1409   0.458   0.783   3.409
  170SOL    HW2 1410   0.421   0.942   3.400
  171SOL     OW 1411   3.931   4.592   0.430
  171SOL    HW1 1412   3.924   4.492   0.427
  171SOL    HW2 1413   3.889   4.631   0.349
  172SOL     OW 1414   6.444   2.105   4.170
  172SOL    HW1 1415   6.537   2.133   4.147
  172SOL    HW2 1416   6.428   2.013   4.134
  173SOL     OW 1417   6.857   1.933   4.037
  173SOL    HW1 1418   6.765   1.908   4.069
  173SOL    HW2 1419   6.897   1.998   4.102
  174SOL     OW 1420   3.454   5.482   4.062
  174SOL    HW1 1421   3.458   5.571   4.016
  174SOL    HW2 1422   3.449   5.409   3.993
  175SOL     OW 1423   2.347   6.844   2.318
  175SOL    HW1 1424   2.277   6.886   2.260
  175SOL    HW2 1425   2.404   6.916   2.358
  176SOL     OW 1426   0.975   4.382   1.472
  176SOL    HW1 1427   1.005   4.473   1.499
  176SOL    HW2 1428   1.054   4.325   1.452
  177SOL     OW 1429   5.599   2.876   2.683
  177SOL    HW1 1430   5.512   2.915   2.714
  177SOL    HW2 1431   5.609   2.891   2.585
  178SOL     OW 1432   3.402   2.526   6.442
  178SOL    HW1 1433   3.484   2.512   6.387
  178SOL    HW2 1434   3.361   2.437   6.462
  179SOL     OW 1435   2.358   1.721   6.096
  179SOL    HW1 1436   2.259   1.708   6.100
  179SOL    HW2 1437   2.401   1.667   6.169
  180SOL     OW 1438   1.774   0.136   6.448
  180SOL    HW1 1439   1.682   0.097   6.440
  180SOL    HW2 1440   1.782   0.186   6.534
  181SOL     OW 1441   3.433   1.812   6.210
  181SOL    HW1 1442   3.492   1.777   6.138
  181SOL    HW2 1443   3.341   1.772   6.200
  182SOL     OW 1444   3.736   2.011   4.172
  182SOL    HW1 1445   3.681   1.929   4.189
  182SOL    HW2 1446   3.699   2.087   4.225
  183SOL     OW 1447   3.409   2.096   3.572
  183SOL    HW1 1448   3.437   2.091   3.476
  183SOL    HW2 1449   3.490   2.094   3.631
  184SOL     OW 1450   1.730   6.263   4.330
  184SOL    HW1 1451   1.765   6.346   4.288
  184SOL    HW2 1452   1.673   6.287   4.409
  185SOL     OW 1453   0.727   1.988   6.395
  185SOL    HW1 1454   0.637   2.007   6.434
  185SOL    HW2 1455   0.767   2.072   6.359
  186SOL     OW 1456   6.059   1.267   3.775
  186SOL    HW1 1457   6.135   1.202   3.780
  186SOL    HW2 1458   6.001   1.257   3.855
  187SOL     OW 1459   4.745   0.574   2.806
  187SOL    HW1 1460   4.719   0.553   2.711
  187SOL    HW2 1461   4.684   0.644   2.842
  188SOL     OW 1462   6.505   1.978   2.134
  188SOL    HW1 1463   6.437   1.905   2.146
  188SOL    HW2 1464   6.513   2.030   2.219
  189SOL     OW 1465   2.038   5.153   1.866
  189SOL    HW1 1466   2.073   5.062   1.886
  189SOL    HW2 1467   2.036   5.167   1.767
  190SOL     OW 1468   4.234   1.230   4.428
  190SOL    HW1 1469   4.309   1.285   4.392
  190SOL    HW2 1470   4.243   1.225   4.528
  191SOL     OW 1471   5.590   5.852   6.021
  191SOL    HW1 1472   5.541   5.869   5.936
  191SOL    HW2 1473   5.529   5.805   6.086
  192SOL     OW 1474   0.030   5.935   1.743
  192SOL    HW1 1475   0.055   5.911   1.837
  192SOL    HW2 1476   0.032   5.852   1.686
  193SOL     OW 1477   4.960   2.411   5.442
  193SOL    HW1 1478   4.944   2.435   5.538
  193SOL    HW2 1479   5.023   2.333   5.438
  194SOL     OW 1480   3.517   0.431   2.628
  194SOL    HW1 1481   3.527   0.424   2.727
  194SOL    HW2 1482   3.536   0.343   2.585
  195SOL     OW 1483   1.845   6.516   4.253
  195SOL    HW1 1484   1.861   6.571   4.335
  195SOL    HW2 1485   1.910   6.542   4.182
  196SOL     OW 1486   2.647   1.392   6.631
  196SOL    HW1 1487   2.592   1.475   6.632
  196SOL    HW2 1488   2.601   1.320   6.684
  197SOL     OW 1489   2.136   0.932   0.614
  197SOL    HW1 1490   2.181   0.891   0.693
  197SOL    HW2 1491   2.131   0.865   0.540
  198SOL     OW 1492   4.990   1.268   3.074
  198SOL    HW1 1493   4.972   1.217   2.990
  198SOL    HW2 1494   4.903   1.285   3.121
  199SOL     OW 1495   1.065   2.003   4.274
  199SOL    HW1 1496   1.059   1.968   4.368
  199SOL    HW2 1497   1.069   1.926   4.210
  200SOL     OW 1498   1.166   3.536   0.621
  200SOL    HW1 1499   1.231   3.476   0.668
  200SOL    HW2 1500   1.073   3.507   0.642
  201SOL     OW 1501   0.465   6.137   5.529
  201SOL    HW1 1502   0.547   6.169   5.576
  201SOL    HW2 1503   0.392   6.122   5.595
  202SOL     OW 1504   3.531   1.859   6.485
  202SOL    HW1 1505   3.553   1.791   6.554
  202SOL    HW2 1506   3.486   1.815   6.407
  203SOL     OW 1507   6.352   1.902   4.909
  203SOL    HW1 1508   6.295   1.821   4.903
  203SOL    HW2 1509   6.302   1.974   4.958
  204SOL     OW 1510   1.194   6.951   4.363
  204SOL    HW1 1511   1.269   7.005   4.327
  204SOL    HW2 1512   1.168   6.880   4.297
  205SOL     OW 1513   1.295   2.529   2.644
  205SOL    HW1 1514   1.242   2.559   2.723
  205SOL    HW2 1515   1.236   2.479   2.581
  206SOL     OW 1516   0.693   3.613   1.171
  206SOL    HW1 1517   0.616   3.553   1.194
  206SOL    HW2 1518   0.753   3.622   1.250
  207SOL     OW 1519   5.872   1.185   3.960
  207SOL    HW1 1520   5.789   1.140   3.927
  207SOL    HW2 1521   5.878   1.174   4.060
  208SOL     OW 1522   0.154   3.726   5.886
  208SOL    HW1 1523   0.201   3.643   5.917
  208SOL    HW2 1524   0.080   3.701   5.824
  209SOL     OW 1525   6.785   4.650   3.295
  209SOL    HW1 1526   6.871   4.615   3.259
  209SOL    HW2 1527   6.733   4.574   3.335
  210SOL     OW 1528   4.586   2.181   0.396
  210SOL    HW1 1529   4.490   2.172   0.369
  210SOL    HW2 1530   4.616   2.275   0.384
  211SOL     OW 1531   0.777   6.514   2.462
  211SOL    HW1 1532   0.759   6.475   2.552
  211SOL    HW2 1533   0.846   6.586   2.470
  212SOL     OW 1534   1.271   3.308   2.417
  212SOL    HW1 1535   1.281   3.209   2.408
  212SOL    HW2 1536   1.190   3.329   2.471
  213SOL     OW 1537   2.174   6.295   1.064
  213SOL    HW1 1538   2.088   6.344   1.052
  213SOL    HW2 1539   2.165   6.230   1.140
  214SOL     OW 1540   3.469   5.600   2.973
  214SOL    HW1 1541   3.397   5.670   2.977
  214SOL    HW2 1542   3.546   5.636   2.920
  215SOL     OW 1543   3.018   3.772   0.989
  215SOL    HW1 1544   2.946   3.808   1.048
  215SOL    HW2 1545   3.031   3.675   1.007
  216SOL     OW 1546   0.892   6.124   3.228
  216SOL    HW1 1547   0.826   6.114   3.154
  216SOL    HW2 1548   0.954   6.201   3.208
  217SOL     OW 1549   1.462   2.459   4.736
  217SOL    HW1 1550   1.413   2.473   4.649
  217SOL    HW2 1551   1.507   2.370   4.735
  218SOL     OW 1552   0.868   2.475   4.351
  218SOL    HW1 1553   0.963   2.451   4.369
  218SOL    HW2 1554   0.862   2.573   4.330
  219SOL     OW 1555   3.930   0.001   0.319
  219SOL    HW1 1556   3.954   0.074   0.383
  219SOL    HW2 1557   4.000   7.018   0.248
  220SOL     OW 1558   2.403   0.218   1.541
  220SOL    HW1 1559   2.423   0.200   1.637
  220SOL    HW2 1560   2.367   0.136   1.498
  221SOL     OW 1561   5.752   4.129   1.488
  221SOL    HW1 1562   5.685   4.203   1.483
  221SOL    HW2 1563   5.844   4.167   1.476
  222SOL     OW 1564   1.382   4.514   5.454
  222SOL    HW1 1565   1.476   4.547   5.442
  222SOL    HW2 1566   1.341   4.558   5.533
  223SOL     OW 1567   6.862   3.439   6.015
  223SOL    HW1 1568   6.845   3.346   6.046
  223SOL    HW2 1569   6.874   3.439   5.916
  224SOL     OW 1570   3.222   1.397   6.108
  224SOL    HW1 1571   3.302   1.358   6.151
  224SOL    HW2 1572   3.139   1.358   6.148
  225SOL     OW 1573   4.359   4.114   6.303
  225SOL    HW1 1574   4.383   4.020   6.277
  225SOL    HW2 1575   4.442   4.161   6.334
  226SOL     OW 1576   0.351   1.813   5.859
  226SOL    HW1 1577   0.365   1.749   5.784
  226SOL    HW2 1578   0.330   1.904   5.822
  227SOL     OW 1579   1.699   4.307   2.295
  227SOL    HW1 1580   1.612   4.262   2.315
  227SOL    HW2 1581   1.742   4.334   2.380
  228SOL     OW 1582   2.126   0.161   2.355
  228SOL    HW1 1583   2.115   0.064   2.334
  228SOL    HW2 1584   2.082   0.215   2.283
  229SOL     OW 1585   5.375   5.651   5.780
  229SOL    HW1 1586   5.433   5.621   5.855
  229SOL    HW2 1587   5.384   5.750   5.768
  230SOL     OW 1588   4.541   5.858   4.338
  230SOL    HW1 1589   4.552   5.863   4.437
  230SOL    HW2 1590   4.443   5.855   4.316
  231SOL     OW 1591   5.959   1.202   6.447
  231SOL    HW1 1592   5.920   1.207   6.538
  231SOL    HW2 1593   6.059   1.212   6.453
  232SOL     OW 1594   0.078   3.599   6.758
  232SOL    HW1 1595   0.019   3.587   6.678
  232SOL    HW2 1596   0.162   3.545   6.745
  233SOL     OW 1597   3.999   0.986   2.869
  233SOL    HW1 1598   4.028   1.081   2.864
  233SOL    HW2 1599   3.942   0.964   2.789
  234SOL     OW 1600   4.944   0.738   6.828
  234SOL    HW1 1601   5.003   0.679   6.771
  234SOL    HW2 1602   4.921   0.689   6.912
  235SOL     OW 1603   4.753   2.792   2.281
  235SOL    HW1 1604   4.756   2.711   2.222
  235SOL    HW2 1605   4.711   2.868   2.231
  236SOL     OW 1606   5.217   3.174   6.995
  236SOL    HW1 1607   5.176   3.093   6.953
  236SOL    HW2 1608   5.315   3.159   7.007
  237SOL     OW 1609   0.016   4.339   2.404
  237SOL    HW1 1610   7.007   4.415   2.347
  237SOL    HW2 1611   0.086   4.372   2.468
  238SOL     OW 1612   5.897   1.654   0.359
  238SOL    HW1 1613   5.948   1.606   0.430
  238SOL    HW2 1614   5.941   1.742   0.341
  239SOL     OW 1615   0.834   4.432   0.161
  239SOL    HW1 1616   0.763   4.501   0.171
  239SOL    HW2 1617   0.921   4.468   0.196
  240SOL     OW 1618   0.959   3.194   3.671
  240SOL    HW1 1619   0.991   3.263   3.605
  240SOL    HW2 1620   1.030   3.178   3.739
  241SOL     OW 1621   2.909   2.194   4.895
  241SOL    HW1 1622   2.845   2.268   4.877
  241SOL    HW2 1623   2.996   2.232   4.926
  242SOL     OW 1624   3.169   3.486   4.055
  242SOL    HW1 1625   3.083   3.466   4.103
  242SOL    HW2 1626   3.151   3.501   3.958
  243SOL     OW 1627   4.963   1.373   0.444
  243SOL    HW1 1628   4.873   1.337   0.469
  243SOL    HW2 1629   4.958   1.473   0.436
  244SOL     OW 1630   5.977   3.792   5.340
  244SOL    HW1 1631   5.906   3.836   5.284
  244SOL    HW2 1632   5.971   3.825   5.434
  245SOL     OW 1633   4.475   1.821   3.976
  245SOL    HW1 1634   4.528   1.905   3.967
  245SOL    HW2 1635   4.378   1.844   3.987
  246SOL     OW 1636   4.602   1.859   3.162
  246SOL    HW1 1637   4.505   1.876   3.144
  246SOL    HW2 1638   4.634   1.921   3.234
  247SOL     OW 1639   2.855   2.025   0.811
  247SOL    HW1 1640   2.847   2.054   0.715
  247SOL    HW2 1641   2.767   1.989   0.842
  248SOL     OW 1642   3.148   1.303   3.108
  248SOL    HW1 1643   3.196   1.222   3.076
  248SOL    HW2 1644   3.198   1.385   3.079
  249SOL     OW 1645   5.631   6.737   5.277
  249SOL    HW1 1646   5.622   6.783   5.365
  249SOL    HW2 1647   5.583   6.649   5.281
  250SOL     OW 1648   4.375   3.108   0.353
  250SOL    HW1 1649   4.417   3.184   0.403
  250SOL    HW2 1650   4.319   3.145   0.278
  251SOL     OW 1651   4.468   3.506   5.323
  251SOL    HW1 1652   4.428   3.597   5.309
  251SOL    HW2 1653   4.555   3.500   5.275
  252SOL     OW 1654   0.080   6.405   4.815
  252SOL    HW1 1655   0.008   6.475   4.813
  252SOL    HW2 1656   0.039   6.314   4.810
  253SOL     OW 1657   3.639   5.288   6.552
  253SOL    HW1 1658   3.592   5.266   6.467
  253SOL    HW2 1659   3.660   5.386   6.554
  254SOL     OW 1660   6.324   2.336   3.719
  254SOL    HW1 1661   6.357   2.364   3.810
  254SOL    HW2 1662   6.383   2.264   3.682
  255SOL     OW 1663   2.440   4.845   5.405
  255SOL    HW1 1664   2.380   4.809   5.477
  255SOL    HW2 1665   2.384   4.876   5.328
  256SOL     OW 1666   5.841   3.947   6.093
  256SOL    HW1 1667   5.915   3.980   6.151
  256SOL    HW2 1668   5.819   4.016   6.024
  257SOL     OW 1669   5.189   0.242   3.394
  257SOL    HW1 1670   5.137   0.159   3.414
  257SOL    HW2 1671   5.128   0.310   3.351
  258SOL     OW 1672   2.305   4.253   5.544
  258SOL    HW1 1673   2.346   4.317   5.479
  258SOL    HW2 1674   2.297   4.163   5.502
  259SOL     OW 1675   6.376   0.661   2.740
  259SOL    HW1 1676   6.409   0.754   2.757
  259SOL    HW2 1677   6.366   0.647   2.642
  260SOL     OW 1678   4.382   6.181   3.025
  260SOL    HW1 1679   4.455   6.151   3.086
  260SOL    HW2 1680   4.328   6.253   3.070
  261SOL     OW 1681   6.061   3.361   0.694
  261SOL    HW1 1682   5.978   3.341   0.642
  261SOL    HW2 1683   6.117   3.278   0.700
  262SOL     OW 1684   1.030   3.932   0.149
  262SOL    HW1 1685   0.940   3.921   0.191
  262SOL    HW2 1686   1.058   4.028   0.155
  263SOL     OW 1687   1.898   0.114   5.147
  263SOL    HW1 1688   1.922   0.026   5.105
  263SOL    HW2 1689   1.805   0.139   5.120
  264SOL     OW 1690   5.964   2.925   6.967
  264SOL    HW1 1691   5.955   2.852   6.899
  264SOL    HW2 1692   5.964   3.014   6.921
  265SOL     OW 1693   5.265   6.821   2.791
  265SOL    HW1 1694   5.204   6.801   2.715
  265SOL    HW2 1695   5.353   6.854   2.755
  266SOL     OW 1696   4.301   2.542   5.692
  266SOL    HW1 1697   4.237   2.544   5.615
  266SOL    HW2 1698   4.372   2.610   5.679
  267SOL     OW 1699   0.647   1.788   6.021
  267SOL    HW1 1700   0.575   1.745   5.967
  267SOL    HW2 1701   0.621   1.786   6.118
  268SOL     OW 1702   3.118   1.038   6.259
  268SOL    HW1 1703   3.074   1.049   6.171
  268SOL    HW2 1704   3.089   0.951   6.300
  269SOL     OW 1705   1.591   3.709   1.230
  269SOL    HW1 1706   1.674   3.688   1.282
  269SOL    HW2 1707   1.609   3.786   1.169
  270SOL     OW 1708   1.377   6.053   0.667
  270SOL    HW1 1709   1.285   6.062   0.630
  270SOL    HW2 1710   1.386   5.964   0.713
  271SOL     OW 1711   6.652   0.991   6.395
  271SOL    HW1 1712   6.705   1.065   6.355
  271SOL    HW2 1713   6.663   0.908   6.339
  272SOL     OW 1714   3.744   6.144   4.053
  272SOL    HW1 1715   3.790   6.147   4.141
  272SOL    HW2 1716   3.770   6.224   3.999
  273SOL     OW 1717   2.358   4.679   4.304
  273SOL    HW1 1718   2.350   4.757   4.241
  273SOL    HW2 1719   2.380   4.597   4.252
  274SOL     OW 1720   4.003   1.307   3.166
  274SOL    HW1 1721   3.946   1.302   3.084
  274SOL    HW2 1722   3.946   1.334   3.244
  275SOL     OW 1723   6.914   5.605   3.792
  275SOL    HW1 1724   6.991   5.573   3.737
  275SOL    HW2 1725   6.887   5.533   3.856
  276SOL     OW 1726   0.246   6.525   2.820
  276SOL    HW1 1727   0.342   6.506   2.836
  276SOL    HW2 1728   0.206   6.568   2.901
  277SOL     OW 1729   1.224   3.930   0.538
  277SOL    HW1 1730   1.286   3.856   0.562
  277SOL    HW2 1731   1.153   3.938   0.607
  278SOL     OW 1732   0.102   4.176   1.288
  278SOL    HW1 1733   0.053   4.116   1.350
  278SOL    HW2 1734   0.121   4.263   1.334
  279SOL     OW 1735   5.728   2.849   4.297
  279SOL    HW1 1736   5.669   2.772   4.271
  279SOL    HW2 1737   5.790   2.870   4.222
  280SOL     OW 1738   2.545   5.498   2.705
  280SOL    HW1 1739   2.459   5.548   2.711
  280SOL    HW2 1740   2.575   5.472   2.797
  281SOL     OW 1741   2.730   4.708   1.760
  281SOL    HW1 1742   2.713   4.803   1.787
  281SOL    HW2 1743   2.764   4.657   1.839
  282SOL     OW 1744   3.486   1.596   5.532
  282SOL    HW1 1745   3.426   1.656   5.480
  282SOL    HW2 1746   3.506   1.637   5.621
  283SOL     OW 1747   5.879   2.731   6.565
  283SOL    HW1 1748   5.951   2.699   6.503
  283SOL    HW2 1749   5.809   2.779   6.513
  284SOL     OW 1750   1.099   3.655   3.741
  284SOL    HW1 1751   1.193   3.676   3.766
  284SOL    HW2 1752   1.064   3.581   3.798
  285SOL     OW 1753   5.613   5.246   4.319
  285SOL    HW1 1754   5.587   5.198   4.236
  285SOL    HW2 1755   5.655   5.181   4.383
  286SOL     OW 1756   3.687   5.059   6.637
  286SOL    HW1 1757   3.666   5.155   6.620
  286SOL    HW2 1758   3.605   5.004   6.619
  287SOL     OW 1759   1.207   3.516   1.152
  287SOL    HW1 1760   1.135   3.470   1.101
  287SOL    HW2 1761   1.234   3.461   1.231
  288SOL     OW 1762   3.530   1.814   6.990
  288SOL    HW1 1763   3.440   1.859   6.988
  288SOL    HW2 1764   3.553   1.791   0.062
  289SOL     OW 1765   2.291   4.408   5.771
  289SOL    HW1 1766   2.225   4.480   5.751
  289SOL    HW2 1767   2.296   4.345   5.693
  290SOL     OW 1768   6.592   1.988   4.783
  290SOL    HW1 1769   6.592   2.060   4.852
  290SOL    HW2 1770   6.514   1.928   4.797
  291SOL     OW 1771   0.704   1.863   4.768
  291SOL    HW1 1772   0.668   1.918   4.843
  291SOL    HW2 1773   0.638   1.863   4.692
  292SOL     OW 1774   1.821   1.845   2.961
  292SOL    HW1 1775   1.790   1.796   3.043
  292SOL    HW2 1776   1.778   1.935   2.958
  293SOL     OW 1777   4.344   6.056   3.308
  293SOL    HW1 1778   4.422   6.119   3.301
  293SOL    HW2 1779   4.260   6.104   3.283
  294SOL     OW 1780   0.213   6.097   6.907
  294SOL    HW1 1781   0.117   6.082   6.930
  294SOL    HW2 1782   0.268   6.095   6.990
  295SOL     OW 1783   3.751   1.049   3.357
  295SOL    HW1 1784   3.850   1.035   3.355
  295SOL    HW2 1785   3.730   1.146   3.360
  296SOL     OW 1786   3.316   1.526   2.947
  296SOL    HW1 1787   3.299   1.614   2.904
  296SOL    HW2 1788   3.307   1.453   2.879
  297SOL     OW 1789   2.543   4.534   4.040
  297SOL    HW1 1790   2.531   4.491   4.129
  297SOL    HW2 1791   2.491   4.484   3.970
  298SOL     OW 1792   4.368   5.765   2.123
  298SOL    HW1 1793   4.462   5.742   2.146
  298SOL    HW2 1794   4.365   5.854   2.078
  299SOL     OW 1795   5.271   3.236   5.978
  299SOL    HW1 1796   5.194   3.221   6.040
  299SOL    HW2 1797   5.239   3.235   5.884
  300SOL     OW 1798   6.297   0.631   2.436
  300SOL    HW1 1799   6.307   0.727   2.409
  300SOL    HW2 1800   6.206   0.599   2.410
  301SOL     OW 1801   5.039   3.482   0.991
  301SOL    HW1 1802   5.017   3.527   1.078
  301SOL    HW2 1803   5.131   3.442   0.998
  302SOL     OW 1804   1.291   0.436   2.957
  302SOL    HW1 1805   1.292   0.497   2.878
  302SOL    HW2 1806   1.242   0.352   2.933
  303SOL     OW 1807   5.997   0.574   2.486
  303SOL    HW1 1808   5.973   0.669   2.505
  303SOL    HW2 1809   5.990   0.556   2.388
  304SOL     OW 1810   1.796   0.244   3.362
  304SOL    HW1 1811   1.834   0.239   3.269
  304SOL    HW2 1812   1.795   0.340   3.392
  305SOL     OW 1813   0.265   3.405   6.599
  305SOL    HW1 1814   0.311   3.343   6.663
  305SOL    HW2 1815   0.228   3.352   6.522
  306SOL     OW 1816   1.202   1.171   3.321
  306SOL    HW1 1817   1.288   1.143   3.279
  306SOL    HW2 1818   1.142   1.210   3.252
  307SOL     OW 1819   4.612   6.850   0.871
  307SOL    HW1 1820   4.662   6.816   0.951
  307SOL    HW2 1821   4.657   6.934   0.838
  308SOL     OW 1822   6.827   4.323   4.817
  308SOL    HW1 1823   6.789   4.246   4.869
  308SOL    HW2 1824   6.906   4.360   4.865
  309SOL     OW 1825   3.770   4.580   5.394
  309SOL    HW1 1826   3.688   4.581   5.451
  309SOL    HW2 1827   3.793   4.485   5.371
  310SOL     OW 1828   6.273   6.616   5.971
  310SOL    HW1 1829   6.342   6.583   5.907
  310SOL    HW2 1830   6.318   6.660   6.048
  311SOL     OW 1831   6.530   4.875   1.640
  311SOL    HW1 1832   6.514   4.962   1.594
  311SOL    HW2 1833   6.476   4.803   1.596
  312SOL     OW 1834   4.691   1.950   5.881
  312SOL    HW1 1835   4.786   1.983   5.875
  312SOL    HW2 1836   4.680   1.871   5.821
  313SOL     OW 1837   2.780   4.399   1.671
  313SOL    HW1 1838   2.838   4.460   1.726
  313SOL    HW2 1839   2.834   4.361   1.596
  314SOL     OW 1840   3.413   5.612   0.447
  314SOL    HW1 1841   3.323   5.657   0.448
  314SOL    HW2 1842   3.478   5.670   0.398
  315SOL     OW 1843   0.828   1.950   3.862
  315SOL    HW1 1844   0.835   1.931   3.960
  315SOL    HW2 1845   0.888   1.887   3.812
  316SOL     OW 1846   2.067   2.480   4.440
  316SOL    HW1 1847   2.032   2.509   4.351
  316SOL    HW2 1848   2.148   2.423   4.427
  317SOL     OW 1849   0.667   1.474   0.057
  317SOL    HW1 1850   0.740   1.409   0.075
  317SOL    HW2 1851   0.656   1.485   6.980
  318SOL     OW 1852   1.133   4.736   1.063
  318SOL    HW1 1853   1.158   4.832   1.081
  318SOL    HW2 1854   1.077   4.731   0.980
  319SOL     OW 1855   0.424   0.351   2.198
  319SOL    HW1 1856   0.455   0.310   2.284
  319SOL    HW2 1857   0.438   0.450   2.201
  320SOL     OW 1858   5.443   2.207   0.022
  320SOL    HW1 1859   5.440   2.244   0.114
  320SOL    HW2 1860   5.357   2.226   6.997
  321SOL     OW 1861   2.547   1.444   2.243
  321SOL    HW1 1862   2.523   1.541   2.235
  321SOL    HW2 1863   2.479   1.389   2.193
  322SOL     OW 1864   3.135   3.405   4.697
  322SOL    HW1 1865   3.056   3.429   4.640
  322SOL    HW2 1866   3.208   3.370   4.639
  323SOL     OW 1867   0.960   4.168   6.875
  323SOL    HW1 1868   0.874   4.147   6.828
  323SOL    HW2 1869   1.024   4.092   6.863
  324SOL     OW 1870   1.349   2.864   4.023
  324SOL    HW1 1871   1.412   2.847   3.947
  324SOL    HW2 1872   1.360   2.958   4.056
  325SOL     OW 1873   2.037   2.980   1.344
  325SOL    HW1 1874   1.942   3.013   1.347
  325SOL    HW2 1875   2.083   3.002   1.430
  326SOL     OW 1876   1.696   5.838   0.020
  326SOL    HW1 1877   1.654   5.812   6.955
  326SOL    HW2 1878   1.692   5.937   0.031
  327SOL     OW 1879   0.979   4.861   4.087
  327SOL    HW1 1880   1.067   4.905   4.068
  327SOL    HW2 1881   0.986   4.805   4.169
  328SOL     OW 1882   2.955   5.382   2.448
  328SOL    HW1 1883   3.048   5.348   2.433
  328SOL    HW2 1884   2.891   5.306   2.445
  329SOL     OW 1885   3.125   3.906   3.865
  329SOL    HW1 1886   3.185   3.977   3.829
  329SOL    HW2 1887   3.175   3.819   3.869
  330SOL     OW 1888   3.428   6.168   1.919
  330SOL    HW1 1889   3.506   6.206   1.969
  330SOL    HW2 1890   3.401   6.232   1.846
  331SOL     OW 1891   4.708   5.071   6.464
  331SOL    HW1 1892   4.744   4.978   6.475
  331SOL    HW2 1893   4.739   5.110   6.378
  332SOL     OW 1894   3.620   2.121   3.942
  332SOL    HW1 1895   3.524   2.104   3.964
  332SOL    HW2 1896   3.678   2.071   4.005
  333SOL     OW 1897   3.768   0.189   6.942
  333SOL    HW1 1898   3.726   0.247   6.872
  333SOL    HW2 1899   3.820   0.246   7.006
  334SOL     OW 1900   2.705   6.828   1.449
  334SOL    HW1 1901   2.804   6.821   1.463
  334SOL    HW2 1902   2.666   6.736   1.440
  335SOL     OW 1903   2.949   6.055   3.613
  335SOL    HW1 1904   3.018   6.103   3.667
  335SOL    HW2 1905   2.882   6.120   3.578
  336SOL     OW 1906   2.400   1.079   3.388
  336SOL    HW1 1907   2.406   1.041   3.480
  336SOL    HW2 1908   2.403   1.179   3.393
  337SOL     OW 1909   0.167   3.677   1.115
  337SOL    HW1 1910   0.105   3.620   1.169
  337SOL    HW2 1911   0.216   3.619   1.049
  338SOL     OW 1912   3.002   3.226   1.701
  338SOL    HW1 1913   3.008   3.317   1.661
  338SOL    HW2 1914   3.064   3.220   1.779
  339SOL     OW 1915   3.906   0.133   3.538
  339SOL    HW1 1916   3.963   0.053   3.558
  339SOL    HW2 1917   3.922   0.163   3.444
  340SOL     OW 1918   5.171   4.092   5.054
  340SOL    HW1 1919   5.082   4.075   5.011
  340SOL    HW2 1920   5.186   4.025   5.127
  341SOL     OW 1921   6.197   6.283   4.096
  341SOL    HW1 1922   6.123   6.331   4.142
  341SOL    HW2 1923   6.242   6.345   4.031
  342SOL     OW 1924   5.698   4.095   0.423
  342SOL    HW1 1925   5.766   4.131   0.359
  342SOL    HW2 1926   5.705   3.996   0.428
  343SOL     OW 1927   3.138   6.127   1.642
  343SOL    HW1 1928   3.083   6.059   1.594
  343SOL    HW2 1929   3.120   6.122   1.740
  344SOL     OW 1930   2.319   5.326   1.110
  344SOL    HW1 1931   2.395   5.302   1.049
  344SOL    HW2 1932   2.232   5.317   1.062
  345SOL     OW 1933   0.273   0.536   6.003
  345SOL    HW1 1934   0.362   0.580   5.992
  345SOL    HW2 1935   0.280   0.439   5.978
  346SOL     OW 1936   1.734   6.930   2.299
  346SOL    HW1 1937   1.702   6.966   2.386
  346SOL    HW2 1938   1.798   6.854   2.316
  347SOL     OW 1939   5.001   0.004   6.435
  347SOL    HW1 1940   5.015   0.058   6.352
  347SOL    HW2 1941   4.994   6.930   6.412
  348SOL     OW 1942   4.163   4.990   1.824
  348SOL    HW1 1943   4.073   4.987   1.782
  348SOL    HW2 1944   4.210   4.902   1.809
  349SOL     OW 1945   0.058   4.837   2.645
  349SOL    HW1 1946   0.007   4.781   2.710
  349SOL    HW2 1947   0.001   4.912   2.613
  350SOL     OW 1948   3.616   3.853   1.629
  350SOL    HW1 1949   3.677   3.774   1.633
  350SOL    HW2 1950   3.561   3.857   1.712
  351SOL     OW 1951   2.630   2.404   0.600
  351SOL    HW1 1952   2.693   2.379   0.674
  351SOL    HW2 1953   2.563   2.470   0.635
  352SOL     OW 1954   3.769   0.668   4.864
  352SOL    HW1 1955   3.693   0.604   4.877
  352SOL    HW2 1956   3.767   0.704   4.771
  353SOL     OW 1957   2.338   0.436   0.574
  353SOL    HW1 1958   2.305   0.444   0.668
  353SOL    HW2 1959   2.399   0.358   0.567
  354SOL     OW 1960   4.081   2.553   0.681
  354SOL    HW1 1961   3.994   2.553   0.728
  354SOL    HW2 1962   4.127   2.641   0.694
  355SOL     OW 1963   6.735   3.235   2.638
  355SOL    HW1 1964   6.660   3.181   2.676
  355SOL    HW2 1965   6.790   3.273   2.713
  356SOL     OW 1966   4.169   5.893   4.869
  356SOL    HW1 1967   4.238   5.926   4.933
  356SOL    HW2 1968   4.095   5.960   4.861
  357SOL     OW 1969   0.116   6.293   5.312
  357SOL    HW1 1970   0.151   6.349   5.386
  357SOL    HW2 1971   0.172   6.307   5.230
  358SOL     OW 1972   6.446   0.060   1.148
  358SOL    HW1 1973   6.377   7.013   1.128
  358SOL    HW2 1974   6.429   0.099   1.238
  359SOL     OW 1975   1.654   2.688   2.277
  359SOL    HW1 1976   1.654   2.786   2.294
  359SOL    HW2 1977   1.748   2.655   2.268
  360SOL     OW 1978   2.838   6.368   6.153
  360SOL    HW1 1979   2.933   6.399   6.155
  360SOL    HW2 1980   2.827   6.291   6.217
  361SOL     OW 1981   5.980   5.905   3.154
  361SOL    HW1 1982   5.973   5.816   3.199
  361SOL    HW2 1983   5.894   5.955   3.166
  362SOL     OW 1984   3.216   4.151   0.491
  362SOL    HW1 1985   3.119   4.160   0.512
  362SOL    HW2 1986   3.256   4.241   0.475
  363SOL     OW 1987   3.626   5.060   4.008
  363SOL    HW1 1988   3.535   5.087   3.979
  363SOL    HW2 1989   3.620   4.982   4.069
  364SOL     OW 1990   0.605   5.796   5.435
  364SOL    HW1 1991   0.584   5.848   5.518
  364SOL    HW2 1992   0.689   5.832   5.393
  365SOL     OW 1993   4.557   6.487   3.211
  365SOL    HW1 1994   4.527   6.559   3.274
  365SOL    HW2 1995   4.613   6.529   3.139
  366SOL     OW 1996   5.278   1.186   0.143
  366SOL    HW1 1997   5.198   1.245   0.155
  366SOL    HW2 1998   5.352   1.218   0.203
  367SOL     OW 1999   4.799   2.863   0.815
  367SOL    HW1 2000   4.700   2.853   0.825
  367SOL    HW2 2001   4.844   2.782   0.851
  368SOL     OW 2002   1.344   4.605   4.771
  368SOL    HW1 2003   1.427   4.640   4.728
  368SOL    HW2 2004   1.368   4.540   4.843
  369SOL     OW 2005   6.287   4.726   2.006
  369SOL    HW1 2006   6.323   4.659   1.941
  369SOL    HW2 2007   6.321   4.817   1.982
  370SOL     OW 2008   2.544   0.958   5.065
  370SOL    HW1 2009   2.461   1.003   5.033
  370SOL    HW2 2010   2.619   0.977   5.002
  371SOL     OW 2011   2.331   3.826   6.669
  371SOL    HW1 2012   2.334   3.807   6.571
  371SOL    HW2 2013   2.417   3.868   6.698
  372SOL     OW 2014   6.844   0.413   5.207
  372SOL    HW1 2015   6.748   0.389   5.198
  372SOL    HW2 2016   6.896   0.333   5.237
  373SOL     OW 2017   0.319   6.542   5.941
  373SOL    HW1 2018   0.278   6.496   6.020
  373SOL    HW2 2019   0.281   6.635   5.934
  374SOL     OW 2020   4.198   6.763   2.107
  374SOL    HW1 2021   4.162   6.762   2.014
  374SOL    HW2 2022   4.245   6.850   2.124
  375SOL     OW 2023   6.833   4.819   4.126
  375SOL    HW1 2024   6.882   4.855   4.206
  375SOL    HW2 2025   6.890   4.749   4.082
  376SOL     OW 2026   1.512   2.960   3.822
  376SOL    HW1 2027   1.568   2.981   3.903
  376SOL    HW2 2028   1.536   2.869   3.787
  377SOL     OW 2029   5.345   2.471   2.531
  377SOL    HW1 2030   5.312   2.486   2.438
  377SOL    HW2 2031   5.419   2.403   2.530
  378SOL     OW 2032   4.091   3.042   5.574
  378SOL    HW1 2033   4.136   3.030   5.663
  378SOL    HW2 2034   4.159   3.073   5.507
  379SOL     OW 2035   5.966   3.259   1.410
  379SOL    HW1 2036   6.005   3.244   1.319
  379SOL    HW2 2037   5.871   3.286   1.402
  380SOL     OW 2038   2.166   1.683   1.394
  380SOL    HW1 2039   2.098   1.751   1.418
  380SOL    HW2 2040   2.138   1.594   1.430
  381SOL     OW 2041   2.155   4.798   1.692
  381SOL    HW1 2042   2.154   4.858   1.613
  381SOL    HW2 2043   2.099   4.838   1.765
  382SOL     OW 2044   3.732   5.929   0.124
  382SOL    HW1 2045   3.750   5.932   0.026
  382SOL    HW2 2046   3.814   5.958   0.174
  383SOL     OW 2047   6.532   2.615   6.714
  383SOL    HW1 2048   6.632   2.616   6.713
  383SOL    HW2 2049   6.500   2.638   6.806
  384SOL     OW 2050   1.082   4.773   5.191
  384SOL    HW1 2051   1.178   4.794   5.212
  384SOL    HW2 2052   1.068   4.777   5.092
  385SOL     OW 2053   5.045   6.454   6.945
  385SOL    HW1 2054   5.035   6.550   6.971
  385SOL    HW2 2055   5.077   6.401   0.002
  386SOL     OW 2056   4.132   6.853   5.641
  386SOL    HW1 2057   4.156   6.817   5.551
  386SOL    HW2 2058   4.086   6.782   5.694
  387SOL     OW 2059   0.452   0.183   4.102
  387SOL    HW1 2060   0.354   0.203   4.111
  387SOL    HW2 2061   0.493   0.175   4.193
  388SOL     OW 2062   6.841   2.384   5.292
  388SOL    HW1 2063   6.851   2.324   5.371
  388SOL    HW2 2064   6.780   2.460   5.314
  389SOL     OW 2065   4.192   4.423   1.724
  389SOL    HW1 2066   4.113   4.364   1.705
  389SOL    HW2 2067   4.271   4.367   1.747
  390SOL     OW 2068   3.643   1.092   0.703
  390SOL    HW1 2069   3.612   1.127   0.614
  390SOL    HW2 2070   3.632   0.993   0.705
  391SOL     OW 2071   2.896   4.365   5.751
  391SOL    HW1 2072   2.810   4.314   5.741
  391SOL    HW2 2073   2.956   4.345   5.674
  392SOL     OW 2074   1.658   3.532   2.220
  392SOL    HW1 2075   1.729   3.602   2.209
  392SOL    HW2 2076   1.700   3.448   2.257
  393SOL     OW 2077   0.731   4.609   1.043
  393SOL    HW1 2078   0.705   4.657   0.959
  393SOL    HW2 2079   0.782   4.672   1.102
  394SOL     OW 2080   6.745   3.375   0.179
  394SOL    HW1 2081   6.812   3.342   0.245
  394SOL    HW2 2082   6.701   3.458   0.215
  395SOL     OW 2083   4.899   4.055   2.182
  395SOL    HW1 2084   4.874   4.058   2.086
  395SOL    HW2 2085   4.917   4.148   2.215
  396SOL     OW 2086   2.722   2.136   1.983
  396SOL    HW1 2087   2.728   2.210   2.050
  396SOL    HW2 2088   2.813   2.118   1.946
  397SOL     OW 2089   4.669   1.171   5.464
  397SOL    HW1 2090   4.577   1.147   5.496
  397SOL    HW2 2091   4.710   1.237   5.528
  398SOL     OW 2092   0.886   0.449   4.242
  398SOL    HW1 2093   0.830   0.529   4.264
  398SOL    HW2 2094   0.981   0.477   4.230
  399SOL     OW 2095   5.555   5.919   4.063
  399SOL    HW1 2096   5.505   5.955   3.985
  399SOL    HW2 2097   5.592   5.994   4.117
  400SOL     OW 2098   6.491   0.364   4.932
  400SOL    HW1 2099   6.582   0.393   4.902
  400SOL    HW2 2100   6.465   0.281   4.882
  401SOL     OW 2101   6.730   0.284   5.929
  401SOL    HW1 2102   6.704   0.238   6.013
  401SOL    HW2 2103   6.790   0.361   5.950
  402SOL     OW 2104   6.369   0.247   2.624
  402SOL    HW1 2105   6.422   0.317   2.673
  402SOL    HW2 2106   6.399   0.156   2.652
  403SOL     OW 2107   2.671   0.560   5.511
  403SOL    HW1 2108   2.746   0.618   5.479
  403SOL    HW2 2109   2.671   0.474   5.460
  404SOL     OW 2110   3.622   6.452   6.023
  404SOL    HW1 2111   3.577   6.380   5.970
  404SOL    HW2 2112   3.569   6.472   6.105
  405SOL     OW 2113   1.711   3.766   3.580
  405SOL    HW1 2114   1.673   3.857   3.595
  405SOL    HW2 2115   1.802   3.761   3.621
  406SOL     OW 2116   0.967   5.427   5.276
  406SOL    HW1 2117   0.888   5.479   5.241
  406SOL    HW2 2118   0.969   5.433   5.375
  407SOL     OW 2119   1.672   3.317   3.501
  407SOL    HW1 2120   1.742   3.339   3.434
  407SOL    HW2 2121   1.650   3.398   3.555
  408SOL     OW 2122   3.656   1.682   2.580
  408SOL    HW1 2123   3.618   1.761   2.629
  408SOL    HW2 2124   3.753   1.699   2.561
  409SOL     OW 2125   0.799   3.706   2.199
  409SOL    HW1 2126   0.786   3.623   2.145
  409SOL    HW2 2127   0.734   3.776   2.168
  410SOL     OW 2128   1.493   2.547   1.162
  410SOL    HW1 2129   1.537   2.597   1.236
  410SOL    HW2 2130   1.550   2.471   1.133
  411SOL     OW 2131   0.121   1.989   2.215
  411SOL    HW1 2132   0.107   1.890   2.209
  411SOL    HW2 2133   0.067   2.035   2.145
  412SOL     OW 2134   2.221   4.808   2.931
  412SOL    HW1 2135   2.268   4.759   2.857
  412SOL    HW2 2136   2.248   4.904   2.929
  413SOL     OW 2137   3.780   5.058   2.372
  413SOL    HW1 2138   3.708   5.121   2.344
  413SOL    HW2 2139   3.744   4.995   2.441
  414SOL     OW 2140   2.563   6.909   3.631
  414SOL    HW1 2141   2.540   6.926   3.535
  414SOL    HW2 2142   2.627   6.980   3.663
  415SOL     OW 2143   6.583   1.478   0.623
  415SOL    HW1 2144   6.553   1.536   0.699
  415SOL    HW2 2145   6.661   1.520   0.577
  416SOL     OW 2146   4.924   4.015   5.022
  416SOL    HW1 2147   4.876   4.031   4.936
  416SOL    HW2 2148   4.912   3.919   5.049
  417SOL     OW 2149   2.741   2.258   6.852
  417SOL    HW1 2150   2.665   2.315   6.885
  417SOL    HW2 2151   2.789   2.218   6.930
  418SOL     OW 2152   3.605   0.014   4.240
  418SOL    HW1 2153   3.658   6.990   4.311
  418SOL    HW2 2154   3.552   6.970   4.189
  419SOL     OW 2155   0.489   0.012   1.436
  419SOL    HW1 2156   0.493   6.935   1.439
  419SOL    HW2 2157   0.485   0.048   1.529
  420SOL     OW 2158   5.617   0.562   6.782
  420SOL    HW1 2159   5.682   0.494   6.815
  420SOL    HW2 2160   5.617   0.563   6.682
  421SOL     OW 2161   5.022   4.219   4.618
  421SOL    HW1 2162   5.004   4.300   4.561
  421SOL    HW2 2163   5.095   4.240   4.683
  422SOL     OW 2164   4.939   2.047   1.321
  422SOL    HW1 2165   5.025   2.000   1.340
  422SOL    HW2 2166   4.913   2.103   1.399
  423SOL     OW 2167   2.869   1.142   5.785
  423SOL    HW1 2168   2.917   1.229   5.793
  423SOL    HW2 2169   2.929   1.074   5.742
  424SOL     OW 2170   1.374   4.277   3.099
  424SOL    HW1 2171   1.409   4.348   3.161
  424SOL    HW2 2172   1.347   4.197   3.153
  425SOL     OW 2173   4.220   0.392   5.260
  425SOL    HW1 2174   4.295   0.331   5.235
  425SOL    HW2 2175   4.243   0.486   5.235
  426SOL     OW 2176   2.760   1.988   4.947
  426SOL    HW1 2177   2.760   1.980   5.047
  426SOL    HW2 2178   2.829   2.055   4.919
  427SOL     OW 2179   4.453   1.474   3.241
  427SOL    HW1 2180   4.361   1.447   3.213
  427SOL    HW2 2181   4.513   1.476   3.160
  428SOL     OW 2182   3.090   0.929   5.264
  428SOL    HW1 2183   3.132   1.004   5.213
  428SOL    HW2 2184   2.996   0.916   5.233
  429SOL     OW 2185   1.664   6.220   3.491
  429SOL    HW1 2186   1.610   6.179   3.565
  429SOL    HW2 2187   1.605   6.237   3.412
  430SOL     OW 2188   1.792   6.978   4.089
  430SOL    HW1 2189   1.733   0.001   4.023
  430SOL    HW2 2190   1.884   7.019   4.085
  431SOL     OW 2191   2.684   2.273   1.127
  431SOL    HW1 2192   2.710   2.367   1.104
  431SOL    HW2 2193   2.691   2.260   1.226
  432SOL     OW 2194   4.412   1.810   1.424
  432SOL    HW1 2195   4.430   1.877   1.351
  432SOL    HW2 2196   4.398   1.859   1.511
  433SOL     OW 2197   2.606   6.707   6.862
  433SOL    HW1 2198   2.676   6.705   6.790
  433SOL    HW2 2199   2.644   6.750   6.944
  434SOL     OW 2200   4.229   6.595   3.980
  434SOL    HW1 2201   4.191   6.503   3.983
  434SOL    HW2 2202   4.264   6.620   4.070
  435SOL     OW 2203   3.769   1.842   6.137
  435SOL    HW1 2204   3.730   1.934   6.146
  435SOL    HW2 2205   3.710   1.786   6.079
  436SOL     OW 2206   3.974   6.240   3.720
  436SOL    HW1 2207   3.974   6.249   3.620
  436SOL    HW2 2208   3.893   6.285   3.758
  437SOL     OW 2209   0.227   0.518   4.160
  437SOL    HW1 2210   0.228   0.542   4.063
  437SOL    HW2 2211   0.224   0.602   4.215
  438SOL     OW 2212   0.960   4.905   2.704
  438SOL    HW1 2213   0.986   4.908   2.800
  438SOL    HW2 2214   0.896   4.829   2.689
  439SOL     OW 2215   5.657   0.484   3.091
  439SOL    HW1 2216   5.630   0.545   3.167
  439SOL    HW2 2217   5.686   0.396   3.128
  440SOL     OW 2218   4.555   0.637   6.941
  440SOL    HW1 2219   4.539   0.725   6.986
  440SOL    HW2 2220   4.570   0.652   6.843
  441SOL     OW 2221   6.946   4.365   2.995
  441SOL    HW1 2222   7.013   4.358   2.921
  441SOL    HW2 2223   6.948   4.280   3.049
  442SOL     OW 2224   5.472   3.733   5.845
  442SOL    HW1 2225   5.424   3.651   5.877
  442SOL    HW2 2226   5.408   3.808   5.837
  443SOL     OW 2227   4.995   4.296   3.274
  443SOL    HW1 2228   4.933   4.226   3.312
  443SOL    HW2 2229   5.040   4.345   3.349
  444SOL     OW 2230   3.691   1.316   1.115
  444SOL    HW1 2231   3.646   1.248   1.058
  444SOL    HW2 2232   3.752   1.372   1.058
  445SOL     OW 2233   1.848   5.442   2.475
  445SOL    HW1 2234   1.873   5.539   2.479
  445SOL    HW2 2235   1.929   5.387   2.454
  446SOL     OW 2236   5.826   6.135   2.849
  446SOL    HW1 2237   5.853   6.208   2.787
  446SOL    HW2 2238   5.895   6.063   2.848
  447SOL     OW 2239   6.099   3.976   6.875
  447SOL    HW1 2240   6.137   4.057   6.830
  447SOL    HW2 2241   6.132   3.893   6.829
  448SOL     OW 2242   3.316   1.011   2.574
  448SOL    HW1 2243   3.252   1.087   2.563
  448SOL    HW2 2244   3.268   0.935   2.619
  449SOL     OW 2245   1.763   2.651   4.045
  449SOL    HW1 2246   1.710   2.615   3.968
  449SOL    HW2 2247   1.705   2.709   4.102
  450SOL     OW 2248   1.162   4.262   2.955
  450SOL    HW1 2249   1.105   4.274   3.037
  450SOL    HW2 2250   1.256   4.289   2.976
  451SOL     OW 2251   0.788   2.073   3.433
  451SOL    HW1 2252   0.829   2.103   3.346
  451SOL    HW2 2253   0.859   2.033   3.491
  452SOL     OW 2254   3.963   6.285   3.456
  452SOL    HW1 2255   4.051   6.325   3.432
  452SOL    HW2 2256   3.935   6.220   3.385
  453SOL     OW 2257   4.111   6.628   0.290
  453SOL    HW1 2258   4.147   6.704   0.344
  453SOL    HW2 2259   4.015   6.613   0.315
  454SOL     OW 2260   6.796   4.813   6.604
  454SOL    HW1 2261   6.886   4.810   6.647
  454SOL    HW2 2262   6.785   4.901   6.556
  455SOL     OW 2263   6.560   4.663   5.603
  455SOL    HW1 2264   6.641   4.658   5.661
  455SOL    HW2 2265   6.478   4.648   5.659
  456SOL     OW 2266   2.671   1.151   2.673
  456SOL    HW1 2267   2.600   1.128   2.608
  456SOL    HW2 2268   2.653   1.242   2.712
  457SOL     OW 2269   2.350   6.309   5.952
  457SOL    HW1 2270   2.432   6.296   5.896
  457SOL    HW2 2271   2.377   6.310   6.049
  458SOL     OW 2272   1.910   1.495   3.137
  458SOL    HW1 2273   1.932   1.400   3.114
  458SOL    HW2 2274   1.911   1.506   3.237
  459SOL     OW 2275   2.246   6.891   4.816
  459SOL    HW1 2276   2.339   6.871   4.848
  459SOL    HW2 2277   2.196   6.940   4.887
  460SOL     OW 2278   1.673   1.891   4.834
  460SOL    HW1 2279   1.661   1.869   4.930
  460SOL    HW2 2280   1.625   1.977   4.813
  461SOL     OW 2281   0.786   4.933   5.807
  461SOL    HW1 2282   0.815   4.968   5.896
  461SOL    HW2 2283   0.864   4.932   5.745
  462SOL     OW 2284   3.207   3.667   4.678
  462SOL    HW1 2285   3.240   3.699   4.589
  462SOL    HW2 2286   3.179   3.571   4.670
  463SOL     OW 2287   6.240   6.508   2.450
  463SOL    HW1 2288   6.175   6.510   2.375
  463SOL    HW2 2289   6.331   6.487   2.415
  464SOL     OW 2290   3.438   6.362   6.492
  464SOL    HW1 2291   3.368   6.325   6.431
  464SOL    HW2 2292   3.516   6.301   6.496
  465SOL     OW 2293   1.235   2.309   0.643
  465SOL    HW1 2294   1.275   2.393   0.608
  465SOL    HW2 2295   1.206   2.252   0.566
  466SOL     OW 2296   3.340   6.223   4.738
  466SOL    HW1 2297   3.376   6.284   4.666
  466SOL    HW2 2298   3.328   6.131   4.700
  467SOL     OW 2299   6.411   0.980   2.656
  467SOL    HW1 2300   6.489   1.031   2.694
  467SOL    HW2 2301   6.326   1.027   2.681
  468SOL     OW 2302   4.037   0.557   6.479
  468SOL    HW1 2303   4.088   0.475   6.454
  468SOL    HW2 2304   3.960   0.569   6.416
  469SOL     OW 2305   2.620   4.611   6.121
  469SOL    HW1 2306   2.565   4.687   6.154
  469SOL    HW2 2307   2.561   4.541   6.081
  470SOL     OW 2308   2.628   5.098   3.207
  470SOL    HW1 2309   2.687   5.025   3.241
  470SOL    HW2 2310   2.575   5.136   3.283
  471SOL     OW 2311   2.918   2.220   4.002
  471SOL    HW1 2312   2.969   2.159   3.942
  471SOL    HW2 2313   2.888   2.300   3.950
  472SOL     OW 2314   6.412   4.314   5.911
  472SOL    HW1 2315   6.406   4.237   5.974
  472SOL    HW2 2316   6.335   4.376   5.926
  473SOL     OW 2317   0.150   2.191   2.667
  473SOL    HW1 2318   0.130   2.180   2.570
  473SOL    HW2 2319   0.067   2.175   2.721
  474SOL     OW 2320   6.388   6.303   4.435
  474SOL    HW1 2321   6.335   6.382   4.465
  474SOL    HW2 2322   6.328   6.237   4.390
  475SOL     OW 2323   5.990   1.428   0.926
  475SOL    HW1 2324   6.002   1.521   0.961
  475SOL    HW2 2325   5.900   1.394   0.952
  476SOL     OW 2326   0.963   3.940   1.678
  476SOL    HW1 2327   1.012   3.922   1.593
  476SOL    HW2 2328   1.029   3.951   1.753
  477SOL     OW 2329   1.564   4.665   3.801
  477SOL    HW1 2330   1.529   4.740   3.744
  477SOL    HW2 2331   1.493   4.597   3.816
  478SOL     OW 2332   4.612   5.652   2.702
  478SOL    HW1 2333   4.558   5.735   2.716
  478SOL    HW2 2334   4.594   5.587   2.776
  479SOL     OW 2335   3.958   3.655   3.758
  479SOL    HW1 2336   3.989   3.731   3.815
  479SOL    HW2 2337   4.029   3.585   3.756
  480SOL     OW 2338   1.302   0.006   2.896
  480SOL    HW1 2339   1.384   0.008   2.839
  480SOL    HW2 2340   1.328   7.022   2.992
  481SOL     OW 2341   0.718   6.581   0.670
  481SOL    HW1 2342   0.691   6.598   0.765
  481SOL    HW2 2343   0.757   6.490   0.662
  482SOL     OW 2344   5.299   4.388   2.316
  482SOL    HW1 2345   5.219   4.401   2.257
  482SOL    HW2 2346   5.289   4.444   2.398
  483SOL     OW 2347   6.174   2.344   3.469
  483SOL    HW1 2348   6.220   2.279   3.409
  483SOL    HW2 2349   6.236   2.372   3.542
  484SOL     OW 2350   2.255   4.038   4.282
  484SOL    HW1 2351   2.289   4.094   4.206
  484SOL    HW2 2352   2.263   3.941   4.258
  485SOL     OW 2353   5.133   2.842   2.802
  485SOL    HW1 2354   5.067   2.881   2.738
  485SOL    HW2 2355   5.132   2.742   2.794
  486SOL     OW 2356   6.681   6.134   5.610
  486SOL    HW1 2357   6.680   6.044   5.652
  486SOL    HW2 2358   6.596   6.183   5.632
  487SOL     OW 2359   0.409   6.443   4.208
  487SOL    HW1 2360   0.410   6.373   4.137
  487SOL    HW2 2361   0.404   6.400   4.298
  488SOL     OW 2362   1.858   6.602   3.301
  488SOL    HW1 2363   1.764   6.618   3.273
  488SOL    HW2 2364   1.873   6.504   3.314
  489SOL     OW 2365   0.174   5.652   5.464
  489SOL    HW1 2366   0.263   5.613   5.486
  489SOL    HW2 2367   0.103   5.608   5.519
  490SOL     OW 2368   1.558   4.790   5.725
  490SOL    HW1 2369   1.561   4.888   5.704
  490SOL    HW2 2370   1.485   4.747   5.672
  491SOL     OW 2371   0.138   2.516   0.946
  491SOL    HW1 2372   0.064   2.452   0.928
  491SOL    HW2 2373   0.191   2.531   0.863
  492SOL     OW 2374   1.731   1.673   5.650
  492SOL    HW1 2375   1.632   1.660   5.657
  492SOL    HW2 2376   1.777   1.615   5.717
  493SOL     OW 2377   2.429   6.525   4.697
  493SOL    HW1 2378   2.432   6.433   4.736
  493SOL    HW2 2379   2.492   6.585   4.746
  494SOL     OW 2380   2.085   0.213   4.899
  494SOL    HW1 2381   2.010   0.225   4.963
  494SOL    HW2 2382   2.172   0.214   4.949
  495SOL     OW 2383   4.203   6.220   5.379
  495SOL    HW1 2384   4.224   6.210   5.281
  495SOL    HW2 2385   4.268   6.282   5.421
  496SOL     OW 2386   5.263   2.053   2.724
  496SOL    HW1 2387   5.201   2.115   2.771
  496SOL    HW2 2388   5.353   2.057   2.768
  497SOL     OW 2389   3.049   1.193   6.538
  497SOL    HW1 2390   2.976   1.134   6.503
  497SOL    HW2 2391   3.012   1.282   6.564
  498SOL     OW 2392   0.783   6.001   1.776
  498SOL    HW1 2393   0.696   6.011   1.728
  498SOL    HW2 2394   0.775   5.932   1.847
  499SOL     OW 2395   3.766   5.595   6.941
  499SOL    HW1 2396   3.713   5.511   6.948
  499SOL    HW2 2397   3.719   5.669   6.988
  500SOL     OW 2398   5.615   2.008   0.049
  500SOL    HW1 2399   5.573   2.095   0.024
  500SOL    HW2 2400   5.630   1.953   6.989
  501SOL     OW 2401   0.974   7.011   3.118
  501SOL    HW1 2402   0.890   6.977   3.161
  501SOL    HW2 2403   1.023   0.046   3.183
  502SOL     OW 2404   1.869   4.941   6.819
  502SOL    HW1 2405   1.895   4.921   6.725
  502SOL    HW2 2406   1.926   4.887   6.881
  503SOL     OW 2407   3.753   5.174   0.032
  503SOL    HW1 2408   3.724   5.255   7.004
  503SOL    HW2 2409   3.701   5.167   0.117
  504SOL     OW 2410   6.043   6.155   2.245
  504SOL    HW1 2411   6.123   6.127   2.192
  504SOL    HW2 2412   6.048   6.253   2.263
  505SOL     OW 2413   5.076   6.583   5.249
  505SOL    HW1 2414   5.133   6.627   5.318
  505SOL    HW2 2415   4.981   6.612   5.261
  506SOL     OW 2416   3.247   5.789   2.985
  506SOL    HW1 2417   3.153   5.807   3.015
  506SOL    HW2 2418   3.295   5.876   2.970
  507SOL     OW 2419   3.567   0.958   1.454
  507SOL    HW1 2420   3.587   0.873   1.407
  507SOL    HW2 2421   3.556   1.032   1.387
  508SOL     OW 2422   0.703   4.541   4.525
  508SOL    HW1 2423   0.687   4.496   4.612
  508SOL    HW2 2424   0.729   4.636   4.540
  509SOL     OW 2425   4.482   0.514   6.379
  509SOL    HW1 2426   4.412   0.572   6.422
  509SOL    HW2 2427   4.462   0.418   6.398
  510SOL     OW 2428   6.448   4.193   6.334
  510SOL    HW1 2429   6.358   4.195   6.291
  510SOL    HW2 2430   6.508   4.261   6.292
  511SOL     OW 2431   1.106   1.657   0.293
  511SOL    HW1 2432   1.085   1.580   0.232
  511SOL    HW2 2433   1.111   1.624   0.387
  512SOL     OW 2434   6.253   1.950   6.888
  512SOL    HW1 2435   6.190   1.937   6.812
  512SOL    HW2 2436   6.249   2.045   6.919
  513SOL     OW 2437   5.571   0.597   2.841
  513SOL    HW1 2438   5.627   0.567   2.764
  513SOL    HW2 2439   5.610   0.562   2.926
  514SOL     OW 2440   6.826   7.011   4.219
  514SOL    HW1 2441   6.869   6.980   4.303
  514SOL    HW2 2442   6.727   7.019   4.233
  515SOL     OW 2443   3.679   6.694   6.743
  515SOL    HW1 2444   3.677   6.667   6.646
  515SOL    HW2 2445   3.679   6.794   6.749
  516SOL     OW 2446   2.443   5.072   1.400
  516SOL    HW1 2447   2.413   5.124   1.480
  516SOL    HW2 2448   2.538   5.044   1.412
  517SOL     OW 2449   2.834   5.051   2.289
  517SOL    HW1 2450   2.899   4.977   2.307
  517SOL    HW2 2451   2.766   5.054   2.362
  518SOL     OW 2452   2.058   2.563   3.879
  518SOL    HW1 2453   2.084   2.471   3.850
  518SOL    HW2 2454   2.061   2.570   3.978
  519SOL     OW 2455   0.403   6.362   3.339
  519SOL    HW1 2456   0.362   6.325   3.256
  519SOL    HW2 2457   0.435   6.455   3.321
  520SOL     OW 2458   1.232   2.824   0.139
  520SOL    HW1 2459   1.247   2.865   0.049
  520SOL    HW2 2460   1.233   2.895   0.210
  521SOL     OW 2461   4.891   4.971   4.785
  521SOL    HW1 2462   4.945   5.030   4.844
  521SOL    HW2 2463   4.810   4.939   4.834
  522SOL     OW 2464   4.122   3.937   1.068
  522SOL    HW1 2465   4.142   3.902   0.976
  522SOL    HW2 2466   4.183   4.014   1.088
  523SOL     OW 2467   0.006   6.564   1.731
  523SOL    HW1 2468   0.000   6.466   1.713
  523SOL    HW2 2469   7.021   6.581   1.829
  524SOL     OW 2470   6.975   2.543   2.355
  524SOL    HW1 2471   6.943   2.636   2.336
  524SOL    HW2 2472   6.960   2.486   2.275
  525SOL     OW 2473   1.184   3.493   6.885
  525SOL    HW1 2474   1.180   3.504   6.786
  525SOL    HW2 2475   1.182   3.583   6.929
  526SOL     OW 2476   3.153   0.103   4.618
  526SOL    HW1 2477   3.172   0.182   4.677
  526SOL    HW2 2478   3.067   0.118   4.569
  527SOL     OW 2479   1.324   2.306   6.490
  527SOL    HW1 2480   1.236   2.273   6.457
  527SOL    HW2 2481   1.397   2.267   6.435
  528SOL     OW 2482   6.988   3.069   4.197
  528SOL    HW1 2483   0.003   3.153   4.158
  528SOL    HW2 2484   0.009   3.051   4.285
  529SOL     OW 2485   2.420   0.130   5.366
  529SOL    HW1 2486   2.397   0.147   5.270
  529SOL    HW2 2487   2.345   0.162   5.424
  530SOL     OW 2488   3.552   3.408   1.694
  530SOL    HW1 2489   3.469   3.440   1.739
  530SOL    HW2 2490   3.578   3.319   1.731
  531SOL     OW 2491   2.492   0.809   2.268
  531SOL    HW1 2492   2.567   0.764   2.315
  531SOL    HW2 2493   2.435   0.857   2.334
  532SOL     OW 2494   2.912   3.040   0.094
  532SOL    HW1 2495   2.886   2.944   0.088
  532SOL    HW2 2496   3.005   3.051   0.059
  533SOL     OW 2497   3.876   0.357   3.842
  533SOL    HW1 2498   3.826   0.377   3.926
  533SOL    HW2 2499   3.951   0.293   3.861
  534SOL     OW 2500   0.683   5.676   1.179
  534SOL    HW1 2501   0.647   5.662   1.087
  534SOL    HW2 2502   0.626   5.626   1.245
  535SOL     OW 2503   5.172   4.066   3.446
  535SOL    HW1 2504   5.158   4.052   3.348
  535SOL    HW2 2505   5.130   4.152   3.475
  536SOL     OW 2506   6.843   6.204   3.170
  536SOL    HW1 2507   6.845   6.106   3.190
  536SOL    HW2 2508   6.828   6.256   3.254
  537SOL     OW 2509   3.187   0.251   3.908
  537SOL    HW1 2510   3.229   0.327   3.957
  537SOL    HW2 2511   3.194   0.168   3.964
  538SOL     OW 2512   2.291   5.135   5.556
  538SOL    HW1 2513   2.355   5.132   5.480
  538SOL    HW2 2514   2.203   5.096   5.528
  539SOL     OW 2515   1.103   5.999   0.547
  539SOL    HW1 2516   1.076   5.909   0.512
  539SOL    HW2 2517   1.089   6.068   0.476
  540SOL     OW 2518   1.409   0.539   3.480
  540SOL    HW1 2519   1.493   0.585   3.451
  540SOL    HW2 2520   1.426   0.491   3.566
  541SOL     OW 2521   4.005   6.546   4.343
  541SOL    HW1 2522   3.949   6.505   4.272
  541SOL    HW2 2523   4.074   6.606   4.301
  542SOL     OW 2524   3.167   6.199   6.900
  542SOL    HW1 2525   3.126   6.290   6.890
  542SOL    HW2 2526   3.198   6.186   6.994
  543SOL     OW 2527   6.191   2.773   3.995
  543SOL    HW1 2528   6.099   2.811   4.004
  543SOL    HW2 2529   6.244   2.795   4.077
  544SOL     OW 2530   0.278   4.829   6.927
  544SOL    HW1 2531   0.276   4.917   6.879
  544SOL    HW2 2532   0.202   4.824   6.991
  545SOL     OW 2533   5.190   1.533   1.238
  545SOL    HW1 2534   5.171   1.466   1.311
  545SOL    HW2 2535   5.239   1.487   1.164
  546SOL     OW 2536   0.434   4.272   2.373
  546SOL    HW1 2537   0.381   4.342   2.421
  546SOL    HW2 2538   0.387   4.248   2.288
  547SOL     OW 2539   3.511   1.200   0.143
  547SOL    HW1 2540   3.423   1.195   0.189
  547SOL    HW2 2541   3.578   1.144   0.192
  548SOL     OW 2542   3.981   2.937   6.916
  548SOL    HW1 2543   3.913   2.877   6.958
  548SOL    HW2 2544   4.058   2.882   6.881
  549SOL     OW 2545   6.143   2.327   0.642
  549SOL    HW1 2546   6.228   2.278   0.658
  549SOL    HW2 2547   6.094   2.285   0.565
  550SOL     OW 2548   7.005   4.588   3.134
  550SOL    HW1 2549   7.009   4.501   3.084
  550SOL    HW2 2550   6.959   4.656   3.079
  551SOL     OW 2551   0.064   1.082   0.270
  551SOL    HW1 2552   0.040   1.020   0.195
  551SOL    HW2 2553   0.096   1.029   0.349
  552SOL     OW 2554   5.695   5.642   5.643
  552SOL    HW1 2555   5.633   5.572   5.680
  552SOL    HW2 2556   5.646   5.729   5.635
  553SOL     OW 2557   3.292   1.193   5.755
  553SOL    HW1 2558   3.234   1.253   5.699
  553SOL    HW2 2559   3.323   1.116   5.699
  554SOL     OW 2560   5.523   5.833   0.867
  554SOL    HW1 2561   5.455   5.904   0.848
  554SOL    HW2 2562   5.477   5.746   0.883
  555SOL     OW 2563   2.544   5.618   5.530
  555SOL    HW1 2564   2.502   5.569   5.607
  555SOL    HW2 2565   2.603   5.556   5.479
  556SOL     OW 2566   4.854   1.980   3.694
  556SOL    HW1 2567   4.938   2.032   3.683
  556SOL    HW2 2568   4.863   1.919   3.773
  557SOL     OW 2569   0.056   5.057   5.727
  557SOL    HW1 2570   0.021   5.019   5.813
  557SOL    HW2 2571   0.038   4.992   5.653
  558SOL     OW 2572   3.753   3.659   2.860
  558SOL    HW1 2573   3.831   3.606   2.893
  558SOL    HW2 2574   3.766   3.756   2.883
  559SOL     OW 2575   6.424   6.280   5.754
  559SOL    HW1 2576   6.336   6.260   5.713
  559SOL    HW2 2577   6.426   6.244   5.848
  560SOL     OW 2578   6.785   2.802   3.160
  560SOL    HW1 2579   6.845   2.868   3.115
  560SOL    HW2 2580   6.747   2.739   3.092
  561SOL     OW 2581   0.357   3.385   6.261
  561SOL    HW1 2582   0.451   3.405   6.291
  561SOL    HW2 2583   0.296   3.455   6.299
  562SOL     OW 2584   4.731   6.449   5.995
  562SOL    HW1 2585   4.685   6.362   6.017
  562SOL    HW2 2586   4.731   6.508   6.075
  563SOL     OW 2587   1.896   1.902   4.532
  563SOL    HW1 2588   1.967   1.928   4.597
  563SOL    HW2 2589   1.937   1.864   4.450
  564SOL     OW 2590   0.408   1.196   5.973
  564SOL    HW1 2591   0.385   1.283   5.930
  564SOL    HW2 2592   0.504   1.197   6.002
  565SOL     OW 2593   3.332   2.962   3.854
  565SOL    HW1 2594   3.344   3.038   3.790
  565SOL    HW2 2595   3.380   2.983   3.939
  566SOL     OW 2596   3.492   5.307   2.878
  566SOL    HW1 2597   3.575   5.269   2.919
  566SOL    HW2 2598   3.479   5.401   2.911
  567SOL     OW 2599   2.571   2.733   0.028
  567SOL    HW1 2600   2.542   2.700   6.961
  567SOL    HW2 2601   2.500   2.713   0.096
  568SOL     OW 2602   5.513   6.763   0.472
  568SOL    HW1 2603   5.604   6.803   0.464
  568SOL    HW2 2604   5.517   6.682   0.531
  569SOL     OW 2605   0.276   2.004   6.844
  569SOL    HW1 2606   0.353   2.066   6.858
  569SOL    HW2 2607   0.281   1.929   6.910
  570SOL     OW 2608   2.843   0.649   6.189
  570SOL    HW1 2609   2.792   0.566   6.210
  570SOL    HW2 2610   2.906   0.630   6.113
  571SOL     OW 2611   2.704   4.863   2.916
  571SOL    HW1 2612   2.771   4.932   2.944
  571SOL    HW2 2613   2.703   4.856   2.816
  572SOL     OW 2614   1.722   6.165   4.630
  572SOL    HW1 2615   1.753   6.148   4.537
  572SOL    HW2 2616   1.785   6.229   4.675
  573SOL     OW 2617   6.462   2.096   5.661
  573SOL    HW1 2618   6.399   2.118   5.586
  573SOL    HW2 2619   6.423   2.126   5.747
  574SOL     OW 2620   3.161   1.822   5.207
  574SOL    HW1 2621   3.067   1.840   5.236
  574SOL    HW2 2622   3.181   1.875   5.124
  575SOL     OW 2623   3.406   3.440   0.303
  575SOL    HW1 2624   3.499   3.467   0.326
  575SOL    HW2 2625   3.392   3.449   0.204
  576SOL     OW 2626   2.103   2.836   2.805
  576SOL    HW1 2627   2.139   2.852   2.897
  576SOL    HW2 2628   2.130   2.745   2.773
  577SOL     OW 2629   0.770   0.866   2.262
  577SOL    HW1 2630   0.728   0.776   2.270
  577SOL    HW2 2631   0.826   0.870   2.179
  578SOL     OW 2632   1.561   5.617   0.381
  578SOL    HW1 2633   1.644   5.568   0.354
  578SOL    HW2 2634   1.481   5.569   0.344
  579SOL     OW 2635   2.686   4.775   2.668
  579SOL    HW1 2636   2.648   4.857   2.624
  579SOL    HW2 2637   2.777   4.757   2.631
  580SOL     OW 2638   4.067   5.318   5.196
  580SOL    HW1 2639   4.010   5.237   5.205
  580SOL    HW2 2640   4.027   5.380   5.128
  581SOL     OW 2641   0.971   2.837   3.344
  581SOL    HW1 2642   0.941   2.927   3.312
  581SOL    HW2 2643   1.035   2.849   3.420
  582SOL     OW 2644   5.416   5.283   3.384
  582SOL    HW1 2645   5.389   5.344   3.459
  582SOL    HW2 2646   5.339   5.224   3.361
  583SOL     OW 2647   3.095   5.282   5.526
  583SOL    HW1 2648   3.091   5.370   5.572
  583SOL    HW2 2649   3.049   5.289   5.437
  584SOL     OW 2650   3.418   0.145   6.047
  584SOL    HW1 2651   3.421   0.119   6.143
  584SOL    HW2 2652   3.509   0.132   6.007
  585SOL     OW 2653   3.038   6.967   1.706
  585SOL    HW1 2654   2.982   6.910   1.765
  585SOL    HW2 2655   2.991   6.982   1.619
  586SOL     OW 2656   4.295   0.437   1.397
  586SOL    HW1 2657   4.391   0.446   1.370
  586SOL    HW2 2658   4.288   0.430   1.496
  587SOL     OW 2659   5.395   1.883   1.871
  587SOL    HW1 2660   5.443   1.853   1.788
  587SOL    HW2 2661   5.380   1.982   1.867
  588SOL     OW 2662   1.277   5.443   0.988
  588SOL    HW1 2663   1.266   5.346   0.969
  588SOL    HW2 2664   1.187   5.485   0.999
  589SOL     OW 2665   3.329   5.915   1.242
  589SOL    HW1 2666   3.328   5.815   1.240
  589SOL    HW2 2667   3.235   5.949   1.243
  590SOL     OW 2668   5.998   1.976   0.900
  590SOL    HW1 2669   5.902   1.957   0.877
  590SOL    HW2 2670   6.019   2.071   0.876
  591SOL     OW 2671   4.108   5.584   4.591
  591SOL    HW1 2672   4.132   5.610   4.685
  591SOL    HW2 2673   4.189   5.585   4.534
  592SOL     OW 2674   4.979   1.538   3.999
  592SOL    HW1 2675   5.059   1.539   4.059
  592SOL    HW2 2676   4.903   1.494   4.046
  593SOL     OW 2677   4.021   2.143   5.094
  593SOL    HW1 2678   3.922   2.150   5.101
  593SOL    HW2 2679   4.064   2.209   5.156
  594SOL     OW 2680   5.831   2.076   1.394
  594SOL    HW1 2681   5.897   2.060   1.467
  594SOL    HW2 2682   5.876   2.062   1.305
  595SOL     OW 2683   4.946   6.673   3.245
  595SOL    HW1 2684   5.032   6.662   3.295
  595SOL    HW2 2685   4.884   6.731   3.298
  596SOL     OW 2686   0.015   4.605   4.089
  596SOL    HW1 2687   0.079   4.626   4.163
  596SOL    HW2 2688   0.059   4.626   4.001
  597SOL     OW 2689   3.216   6.698   5.811
  597SOL    HW1 2690   3.146   6.740   5.753
  597SOL    HW2 2691   3.242   6.761   5.884
  598SOL     OW 2692   2.934   3.860   4.808
  598SOL    HW1 2693   2.854   3.883   4.863
  598SOL    HW2 2694   2.995   3.939   4.803
  599SOL     OW 2695   1.635   6.164   2.127
  599SOL    HW1 2696   1.668   6.164   2.033
  599SOL    HW2 2697   1.537   6.187   2.128
  600SOL     OW 2698   0.188   3.962   5.431
  600SOL    HW1 2699   0.248   3.961   5.351
  600SOL    HW2 2700   0.191   4.052   5.474
  601SOL     OW 2701   1.242   0.775   4.742
  601SOL    HW1 2702   1.176   0.709   4.779
  601SOL    HW2 2703   1.281   0.739   4.658
  602SOL     OW 2704   3.082   6.756   5.123
  602SOL    HW1 2705   3.011   6.820   5.095
  602SOL    HW2 2706   3.147   6.802   5.184
  603SOL     OW 2707   1.647   1.304   5.219
  603SOL    HW1 2708   1.721   1.370   5.206
  603SOL    HW2 2709   1.591   1.332   5.297
  604SOL     OW 2710   0.012   2.176   1.598
  604SOL    HW1 2711   0.008   2.252   1.663
  604SOL    HW2 2712   6.953   2.179   1.539
  605SOL     OW 2713   0.245   4.481   2.512
  605SOL    HW1 2714   0.307   4.502   2.587
  605SOL    HW2 2715   0.217   4.565   2.467
  606SOL     OW 2716   4.212   6.776   5.356
  606SOL    HW1 2717   4.114   6.771   5.335
  606SOL    HW2 2718   4.264   6.732   5.283
  607SOL     OW 2719   1.491   5.031   6.009
  607SOL    HW1 2720   1.584   5.065   6.000
  607SOL    HW2 2721   1.460   5.042   6.103
  608SOL     OW 2722   3.848   6.762   6.995
  608SOL    HW1 2723   3.801   6.749   0.060
  608SOL    HW2 2724   3.782   6.793   6.926
  609SOL     OW 2725   3.810   2.316   1.626
  609SOL    HW1 2726   3.875   2.392   1.618
  609SOL    HW2 2727   3.782   2.306   1.722
  610SOL     OW 2728   4.499   2.408   0.213
  610SOL    HW1 2729   4.491   2.327   0.154
  610SOL    HW2 2730   4.587   2.407   0.260
  611SOL     OW 2731   4.080   6.641   2.610
  611SOL    HW1 2732   3.996   6.597   2.642
  611SOL    HW2 2733   4.084   6.734   2.646
  612SOL     OW 2734   3.382   4.945   5.645
  612SOL    HW1 2735   3.389   4.967   5.742
  612SOL    HW2 2736   3.421   5.019   5.591
  613SOL     OW 2737   5.880   5.711   4.808
  613SOL    HW1 2738   5.870   5.663   4.721
  613SOL    HW2 2739   5.890   5.644   4.882
  614SOL     OW 2740   4.807   5.130   5.152
  614SOL    HW1 2741   4.749   5.052   5.177
  614SOL    HW2 2742   4.880   5.139   5.220
  615SOL     OW 2743   0.212   4.547   0.881
  615SOL    HW1 2744   0.271   4.614   0.836
  615SOL    HW2 2745   0.260   4.508   0.959
  616SOL     OW 2746   6.618   2.834   3.378
  616SOL    HW1 2747   6.576   2.924   3.381
  616SOL    HW2 2748   6.673   2.825   3.295
  617SOL     OW 2749   2.476   5.672   6.012
  617SOL    HW1 2750   2.544   5.706   6.078
  617SOL    HW2 2751   2.409   5.745   5.994
  618SOL     OW 2752   1.966   1.481   1.730
  618SOL    HW1 2753   2.016   1.496   1.645
  618SOL    HW2 2754   1.877   1.440   1.709
  619SOL     OW 2755   1.728   2.056   6.718
  619SOL    HW1 2756   1.635   2.021   6.711
  619SOL    HW2 2757   1.726   2.151   6.750
  620SOL     OW 2758   4.953   2.581   0.554
  620SOL    HW1 2759   5.007   2.665   0.560
  620SOL    HW2 2760   4.857   2.601   0.576
  621SOL     OW 2761   6.148   5.319   7.005
  621SOL    HW1 2762   6.079   5.260   6.963
  621SOL    HW2 2763   6.113   5.413   7.011
  622SOL     OW 2764   1.812   1.559   6.942
  622SOL    HW1 2765   1.869   1.542   6.862
  622SOL    HW2 2766   1.763   1.476   6.966
  623SOL     OW 2767   0.686   5.315   6.043
  623SOL    HW1 2768   0.671   5.390   5.978
  623SOL    HW2 2769   0.598   5.278   6.072
  624SOL     OW 2770   0.480   2.546   2.817
  624SOL    HW1 2771   0.413   2.606   2.861
  624SOL    HW2 2772   0.448   2.451   2.822
  625SOL     OW 2773   2.909   1.673   2.096
  625SOL    HW1 2774   2.883   1.578   2.117
  625SOL    HW2 2775   2.966   1.674   2.015
  626SOL     OW 2776   2.083   5.958   3.457
  626SOL    HW1 2777   1.985   5.946   3.443
  626SOL    HW2 2778   2.119   6.024   3.392
  627SOL     OW 2779   5.502   0.944   0.408
  627SOL    HW1 2780   5.581   0.924   0.349
  627SOL    HW2 2781   5.418   0.927   0.357
  628SOL     OW 2782   4.963   5.384   4.791
  628SOL    HW1 2783   4.917   5.444   4.856
  628SOL    HW2 2784   4.964   5.290   4.827
  629SOL     OW 2785   0.534   0.250   1.299
  629SOL    HW1 2786   0.538   0.165   1.353
  629SOL    HW2 2787   0.556   0.230   1.204
  630SOL     OW 2788   4.719   1.793   1.956
  630SOL    HW1 2789   4.707   1.764   2.051
  630SOL    HW2 2790   4.814   1.777   1.928
  631SOL     OW 2791   2.860   0.321   5.243
  631SOL    HW1 2792   2.864   0.311   5.143
  631SOL    HW2 2793   2.767   0.342   5.271
  632SOL     OW 2794   2.313   1.058   0.426
  632SOL    HW1 2795   2.348   1.151   0.434
  632SOL    HW2 2796   2.235   1.046   0.488
  633SOL     OW 2797   3.206   5.397   0.630
  633SOL    HW1 2798   3.234   5.412   0.725
  633SOL    HW2 2799   3.273   5.339   0.584
  634SOL     OW 2800   4.339   4.800   1.702
  634SOL    HW1 2801   4.434   4.770   1.711
  634SOL    HW2 2802   4.278   4.730   1.740
  635SOL     OW 2803   3.513   0.160   3.334
  635SOL    HW1 2804   3.481   0.245   3.375
  635SOL    HW2 2805   3.445   0.088   3.350
  636SOL     OW 2806   5.021   5.198   6.517
  636SOL    HW1 2807   4.958   5.190   6.594
  636SOL    HW2 2808   4.978   5.253   6.445
  637SOL     OW 2809   5.065   4.861   1.758
  637SOL    HW1 2810   4.966   4.860   1.769
  637SOL    HW2 2811   5.090   4.805   1.679
  638SOL     OW 2812   5.118   1.209   1.831
  638SOL    HW1 2813   5.199   1.170   1.787
  638SOL    HW2 2814   5.142   1.243   1.922
  639SOL     OW 2815   4.875   4.580   1.884
  639SOL    HW1 2816   4.795   4.541   1.931
  639SOL    HW2 2817   4.899   4.668   1.925
  640SOL     OW 2818   2.315   4.181   6.162
  640SOL    HW1 2819   2.286   4.093   6.201
  640SOL    HW2 2820   2.278   4.190   6.070
  641SOL     OW 2821   0.708   5.158   4.686
  641SOL    HW1 2822   0.766   5.232   4.719
  641SOL    HW2 2823   0.614   5.191   4.675
  642SOL     OW 2824   0.458   4.469   5.132
  642SOL    HW1 2825   0.537   4.526   5.112
  642SOL    HW2 2826   0.377   4.526   5.142
  643SOL     OW 2827   6.665   6.157   4.858
  643SOL    HW1 2828   6.585   6.212   4.834
  643SOL    HW2 2829   6.682   6.163   4.957
  644SOL     OW 2830   1.040   6.354   3.201
  644SOL    HW1 2831   1.087   6.369   3.114
  644SOL    HW2 2832   1.102   6.376   3.276
  645SOL     OW 2833   4.261   2.336   4.468
  645SOL    HW1 2834   4.202   2.339   4.387
  645SOL    HW2 2835   4.216   2.282   4.539
  646SOL     OW 2836   1.641   1.489   3.666
  646SOL    HW1 2837   1.654   1.524   3.759
  646SOL    HW2 2838   1.721   1.435   3.639
  647SOL     OW 2839   6.254   3.192   6.955
  647SOL    HW1 2840   6.315   3.112   6.949
  647SOL    HW2 2841   6.179   3.181   6.889
  648SOL     OW 2842   5.913   3.658   2.379
  648SOL    HW1 2843   5.870   3.619   2.460
  648SOL    HW2 2844   5.990   3.715   2.406
  649SOL     OW 2845   3.552   4.344   0.692
  649SOL    HW1 2846   3.586   4.353   0.786
  649SOL    HW2 2847   3.465   4.394   0.684
  650SOL     OW 2848   4.812   4.546   0.660
  650SOL    HW1 2849   4.743   4.483   0.625
  650SOL    HW2 2850   4.819   4.624   0.598
  651SOL     OW 2851   0.259   6.256   0.996
  651SOL    HW1 2852   0.215   6.167   1.002
  651SOL    HW2 2853   0.339   6.249   0.937
  652SOL     OW 2854   4.380   6.834   2.855
  652SOL    HW1 2855   4.471   6.814   2.820
  652SOL    HW2 2856   4.383   6.917   2.910
  653SOL     OW 2857   3.463   5.176   4.252
  653SOL    HW1 2858   3.513   5.242   4.197
  653SOL    HW2 2859   3.388   5.137   4.199
  654SOL     OW 2860   6.965   5.781   6.177
  654SOL    HW1 2861   6.974   5.716   6.252
  654SOL    HW2 2862   6.907   5.857   6.204
  655SOL     OW 2863   0.545   0.252   1.714
  655SOL    HW1 2864   0.644   0.249   1.703
  655SOL    HW2 2865   0.509   0.336   1.673
  656SOL     OW 2866   2.275   5.950   2.086
  656SOL    HW1 2867   2.202   5.902   2.036
  656SOL    HW2 2868   2.236   5.993   2.167
  657SOL     OW 2869   2.903   1.960   1.097
  657SOL    HW1 2870   2.842   2.005   1.162
  657SOL    HW2 2871   2.879   1.986   1.004
  658SOL     OW 2872   3.235   3.808   6.828
  658SOL    HW1 2873   3.209   3.885   6.771
  658SOL    HW2 2874   3.157   3.745   6.837
  659SOL     OW 2875   2.773   6.569   6.337
  659SOL    HW1 2876   2.800   6.503   6.266
  659SOL    HW2 2877   2.678   6.552   6.363
  660SOL     OW 2878   4.005   5.937   1.952
  660SOL    HW1 2879   3.966   5.901   2.037
  660SOL    HW2 2880   4.010   5.864   1.884
  661SOL     OW 2881   4.779   5.888   3.487
  661SOL    HW1 2882   4.827   5.973   3.463
  661SOL    HW2 2883   4.741   5.847   3.404
  662SOL     OW 2884   3.737   1.073   5.874
  662SOL    HW1 2885   3.763   1.147   5.936
  662SOL    HW2 2886   3.808   1.063   5.804
  663SOL     OW 2887   2.022   4.692   4.673
  663SOL    HW1 2888   1.935   4.730   4.643
  663SOL    HW2 2889   2.084   4.767   4.698
  664SOL     OW 2890   0.494   6.338   6.276
  664SOL    HW1 2891   0.572   6.364   6.332
  664SOL    HW2 2892   0.505   6.374   6.183
  665SOL     OW 2893   4.080   5.258   3.565
  665SOL    HW1 2894   4.016   5.292   3.497
  665SOL    HW2 2895   4.041   5.177   3.610
  666SOL     OW 2896   3.935   0.801   2.068
  666SOL    HW1 2897   3.935   0.811   2.168
  666SOL    HW2 2898   4.023   0.766   2.038
  667SOL     OW 2899   0.855   5.073   1.709
  667SOL    HW1 2900   0.955   5.069   1.714
  667SOL    HW2 2901   0.819   4.980   1.704
  668SOL     OW 2902   5.483   5.085   6.053
  668SOL    HW1 2903   5.425   5.011   6.019
  668SOL    HW2 2904   5.549   5.048   6.119
  669SOL     OW 2905   5.658   1.302   3.161
  669SOL    HW1 2906   5.600   1.354   3.098
  669SOL    HW2 2907   5.601   1.245   3.219
  670SOL     OW 2908   2.098   1.901   3.027
  670SOL    HW1 2909   2.083   1.998   3.046
  670SOL    HW2 2910   2.012   1.859   3.001
  671SOL     OW 2911   2.796   6.494   1.557
  671SOL    HW1 2912   2.863   6.534   1.618
  671SOL    HW2 2913   2.782   6.397   1.580
  672SOL     OW 2914   0.480   5.794   1.817
  672SOL    HW1 2915   0.521   5.707   1.843
  672SOL    HW2 2916   0.460   5.793   1.719
  673SOL     OW 2917   4.851   6.713   0.968
  673SOL    HW1 2918   4.834   6.647   1.040
  673SOL    HW2 2919   4.949   6.714   0.946
  674SOL     OW 2920   7.020   2.028   4.788
  674SOL    HW1 2921   0.005   2.121   4.826
  674SOL    HW2 2922   6.949   1.978   4.837
  675SOL     OW 2923   6.342   2.253   2.063
  675SOL    HW1 2924   6.315   2.279   2.156
  675SOL    HW2 2925   6.318   2.158   2.046
  676SOL     OW 2926   2.629   4.633   4.602
  676SOL    HW1 2927   2.581   4.559   4.649
  676SOL    HW2 2928   2.708   4.661   4.655
  677SOL     OW 2929   5.067   0.814   1.519
  677SOL    HW1 2930   5.114   0.840   1.603
  677SOL    HW2 2931   5.007   0.736   1.537
  678SOL     OW 2932   2.750   4.601   5.367
  678SOL    HW1 2933   2.720   4.695   5.350
  678SOL    HW2 2934   2.810   4.572   5.292
  679SOL     OW 2935   5.319   2.173   4.864
  679SOL    HW1 2936   5.392   2.242   4.866
  679SOL    HW2 2937   5.358   2.084   4.843
  680SOL     OW 2938   4.995   6.498   4.497
  680SOL    HW1 2939   4.901   6.501   4.464
  680SOL    HW2 2940   5.043   6.580   4.469
  681SOL     OW 2941   5.002   5.898   2.800
  681SOL    HW1 2942   5.071   5.968   2.782
  681SOL    HW2 2943   4.912   5.941   2.812
  682SOL     OW 2944   0.217   1.421   2.028
  682SOL    HW1 2945   0.173   1.369   2.101
  682SOL    HW2 2946   0.273   1.494   2.068
  683SOL     OW 2947   4.305   3.067   1.264
  683SOL    HW1 2948   4.236   3.099   1.329
  683SOL    HW2 2949   4.363   3.144   1.237
  684SOL     OW 2950   6.218   0.471   0.019
  684SOL    HW1 2951   6.276   0.461   0.100
  684SOL    HW2 2952   6.148   0.539   0.036
  685SOL     OW 2953   3.394   1.151   3.633
  685SOL    HW1 2954   3.429   1.242   3.610
  685SOL    HW2 2955   3.470   1.086   3.637
  686SOL     OW 2956   4.233   1.089   3.854
  686SOL    HW1 2957   4.279   1.093   3.943
  686SOL    HW2 2958   4.195   1.179   3.833
  687SOL     OW 2959   1.038   1.917   4.533
  687SOL    HW1 2960   0.960   1.970   4.567
  687SOL    HW2 2961   1.043   1.830   4.583
  688SOL     OW 2962   0.081   0.749   5.899
  688SOL    HW1 2963   0.079   0.827   5.962
  688SOL    HW2 2964   0.157   0.689   5.922
  689SOL     OW 2965   1.028   4.803   5.692
  689SOL    HW1 2966   0.983   4.733   5.746
  689SOL    HW2 2967   0.981   4.813   5.604
  690SOL     OW 2968   6.628   3.777   3.132
  690SOL    HW1 2969   6.533   3.806   3.133
  690SOL    HW2 2970   6.633   3.678   3.120
  691SOL     OW 2971   4.433   1.621   0.661
  691SOL    HW1 2972   4.445   1.717   0.633
  691SOL    HW2 2973   4.403   1.567   0.582
  692SOL     OW 2974   3.379   1.798   5.383
  692SOL    HW1 2975   3.295   1.813   5.330
  692SOL    HW2 2976   3.441   1.875   5.370
  693SOL     OW 2977   4.520   6.410   4.110
  693SOL    HW1 2978   4.575   6.328   4.095
  693SOL    HW2 2979   4.535   6.475   4.035
  694SOL     OW 2980   3.773   6.371   4.270
  694SOL    HW1 2981   3.683   6.359   4.227
  694SOL    HW2 2982   3.820   6.283   4.275
  695SOL     OW 2983   3.289   5.769   4.388
  695SOL    HW1 2984   3.348   5.701   4.345
  695SOL    HW2 2985   3.250   5.731   4.472
  696SOL     OW 2986   5.078   4.344   3.535
  696SOL    HW1 2987   5.071   4.321   3.632
  696SOL    HW2 2988   5.072   4.443   3.524
  697SOL     OW 2989   0.888   3.715   1.851
  697SOL    HW1 2990   0.931   3.779   1.787
  697SOL    HW2 2991   0.957   3.678   1.913
  698SOL     OW 2992   4.684   6.704   1.502
  698SOL    HW1 2993   4.610   6.770   1.492
  698SOL    HW2 2994   4.674   6.655   1.589
  699SOL     OW 2995   2.235   3.097   6.391
  699SOL    HW1 2996   2.299   3.154   6.442
  699SOL    HW2 2997   2.265   3.090   6.296
  700SOL     OW 2998   3.591   6.991   2.487
  700SOL    HW1 2999   3.497   7.006   2.516
  700SOL    HW2 3000   3.598   6.903   2.440
  701SOL     OW 3001   6.061   4.778   1.096
  701SOL    HW1 3002   5.966   4.759   1.119
  701SOL    HW2 3003   6.096   4.851   1.154
  702SOL     OW 3004   2.597   0.353   4.326
  702SOL    HW1 3005   2.641   0.271   4.363
  702SOL    HW2 3006   2.503   0.358   4.358
  703SOL     OW 3007   2.981   3.574   5.762
  703SOL    HW1 3008   3.011   3.512   5.690
  703SOL    HW2 3009   3.052   3.579   5.833
  704SOL     OW 3010   1.808   2.853   6.330
  704SOL    HW1 3011   1.851   2.763   6.324
  704SOL    HW2 3012   1.724   2.854   6.276
  705SOL     OW 3013   0.173   6.438   3.849
  705SOL    HW1 3014   0.106   6.398   3.786
  705SOL    HW2 3015   0.265   6.422   3.814
  706SOL     OW 3016   3.959   1.238   5.253
  706SOL    HW1 3017   4.036   1.211   5.197
  706SOL    HW2 3018   3.887   1.276   5.194
  707SOL     OW 3019   4.292   5.548   3.214
  707SOL    HW1 3020   4.237   5.507   3.141
  707SOL    HW2 3021   4.238   5.617   3.262
  708SOL     OW 3022   2.414   1.090   3.671
  708SOL    HW1 3023   2.376   1.022   3.734
  708SOL    HW2 3024   2.498   1.128   3.711
  709SOL     OW 3025   1.827   6.870   1.610
  709SOL    HW1 3026   1.916   6.916   1.614
  709SOL    HW2 3027   1.841   6.772   1.594
  710SOL     OW 3028   5.004   2.498   1.660
  710SOL    HW1 3029   4.916   2.476   1.701
  710SOL    HW2 3030   5.005   2.595   1.633
  711SOL     OW 3031   6.819   2.915   6.324
  711SOL    HW1 3032   6.842   3.004   6.283
  711SOL    HW2 3033   6.882   2.896   6.399
  712SOL     OW 3034   4.675   2.673   1.174
  712SOL    HW1 3035   4.766   2.662   1.214
  712SOL    HW2 3036   4.656   2.771   1.160
  713SOL     OW 3037   4.294   2.641   5.405
  713SOL    HW1 3038   4.241   2.678   5.482
  713SOL    HW2 3039   4.232   2.620   5.329
  714SOL     OW 3040   6.144   5.397   3.944
  714SOL    HW1 3041   6.111   5.489   3.923
  714SOL    HW2 3042   6.177   5.353   3.860
  715SOL     OW 3043   6.371   5.188   5.488
  715SOL    HW1 3044   6.443   5.119   5.489
  715SOL    HW2 3045   6.340   5.202   5.394
  716SOL     OW 3046   2.031   0.855   2.793
  716SOL    HW1 3047   2.039   0.914   2.713
  716SOL    HW2 3048   2.075   0.767   2.775
  717SOL     OW 3049   5.761   4.757   4.633
  717SOL    HW1 3050   5.738   4.661   4.647
  717SOL    HW2 3051   5.856   4.764   4.603
  718SOL     OW 3052   4.739   2.451   4.466
  718SOL    HW1 3053   4.832   2.429   4.497
  718SOL    HW2 3054   4.709   2.537   4.509
  719SOL     OW 3055   6.804   0.297   2.294
  719SOL    HW1 3056   6.748   0.215   2.306
  719SOL    HW2 3057   6.822   0.338   2.383
  720SOL     OW 3058   2.541   0.637   5.747
  720SOL    HW1 3059   2.532   0.558   5.808
  720SOL    HW2 3060   2.604   0.615   5.673
  721SOL     OW 3061   0.610   1.815   2.011
  721SOL    HW1 3062   0.627   1.826   1.913
  721SOL    HW2 3063   0.697   1.824   2.060
  722SOL     OW 3064   4.292   0.689   6.491
  722SOL    HW1 3065   4.277   0.780   6.453
  722SOL    HW2 3066   4.205   0.641   6.500
  723SOL     OW 3067   2.428   5.862   3.641
  723SOL    HW1 3068   2.350   5.886   3.699
  723SOL    HW2 3069   2.406   5.780   3.588
  724SOL     OW 3070   6.903   0.412   3.222
  724SOL    HW1 3071   6.808   0.440   3.236
  724SOL    HW2 3072   6.923   0.331   3.277
  725SOL     OW 3073   2.420   4.523   2.003
  725SOL    HW1 3074   2.409   4.433   2.045
  725SOL    HW2 3075   2.489   4.519   1.931
  726SOL     OW 3076   2.465   5.014   0.721
  726SOL    HW1 3077   2.440   4.989   0.814
  726SOL    HW2 3078   2.563   5.003   0.709
  727SOL     OW 3079   4.470   5.412   6.234
  727SOL    HW1 3080   4.435   5.496   6.275
  727SOL    HW2 3081   4.501   5.351   6.307
  728SOL     OW 3082   0.094   3.085   4.462
  728SOL    HW1 3083   0.137   3.168   4.426
  728SOL    HW2 3084   0.125   3.070   4.555
  729SOL     OW 3085   0.158   3.267   0.885
  729SOL    HW1 3086   0.224   3.193   0.900
  729SOL    HW2 3087   0.207   3.354   0.879
  730SOL     OW 3088   5.282   0.431   2.546
  730SOL    HW1 3089   5.233   0.403   2.628
  730SOL    HW2 3090   5.248   0.520   2.516
  731SOL     OW 3091   4.856   4.473   6.450
  731SOL    HW1 3092   4.940   4.502   6.496
  731SOL    HW2 3093   4.878   4.413   6.373
  732SOL     OW 3094   5.011   2.079   2.351
  732SOL    HW1 3095   4.953   2.018   2.297
  732SOL    HW2 3096   5.101   2.038   2.362
  733SOL     OW 3097   5.867   0.053   4.081
  733SOL    HW1 3098   5.796   0.024   4.017
  733SOL    HW2 3099   5.827   0.107   4.155
  734SOL     OW 3100   6.394   4.214   2.449
  734SOL    HW1 3101   6.488   4.198   2.419
  734SOL    HW2 3102   6.353   4.128   2.478
  735SOL     OW 3103   5.771   0.594   1.474
  735SOL    HW1 3104   5.821   0.617   1.390
  735SOL    HW2 3105   5.674   0.583   1.452
  736SOL     OW 3106   1.317   1.457   4.309
  736SOL    HW1 3107   1.230   1.445   4.357
  736SOL    HW2 3108   1.321   1.393   4.232
  737SOL     OW 3109   5.789   1.884   5.664
  737SOL    HW1 3110   5.703   1.932   5.650
  737SOL    HW2 3111   5.773   1.785   5.663
  738SOL     OW 3112   2.879   4.119   1.059
  738SOL    HW1 3113   2.886   4.090   0.964
  738SOL    HW2 3114   2.956   4.082   1.111
  739SOL     OW 3115   3.511   0.056   5.151
  739SOL    HW1 3116   3.610   0.066   5.147
  739SOL    HW2 3117   3.469   0.113   5.081
  740SOL     OW 3118   5.789   2.548   2.632
  740SOL    HW1 3119   5.816   2.634   2.676
  740SOL    HW2 3120   5.782   2.476   2.702
  741SOL     OW 3121   1.608   0.654   4.803
  741SOL    HW1 3122   1.625   0.727   4.737
  741SOL    HW2 3123   1.572   0.694   4.888
  742SOL     OW 3124   1.733   6.108   1.131
  742SOL    HW1 3125   1.763   6.024   1.176
  742SOL    HW2 3126   1.643   6.094   1.090
  743SOL     OW 3127   0.469   6.167   3.531
  743SOL    HW1 3128   0.430   6.230   3.464
  743SOL    HW2 3129   0.548   6.210   3.575
  744SOL     OW 3130   6.731   1.214   0.818
  744SOL    HW1 3131   6.796   1.271   0.767
  744SOL    HW2 3132   6.771   1.123   0.831
  745SOL     OW 3133   1.958   5.846   5.183
  745SOL    HW1 3134   1.906   5.838   5.098
  745SOL    HW2 3135   2.049   5.806   5.171
  746SOL     OW 3136   5.548   3.969   5.434
  746SOL    HW1 3137   5.448   3.959   5.434
  746SOL    HW2 3138   5.590   3.881   5.459
  747SOL     OW 3139   5.023   5.334   3.659
  747SOL    HW1 3140   4.997   5.319   3.754
  747SOL    HW2 3141   5.092   5.267   3.632
  748SOL     OW 3142   5.343   4.730   2.692
  748SOL    HW1 3143   5.276   4.804   2.685
  748SOL    HW2 3144   5.427   4.758   2.646
  749SOL     OW 3145   4.922   3.512   3.379
  749SOL    HW1 3146   4.882   3.427   3.415
  749SOL    HW2 3147   4.929   3.506   3.280
  750SOL     OW 3148   2.724   0.850   1.297
  750SOL    HW1 3149   2.823   0.847   1.313
  750SOL    HW2 3150   2.697   0.943   1.271
  751SOL     OW 3151   5.120   2.672   0.862
  751SOL    HW1 3152   5.051   2.709   0.925
  751SOL    HW2 3153   5.123   2.728   0.780
  752SOL     OW 3154   3.585   2.260   6.027
  752SOL    HW1 3155   3.631   2.222   6.107
  752SOL    HW2 3156   3.566   2.357   6.042
  753SOL     OW 3157   2.896   3.903   5.209
  753SOL    HW1 3158   2.857   3.818   5.243
  753SOL    HW2 3159   2.944   3.886   5.124
  754SOL     OW 3160   5.812   0.861   6.895
  754SOL    HW1 3161   5.894   0.814   6.929
  754SOL    HW2 3162   5.790   0.827   6.804
  755SOL     OW 3163   3.112   4.440   5.319
  755SOL    HW1 3164   3.187   4.506   5.328
  755SOL    HW2 3165   3.046   4.474   5.252
  756SOL     OW 3166   3.431   5.055   6.854
  756SOL    HW1 3167   3.489   4.986   6.811
  756SOL    HW2 3168   3.411   5.027   6.948
  757SOL     OW 3169   1.892   6.738   2.396
  757SOL    HW1 3170   1.899   6.684   2.312
  757SOL    HW2 3171   1.983   6.765   2.426
  758SOL     OW 3172   3.906   1.290   3.971
  758SOL    HW1 3173   3.980   1.236   4.011
  758SOL    HW2 3174   3.944   1.369   3.924
  759SOL     OW 3175   0.302   2.236   3.264
  759SOL    HW1 3176   0.311   2.222   3.362
  759SOL    HW2 3177   0.271   2.329   3.246
  760SOL     OW 3178   6.538   6.531   3.774
  760SOL    HW1 3179   6.537   6.515   3.675
  760SOL    HW2 3180   6.632   6.523   3.808
  761SOL     OW 3181   5.374   4.156   5.916
  761SOL    HW1 3182   5.327   4.093   5.854
  761SOL    HW2 3183   5.470   4.130   5.924
  762SOL     OW 3184   2.969   6.299   5.734
  762SOL    HW1 3185   2.929   6.243   5.807
  762SOL    HW2 3186   3.002   6.385   5.772
  763SOL     OW 3187   5.247   0.302   6.532
  763SOL    HW1 3188   5.289   0.292   6.623
  763SOL    HW2 3189   5.165   0.358   6.540
  764SOL     OW 3190   5.998   1.376   5.650
  764SOL    HW1 3191   6.031   1.282   5.665
  764SOL    HW2 3192   5.898   1.377   5.653
  765SOL     OW 3193   1.042   6.623   0.822
  765SOL    HW1 3194   0.989   6.691   0.771
  765SOL    HW2 3195   1.104   6.575   0.760
  766SOL     OW 3196   2.413   2.373   5.447
  766SOL    HW1 3197   2.378   2.454   5.398
  766SOL    HW2 3198   2.447   2.306   5.380
  767SOL     OW 3199   6.834   6.551   3.337
  767SOL    HW1 3200   6.842   6.604   3.253
  767SOL    HW2 3201   6.903   6.581   3.403
  768SOL     OW 3202   2.338   5.931   2.813
  768SOL    HW1 3203   2.378   6.020   2.791
  768SOL    HW2 3204   2.363   5.906   2.907
  769SOL     OW 3205   3.607   1.715   5.131
  769SOL    HW1 3206   3.601   1.732   5.032
  769SOL    HW2 3207   3.653   1.791   5.176
  770SOL     OW 3208   1.562   4.926   4.150
  770SOL    HW1 3209   1.609   4.885   4.072
  770SOL    HW2 3210   1.567   5.026   4.142
  771SOL     OW 3211   1.253   5.355   3.520
  771SOL    HW1 3212   1.262   5.299   3.438
  771SOL    HW2 3213   1.210   5.301   3.593
  772SOL     OW 3214   5.632   5.047   6.952
  772SOL    HW1 3215   5.566   5.117   6.978
  772SOL    HW2 3216   5.603   4.958   6.988
  773SOL     OW 3217   1.161   3.283   3.163
  773SOL    HW1 3218   1.250   3.237   3.162
  773SOL    HW2 3219   1.170   3.375   3.124
  774SOL     OW 3220   2.299   1.933   3.516
  774SOL    HW1 3221   2.358   1.854   3.531
  774SOL    HW2 3222   2.219   1.906   3.463
  775SOL     OW 3223   2.219   3.176   4.245
  775SOL    HW1 3224   2.157   3.190   4.168
  775SOL    HW2 3225   2.280   3.100   4.225
  776SOL     OW 3226   0.887   6.886   6.333
  776SOL    HW1 3227   0.985   6.900   6.345
  776SOL    HW2 3228   0.844   6.875   6.422
  777SOL     OW 3229   1.551   3.430   0.518
  777SOL    HW1 3230   1.573   3.376   0.437
  777SOL    HW2 3231   1.566   3.374   0.600
  778SOL     OW 3232   2.932   0.004   1.482
  778SOL    HW1 3233   2.857   0.059   1.446
  778SOL    HW2 3234   2.985   6.989   1.406
  779SOL     OW 3235   0.421   2.449   1.769
  779SOL    HW1 3236   0.517   2.437   1.744
  779SOL    HW2 3237   0.383   2.528   1.721
  780SOL     OW 3238   1.441   2.170   4.553
  780SOL    HW1 3239   1.536   2.146   4.532
  780SOL    HW2 3240   1.381   2.094   4.529
  781SOL     OW 3241   6.943   4.408   7.014
  781SOL    HW1 3242   6.852   4.431   0.026
  781SOL    HW2 3243   6.950   4.435   6.918
  782SOL     OW 3244   2.041   4.180   5.791
  782SOL    HW1 3245   2.100   4.225   5.725
  782SOL    HW2 3246   1.996   4.102   5.747
  783SOL     OW 3247   5.384   5.366   6.232
  783SOL    HW1 3248   5.417   5.335   6.321
  783SOL    HW2 3249   5.310   5.307   6.201
  784SOL     OW 3250   2.441   6.115   1.950
  784SOL    HW1 3251   2.385   6.074   2.022
  784SOL    HW2 3252   2.444   6.053   1.871
  785SOL     OW 3253   0.887   0.326   3.961
  785SOL    HW1 3254   0.852   0.370   4.043
  785SOL    HW2 3255   0.927   0.395   3.901
  786SOL     OW 3256   5.948   0.377   3.333
  786SOL    HW1 3257   5.975   0.466   3.296
  786SOL    HW2 3258   5.849   0.368   3.330
  787SOL     OW 3259   2.525   0.874   0.382
  787SOL    HW1 3260   2.449   0.937   0.398
  787SOL    HW2 3261   2.491   0.780   0.384
  788SOL     OW 3262   3.853   3.046   1.676
  788SOL    HW1 3263   3.834   2.950   1.652
  788SOL    HW2 3264   3.866   3.099   1.592
  789SOL     OW 3265   4.580   5.415   2.073
  789SOL    HW1 3266   4.665   5.381   2.035
  789SOL    HW2 3267   4.597   5.503   2.118
  790SOL     OW 3268   0.856   2.552   1.405
  790SOL    HW1 3269   0.922   2.547   1.330
  790SOL    HW2 3270   0.847   2.462   1.447
  791SOL     OW 3271   3.215   5.959   5.341
  791SOL    HW1 3272   3.150   6.019   5.292
  791SOL    HW2 3273   3.185   5.864   5.334
  792SOL     OW 3274   0.394   1.454   0.251
  792SOL    HW1 3275   0.429   1.534   0.201
  792SOL    HW2 3276   0.327   1.484   0.318
  793SOL     OW 3277   4.363   5.602   4.407
  793SOL    HW1 3278   4.449   5.592   4.357
  793SOL    HW2 3279   4.310   5.677   4.367
  794SOL     OW 3280   3.281   3.501   4.353
  794SOL    HW1 3281   3.295   3.600   4.357
  794SOL    HW2 3282   3.247   3.476   4.262
  795SOL     OW 3283   4.075   0.583   5.605
  795SOL    HW1 3284   4.014   0.637   5.662
  795SOL    HW2 3285   4.023   0.535   5.535
  796SOL     OW 3286   1.977   2.637   6.319
  796SOL    HW1 3287   2.049   2.700   6.349
  796SOL    HW2 3288   2.002   2.597   6.231
  797SOL     OW 3289   4.181   0.183   1.394
  797SOL    HW1 3290   4.088   0.203   1.365
  797SOL    HW2 3291   4.240   0.262   1.374
  798SOL     OW 3292   2.555   6.587   1.488
  798SOL    HW1 3293   2.639   6.537   1.506
  798SOL    HW2 3294   2.516   6.619   1.575
  799SOL     OW 3295   0.411   2.242   6.424
  799SOL    HW1 3296   0.398   2.255   6.326
  799SOL    HW2 3297   0.446   2.327   6.465
  800SOL     OW 3298   6.040   1.264   1.974
  800SOL    HW1 3299   6.034   1.364   1.974
  800SOL    HW2 3300   5.949   1.225   1.993
  801SOL     OW 3301   1.985   5.566   5.626
  801SOL    HW1 3302   2.058   5.581   5.560
  801SOL    HW2 3303   2.010   5.604   5.714
  802SOL     OW 3304   5.329   2.516   6.531
  802SOL    HW1 3305   5.313   2.509   6.629
  802SOL    HW2 3306   5.387   2.596   6.513
  803SOL     OW 3307   2.626   0.150   5.573
  803SOL    HW1 3308   2.646   0.239   5.533
  803SOL    HW2 3309   2.545   0.111   5.529
  804SOL     OW 3310   6.127   0.449   1.620
  804SOL    HW1 3311   6.033   0.422   1.602
  804SOL    HW2 3312   6.177   0.373   1.662
  805SOL     OW 3313   2.244   0.558   3.468
  805SOL    HW1 3314   2.249   0.490   3.542
  805SOL    HW2 3315   2.196   0.639   3.501
  806SOL     OW 3316   0.457   0.051   5.801
  806SOL    HW1 3317   0.518   0.111   5.750
  806SOL    HW2 3318   0.508   0.006   5.874
  807SOL     OW 3319   0.643   6.569   4.519
  807SOL    HW1 3320   0.620   6.581   4.422
  807SOL    HW2 3321   0.704   6.643   4.548
  808SOL     OW 3322   5.754   2.783   0.376
  808SOL    HW1 3323   5.774   2.818   0.285
  808SOL    HW2 3324   5.742   2.859   0.439
  809SOL     OW 3325   0.211   5.101   6.795
  809SOL    HW1 3326   0.310   5.110   6.785
  809SOL    HW2 3327   0.180   5.159   6.870
  810SOL     OW 3328   2.569   3.111   0.760
  810SOL    HW1 3329   2.563   3.062   0.673
  810SOL    HW2 3330   2.482   3.105   0.808
  811SOL     OW 3331   5.161   5.132   4.587
  811SOL    HW1 3332   5.217   5.152   4.507
  811SOL    HW2 3333   5.182   5.197   4.660
  812SOL     OW 3334   0.768   2.036   2.333
  812SOL    HW1 3335   0.708   2.101   2.285
  812SOL    HW2 3336   0.853   2.082   2.359
  813SOL     OW 3337   2.165   0.836   4.295
  813SOL    HW1 3338   2.168   0.936   4.294
  813SOL    HW2 3339   2.235   0.801   4.357
  814SOL     OW 3340   6.845   5.963   2.633
  814SOL    HW1 3341   6.874   5.928   2.722
  814SOL    HW2 3342   6.848   6.063   2.633
  815SOL     OW 3343   4.850   2.410   3.386
  815SOL    HW1 3344   4.758   2.410   3.425
  815SOL    HW2 3345   4.859   2.336   3.321
  816SOL     OW 3346   4.986   4.201   0.279
  816SOL    HW1 3347   5.035   4.277   0.320
  816SOL    HW2 3348   5.046   4.152   0.216
  817SOL     OW 3349   0.799   5.390   1.074
  817SOL    HW1 3350   0.814   5.488   1.088
  817SOL    HW2 3351   0.833   5.364   0.984
  818SOL     OW 3352   5.601   2.762   3.385
  818SOL    HW1 3353   5.649   2.682   3.420
  818SOL    HW2 3354   5.607   2.764   3.285
  819SOL     OW 3355   5.983   2.774   1.348
  819SOL    HW1 3356   5.926   2.835   1.402
  819SOL    HW2 3357   5.939   2.684   1.342
  820SOL     OW 3358   2.867   1.865   4.448
  820SOL    HW1 3359   2.804   1.902   4.379
  820SOL    HW2 3360   2.913   1.940   4.494
  821SOL     OW 3361   5.684   4.482   4.592
  821SOL    HW1 3362   5.763   4.440   4.546
  821SOL    HW2 3363   5.609   4.416   4.596
  822SOL     OW 3364   0.759   4.475   3.162
  822SOL    HW1 3365   0.743   4.521   3.249
  822SOL    HW2 3366   0.717   4.385   3.162
  823SOL     OW 3367   0.793   3.202   6.015
  823SOL    HW1 3368   0.819   3.127   6.075
  823SOL    HW2 3369   0.824   3.289   6.054
  824SOL     OW 3370   5.463   1.155   5.159
  824SOL    HW1 3371   5.461   1.071   5.213
  824SOL    HW2 3372   5.552   1.199   5.169
  825SOL     OW 3373   6.293   6.201   1.219
  825SOL    HW1 3374   6.370   6.262   1.239
  825SOL    HW2 3375   6.233   6.195   1.299
  826SOL     OW 3376   4.029   1.670   6.009
  826SOL    HW1 3377   4.068   1.591   6.055
  826SOL    HW2 3378   3.970   1.721   6.072
  827SOL     OW 3379   3.398   4.134   4.800
  827SOL    HW1 3380   3.336   4.210   4.819
  827SOL    HW2 3381   3.351   4.048   4.816
  828SOL     OW 3382   6.468   5.500   4.386
  828SOL    HW1 3383   6.463   5.516   4.288
  828SOL    HW2 3384   6.416   5.418   4.410
  829SOL     OW 3385   3.318   2.905   2.442
  829SOL    HW1 3386   3.274   2.983   2.398
  829SOL    HW2 3387   3.359   2.846   2.373
  830SOL     OW 3388   6.056   4.871   6.667
  830SOL    HW1 3389   6.092   4.940   6.604
  830SOL    HW2 3390   6.105   4.878   6.754
  831SOL     OW 3391   5.785   6.509   1.471
  831SOL    HW1 3392   5.787   6.462   1.559
  831SOL    HW2 3393   5.698   6.492   1.426
  832SOL     OW 3394   3.825   1.532   4.481
  832SOL    HW1 3395   3.815   1.461   4.551
  832SOL    HW2 3396   3.807   1.493   4.391
  833SOL     OW 3397   1.150   3.883   6.403
  833SOL    HW1 3398   1.073   3.853   6.348
  833SOL    HW2 3399   1.227   3.821   6.389
  834SOL     OW 3400   4.545   3.438   6.681
  834SOL    HW1 3401   4.639   3.454   6.711
  834SOL    HW2 3402   4.540   3.448   6.581
  835SOL     OW 3403   1.740   0.418   4.798
  835SOL    HW1 3404   1.698   0.508   4.786
  835SOL    HW2 3405   1.749   0.373   4.709
  836SOL     OW 3406   3.513   2.025   5.678
  836SOL    HW1 3407   3.609   1.999   5.668
  836SOL    HW2 3408   3.455   1.951   5.644
  837SOL     OW 3409   1.308   0.541   1.446
  837SOL    HW1 3410   1.213   0.523   1.470
  837SOL    HW2 3411   1.346   0.460   1.401
  838SOL     OW 3412   2.442   5.643   4.430
  838SOL    HW1 3413   2.536   5.652   4.464
  838SOL    HW2 3414   2.440   5.662   4.332
  839SOL     OW 3415   1.813   0.919   1.050
  839SOL    HW1 3416   1.888   0.927   0.985
  839SOL    HW2 3417   1.811   0.999   1.110
  840SOL     OW 3418   5.860   5.851   0.246
  840SOL    HW1 3419   5.832   5.896   0.161
  840SOL    HW2 3420   5.958   5.832   0.243
  841SOL     OW 3421   4.604   5.472   5.810
  841SOL    HW1 3422   4.616   5.382   5.852
  841SOL    HW2 3423   4.536   5.466   5.737
  842SOL     OW 3424   3.073   0.039   6.873
  842SOL    HW1 3425   3.158   0.077   6.911
  842SOL    HW2 3426   2.997   0.061   6.935
  843SOL     OW 3427   2.362   2.031   1.737
  843SOL    HW1 3428   2.335   2.070   1.650
  843SOL    HW2 3429   2.302   1.954   1.759
  844SOL     OW 3430   0.335   6.400   1.227
  844SOL    HW1 3431   0.318   6.324   1.165
  844SOL    HW2 3432   0.317   6.371   1.321
  845SOL     OW 3433   4.341   1.924   3.127
  845SOL    HW1 3434   4.302   1.904   3.037
  845SOL    HW2 3435   4.286   1.994   3.172
  846SOL     OW 3436   3.169   1.704   6.156
  846SOL    HW1 3437   3.188   1.606   6.148
  846SOL    HW2 3438   3.070   1.719   6.155
  847SOL     OW 3439   2.213   3.418   1.611
  847SOL    HW1 3440   2.186   3.323   1.598
  847SOL    HW2 3441   2.267   3.425   1.695
  848SOL     OW 3442   5.969   6.629   6.142
  848SOL    HW1 3443   6.056   6.650   6.099
  848SOL    HW2 3444   5.952   6.694   6.217
  849SOL     OW 3445   5.638   3.641   0.238
  849SOL    HW1 3446   5.555   3.594   0.268
  849SOL    HW2 3447   5.709   3.574   0.215
  850SOL     OW 3448   6.733   0.446   4.873
  850SOL    HW1 3449   6.763   0.410   4.961
  850SOL    HW2 3450   6.720   0.545   4.879
  851SOL     OW 3451   6.722   3.575   0.375
  851SOL    HW1 3452   6.813   3.581   0.417
  851SOL    HW2 3453   6.673   3.497   0.415
  852SOL     OW 3454   6.794   4.777   1.172
  852SOL    HW1 3455   6.699   4.748   1.182
  852SOL    HW2 3456   6.800   4.848   1.102
  853SOL     OW 3457   2.047   4.350   0.301
  853SOL    HW1 3458   1.947   4.350   0.305
  853SOL    HW2 3459   2.078   4.402   0.221
  854SOL     OW 3460   6.319   6.438   6.999
  854SOL    HW1 3461   6.297   6.389   6.915
  854SOL    HW2 3462   6.240   6.435   0.038
  855SOL     OW 3463   6.865   0.849   0.482
  855SOL    HW1 3464   6.788   0.912   0.469
  855SOL    HW2 3465   6.829   0.757   0.501
  856SOL     OW 3466   2.019   6.793   6.491
  856SOL    HW1 3467   1.977   6.744   6.415
  856SOL    HW2 3468   1.977   6.764   6.577
  857SOL     OW 3469   0.323   4.418   3.124
  857SOL    HW1 3470   0.370   4.429   3.036
  857SOL    HW2 3471   0.286   4.325   3.131
  858SOL     OW 3472   3.357   4.192   0.900
  858SOL    HW1 3473   3.454   4.217   0.902
  858SOL    HW2 3474   3.347   4.099   0.936
  859SOL     OW 3475   4.884   6.250   5.299
  859SOL    HW1 3476   4.809   6.185   5.286
  859SOL    HW2 3477   4.878   6.322   5.230
  860SOL     OW 3478   5.566   3.324   6.479
  860SOL    HW1 3479   5.594   3.420   6.487
  860SOL    HW2 3480   5.473   3.319   6.443
  861SOL     OW 3481   1.425   5.140   2.887
  861SOL    HW1 3482   1.360   5.137   2.964
  861SOL    HW2 3483   1.456   5.234   2.874
  862SOL     OW 3484   1.728   4.834   3.942
  862SOL    HW1 3485   1.784   4.873   3.868
  862SOL    HW2 3486   1.681   4.752   3.907
  863SOL     OW 3487   6.413   0.472   5.979
  863SOL    HW1 3488   6.456   0.445   6.064
  863SOL    HW2 3489   6.470   0.444   5.902
  864SOL     OW 3490   4.496   0.133   5.616
  864SOL    HW1 3491   4.401   0.136   5.647
  864SOL    HW2 3492   4.526   0.037   5.608
  865SOL     OW 3493   2.236   6.422   4.868
  865SOL    HW1 3494   2.318   6.365   4.871
  865SOL    HW2 3495   2.221   6.453   4.774
  866SOL     OW 3496   3.084   6.792   0.906
  866SOL    HW1 3497   3.167   6.810   0.853
  866SOL    HW2 3498   3.034   6.715   0.866
  867SOL     OW 3499   5.918   2.647   0.542
  867SOL    HW1 3500   5.938   2.554   0.513
  867SOL    HW2 3501   5.857   2.691   0.475
  868SOL     OW 3502   0.424   2.258   2.471
  868SOL    HW1 3503   0.415   2.347   2.427
  868SOL    HW2 3504   0.347   2.200   2.444
  869SOL     OW 3505   6.932   3.529   3.742
  869SOL    HW1 3506   6.947   3.460   3.812
  869SOL    HW2 3507   6.978   3.614   3.769
  870SOL     OW 3508   3.820   5.034   1.257
  870SOL    HW1 3509   3.893   4.976   1.292
  870SOL    HW2 3510   3.732   4.991   1.274
  871SOL     OW 3511   5.081   2.138   4.077
  871SOL    HW1 3512   5.061   2.194   4.157
  871SOL    HW2 3513   5.117   2.196   4.004
  872SOL     OW 3514   0.102   1.822   4.654
  872SOL    HW1 3515   0.073   1.910   4.691
  872SOL    HW2 3516   0.167   1.779   4.716
  873SOL     OW 3517   4.729   6.413   5.733
  873SOL    HW1 3518   4.777   6.471   5.667
  873SOL    HW2 3519   4.732   6.457   5.823
  874SOL     OW 3520   6.236   4.146   6.757
  874SOL    HW1 3521   6.182   4.221   6.718
  874SOL    HW2 3522   6.318   4.131   6.702
  875SOL     OW 3523   5.345   5.347   1.472
  875SOL    HW1 3524   5.313   5.439   1.450
  875SOL    HW2 3525   5.275   5.297   1.523
  876SOL     OW 3526   0.631   5.576   1.959
  876SOL    HW1 3527   0.565   5.512   1.998
  876SOL    HW2 3528   0.692   5.527   1.896
  877SOL     OW 3529   2.573   4.471   6.480
  877SOL    HW1 3530   2.540   4.478   6.575
  877SOL    HW2 3531   2.533   4.391   6.436
  878SOL     OW 3532   4.344   6.928   4.223
  878SOL    HW1 3533   4.263   6.982   4.249
  878SOL    HW2 3534   4.333   6.835   4.256
  879SOL     OW 3535   3.803   0.632   1.698
  879SOL    HW1 3536   3.705   0.639   1.719
  879SOL    HW2 3537   3.830   0.710   1.641
  880SOL     OW 3538   3.481   4.096   4.016
  880SOL    HW1 3539   3.556   4.040   4.053
  880SOL    HW2 3540   3.445   4.052   3.934
  881SOL     OW 3541   4.915   3.083   4.783
  881SOL    HW1 3542   4.894   3.177   4.754
  881SOL    HW2 3543   4.932   3.082   4.882
  882SOL     OW 3544   0.879   3.023   4.196
  882SOL    HW1 3545   0.845   2.966   4.121
  882SOL    HW2 3546   0.802   3.068   4.241
  883SOL     OW 3547   3.471   0.727   2.267
  883SOL    HW1 3548   3.411   0.742   2.188
  883SOL    HW2 3549   3.534   0.652   2.247
  884SOL     OW 3550   5.115   3.220   5.722
  884SOL    HW1 3551   5.030   3.217   5.775
  884SOL    HW2 3552   5.095   3.252   5.629
  885SOL     OW 3553   3.728   1.151   5.504
  885SOL    HW1 3554   3.736   1.052   5.505
  885SOL    HW2 3555   3.760   1.186   5.416
  886SOL     OW 3556   3.470   0.535   0.501
  886SOL    HW1 3557   3.564   0.559   0.526
  886SOL    HW2 3558   3.470   0.448   0.452
  887SOL     OW 3559   3.899   0.040   3.935
  887SOL    HW1 3560   3.835   0.101   3.980
  887SOL    HW2 3561   3.882   6.968   3.964
  888SOL     OW 3562   0.669   6.132   3.036
  888SOL    HW1 3563   0.597   6.132   3.105
  888SOL    HW2 3564   0.678   6.223   2.996
  889SOL     OW 3565   0.736   3.921   0.798
  889SOL    HW1 3566   0.759   4.016   0.815
  889SOL    HW2 3567   0.730   3.872   0.885
  890SOL     OW 3568   1.309   5.129   3.374
  890SOL    HW1 3569   1.405   5.152   3.393
  890SOL    HW2 3570   1.301   5.094   3.281
  891SOL     OW 3571   5.422   5.655   0.464
  891SOL    HW1 3572   5.476   5.616   0.538
  891SOL    HW2 3573   5.337   5.604   0.454
  892SOL     OW 3574   2.459   3.780   5.326
  892SOL    HW1 3575   2.486   3.873   5.303
  892SOL    HW2 3576   2.539   3.719   5.317
  893SOL     OW 3577   2.081   6.632   2.688
  893SOL    HW1 3578   2.108   6.622   2.593
  893SOL    HW2 3579   1.981   6.635   2.694
  894SOL     OW 3580   0.989   3.222   1.496
  894SOL    HW1 3581   1.007   3.147   1.560
  894SOL    HW2 3582   0.894   3.252   1.507
  895SOL     OW 3583   0.359   4.598   3.705
  895SOL    HW1 3584   0.336   4.614   3.610
  895SOL    HW2 3585   0.443   4.544   3.711
  896SOL     OW 3586   5.714   4.525   0.478
  896SOL    HW1 3587   5.677   4.608   0.519
  896SOL    HW2 3588   5.696   4.447   0.538
  897SOL     OW 3589   4.698   1.358   6.917
  897SOL    HW1 3590   4.636   1.316   6.850
  897SOL    HW2 3591   4.738   1.287   6.975
  898SOL     OW 3592   3.149   6.304   2.818
  898SOL    HW1 3593   3.049   6.313   2.820
  898SOL    HW2 3594   3.189   6.392   2.791
  899SOL     OW 3595   0.043   6.353   6.603
  899SOL    HW1 3596   6.982   6.358   6.548
  899SOL    HW2 3597   0.028   6.401   6.689
  900SOL     OW 3598   5.768   6.307   0.448
  900SOL    HW1 3599   5.805   6.393   0.486
  900SOL    HW2 3600   5.669   6.315   0.439
  901SOL     OW 3601   2.143   0.856   3.085
  901SOL    HW1 3602   2.177   0.950   3.085
  901SOL    HW2 3603   2.103   0.835   2.995
  902SOL     OW 3604   0.286   2.342   0.551
  902SOL    HW1 3605   0.363   2.396   0.516
  902SOL    HW2 3606   0.226   2.316   0.475
  903SOL     OW 3607   6.714   2.241   6.572
  903SOL    HW1 3608   6.751   2.152   6.547
  903SOL    HW2 3609   6.644   2.230   6.643
  904SOL     OW 3610   2.643   2.055   3.064
  904SOL    HW1 3611   2.686   2.141   3.037
  904SOL    HW2 3612   2.567   2.073   3.126
  905SOL     OW 3613   4.984   1.939   6.853
  905SOL    HW1 3614   5.051   2.000   6.810
  905SOL    HW2 3615   4.973   1.964   6.949
  906SOL     OW 3616   0.145   2.152   6.012
  906SOL    HW1 3617   0.202   2.108   5.944
  906SOL    HW2 3618   0.143   2.096   6.095
  907SOL     OW 3619   5.137   3.826   0.474
  907SOL    HW1 3620   5.058   3.863   0.423
  907SOL    HW2 3621   5.142   3.727   0.460
  908SOL     OW 3622   2.560   4.543   2.819
  908SOL    HW1 3623   2.567   4.482   2.740
  908SOL    HW2 3624   2.606   4.629   2.799
  909SOL     OW 3625   4.357   5.628   0.829
  909SOL    HW1 3626   4.294   5.642   0.905
  909SOL    HW2 3627   4.316   5.565   0.763
  910SOL     OW 3628   2.832   2.533   1.393
  910SOL    HW1 3629   2.753   2.589   1.419
  910SOL    HW2 3630   2.853   2.469   1.467
  911SOL     OW 3631   1.170   5.891   6.566
  911SOL    HW1 3632   1.170   5.835   6.649
  911SOL    HW2 3633   1.249   5.952   6.568
  912SOL     OW 3634   5.804   2.332   2.833
  912SOL    HW1 3635   5.742   2.254   2.837
  912SOL    HW2 3636   5.809   2.375   2.924
  913SOL     OW 3637   4.302   6.510   3.144
  913SOL    HW1 3638   4.399   6.486   3.137
  913SOL    HW2 3639   4.284   6.594   3.092
  914SOL     OW 3640   2.215   0.154   6.291
  914SOL    HW1 3641   2.285   0.225   6.289
  914SOL    HW2 3642   2.211   0.108   6.203
  915SOL     OW 3643   6.068   4.282   6.435
  915SOL    HW1 3644   6.121   4.352   6.388
  915SOL    HW2 3645   5.990   4.324   6.481
  916SOL     OW 3646   1.784   2.266   1.985
  916SOL    HW1 3647   1.854   2.309   2.043
  916SOL    HW2 3648   1.695   2.272   2.029
  917SOL     OW 3649   0.225   6.162   0.624
  917SOL    HW1 3650   0.309   6.205   0.590
  917SOL    HW2 3651   0.153   6.231   0.633
  918SOL     OW 3652   2.764   0.394   0.433
  918SOL    HW1 3653   2.837   0.379   0.367
  918SOL    HW2 3654   2.735   0.307   0.472
  919SOL     OW 3655   5.879   1.373   3.338
  919SOL    HW1 3656   5.806   1.384   3.270
  919SOL    HW2 3657   5.841   1.335   3.422
  920SOL     OW 3658   2.507   4.369   1.427
  920SOL    HW1 3659   2.572   4.295   1.444
  920SOL    HW2 3660   2.419   4.346   1.468
  921SOL     OW 3661   5.172   5.747   4.431
  921SOL    HW1 3662   5.110   5.683   4.386
  921SOL    HW2 3663   5.256   5.701   4.457
  922SOL     OW 3664   3.983   3.900   4.429
  922SOL    HW1 3665   4.060   3.839   4.448
  922SOL    HW2 3666   3.897   3.848   4.434
  923SOL     OW 3667   2.414   2.502   6.432
  923SOL    HW1 3668   2.497   2.543   6.470
  923SOL    HW2 3669   2.440   2.431   6.367
  924SOL     OW 3670   6.256   4.091   2.162
  924SOL    HW1 3671   6.258   4.143   2.248
  924SOL    HW2 3672   6.220   4.149   2.089
  925SOL     OW 3673   6.920   2.548   0.089
  925SOL    HW1 3674   6.875   2.479   0.145
  925SOL    HW2 3675   7.019   2.544   0.104
  926SOL     OW 3676   6.795   1.613   1.122
  926SOL    HW1 3677   6.732   1.540   1.093
  926SOL    HW2 3678   6.885   1.597   1.082
  927SOL     OW 3679   5.972   3.628   3.744
  927SOL    HW1 3680   5.996   3.560   3.675
  927SOL    HW2 3681   6.019   3.606   3.830
  928SOL     OW 3682   2.630   6.398   0.666
  928SOL    HW1 3683   2.640   6.491   0.633
  928SOL    HW2 3684   2.635   6.397   0.766
  929SOL     OW 3685   6.961   0.600   6.964
  929SOL    HW1 3686   6.923   0.602   6.871
  929SOL    HW2 3687   6.896   0.643   0.004
  930SOL     OW 3688   4.405   5.627   6.540
  930SOL    HW1 3689   4.339   5.663   6.605
  930SOL    HW2 3690   4.402   5.527   6.542
  931SOL     OW 3691   6.730   2.076   3.831
  931SOL    HW1 3692   6.672   1.998   3.808
  931SOL    HW2 3693   6.799   2.047   3.897
  932SOL     OW 3694   2.749   1.828   3.290
  932SOL    HW1 3695   2.670   1.796   3.237
  932SOL    HW2 3696   2.717   1.891   3.361
  933SOL     OW 3697   1.156   4.776   2.475
  933SOL    HW1 3698   1.210   4.703   2.518
  933SOL    HW2 3699   1.140   4.849   2.542
  934SOL     OW 3700   2.818   6.066   5.601
  934SOL    HW1 3701   2.824   5.992   5.533
  934SOL    HW2 3702   2.763   6.141   5.565
  935SOL     OW 3703   5.134   4.206   3.812
  935SOL    HW1 3704   5.158   4.302   3.825
  935SOL    HW2 3705   5.217   4.151   3.809
  936SOL     OW 3706   1.759   0.217   6.194
  936SOL    HW1 3707   1.766   0.180   6.287
  936SOL    HW2 3708   1.663   0.219   6.166
  937SOL     OW 3709   5.125   1.343   5.475
  937SOL    HW1 3710   5.128   1.442   5.488
  937SOL    HW2 3711   5.181   1.318   5.396
  938SOL     OW 3712   6.858   5.403   3.983
  938SOL    HW1 3713   6.824   5.329   3.925
  938SOL    HW2 3714   6.947   5.377   4.021
  939SOL     OW 3715   0.180   6.709   4.597
  939SOL    HW1 3716   0.088   6.681   4.625
  939SOL    HW2 3717   0.243   6.632   4.604
  940SOL     OW 3718   1.225   4.576   0.584
  940SOL    HW1 3719   1.268   4.541   0.501
  940SOL    HW2 3720   1.145   4.521   0.607
  941SOL     OW 3721   4.982   0.436   6.758
  941SOL    HW1 3722   4.934   0.354   6.725
  941SOL    HW2 3723   4.995   0.428   6.857
  942SOL     OW 3724   6.632   6.300   1.379
  942SOL    HW1 3725   6.672   6.241   1.309
  942SOL    HW2 3726   6.607   6.388   1.337
  943SOL     OW 3727   2.315   5.072   2.587
  943SOL    HW1 3728   2.412   5.089   2.568
  943SOL    HW2 3729   2.284   4.993   2.534
  944SOL     OW 3730   0.722   5.406   4.411
  944SOL    HW1 3731   0.712   5.491   4.359
  944SOL    HW2 3732   0.815   5.370   4.396
  945SOL     OW 3733   1.033   5.190   5.164
  945SOL    HW1 3734   1.013   5.279   5.204
  945SOL    HW2 3735   1.091   5.201   5.083
  946SOL     OW 3736   4.619   4.748   4.510
  946SOL    HW1 3737   4.708   4.709   4.487
  946SOL    HW2 3738   4.628   4.847   4.526
  947SOL     OW 3739   3.978   3.634   3.457
  947SOL    HW1 3740   4.038   3.556   3.473
  947SOL    HW2 3741   3.937   3.663   3.544
  948SOL     OW 3742   5.179   1.062   2.841
  948SOL    HW1 3743   5.122   1.144   2.826
  948SOL    HW2 3744   5.135   0.983   2.798
  949SOL     OW 3745   3.210   6.346   0.127
  949SOL    HW1 3746   3.116   6.355   0.160
  949SOL    HW2 3747   3.240   6.435   0.091
  950SOL     OW 3748   6.155   5.753   2.021
  950SOL    HW1 3749   6.190   5.661   2.008
  950SOL    HW2 3750   6.068   5.750   2.070
  951SOL     OW 3751   1.235   6.907   3.373
  951SOL    HW1 3752   1.187   6.987   3.409
  951SOL    HW2 3753   1.198   6.824   3.414
  952SOL     OW 3754   4.054   2.073   2.692
  952SOL    HW1 3755   3.969   2.125   2.685
  952SOL    HW2 3756   4.132   2.134   2.680
  953SOL     OW 3757   6.267   5.968   4.996
  953SOL    HW1 3758   6.274   5.879   4.953
  953SOL    HW2 3759   6.257   6.039   4.926
  954SOL     OW 3760   4.452   6.087   2.723
  954SOL    HW1 3761   4.497   6.146   2.656
  954SOL    HW2 3762   4.385   6.141   2.775
  955SOL     OW 3763   1.922   4.052   0.318
  955SOL    HW1 3764   1.957   4.145   0.328
  955SOL    HW2 3765   1.822   4.054   0.319
  956SOL     OW 3766   0.465   1.068   1.221
  956SOL    HW1 3767   0.424   1.159   1.214
  956SOL    HW2 3768   0.472   1.028   1.129
  957SOL     OW 3769   6.249   1.081   2.087
  957SOL    HW1 3770   6.295   1.106   2.002
  957SOL    HW2 3771   6.158   1.125   2.089
  958SOL     OW 3772   5.304   6.467   2.306
  958SOL    HW1 3773   5.249   6.412   2.243
  958SOL    HW2 3774   5.243   6.526   2.360
  959SOL     OW 3775   3.509   6.760   4.502
  959SOL    HW1 3776   3.475   6.684   4.557
  959SOL    HW2 3777   3.587   6.802   4.548
  960SOL     OW 3778   1.034   0.666   0.919
  960SOL    HW1 3779   1.000   0.668   1.013
  960SOL    HW2 3780   1.097   0.743   0.905
  961SOL     OW 3781   3.478   6.713   3.254
  961SOL    HW1 3782   3.451   6.797   3.207
  961SOL    HW2 3783   3.480   6.637   3.189
  962SOL     OW 3784   5.837   0.190   4.882
  962SOL    HW1 3785   5.787   0.116   4.927
  962SOL    HW2 3786   5.867   0.256   4.951
  963SOL     OW 3787   4.193   1.605   1.429
  963SOL    HW1 3788   4.188   1.540   1.354
  963SOL    HW2 3789   4.262   1.674   1.409
  964SOL     OW 3790   4.918   4.740   5.322
  964SOL    HW1 3791   5.008   4.766   5.356
  964SOL    HW2 3792   4.911   4.641   5.319
  965SOL     OW 3793   6.146   2.417   2.513
  965SOL    HW1 3794   6.173   2.324   2.488
  965SOL    HW2 3795   6.123   2.420   2.610
  966SOL     OW 3796   4.917   1.995   3.348
  966SOL    HW1 3797   4.830   2.044   3.343
  966SOL    HW2 3798   4.989   2.057   3.377
  967SOL     OW 3799   3.631   4.625   6.358
  967SOL    HW1 3800   3.725   4.611   6.387
  967SOL    HW2 3801   3.630   4.653   6.262
  968SOL     OW 3802   3.215   0.132   1.244
  968SOL    HW1 3803   3.133   0.185   1.222
  968SOL    HW2 3804   3.240   0.075   1.165
  969SOL     OW 3805   3.043   5.016   5.619
  969SOL    HW1 3806   3.078   5.102   5.583
  969SOL    HW2 3807   2.957   4.993   5.574
  970SOL     OW 3808   6.411   1.366   5.694
  970SOL    HW1 3809   6.457   1.310   5.625
  970SOL    HW2 3810   6.454   1.350   5.784
  971SOL     OW 3811   6.842   3.769   2.584
  971SOL    HW1 3812   6.892   3.798   2.503
  971SOL    HW2 3813   6.794   3.847   2.624
  972SOL     OW 3814   6.420   2.244   1.024
  972SOL    HW1 3815   6.497   2.296   1.060
  972SOL    HW2 3816   6.386   2.181   1.094
  973SOL     OW 3817   0.322   4.000   6.162
  973SOL    HW1 3818   0.403   3.968   6.211
  973SOL    HW2 3819   0.249   4.020   6.228
  974SOL     OW 3820   0.579   4.977   2.969
  974SOL    HW1 3821   0.571   4.880   2.946
  974SOL    HW2 3822   0.592   4.987   3.068
  975SOL     OW 3823   2.540   6.800   1.024
  975SOL    HW1 3824   2.628   6.757   1.042
  975SOL    HW2 3825   2.487   6.804   1.109
  976SOL     OW 3826   6.442   4.196   1.789
  976SOL    HW1 3827   6.453   4.276   1.847
  976SOL    HW2 3828   6.465   4.114   1.841
  977SOL     OW 3829   0.794   1.351   2.198
  977SOL    HW1 3830   0.785   1.325   2.102
  977SOL    HW2 3831   0.831   1.275   2.250
  978SOL     OW 3832   5.559   2.202   1.238
  978SOL    HW1 3833   5.626   2.262   1.194
  978SOL    HW2 3834   5.467   2.238   1.224
  979SOL     OW 3835   6.681   3.113   6.560
  979SOL    HW1 3836   6.588   3.129   6.595
  979SOL    HW2 3837   6.711   3.192   6.508
  980SOL     OW 3838   4.055   1.124   4.685
  980SOL    HW1 3839   4.095   1.034   4.671
  980SOL    HW2 3840   4.085   1.161   4.773
  981SOL     OW 3841   6.939   0.103   5.128
  981SOL    HW1 3842   6.910   0.029   5.189
  981SOL    HW2 3843   0.001   0.077   5.082
  982SOL     OW 3844   0.336   1.857   5.544
  982SOL    HW1 3845   0.376   1.767   5.566
  982SOL    HW2 3846   0.237   1.849   5.539
  983SOL     OW 3847   6.748   3.158   3.155
  983SOL    HW1 3848   6.666   3.134   3.104
  983SOL    HW2 3849   6.725   3.225   3.225
  984SOL     OW 3850   1.677   2.075   2.951
  984SOL    HW1 3851   1.581   2.104   2.943
  984SOL    HW2 3852   1.737   2.147   2.917
  985SOL     OW 3853   5.931   3.759   4.566
  985SOL    HW1 3854   5.990   3.691   4.609
  985SOL    HW2 3855   5.837   3.747   4.597
  986SOL     OW 3856   5.114   4.234   1.368
  986SOL    HW1 3857   5.086   4.145   1.406
  986SOL    HW2 3858   5.212   4.247   1.384
  987SOL     OW 3859   5.548   6.362   3.494
  987SOL    HW1 3860   5.448   6.352   3.494
  987SOL    HW2 3861   5.580   6.370   3.399
  988SOL     OW 3862   3.264   3.877   2.243
  988SOL    HW1 3863   3.322   3.952   2.274
  988SOL    HW2 3864   3.170   3.909   2.234
  989SOL     OW 3865   7.000   2.021   0.469
  989SOL    HW1 3866   0.022   2.052   0.553
  989SOL    HW2 3867   7.008   2.093   0.400
  990SOL     OW 3868   3.108   0.118   2.933
  990SOL    HW1 3869   3.126   0.159   2.844
  990SOL    HW2 3870   3.156   0.168   3.004
  991SOL     OW 3871   6.672   4.571   3.695
  991SOL    HW1 3872   6.692   4.551   3.599
  991SOL    HW2 3873   6.745   4.628   3.733
  992SOL     OW 3874   0.630   2.659   1.299
  992SOL    HW1 3875   0.700   2.606   1.346
  992SOL    HW2 3876   0.637   2.755   1.325
  993SOL     OW 3877   1.185   4.208   1.403
  993SOL    HW1 3878   1.273   4.162   1.416
  993SOL    HW2 3879   1.113   4.140   1.394
  994SOL     OW 3880   3.914   5.800   0.939
  994SOL    HW1 3881   3.879   5.831   0.850
  994SOL    HW2 3882   3.839   5.764   0.994
  995SOL     OW 3883   4.446   3.478   5.590
  995SOL    HW1 3884   4.520   3.535   5.626
  995SOL    HW2 3885   4.460   3.465   5.491
  996SOL     OW 3886   4.300   5.639   5.306
  996SOL    HW1 3887   4.390   5.670   5.335
  996SOL    HW2 3888   4.230   5.702   5.341
  997SOL     OW 3889   1.732   6.992   3.349
  997SOL    HW1 3890   1.726   6.939   3.434
  997SOL    HW2 3891   1.728   0.067   3.371
  998SOL     OW 3892   6.078   0.097   6.062
  998SOL    HW1 3893   6.086   0.140   5.972
  998SOL    HW2 3894   6.153   0.128   6.120
  999SOL     OW 3895   4.640   3.602   1.642
  999SOL    HW1 3896   4.547   3.600   1.606
  999SOL    HW2 3897   4.688   3.683   1.606
 1000SOL     OW 3898   3.972   1.571   1.212
 1000SOL    HW1 3899   4.003   1.642   1.276
 1000SOL    HW2 3900   3.877   1.547   1.233
 1001SOL     OW 3901   2.648   6.029   2.394
 1001SOL    HW1 3902   2.639   6.127   2.376
 1001SOL    HW2 3903   2.573   5.999   2.454
 1002SOL     OW 3904   5.325   1.943   1.489
 1002SOL    HW1 3905   5.259   2.002   1.536
 1002SOL    HW2 3906   5.418   1.967   1.518
 1003SOL     OW 3907   1.610   6.057   2.768
 1003SOL    HW1 3908   1.562   6.069   2.680
 1003SOL    HW2 3909   1.583   6.131   2.830
 1004SOL     OW 3910   6.578   1.459   2.259
 1004SOL    HW1 3911   6.530   1.495   2.339
 1004SOL    HW2 3912   6.560   1.361   2.251
 1005SOL     OW 3913   1.570   4.322   3.902
 1005SOL    HW1 3914   1.529   4.359   3.818
 1005SOL    HW2 3915   1.667   4.302   3.886
 1006SOL     OW 3916   2.312   3.796   0.472
 1006SOL    HW1 3917   2.347   3.763   0.384
 1006SOL    HW2 3918   2.227   3.747   0.494
 1007SOL     OW 3919   4.618   1.478   6.516
 1007SOL    HW1 3920   4.548   1.488   6.445
 1007SOL    HW2 3921   4.627   1.564   6.566
 1008SOL     OW 3922   0.781   3.679   5.559
 1008SOL    HW1 3923   0.837   3.758   5.536
 1008SOL    HW2 3924   0.836   3.596   5.554
 1009SOL     OW 3925   5.981   4.970   5.409
 1009SOL    HW1 3926   6.062   4.933   5.453
 1009SOL    HW2 3927   6.006   5.050   5.354
 1010SOL     OW 3928   2.428   2.296   1.886
 1010SOL    HW1 3929   2.510   2.353   1.889
 1010SOL    HW2 3930   2.431   2.237   1.804
 1011SOL     OW 3931   1.011   5.432   3.211
 1011SOL    HW1 3932   0.994   5.416   3.114
 1011SOL    HW2 3933   1.109   5.444   3.226
 1012SOL     OW 3934   6.787   0.050   2.470
 1012SOL    HW1 3935   6.709   0.072   2.529
 1012SOL    HW2 3936   6.853   7.018   2.522
 1013SOL     OW 3937   6.566   0.784   6.231
 1013SOL    HW1 3938   6.471   0.771   6.260
 1013SOL    HW2 3939   6.573   0.868   6.177
 1014SOL     OW 3940   1.100   4.419   4.586
 1014SOL    HW1 3941   1.097   4.476   4.504
 1014SOL    HW2 3942   1.182   4.361   4.583
 1015SOL     OW 3943   3.322   0.389   6.039
 1015SOL    HW1 3944   3.241   0.394   6.099
 1015SOL    HW2 3945   3.347   0.293   6.025
 1016SOL     OW 3946   4.749   4.161   1.338
 1016SOL    HW1 3947   4.807   4.231   1.296
 1016SOL    HW2 3948   4.797   4.119   1.415
 1017SOL     OW 3949   2.741   1.278   1.784
 1017SOL    HW1 3950   2.698   1.198   1.743
 1017SOL    HW2 3951   2.681   1.357   1.775
 1018SOL     OW 3952   0.159   4.299   4.092
 1018SOL    HW1 3953   0.085   4.318   4.157
 1018SOL    HW2 3954   0.167   4.374   4.027
 1019SOL     OW 3955   6.704   5.359   0.301
 1019SOL    HW1 3956   6.719   5.410   0.386
 1019SOL    HW2 3957   6.791   5.328   0.264
 1020SOL     OW 3958   6.534   0.572   1.140
 1020SOL    HW1 3959   6.476   0.553   1.060
 1020SOL    HW2 3960   6.630   0.563   1.115
 1021SOL     OW 3961   6.377   5.600   2.556
 1021SOL    HW1 3962   6.296   5.631   2.506
 1021SOL    HW2 3963   6.453   5.663   2.539
 1022SOL     OW 3964   2.922   5.958   5.851
 1022SOL    HW1 3965   2.909   5.957   5.752
 1022SOL    HW2 3966   2.892   6.046   5.888
 1023SOL     OW 3967   6.811   0.882   2.406
 1023SOL    HW1 3968   6.898   0.922   2.379
 1023SOL    HW2 3969   6.794   0.800   2.350
 1024SOL     OW 3970   0.705   1.177   4.495
 1024SOL    HW1 3971   0.734   1.163   4.590
 1024SOL    HW2 3972   0.607   1.196   4.493
 1025SOL     OW 3973   4.797   3.187   0.562
 1025SOL    HW1 3974   4.704   3.213   0.537
 1025SOL    HW2 3975   4.857   3.267   0.556
 1026SOL     OW 3976   3.045   2.499   1.679
 1026SOL    HW1 3977   3.002   2.469   1.764
 1026SOL    HW2 3978   3.020   2.436   1.605
 1027SOL     OW 3979   1.367   6.232   2.056
 1027SOL    HW1 3980   1.371   6.290   1.975
 1027SOL    HW2 3981   1.317   6.148   2.034
 1028SOL     OW 3982   1.604   6.576   3.144
 1028SOL    HW1 3983   1.514   6.614   3.125
 1028SOL    HW2 3984   1.640   6.531   3.062
 1029SOL     OW 3985   0.906   1.880   6.001
 1029SOL    HW1 3986   0.950   1.847   6.085
 1029SOL    HW2 3987   0.810   1.852   6.000
 1030SOL     OW 3988   3.264   3.439   1.660
 1030SOL    HW1 3989   3.170   3.465   1.638
 1030SOL    HW2 3990   3.279   3.343   1.636
 1031SOL     OW 3991   3.576   3.142   1.736
 1031SOL    HW1 3992   3.526   3.069   1.781
 1031SOL    HW2 3993   3.668   3.110   1.712
 1032SOL     OW 3994   2.331   1.118   4.989
 1032SOL    HW1 3995   2.285   1.144   4.904
 1032SOL    HW2 3996   2.401   1.187   5.010
 1033SOL     OW 3997   1.709   5.843   2.426
 1033SOL    HW1 3998   1.617   5.845   2.467
 1033SOL    HW2 3999   1.741   5.936   2.410
 1034SOL     OW 4000   2.407   6.156   4.465
 1034SOL    HW1 4001   2.476   6.100   4.510
 1034SOL    HW2 4002   2.438   6.251   4.460
 1035SOL     OW 4003   0.891   2.374   5.835
 1035SOL    HW1 4004   0.871   2.294   5.891
 1035SOL    HW2 4005   0.806   2.422   5.812
 1036SOL     OW 4006   4.820   1.365   1.484
 1036SOL    HW1 4007   4.747   1.358   1.416
 1036SOL    HW2 4008   4.908   1.343   1.441
 1037SOL     OW 4009   1.574   2.306   2.150
 1037SOL    HW1 4010   1.622   2.285   2.236
 1037SOL    HW2 4011   1.579   2.404   2.133
 1038SOL     OW 4012   2.035   1.554   6.711
 1038SOL    HW1 4013   1.974   1.569   6.633
 1038SOL    HW2 4014   2.033   1.634   6.771
 1039SOL     OW 4015   3.058   3.080   3.974
 1039SOL    HW1 4016   3.087   3.120   3.887
 1039SOL    HW2 4017   3.105   2.993   3.987
 1040SOL     OW 4018   5.371   0.648   3.408
 1040SOL    HW1 4019   5.359   0.590   3.489
 1040SOL    HW2 4020   5.361   0.744   3.434
 1041SOL     OW 4021   6.871   6.795   4.060
 1041SOL    HW1 4022   6.849   6.873   4.118
 1041SOL    HW2 4023   6.845   6.711   4.106
 1042SOL     OW 4024   4.738   4.745   3.052
 1042SOL    HW1 4025   4.749   4.714   2.957
 1042SOL    HW2 4026   4.777   4.677   3.114
 1043SOL     OW 4027   3.728   1.835   3.045
 1043SOL    HW1 4028   3.739   1.771   2.969
 1043SOL    HW2 4029   3.796   1.816   3.115
 1044SOL     OW 4030   6.058   5.895   1.410
 1044SOL    HW1 4031   5.970   5.892   1.362
 1044SOL    HW2 4032   6.090   5.989   1.416
 1045SOL     OW 4033   2.568   0.169   2.865
 1045SOL    HW1 4034   2.583   0.267   2.874
 1045SOL    HW2 4035   2.656   0.121   2.865
 1046SOL     OW 4036   2.802   1.341   1.150
 1046SOL    HW1 4037   2.742   1.296   1.215
 1046SOL    HW2 4038   2.789   1.440   1.154
 1047SOL     OW 4039   3.112   6.840   4.029
 1047SOL    HW1 4040   3.125   6.810   3.935
 1047SOL    HW2 4041   3.014   6.839   4.051
 1048SOL     OW 4042   2.684   5.661   2.379
 1048SOL    HW1 4043   2.713   5.672   2.474
 1048SOL    HW2 4044   2.708   5.743   2.327
 1049SOL     OW 4045   4.544   6.906   4.020
 1049SOL    HW1 4046   4.502   6.897   4.110
 1049SOL    HW2 4047   4.473   6.905   3.949
 1050SOL     OW 4048   4.142   5.462   2.996
 1050SOL    HW1 4049   4.193   5.404   2.932
 1050SOL    HW2 4050   4.093   5.533   2.946
 1051SOL     OW 4051   6.965   6.035   0.357
 1051SOL    HW1 4052   6.903   5.957   0.349
 1051SOL    HW2 4053   0.037   6.004   0.355
 1052SOL     OW 4054   4.328   0.561   5.520
 1052SOL    HW1 4055   4.235   0.580   5.551
 1052SOL    HW2 4056   4.335   0.466   5.491
 1053SOL     OW 4057   5.746   3.638   2.163
 1053SOL    HW1 4058   5.802   3.642   2.246
 1053SOL    HW2 4059   5.803   3.660   2.083
 1054SOL     OW 4060   3.061   3.493   0.997
 1054SOL    HW1 4061   3.006   3.462   0.920
 1054SOL    HW2 4062   3.142   3.435   1.005
 1055SOL     OW 4063   5.279   5.889   6.337
 1055SOL    HW1 4064   5.280   5.845   6.426
 1055SOL    HW2 4065   5.215   5.966   6.339
 1056SOL     OW 4066   1.476   3.791   0.335
 1056SOL    HW1 4067   1.450   3.749   0.422
 1056SOL    HW2 4068   1.394   3.823   0.287
 1057SOL     OW 4069   3.506   1.929   1.923
 1057SOL    HW1 4070   3.509   2.002   1.854
 1057SOL    HW2 4071   3.564   1.954   2.000
 1058SOL     OW 4072   4.024   2.054   3.174
 1058SOL    HW1 4073   3.973   2.103   3.104
 1058SOL    HW2 4074   4.003   2.092   3.264
 1059SOL     OW 4075   2.576   6.505   2.125
 1059SOL    HW1 4076   2.477   6.519   2.136
 1059SOL    HW2 4077   2.597   6.481   2.031
 1060SOL     OW 4078   0.316   5.006   4.293
 1060SOL    HW1 4079   0.296   5.089   4.345
 1060SOL    HW2 4080   0.331   5.029   4.197
 1061SOL     OW 4081   6.352   4.096   7.019
 1061SOL    HW1 4082   6.331   4.157   6.943
 1061SOL    HW2 4083   6.353   4.001   6.987
 1062SOL     OW 4084   4.536   6.621   5.149
 1062SOL    HW1 4085   4.567   6.543   5.203
 1062SOL    HW2 4086   4.437   6.616   5.137
 1063SOL     OW 4087   0.585   6.885   5.979
 1063SOL    HW1 4088   0.636   6.799   5.977
 1063SOL    HW2 4089   0.521   6.884   6.055
 1064SOL     OW 4090   0.642   4.436   1.624
 1064SOL    HW1 4091   0.555   4.475   1.654
 1064SOL    HW2 4092   0.693   4.505   1.572
 1065SOL     OW 4093   3.606   0.953   3.558
 1065SOL    HW1 4094   3.673   0.903   3.613
 1065SOL    HW2 4095   3.651   0.992   3.478
 1066SOL     OW 4096   4.894   6.805   1.986
 1066SOL    HW1 4097   4.980   6.842   2.022
 1066SOL    HW2 4098   4.848   6.751   2.057
 1067SOL     OW 4099   2.704   0.986   0.197
 1067SOL    HW1 4100   2.624   0.936   0.232
 1067SOL    HW2 4101   2.695   1.083   0.223
 1068SOL     OW 4102   6.319   3.986   1.496
 1068SOL    HW1 4103   6.244   3.977   1.430
 1068SOL    HW2 4104   6.343   4.083   1.505
 1069SOL     OW 4105   5.729   4.832   0.826
 1069SOL    HW1 4106   5.743   4.742   0.867
 1069SOL    HW2 4107   5.697   4.821   0.732
 1070SOL     OW 4108   2.466   0.431   2.668
 1070SOL    HW1 4109   2.489   0.409   2.762
 1070SOL    HW2 4110   2.405   0.360   2.631
 1071SOL     OW 4111   0.353   2.069   4.769
 1071SOL    HW1 4112   0.430   2.072   4.832
 1071SOL    HW2 4113   0.335   2.160   4.732
 1072SOL     OW 4114   1.911   0.654   1.625
 1072SOL    HW1 4115   2.006   0.663   1.595
 1072SOL    HW2 4116   1.858   0.610   1.553
 1073SOL     OW 4117   6.014   1.899   3.176
 1073SOL    HW1 4118   6.106   1.931   3.153
 1073SOL    HW2 4119   5.996   1.812   3.130
 1074SOL     OW 4120   2.786   5.634   1.692
 1074SOL    HW1 4121   2.828   5.558   1.743
 1074SOL    HW2 4122   2.786   5.612   1.594
 1075SOL     OW 4123   5.852   1.249   4.801
 1075SOL    HW1 4124   5.827   1.341   4.770
 1075SOL    HW2 4125   5.931   1.217   4.748
 1076SOL     OW 4126   1.823   3.667   5.603
 1076SOL    HW1 4127   1.912   3.701   5.634
 1076SOL    HW2 4128   1.761   3.744   5.587
 1077SOL     OW 4129   0.106   7.020   0.100
 1077SOL    HW1 4130   0.045   0.068   0.064
 1077SOL    HW2 4131   0.052   6.945   0.137
 1078SOL     OW 4132   6.671   6.811   3.306
 1078SOL    HW1 4133   6.700   6.805   3.402
 1078SOL    HW2 4134   6.738   6.866   3.255
 1079SOL     OW 4135   1.021   5.448   2.371
 1079SOL    HW1 4136   1.059   5.376   2.429
 1079SOL    HW2 4137   1.022   5.418   2.276
 1080SOL     OW 4138   2.139   5.678   5.427
 1080SOL    HW1 4139   2.170   5.760   5.475
 1080SOL    HW2 4140   2.117   5.701   5.332
 1081SOL     OW 4141   7.014   5.799   4.321
 1081SOL    HW1 4142   7.006   5.887   4.273
 1081SOL    HW2 4143   0.038   5.813   4.409
 1082SOL     OW 4144   6.138   1.592   6.304
 1082SOL    HW1 4145   6.128   1.570   6.401
 1082SOL    HW2 4146   6.117   1.511   6.250
 1083SOL     OW 4147   4.704   4.430   0.273
 1083SOL    HW1 4148   4.644   4.426   0.353
 1083SOL    HW2 4149   4.693   4.347   0.219
 1084SOL     OW 4150   6.310   6.940   6.766
 1084SOL    HW1 4151   6.293   7.017   6.704
 1084SOL    HW2 4152   6.359   6.868   6.717
 1085SOL     OW 4153   1.747   3.703   3.991
 1085SOL    HW1 4154   1.769   3.613   3.953
 1085SOL    HW2 4155   1.742   3.696   4.091
 1086SOL     OW 4156   6.644   4.708   6.139
 1086SOL    HW1 4157   6.546   4.688   6.128
 1086SOL    HW2 4158   6.668   4.701   6.235
 1087SOL     OW 4159   1.587   1.866   5.390
 1087SOL    HW1 4160   1.644   1.926   5.448
 1087SOL    HW2 4161   1.541   1.798   5.448
 1088SOL     OW 4162   0.469   5.236   3.360
 1088SOL    HW1 4163   0.499   5.265   3.451
 1088SOL    HW2 4164   0.380   5.279   3.340
 1089SOL     OW 4165   0.575   5.646   4.722
 1089SOL    HW1 4166   0.621   5.570   4.768
 1089SOL    HW2 4167   0.644   5.703   4.676
 1090SOL     OW 4168   5.812   2.013   3.507
 1090SOL    HW1 4169   5.734   2.024   3.569
 1090SOL    HW2 4170   5.894   2.053   3.547
 1091SOL     OW 4171   2.141   3.170   3.479
 1091SOL    HW1 4172   2.114   3.259   3.443
 1091SOL    HW2 4173   2.233   3.175   3.517
 1092SOL     OW 4174   0.886   4.795   1.195
 1092SOL    HW1 4175   0.943   4.746   1.261
 1092SOL    HW2 4176   0.913   4.891   1.193
 1093SOL     OW 4177   2.729   0.227   1.276
 1093SOL    HW1 4178   2.675   0.311   1.278
 1093SOL    HW2 4179   2.798   0.234   1.204
 1094SOL     OW 4180   0.834   6.965   2.842
 1094SOL    HW1 4181   0.900   6.976   2.917
 1094SOL    HW2 4182   0.780   6.882   2.857
 1095SOL     OW 4183   0.314   2.619   6.540
 1095SOL    HW1 4184   0.356   2.676   6.610
 1095SOL    HW2 4185   0.355   2.639   6.451
 1096SOL     OW 4186   2.960   5.460   0.706
 1096SOL    HW1 4187   2.945   5.381   0.766
 1096SOL    HW2 4188   3.043   5.445   0.653
 1097SOL     OW 4189   2.274   5.426   3.543
 1097SOL    HW1 4190   2.273   5.366   3.463
 1097SOL    HW2 4191   2.261   5.521   3.514
 1098SOL     OW 4192   5.825   4.046   6.821
 1098SOL    HW1 4193   5.888   3.992   6.877
 1098SOL    HW2 4194   5.860   4.052   6.728
 1099SOL     OW 4195   4.697   1.101   6.084
 1099SOL    HW1 4196   4.762   1.025   6.088
 1099SOL    HW2 4197   4.681   1.126   5.988
 1100SOL     OW 4198   3.673   1.433   3.994
 1100SOL    HW1 4199   3.625   1.396   4.073
 1100SOL    HW2 4200   3.760   1.384   3.982
 1101SOL     OW 4201   5.431   3.711   5.311
 1101SOL    HW1 4202   5.452   3.668   5.399
 1101SOL    HW2 4203   5.514   3.715   5.255
 1102SOL     OW 4204   2.339   0.795   4.498
 1102SOL    HW1 4205   2.323   0.837   4.587
 1102SOL    HW2 4206   2.435   0.766   4.491
 1103SOL     OW 4207   2.840   1.954   6.904
 1103SOL    HW1 4208   2.894   1.873   6.926
 1103SOL    HW2 4209   2.817   1.954   6.807
 1104SOL     OW 4210   1.220   3.825   3.077
 1104SOL    HW1 4211   1.136   3.776   3.054
 1104SOL    HW2 4212   1.240   3.891   3.005
 1105SOL     OW 4213   5.378   2.731   4.472
 1105SOL    HW1 4214   5.333   2.811   4.511
 1105SOL    HW2 4215   5.372   2.654   4.536
 1106SOL     OW 4216   0.527   1.233   0.325
 1106SOL    HW1 4217   0.484   1.319   0.298
 1106SOL    HW2 4218   0.623   1.250   0.349
 1107SOL     OW 4219   1.184   0.345   6.450
 1107SOL    HW1 4220   1.202   0.443   6.444
 1107SOL    HW2 4221   1.086   0.329   6.440
 1108SOL     OW 4222   3.466   6.397   4.192
 1108SOL    HW1 4223   3.477   6.394   4.093
 1108SOL    HW2 4224   3.387   6.341   4.218
 1109SOL     OW 4225   5.990   1.760   3.717
 1109SOL    HW1 4226   5.923   1.687   3.728
 1109SOL    HW2 4227   6.027   1.785   3.806
 1110SOL     OW 4228   3.316   1.054   3.288
 1110SOL    HW1 4229   3.222   1.028   3.308
 1110SOL    HW2 4230   3.349   1.003   3.208
 1111SOL     OW 4231   4.755   4.418   6.152
 1111SOL    HW1 4232   4.796   4.509   6.152
 1111SOL    HW2 4233   4.790   4.365   6.075
 1112SOL     OW 4234   6.187   6.628   3.683
 1112SOL    HW1 4235   6.170   6.530   3.678
 1112SOL    HW2 4236   6.121   6.671   3.745
 1113SOL     OW 4237   6.614   3.914   2.204
 1113SOL    HW1 4238   6.622   3.976   2.282
 1113SOL    HW2 4239   6.537   3.852   2.219
 1114SOL     OW 4240   3.986   2.171   5.974
 1114SOL    HW1 4241   3.925   2.140   5.902
 1114SOL    HW2 4242   3.987   2.271   5.977
 1115SOL     OW 4243   4.069   4.337   5.583
 1115SOL    HW1 4244   4.073   4.345   5.483
 1115SOL    HW2 4245   4.159   4.311   5.618
 1116SOL     OW 4246   5.210   0.928   0.135
 1116SOL    HW1 4247   5.240   1.024   0.136
 1116SOL    HW2 4248   5.140   0.916   0.065
 1117SOL     OW 4249   0.869   2.278   1.426
 1117SOL    HW1 4250   0.790   2.217   1.430
 1117SOL    HW2 4251   0.903   2.283   1.332
 1118SOL     OW 4252   2.568   5.868   6.496
 1118SOL    HW1 4253   2.631   5.798   6.531
 1118SOL    HW2 4254   2.537   5.925   6.572
 1119SOL     OW 4255   4.323   4.594   2.543
 1119SOL    HW1 4256   4.275   4.654   2.479
 1119SOL    HW2 4257   4.270   4.510   2.555
 1120SOL     OW 4258   6.275   5.707   1.247
 1120SOL    HW1 4259   6.228   5.745   1.326
 1120SOL    HW2 4260   6.361   5.757   1.232
 1121SOL     OW 4261   0.915   5.073   4.492
 1121SOL    HW1 4262   0.838   5.082   4.555
 1121SOL    HW2 4263   0.891   5.009   4.419
 1122SOL     OW 4264   6.388   2.871   2.191
 1122SOL    HW1 4265   6.486   2.889   2.201
 1122SOL    HW2 4266   6.356   2.910   2.105
 1123SOL     OW 4267   4.470   2.233   3.503
 1123SOL    HW1 4268   4.452   2.136   3.520
 1123SOL    HW2 4269   4.564   2.255   3.532
 1124SOL     OW 4270   1.390   3.463   4.862
 1124SOL    HW1 4271   1.388   3.561   4.844
 1124SOL    HW2 4272   1.300   3.423   4.842
 1125SOL     OW 4273   1.629   3.345   4.531
 1125SOL    HW1 4274   1.688   3.329   4.610
 1125SOL    HW2 4275   1.620   3.443   4.515
 1126SOL     OW 4276   4.108   6.084   5.590
 1126SOL    HW1 4277   4.121   6.130   5.678
 1126SOL    HW2 4278   4.147   6.141   5.518
 1127SOL     OW 4279   6.160   6.692   4.121
 1127SOL    HW1 4280   6.233   6.627   4.101
 1127SOL    HW2 4281   6.127   6.679   4.214
 1128SOL     OW 4282   5.869   1.329   4.495
 1128SOL    HW1 4283   5.825   1.361   4.411
 1128SOL    HW2 4284   5.826   1.372   4.574
 1129SOL     OW 4285   1.816   6.861   0.373
 1129SOL    HW1 4286   1.885   6.933   0.378
 1129SOL    HW2 4287   1.737   6.895   0.322
 1130SOL     OW 4288   1.684   5.071   1.482
 1130SOL    HW1 4289   1.690   4.982   1.526
 1130SOL    HW2 4290   1.598   5.078   1.431
 1131SOL     OW 4291   1.705   6.987   4.785
 1131SOL    HW1 4292   1.647   6.925   4.838
 1131SOL    HW2 4293   1.685   6.976   4.688
 1132SOL     OW 4294   4.594   0.590   2.135
 1132SOL    HW1 4295   4.584   0.685   2.163
 1132SOL    HW2 4296   4.691   0.571   2.117
 1133SOL     OW 4297   1.488   0.204   6.123
 1133SOL    HW1 4298   1.389   0.191   6.130
 1133SOL    HW2 4299   1.510   0.254   6.040
 1134SOL     OW 4300   5.276   6.778   1.795
 1134SOL    HW1 4301   5.189   6.782   1.746
 1134SOL    HW2 4302   5.266   6.723   1.878
 1135SOL     OW 4303   2.484   6.159   4.006
 1135SOL    HW1 4304   2.535   6.102   3.943
 1135SOL    HW2 4305   2.439   6.101   4.075
 1136SOL     OW 4306   3.341   5.642   3.577
 1136SOL    HW1 4307   3.356   5.730   3.532
 1136SOL    HW2 4308   3.394   5.571   3.531
 1137SOL     OW 4309   0.895   5.890   6.932
 1137SOL    HW1 4310   0.913   5.792   6.938
 1137SOL    HW2 4311   0.849   5.909   6.845
 1138SOL     OW 4312   1.702   2.944   5.211
 1138SOL    HW1 4313   1.753   3.026   5.186
 1138SOL    HW2 4314   1.742   2.904   5.293
 1139SOL     OW 4315   2.343   4.932   4.149
 1139SOL    HW1 4316   2.394   4.953   4.066
 1139SOL    HW2 4317   2.246   4.923   4.127
 1140SOL     OW 4318   1.698   0.993   2.234
 1140SOL    HW1 4319   1.679   0.919   2.169
 1140SOL    HW2 4320   1.660   1.079   2.198
 1141SOL     OW 4321   6.012   5.363   6.266
 1141SOL    HW1 4322   6.074   5.426   6.313
 1141SOL    HW2 4323   5.920   5.402   6.266
 1142SOL     OW 4324   2.464   6.960   3.352
 1142SOL    HW1 4325   2.476   0.029   3.313
 1142SOL    HW2 4326   2.427   6.899   3.283
 1143SOL     OW 4327   1.294   3.029   2.355
 1143SOL    HW1 4328   1.389   3.030   2.323
 1143SOL    HW2 4329   1.271   2.937   2.386
 1144SOL     OW 4330   5.459   4.209   3.050
 1144SOL    HW1 4331   5.360   4.208   3.038
 1144SOL    HW2 4332   5.503   4.188   2.962
 1145SOL     OW 4333   0.939   2.866   0.448
 1145SOL    HW1 4334   0.939   2.807   0.367
 1145SOL    HW2 4335   0.866   2.836   0.510
 1146SOL     OW 4336   0.792   1.748   1.117
 1146SOL    HW1 4337   0.699   1.723   1.144
 1146SOL    HW2 4338   0.795   1.761   1.018
 1147SOL     OW 4339   2.955   5.939   0.979
 1147SOL    HW1 4340   2.881   5.920   1.043
 1147SOL    HW2 4341   2.926   6.011   0.916
 1148SOL     OW 4342   4.044   6.380   1.833
 1148SOL    HW1 4343   4.113   6.398   1.763
 1148SOL    HW2 4344   4.007   6.288   1.820
 1149SOL     OW 4345   6.383   3.199   1.851
 1149SOL    HW1 4346   6.331   3.284   1.846
 1149SOL    HW2 4347   6.418   3.176   1.760
 1150SOL     OW 4348   1.121   4.308   0.016
 1150SOL    HW1 4349   1.063   4.259   6.973
 1150SOL    HW2 4350   1.105   4.271   0.108
 1151SOL     OW 4351   5.968   5.044   4.266
 1151SOL    HW1 4352   5.994   5.123   4.211
 1151SOL    HW2 4353   5.909   5.073   4.342
 1152SOL     OW 4354   4.514   6.786   0.340
 1152SOL    HW1 4355   4.544   6.828   0.254
 1152SOL    HW2 4356   4.492   6.690   0.324
 1153SOL     OW 4357   6.930   6.818   1.173
 1153SOL    HW1 4358   6.986   6.817   1.091
 1153SOL    HW2 4359   6.849   6.875   1.159
 1154SOL     OW 4360   0.625   3.903   2.096
 1154SOL    HW1 4361   0.609   3.867   2.004
 1154SOL    HW2 4362   0.683   3.984   2.091
 1155SOL     OW 4363   2.516   6.455   5.213
 1155SOL    HW1 4364   2.594   6.429   5.156
 1155SOL    HW2 4365   2.458   6.519   5.163
 1156SOL     OW 4366   4.398   1.865   5.173
 1156SOL    HW1 4367   4.429   1.941   5.116
 1156SOL    HW2 4368   4.433   1.877   5.266
 1157SOL     OW 4369   4.941   1.113   5.424
 1157SOL    HW1 4370   4.985   1.201   5.441
 1157SOL    HW2 4371   4.842   1.127   5.416
 1158SOL     OW 4372   5.691   6.210   4.197
 1158SOL    HW1 4373   5.691   6.287   4.133
 1158SOL    HW2 4374   5.712   6.244   4.289
 1159SOL     OW 4375   6.012   6.466   3.269
 1159SOL    HW1 4376   6.068   6.502   3.195
 1159SOL    HW2 4377   5.976   6.541   3.324
 1160SOL     OW 4378   4.158   6.206   1.304
 1160SOL    HW1 4379   4.138   6.239   1.212
 1160SOL    HW2 4380   4.245   6.156   1.303
 1161SOL     OW 4381   0.061   5.353   6.196
 1161SOL    HW1 4382   0.055   5.268   6.248
 1161SOL    HW2 4383   6.992   5.376   6.162
 1162SOL     OW 4384   2.150   2.865   5.768
 1162SOL    HW1 4385   2.141   2.872   5.868
 1162SOL    HW2 4386   2.074   2.912   5.725
 1163SOL     OW 4387   6.195   4.337   1.722
 1163SOL    HW1 4388   6.249   4.254   1.735
 1163SOL    HW2 4389   6.223   4.383   1.638
 1164SOL     OW 4390   5.571   2.159   4.617
 1164SOL    HW1 4391   5.481   2.184   4.581
 1164SOL    HW2 4392   5.561   2.083   4.682
 1165SOL     OW 4393   4.418   6.405   3.635
 1165SOL    HW1 4394   4.505   6.413   3.587
 1165SOL    HW2 4395   4.435   6.402   3.734
 1166SOL     OW 4396   1.981   6.634   0.340
 1166SOL    HW1 4397   1.915   6.708   0.326
 1166SOL    HW2 4398   1.936   6.546   0.323
 1167SOL     OW 4399   4.937   4.031   1.720
 1167SOL    HW1 4400   4.976   4.110   1.767
 1167SOL    HW2 4401   4.927   3.956   1.785
 1168SOL     OW 4402   6.197   2.022   2.020
 1168SOL    HW1 4403   6.225   1.953   1.953
 1168SOL    HW2 4404   6.131   2.085   1.978
 1169SOL     OW 4405   5.843   1.629   5.675
 1169SOL    HW1 4406   5.900   1.615   5.756
 1169SOL    HW2 4407   5.892   1.598   5.594
 1170SOL     OW 4408   4.556   0.445   2.615
 1170SOL    HW1 4409   4.634   0.384   2.600
 1170SOL    HW2 4410   4.476   0.409   2.567
 1171SOL     OW 4411   2.246   0.101   0.531
 1171SOL    HW1 4412   2.330   0.135   0.572
 1171SOL    HW2 4413   2.268   0.047   0.449
 1172SOL     OW 4414   5.331   3.816   1.033
 1172SOL    HW1 4415   5.312   3.775   1.122
 1172SOL    HW2 4416   5.259   3.882   1.010
 1173SOL     OW 4417   2.117   1.289   1.284
 1173SOL    HW1 4418   2.189   1.292   1.215
 1173SOL    HW2 4419   2.084   1.195   1.293
 1174SOL     OW 4420   3.508   4.011   1.884
 1174SOL    HW1 4421   3.590   3.960   1.910
 1174SOL    HW2 4422   3.505   4.097   1.934
 1175SOL     OW 4423   4.564   3.255   5.787
 1175SOL    HW1 4424   4.587   3.338   5.838
 1175SOL    HW2 4425   4.534   3.281   5.695
 1176SOL     OW 4426   4.627   3.402   6.122
 1176SOL    HW1 4427   4.690   3.430   6.049
 1176SOL    HW2 4428   4.629   3.302   6.131
 1177SOL     OW 4429   6.338   3.536   5.028
 1177SOL    HW1 4430   6.371   3.576   4.943
 1177SOL    HW2 4431   6.400   3.560   5.103
 1178SOL     OW 4432   2.825   3.205   0.797
 1178SOL    HW1 4433   2.844   3.265   0.719
 1178SOL    HW2 4434   2.743   3.151   0.779
 1179SOL     OW 4435   2.266   5.983   0.314
 1179SOL    HW1 4436   2.198   5.991   0.387
 1179SOL    HW2 4437   2.340   5.922   0.343
 1180SOL     OW 4438   2.403   6.106   3.211
 1180SOL    HW1 4439   2.442   6.180   3.156
 1180SOL    HW2 4440   2.449   6.103   3.300
 1181SOL     OW 4441   0.349   5.538   5.850
 1181SOL    HW1 4442   0.325   5.525   5.946
 1181SOL    HW2 4443   0.357   5.449   5.805
 1182SOL     OW 4444   4.115   5.697   3.379
 1182SOL    HW1 4445   4.027   5.738   3.401
 1182SOL    HW2 4446   4.163   5.673   3.463
 1183SOL     OW 4447   1.921   4.460   0.548
 1183SOL    HW1 4448   1.844   4.493   0.602
 1183SOL    HW2 4449   1.888   4.394   0.481
 1184SOL     OW 4450   0.532   0.317   4.727
 1184SOL    HW1 4451   0.466   0.381   4.765
 1184SOL    HW2 4452   0.573   0.264   4.801
 1185SOL     OW 4453   0.586   1.020   6.729
 1185SOL    HW1 4454   0.507   1.043   6.673
 1185SOL    HW2 4455   0.629   0.937   6.693
 1186SOL     OW 4456   5.008   5.725   5.562
 1186SOL    HW1 4457   4.935   5.663   5.533
 1186SOL    HW2 4458   4.999   5.812   5.513
 1187SOL     OW 4459   6.472   6.677   6.964
 1187SOL    HW1 4460   6.441   6.765   7.001
 1187SOL    HW2 4461   6.437   6.603   7.021
 1188SOL     OW 4462   3.619   6.305   4.899
 1188SOL    HW1 4463   3.702   6.341   4.855
 1188SOL    HW2 4464   3.561   6.262   4.830
 1189SOL     OW 4465   6.530   2.506   2.760
 1189SOL    HW1 4466   6.480   2.521   2.675
 1189SOL    HW2 4467   6.620   2.548   2.754
 1190SOL     OW 4468   2.159   5.900   3.728
 1190SOL    HW1 4469   2.118   5.954   3.802
 1190SOL    HW2 4470   2.124   5.935   3.640
 1191SOL     OW 4471   4.724   4.781   3.880
 1191SOL    HW1 4472   4.708   4.687   3.909
 1191SOL    HW2 4473   4.713   4.788   3.781
 1192SOL     OW 4474   3.738   5.534   3.296
 1192SOL    HW1 4475   3.640   5.551   3.301
 1192SOL    HW2 4476   3.774   5.570   3.210
 1193SOL     OW 4477   6.232   3.974   4.793
 1193SOL    HW1 4478   6.319   3.949   4.835
 1193SOL    HW2 4479   6.157   3.940   4.850
 1194SOL     OW 4480   5.425   6.984   1.436
 1194SOL    HW1 4481   5.331   6.974   1.405
 1194SOL    HW2 4482   5.443   6.921   1.512
 1195SOL     OW 4483   6.431   4.662   1.489
 1195SOL    HW1 4484   6.353   4.600   1.496
 1195SOL    HW2 4485   6.512   4.612   1.460
 1196SOL     OW 4486   0.128   5.683   2.934
 1196SOL    HW1 4487   0.145   5.585   2.937
 1196SOL    HW2 4488   0.064   5.708   3.006
 1197SOL     OW 4489   4.161   0.415   5.853
 1197SOL    HW1 4490   4.062   0.401   5.854
 1197SOL    HW2 4491   4.187   0.468   5.772
 1198SOL     OW 4492   1.399   3.167   1.708
 1198SOL    HW1 4493   1.430   3.142   1.616
 1198SOL    HW2 4494   1.477   3.203   1.761
 1199SOL     OW 4495   4.590   4.557   1.987
 1199SOL    HW1 4496   4.541   4.562   2.075
 1199SOL    HW2 4497   4.588   4.463   1.954
 1200SOL     OW 4498   3.423   3.473   3.567
 1200SOL    HW1 4499   3.481   3.497   3.645
 1200SOL    HW2 4500   3.389   3.379   3.579
 1201SOL     OW 4501   1.268   1.114   4.885
 1201SOL    HW1 4502   1.246   1.108   4.787
 1201SOL    HW2 4503   1.296   1.024   4.918
 1202SOL     OW 4504   1.018   5.469   6.168
 1202SOL    HW1 4505   0.950   5.454   6.096
 1202SOL    HW2 4506   1.030   5.567   6.182
 1203SOL     OW 4507   5.989   6.346   0.034
 1203SOL    HW1 4508   5.979   6.388   6.966
 1203SOL    HW2 4509   5.900   6.313   0.065
 1204SOL     OW 4510   2.980   6.711   1.362
 1204SOL    HW1 4511   3.043   6.753   1.297
 1204SOL    HW2 4512   2.950   6.622   1.327
 1205SOL     OW 4513   5.512   3.987   1.495
 1205SOL    HW1 4514   5.604   4.018   1.470
 1205SOL    HW2 4515   5.515   3.945   1.585
 1206SOL     OW 4516   3.253   2.789   5.374
 1206SOL    HW1 4517   3.179   2.836   5.327
 1206SOL    HW2 4518   3.217   2.740   5.453
 1207SOL     OW 4519   1.884   6.604   1.519
 1207SOL    HW1 4520   1.951   6.578   1.449
 1207SOL    HW2 4521   1.796   6.625   1.476
 1208SOL     OW 4522   3.262   3.697   0.528
 1208SOL    HW1 4523   3.323   3.766   0.568
 1208SOL    HW2 4524   3.313   3.642   0.463
 1209SOL     OW 4525   3.934   0.912   5.043
 1209SOL    HW1 4526   3.940   0.812   5.040
 1209SOL    HW2 4527   3.877   0.939   5.120
 1210SOL     OW 4528   2.570   0.449   2.924
 1210SOL    HW1 4529   2.582   0.477   3.019
 1210SOL    HW2 4530   2.658   0.452   2.877
 1211SOL     OW 4531   1.229   3.840   1.587
 1211SOL    HW1 4532   1.229   3.929   1.633
 1211SOL    HW2 4533   1.321   3.819   1.554
 1212SOL     OW 4534   6.396   0.239   6.723
 1212SOL    HW1 4535   6.453   0.314   6.756
 1212SOL    HW2 4536   6.385   0.246   6.624
 1213SOL     OW 4537   6.450   2.316   0.447
 1213SOL    HW1 4538   6.544   2.282   0.459
 1213SOL    HW2 4539   6.439   2.402   0.497
 1214SOL     OW 4540   0.374   3.026   0.196
 1214SOL    HW1 4541   0.461   3.014   0.245
 1214SOL    HW2 4542   0.317   3.091   0.245
 1215SOL     OW 4543   1.335   3.852   3.801
 1215SOL    HW1 4544   1.372   3.928   3.855
 1215SOL    HW2 4545   1.356   3.866   3.705
 1216SOL     OW 4546   5.357   0.799   1.370
 1216SOL    HW1 4547   5.352   0.788   1.271
 1216SOL    HW2 4548   5.265   0.798   1.409
 1217SOL     OW 4549   1.496   4.804   0.823
 1217SOL    HW1 4550   1.529   4.815   0.917
 1217SOL    HW2 4551   1.443   4.885   0.797
 1218SOL     OW 4552   1.851   4.599   4.384
 1218SOL    HW1 4553   1.944   4.597   4.421
 1218SOL    HW2 4554   1.852   4.646   4.296
 1219SOL     OW 4555   5.322   5.004   2.351
 1219SOL    HW1 4556   5.336   5.047   2.441
 1219SOL    HW2 4557   5.268   4.921   2.362
 1220SOL     OW 4558   0.782   5.143   3.457
 1220SOL    HW1 4559   0.701   5.085   3.463
 1220SOL    HW2 4560   0.759   5.236   3.485
 1221SOL     OW 4561   4.757   3.477   5.618
 1221SOL    HW1 4562   4.797   3.395   5.576
 1221SOL    HW2 4563   4.829   3.544   5.634
 1222SOL     OW 4564   6.329   6.638   6.698
 1222SOL    HW1 4565   6.334   6.676   6.791
 1222SOL    HW2 4566   6.251   6.576   6.693
 1223SOL     OW 4567   3.726   0.618   1.057
 1223SOL    HW1 4568   3.822   0.628   1.086
 1223SOL    HW2 4569   3.678   0.704   1.073
 1224SOL     OW 4570   2.338   6.395   0.667
 1224SOL    HW1 4571   2.302   6.387   0.574
 1224SOL    HW2 4572   2.436   6.411   0.663
 1225SOL     OW 4573   3.556   3.910   6.190
 1225SOL    HW1 4574   3.619   3.935   6.263
 1225SOL    HW2 4575   3.590   3.828   6.143
 1226SOL     OW 4576   2.507   5.269   0.928
 1226SOL    HW1 4577   2.523   5.325   0.847
 1226SOL    HW2 4578   2.563   5.187   0.924
 1227SOL     OW 4579   6.896   4.106   6.834
 1227SOL    HW1 4580   6.946   4.049   6.899
 1227SOL    HW2 4581   6.952   4.184   6.808
 1228SOL     OW 4582   4.049   2.411   6.643
 1228SOL    HW1 4583   4.089   2.321   6.624
 1228SOL    HW2 4584   3.988   2.405   6.722
 1229SOL     OW 4585   3.605   4.741   6.121
 1229SOL    HW1 4586   3.565   4.824   6.081
 1229SOL    HW2 4587   3.675   4.705   6.059
 1230SOL     OW 4588   4.368   0.216   3.585
 1230SOL    HW1 4589   4.274   0.249   3.587
 1230SOL    HW2 4590   4.430   0.292   3.566
 1231SOL     OW 4591   1.119   3.719   4.526
 1231SOL    HW1 4592   1.108   3.630   4.570
 1231SOL    HW2 4593   1.153   3.785   4.592
 1232SOL     OW 4594   1.078   1.751   5.832
 1232SOL    HW1 4595   1.031   1.816   5.892
 1232SOL    HW2 4596   1.049   1.766   5.738
 1233SOL     OW 4597   1.768   3.140   4.384
 1233SOL    HW1 4598   1.730   3.220   4.430
 1233SOL    HW2 4599   1.855   3.115   4.427
 1234SOL     OW 4600   6.645   4.108   4.823
 1234SOL    HW1 4601   6.686   4.067   4.742
 1234SOL    HW2 4602   6.574   4.047   4.859
 1235SOL     OW 4603   0.327   5.962   2.515
 1235SOL    HW1 4604   0.343   5.869   2.548
 1235SOL    HW2 4605   0.351   6.027   2.587
 1236SOL     OW 4606   5.429   1.082   6.960
 1236SOL    HW1 4607   5.368   1.125   0.003
 1236SOL    HW2 4608   5.377   1.019   6.902
 1237SOL     OW 4609   2.899   5.091   6.690
 1237SOL    HW1 4610   2.892   5.070   6.592
 1237SOL    HW2 4611   2.984   5.054   6.726
 1238SOL     OW 4612   1.963   1.003   0.828
 1238SOL    HW1 4613   1.874   0.966   0.802
 1238SOL    HW2 4614   2.032   0.974   0.761
 1239SOL     OW 4615   6.795   6.402   6.661
 1239SOL    HW1 4616   6.741   6.473   6.705
 1239SOL    HW2 4617   6.745   6.365   6.583
 1240SOL     OW 4618   5.826   5.988   2.132
 1240SOL    HW1 4619   5.847   5.891   2.121
 1240SOL    HW2 4620   5.908   6.036   2.164
 1241SOL     OW 4621   0.048   3.663   4.155
 1241SOL    HW1 4622   6.972   3.675   4.168
 1241SOL    HW2 4623   0.084   3.735   4.095
 1242SOL     OW 4624   1.721   3.367   1.407
 1242SOL    HW1 4625   1.676   3.333   1.325
 1242SOL    HW2 4626   1.794   3.431   1.381
 1243SOL     OW 4627   1.146   6.156   5.369
 1243SOL    HW1 4628   1.182   6.194   5.283
 1243SOL    HW2 4629   1.061   6.203   5.393
 1244SOL     OW 4630   0.470   5.895   3.407
 1244SOL    HW1 4631   0.391   5.882   3.348
 1244SOL    HW2 4632   0.461   5.981   3.456
 1245SOL     OW 4633   4.409   3.852   6.241
 1245SOL    HW1 4634   4.401   3.779   6.173
 1245SOL    HW2 4635   4.371   3.821   6.328
 1246SOL     OW 4636   2.128   6.151   2.261
 1246SOL    HW1 4637   2.123   6.173   2.164
 1246SOL    HW2 4638   2.035   6.149   2.300
 1247SOL     OW 4639   2.932   0.275   6.530
 1247SOL    HW1 4640   3.023   0.244   6.503
 1247SOL    HW2 4641   2.937   0.316   6.621
 1248SOL     OW 4642   2.243   0.116   3.818
 1248SOL    HW1 4643   2.221   0.155   3.907
 1248SOL    HW2 4644   2.307   0.040   3.829
 1249SOL     OW 4645   5.635   2.371   2.176
 1249SOL    HW1 4646   5.661   2.465   2.197
 1249SOL    HW2 4647   5.714   2.322   2.142
 1250SOL     OW 4648   0.230   4.625   5.074
 1250SOL    HW1 4649   0.280   4.649   4.991
 1250SOL    HW2 4650   0.202   4.529   5.070
 1251SOL     OW 4651   3.427   0.184   4.418
 1251SOL    HW1 4652   3.385   0.097   4.393
 1251SOL    HW2 4653   3.507   0.200   4.361
 1252SOL     OW 4654   3.575   3.679   6.012
 1252SOL    HW1 4655   3.608   3.585   6.022
 1252SOL    HW2 4656   3.486   3.679   5.967
 1253SOL     OW 4657   3.993   5.716   1.790
 1253SOL    HW1 4658   3.975   5.686   1.697
 1253SOL    HW2 4659   4.020   5.638   1.846
 1254SOL     OW 4660   6.178   2.883   2.727
 1254SOL    HW1 4661   6.233   2.965   2.713
 1254SOL    HW2 4662   6.133   2.858   2.641
 1255SOL     OW 4663   6.649   1.278   4.704
 1255SOL    HW1 4664   6.741   1.316   4.712
 1255SOL    HW2 4665   6.621   1.239   4.792
 1256SOL     OW 4666   6.848   6.951   3.120
 1256SOL    HW1 4667   6.875   7.001   3.039
 1256SOL    HW2 4668   6.928   6.934   3.177
 1257SOL     OW 4669   0.362   0.025   3.681
 1257SOL    HW1 4670   0.368   6.951   3.658
 1257SOL    HW2 4671   0.426   0.045   3.756
 1258SOL     OW 4672   0.571   4.985   3.647
 1258SOL    HW1 4673   0.617   5.003   3.734
 1258SOL    HW2 4674   0.600   4.896   3.612
 1259SOL     OW 4675   3.998   1.928   4.606
 1259SOL    HW1 4676   4.026   1.874   4.527
 1259SOL    HW2 4677   3.993   1.869   4.686
 1260SOL     OW 4678   0.909   1.694   0.053
 1260SOL    HW1 4679   0.901   1.625   0.124
 1260SOL    HW2 4680   0.956   1.656   6.996
 1261SOL     OW 4681   0.414   5.504   6.890
 1261SOL    HW1 4682   0.334   5.476   6.942
 1261SOL    HW2 4683   0.492   5.514   6.952
 1262SOL     OW 4684   5.159   5.199   2.520
 1262SOL    HW1 4685   5.082   5.150   2.477
 1262SOL    HW2 4686   5.127   5.287   2.553
 1263SOL     OW 4687   0.601   1.417   2.606
 1263SOL    HW1 4688   0.657   1.467   2.672
 1263SOL    HW2 4689   0.543   1.481   2.556
 1264SOL     OW 4690   1.021   3.730   5.789
 1264SOL    HW1 4691   0.993   3.644   5.748
 1264SOL    HW2 4692   1.098   3.769   5.737
 1265SOL     OW 4693   6.816   5.383   4.389
 1265SOL    HW1 4694   6.749   5.339   4.448
 1265SOL    HW2 4695   6.770   5.443   4.324
 1266SOL     OW 4696   0.613   0.697   4.413
 1266SOL    HW1 4697   0.622   0.692   4.313
 1266SOL    HW2 4698   0.623   0.606   4.452
 1267SOL     OW 4699   5.322   0.660   2.060
 1267SOL    HW1 4700   5.297   0.729   1.992
 1267SOL    HW2 4701   5.359   0.705   2.141
 1268SOL     OW 4702   3.949   2.537   5.695
 1268SOL    HW1 4703   4.015   2.605   5.665
 1268SOL    HW2 4704   3.857   2.566   5.669
 1269SOL     OW 4705   5.192   2.456   4.238
 1269SOL    HW1 4706   5.228   2.440   4.146
 1269SOL    HW2 4707   5.158   2.550   4.245
 1270SOL     OW 4708   1.585   4.706   1.952
 1270SOL    HW1 4709   1.580   4.806   1.955
 1270SOL    HW2 4710   1.634   4.673   2.032
 1271SOL     OW 4711   1.699   0.678   1.231
 1271SOL    HW1 4712   1.686   0.758   1.173
 1271SOL    HW2 4713   1.614   0.626   1.236
 1272SOL     OW 4714   6.318   3.716   6.368
 1272SOL    HW1 4715   6.299   3.786   6.437
 1272SOL    HW2 4716   6.402   3.739   6.320
 1273SOL     OW 4717   1.524   3.954   4.691
 1273SOL    HW1 4718   1.595   3.915   4.633
 1273SOL    HW2 4719   1.565   4.003   4.768
 1274SOL     OW 4720   0.245   4.749   1.463
 1274SOL    HW1 4721   0.223   4.689   1.386
 1274SOL    HW2 4722   0.336   4.788   1.451
 1275SOL     OW 4723   2.599   0.287   3.444
 1275SOL    HW1 4724   2.673   0.345   3.409
 1275SOL    HW2 4725   2.541   0.257   3.368
 1276SOL     OW 4726   5.478   4.647   4.724
 1276SOL    HW1 4727   5.540   4.611   4.654
 1276SOL    HW2 4728   5.400   4.691   4.680
 1277SOL     OW 4729   1.073   5.423   0.165
 1277SOL    HW1 4730   1.065   5.347   0.100
 1277SOL    HW2 4731   1.005   5.412   0.237
 1278SOL     OW 4732   0.886   6.885   3.731
 1278SOL    HW1 4733   0.802   6.843   3.696
 1278SOL    HW2 4734   0.935   6.819   3.788
 1279SOL     OW 4735   2.305   3.755   6.011
 1279SOL    HW1 4736   2.321   3.854   6.015
 1279SOL    HW2 4737   2.390   3.706   6.030
 1280SOL     OW 4738   3.243   0.802   3.790
 1280SOL    HW1 4739   3.260   0.847   3.702
 1280SOL    HW2 4740   3.330   0.784   3.836
 1281SOL     OW 4741   2.849   6.098   4.156
 1281SOL    HW1 4742   2.788   6.037   4.105
 1281SOL    HW2 4743   2.938   6.102   4.110
 1282SOL     OW 4744   6.656   2.808   0.281
 1282SOL    HW1 4745   6.581   2.832   0.342
 1282SOL    HW2 4746   6.724   2.753   0.330
 1283SOL     OW 4747   6.475   4.014   5.400
 1283SOL    HW1 4748   6.440   3.987   5.490
 1283SOL    HW2 4749   6.415   3.977   5.329
 1284SOL     OW 4750   3.845   0.796   1.263
 1284SOL    HW1 4751   3.766   0.794   1.202
 1284SOL    HW2 4752   3.893   0.883   1.252
 1285SOL     OW 4753   3.804   1.449   5.094
 1285SOL    HW1 4754   3.759   1.531   5.131
 1285SOL    HW2 4755   3.754   1.418   5.013
 1286SOL     OW 4756   4.927   2.670   1.345
 1286SOL    HW1 4757   5.019   2.706   1.328
 1286SOL    HW2 4758   4.880   2.728   1.411
 1287SOL     OW 4759   5.667   4.677   5.403
 1287SOL    HW1 4760   5.650   4.769   5.437
 1287SOL    HW2 4761   5.752   4.676   5.350
 1288SOL     OW 4762   4.363   4.615   6.249
 1288SOL    HW1 4763   4.295   4.637   6.179
 1288SOL    HW2 4764   4.348   4.673   6.329
 1289SOL     OW 4765   6.547   0.713   1.603
 1289SOL    HW1 4766   6.477   0.669   1.660
 1289SOL    HW2 4767   6.633   0.663   1.614
 1290SOL     OW 4768   1.515   0.582   0.472
 1290SOL    HW1 4769   1.510   0.619   0.379
 1290SOL    HW2 4770   1.466   0.495   0.477
 1291SOL     OW 4771   6.452   5.009   4.558
 1291SOL    HW1 4772   6.401   4.928   4.589
 1291SOL    HW2 4773   6.543   4.981   4.528
 1292SOL     OW 4774   0.061   5.577   2.460
 1292SOL    HW1 4775   0.112   5.544   2.539
 1292SOL    HW2 4776   0.096   5.533   2.377
 1293SOL     OW 4777   2.187   1.937   0.126
 1293SOL    HW1 4778   2.282   1.910   0.141
 1293SOL    HW2 4779   2.184   2.029   0.086
 1294SOL     OW 4780   1.948   4.322   6.696
 1294SOL    HW1 4781   1.905   4.327   6.606
 1294SOL    HW2 4782   2.028   4.383   6.699
 1295SOL     OW 4783   0.210   3.840   1.357
 1295SOL    HW1 4784   0.174   3.831   1.264
 1295SOL    HW2 4785   0.134   3.860   1.420
 1296SOL     OW 4786   5.188   6.749   5.467
 1296SOL    HW1 4787   5.194   6.820   5.397
 1296SOL    HW2 4788   5.101   6.759   5.516
 1297SOL     OW 4789   0.902   6.722   1.960
 1297SOL    HW1 4790   0.847   6.638   1.950
 1297SOL    HW2 4791   0.989   6.710   1.913
 1298SOL     OW 4792   5.002   6.193   3.187
 1298SOL    HW1 4793   4.996   6.291   3.170
 1298SOL    HW2 4794   5.050   6.148   3.111
 1299SOL     OW 4795   2.044   2.973   3.974
 1299SOL    HW1 4796   2.139   2.964   3.944
 1299SOL    HW2 4797   2.033   2.927   4.063
 1300SOL     OW 4798   2.151   3.621   1.226
 1300SOL    HW1 4799   2.221   3.636   1.296
 1300SOL    HW2 4800   2.190   3.639   1.136
 1301SOL     OW 4801   0.755   0.411   1.612
 1301SOL    HW1 4802   0.785   0.338   1.550
 1301SOL    HW2 4803   0.689   0.470   1.566
 1302SOL     OW 4804   5.521   0.149   5.287
 1302SOL    HW1 4805   5.519   0.122   5.191
 1302SOL    HW2 4806   5.522   0.248   5.294
 1303SOL     OW 4807   3.911   0.238   1.738
 1303SOL    HW1 4808   3.883   0.312   1.678
 1303SOL    HW2 4809   3.953   0.275   1.821
 1304SOL     OW 4810   1.358   1.469   1.293
 1304SOL    HW1 4811   1.405   1.491   1.207
 1304SOL    HW2 4812   1.352   1.552   1.349
 1305SOL     OW 4813   5.382   4.050   6.257
 1305SOL    HW1 4814   5.417   4.100   6.337
 1305SOL    HW2 4815   5.398   4.105   6.175
 1306SOL     OW 4816   0.767   6.226   4.960
 1306SOL    HW1 4817   0.704   6.155   4.992
 1306SOL    HW2 4818   0.738   6.259   4.871
 1307SOL     OW 4819   1.927   2.959   3.734
 1307SOL    HW1 4820   1.889   2.868   3.723
 1307SOL    HW2 4821   1.970   2.967   3.825
 1308SOL     OW 4822   6.664   6.249   6.453
 1308SOL    HW1 4823   6.590   6.316   6.440
 1308SOL    HW2 4824   6.723   6.248   6.372
 1309SOL     OW 4825   5.139   4.974   5.838
 1309SOL    HW1 4826   5.208   5.046   5.845
 1309SOL    HW2 4827   5.071   4.999   5.769
 1310SOL     OW 4828   0.532   4.145   3.911
 1310SOL    HW1 4829   0.526   4.057   3.863
 1310SOL    HW2 4830   0.486   4.137   4.000
 1311SOL     OW 4831   6.407   5.658   6.387
 1311SOL    HW1 4832   6.410   5.592   6.313
 1311SOL    HW2 4833   6.487   5.718   6.382
 1312SOL     OW 4834   1.490   1.021   5.819
 1312SOL    HW1 4835   1.453   1.006   5.727
 1312SOL    HW2 4836   1.439   0.965   5.885
 1313SOL     OW 4837   6.162   5.601   3.229
 1313SOL    HW1 4838   6.256   5.596   3.261
 1313SOL    HW2 4839   6.100   5.570   3.301
 1314SOL     OW 4840   3.128   1.894   4.733
 1314SOL    HW1 4841   3.207   1.838   4.761
 1314SOL    HW2 4842   3.046   1.837   4.733
 1315SOL     OW 4843   6.551   0.649   3.857
 1315SOL    HW1 4844   6.617   0.620   3.926
 1315SOL    HW2 4845   6.516   0.569   3.808
 1316SOL     OW 4846   3.943   0.451   5.405
 1316SOL    HW1 4847   3.962   0.355   5.426
 1316SOL    HW2 4848   3.845   0.462   5.386
 1317SOL     OW 4849   2.009   4.536   5.643
 1317SOL    HW1 4850   2.021   4.506   5.549
 1317SOL    HW2 4851   1.950   4.616   5.645
 1318SOL     OW 4852   2.086   3.478   6.866
 1318SOL    HW1 4853   2.122   3.512   6.952
 1318SOL    HW2 4854   2.140   3.398   6.837
 1319SOL     OW 4855   6.965   6.069   0.025
 1319SOL    HW1 4856   6.935   6.147   6.993
 1319SOL    HW2 4857   6.916   6.068   0.112
 1320SOL     OW 4858   3.296   3.064   6.355
 1320SOL    HW1 4859   3.318   2.966   6.362
 1320SOL    HW2 4860   3.200   3.075   6.330
 1321SOL     OW 4861   5.045   2.513   6.483
 1321SOL    HW1 4862   5.144   2.522   6.473
 1321SOL    HW2 4863   5.001   2.527   6.394
 1322SOL     OW 4864   3.457   1.207   4.957
 1322SOL    HW1 4865   3.383   1.177   4.897
 1322SOL    HW2 4866   3.517   1.270   4.908
 1323SOL     OW 4867   3.551   6.682   0.796
 1323SOL    HW1 4868   3.499   6.616   0.741
 1323SOL    HW2 4869   3.566   6.644   0.887
 1324SOL     OW 4870   1.384   3.647   0.547
 1324SOL    HW1 4871   1.417   3.564   0.502
 1324SOL    HW2 4872   1.307   3.623   0.606
 1325SOL     OW 4873   3.635   6.527   5.433
 1325SOL    HW1 4874   3.624   6.430   5.412
 1325SOL    HW2 4875   3.630   6.581   5.349
 1326SOL     OW 4876   4.632   4.340   5.036
 1326SOL    HW1 4877   4.703   4.330   4.967
 1326SOL    HW2 4878   4.582   4.254   5.045
 1327SOL     OW 4879   0.279   6.928   1.046
 1327SOL    HW1 4880   0.274   7.001   1.114
 1327SOL    HW2 4881   0.288   6.839   1.092
 1328SOL     OW 4882   1.833   3.305   5.820
 1328SOL    HW1 4883   1.929   3.309   5.790
 1328SOL    HW2 4884   1.815   3.382   5.881
 1329SOL     OW 4885   6.963   1.428   2.745
 1329SOL    HW1 4886   7.006   1.506   2.790
 1329SOL    HW2 4887   7.023   1.394   2.672
 1330SOL     OW 4888   0.546   2.099   0.951
 1330SOL    HW1 4889   0.616   2.110   0.881
 1330SOL    HW2 4890   0.565   2.161   1.028
 1331SOL     OW 4891   4.380   2.450   2.593
 1331SOL    HW1 4892   4.362   2.547   2.608
 1331SOL    HW2 4893   4.478   2.436   2.575
 1332SOL     OW 4894   2.155   0.360   0.371
 1332SOL    HW1 4895   2.168   0.266   0.401
 1332SOL    HW2 4896   2.215   0.421   0.423
 1333SOL     OW 4897   3.170   3.948   2.917
 1333SOL    HW1 4898   3.221   3.972   2.999
 1333SOL    HW2 4899   3.164   4.028   2.857
 1334SOL     OW 4900   6.992   1.660   3.483
 1334SOL    HW1 4901   0.054   1.673   3.534
 1334SOL    HW2 4902   7.001   1.698   3.391
 1335SOL     OW 4903   1.863   2.616   1.994
 1335SOL    HW1 4904   1.889   2.565   2.076
 1335SOL    HW2 4905   1.900   2.569   1.914
 1336SOL     OW 4906   4.077   1.487   5.375
 1336SOL    HW1 4907   4.002   1.535   5.421
 1336SOL    HW2 4908   4.041   1.406   5.329
 1337SOL     OW 4909   6.614   1.136   2.754
 1337SOL    HW1 4910   6.557   1.217   2.769
 1337SOL    HW2 4911   6.692   1.160   2.696
 1338SOL     OW 4912   6.179   4.012   4.141
 1338SOL    HW1 4913   6.092   4.031   4.188
 1338SOL    HW2 4914   6.194   3.913   4.139
 1339SOL     OW 4915   0.149   0.421   0.294
 1339SOL    HW1 4916   0.238   0.424   0.340
 1339SOL    HW2 4917   0.098   0.341   0.324
 1340SOL     OW 4918   4.862   2.023   2.579
 1340SOL    HW1 4919   4.912   2.064   2.656
 1340SOL    HW2 4920   4.885   2.071   2.495
 1341SOL     OW 4921   4.475   6.484   0.281
 1341SOL    HW1 4922   4.398   6.489   0.217
 1341SOL    HW2 4923   4.556   6.453   0.232
 1342SOL     OW 4924   3.310   5.389   6.696
 1342SOL    HW1 4925   3.343   5.481   6.720
 1342SOL    HW2 4926   3.285   5.340   6.780
 1343SOL     OW 4927   5.991   5.164   2.995
 1343SOL    HW1 4928   6.078   5.153   2.946
 1343SOL    HW2 4929   6.001   5.235   3.064
 1344SOL     OW 4930   0.852   6.472   4.130
 1344SOL    HW1 4931   0.825   6.391   4.078
 1344SOL    HW2 4932   0.771   6.510   4.176
 1345SOL     OW 4933   0.946   4.571   2.174
 1345SOL    HW1 4934   0.872   4.543   2.235
 1345SOL    HW2 4935   0.925   4.543   2.081
 1346SOL     OW 4936   1.987   5.252   6.144
 1346SOL    HW1 4937   1.949   5.300   6.222
 1346SOL    HW2 4938   2.049   5.313   6.095
 1347SOL     OW 4939   2.157   0.491   6.285
 1347SOL    HW1 4940   2.068   0.448   6.273
 1347SOL    HW2 4941   2.146   0.591   6.287
 1348SOL     OW 4942   0.277   5.861   5.205
 1348SOL    HW1 4943   0.272   5.801   5.284
 1348SOL    HW2 4944   0.335   5.819   5.135
 1349SOL     OW 4945   5.542   2.460   3.996
 1349SOL    HW1 4946   5.469   2.411   4.043
 1349SOL    HW2 4947   5.577   2.404   3.920
 1350SOL     OW 4948   3.833   4.613   0.152
 1350SOL    HW1 4949   3.798   4.525   0.182
 1350SOL    HW2 4950   3.896   4.601   0.076
 1351SOL     OW 4951   6.000   2.152   3.627
 1351SOL    HW1 4952   6.059   2.133   3.706
 1351SOL    HW2 4953   6.051   2.204   3.559
 1352SOL     OW 4954   6.994   6.800   2.384
 1352SOL    HW1 4955   6.953   6.709   2.383
 1352SOL    HW2 4956   6.938   6.863   2.332
 1353SOL     OW 4957   0.978   2.125   0.579
 1353SOL    HW1 4958   0.913   2.052   0.601
 1353SOL    HW2 4959   0.954   2.164   0.490
 1354SOL     OW 4960   6.978   3.876   2.380
 1354SOL    HW1 4961   6.992   3.899   2.284
 1354SOL    HW2 4962   0.042   3.846   2.420
 1355SOL     OW 4963   6.130   3.909   4.435
 1355SOL    HW1 4964   6.059   3.844   4.462
 1355SOL    HW2 4965   6.121   3.992   4.491
 1356SOL     OW 4966   3.890   2.986   2.164
 1356SOL    HW1 4967   3.952   2.910   2.182
 1356SOL    HW2 4968   3.931   3.071   2.197
 1357SOL     OW 4969   6.285   3.691   5.790
 1357SOL    HW1 4970   6.369   3.722   5.833
 1357SOL    HW2 4971   6.227   3.645   5.857
 1358SOL     OW 4972   6.009   6.971   0.468
 1358SOL    HW1 4973   5.966   0.036   0.492
 1358SOL    HW2 4974   6.039   6.974   0.372
 1359SOL     OW 4975   6.366   4.540   1.839
 1359SOL    HW1 4976   6.441   4.535   1.772
 1359SOL    HW2 4977   6.303   4.464   1.823
 1360SOL     OW 4978   3.525   3.207   0.015
 1360SOL    HW1 4979   3.520   3.306   0.030
 1360SOL    HW2 4980   3.443   3.163   0.052
 1361SOL     OW 4981   6.981   5.098   5.108
 1361SOL    HW1 4982   6.921   5.070   5.183
 1361SOL    HW2 4983   0.032   5.031   5.098
 1362SOL     OW 4984   4.144   3.470   2.574
 1362SOL    HW1 4985   4.072   3.404   2.596
 1362SOL    HW2 4986   4.157   3.533   2.652
 1363SOL     OW 4987   0.107   5.296   4.751
 1363SOL    HW1 4988   0.033   5.331   4.693
 1363SOL    HW2 4989   0.079   5.297   4.846
 1364SOL     OW 4990   4.249   4.522   6.807
 1364SOL    HW1 4991   4.347   4.509   6.795
 1364SOL    HW2 4992   4.203   4.512   6.719
 1365SOL     OW 4993   0.329   4.288   6.432
 1365SOL    HW1 4994   0.287   4.371   6.469
 1365SOL    HW2 4995   0.411   4.313   6.380
 1366SOL     OW 4996   1.858   6.818   5.402
 1366SOL    HW1 4997   1.909   6.904   5.393
 1366SOL    HW2 4998   1.837   6.803   5.499
 1367SOL     OW 4999   1.680   1.738   2.052
 1367SOL    HW1 5000   1.640   1.688   2.128
 1367SOL    HW2 5001   1.693   1.834   2.078
 1368SOL     OW 5002   5.600   6.651   4.705
 1368SOL    HW1 5003   5.629   6.674   4.612
 1368SOL    HW2 5004   5.676   6.663   4.769
 1369SOL     OW 5005   1.192   6.273   2.938
 1369SOL    HW1 5006   1.137   6.353   2.914
 1369SOL    HW2 5007   1.222   6.227   2.855
 1370SOL     OW 5008   3.264   0.662   1.250
 1370SOL    HW1 5009   3.207   0.586   1.218
 1370SOL    HW2 5010   3.282   0.652   1.348
 1371SOL     OW 5011   4.057   0.832   5.460
 1371SOL    HW1 5012   4.012   0.778   5.388
 1371SOL    HW2 5013   4.072   0.774   5.540
 1372SOL     OW 5014   1.904   2.482   1.014
 1372SOL    HW1 5015   1.959   2.547   0.961
 1372SOL    HW2 5016   1.909   2.392   0.972
 1373SOL     OW 5017   0.168   5.194   0.682
 1373SOL    HW1 5018   0.120   5.229   0.762
 1373SOL    HW2 5019   0.153   5.255   0.605
 1374SOL     OW 5020   4.151   1.979   1.125
 1374SOL    HW1 5021   4.212   2.045   1.170
 1374SOL    HW2 5022   4.058   2.016   1.122
 1375SOL     OW 5023   0.217   5.165   5.913
 1375SOL    HW1 5024   0.159   5.132   5.839
 1375SOL    HW2 5025   0.273   5.242   5.881
 1376SOL     OW 5026   4.894   2.551   3.605
 1376SOL    HW1 5027   4.898   2.494   3.523
 1376SOL    HW2 5028   4.801   2.585   3.618
 1377SOL     OW 5029   0.678   4.609   5.108
 1377SOL    HW1 5030   0.656   4.682   5.172
 1377SOL    HW2 5031   0.766   4.568   5.132
 1378SOL     OW 5032   0.943   2.623   6.681
 1378SOL    HW1 5033   1.015   2.663   6.737
 1378SOL    HW2 5034   0.975   2.615   6.586
 1379SOL     OW 5035   3.207   5.584   3.185
 1379SOL    HW1 5036   3.188   5.674   3.147
 1379SOL    HW2 5037   3.295   5.585   3.232
 1380SOL     OW 5038   6.550   6.846   2.480
 1380SOL    HW1 5039   6.492   6.792   2.419
 1380SOL    HW2 5040   6.602   6.784   2.539
 1381SOL     OW 5041   5.947   3.138   0.272
 1381SOL    HW1 5042   5.914   3.161   0.363
 1381SOL    HW2 5043   5.886   3.071   0.230
 1382SOL     OW 5044   5.979   5.095   6.266
 1382SOL    HW1 5045   5.991   5.194   6.258
 1382SOL    HW2 5046   6.010   5.050   6.182
 1383SOL     OW 5047   0.414   0.385   6.974
 1383SOL    HW1 5048   0.372   0.345   0.033
 1383SOL    HW2 5049   0.346   0.387   6.900
 1384SOL     OW 5050   3.877   0.901   3.106
 1384SOL    HW1 5051   3.943   0.901   3.031
 1384SOL    HW2 5052   3.793   0.945   3.077
 1385SOL     OW 5053   6.426   2.798   2.836
 1385SOL    HW1 5054   6.503   2.762   2.784
 1385SOL    HW2 5055   6.346   2.806   2.777
 1386SOL     OW 5056   2.050   3.065   4.467
 1386SOL    HW1 5057   2.112   3.108   4.402
 1386SOL    HW2 5058   2.103   3.006   4.529
 1387SOL     OW 5059   3.458   0.476   4.502
 1387SOL    HW1 5060   3.434   0.381   4.481
 1387SOL    HW2 5061   3.412   0.537   4.439
 1388SOL     OW 5062   6.587   1.137   4.290
 1388SOL    HW1 5063   6.601   1.040   4.312
 1388SOL    HW2 5064   6.654   1.193   4.338
 1389SOL     OW 5065   5.819   6.757   4.236
 1389SOL    HW1 5066   5.773   6.844   4.223
 1389SOL    HW2 5067   5.767   6.684   4.191
 1390SOL     OW 5068   4.009   1.621   1.619
 1390SOL    HW1 5069   4.063   1.605   1.537
 1390SOL    HW2 5070   4.029   1.549   1.686
 1391SOL     OW 5071   6.402   0.745   4.898
 1391SOL    HW1 5072   6.436   0.698   4.817
 1391SOL    HW2 5073   6.402   0.843   4.882
 1392SOL     OW 5074   4.615   5.749   0.039
 1392SOL    HW1 5075   4.537   5.693   0.066
 1392SOL    HW2 5076   4.688   5.690   0.003
 1393SOL     OW 5077   6.644   1.460   6.333
 1393SOL    HW1 5078   6.551   1.497   6.337
 1393SOL    HW2 5079   6.669   1.424   6.423
 1394SOL     OW 5080   3.856   6.728   3.361
 1394SOL    HW1 5081   3.846   6.628   3.361
 1394SOL    HW2 5082   3.794   6.767   3.430
 1395SOL     OW 5083   1.412   4.952   2.676
 1395SOL    HW1 5084   1.452   4.861   2.687
 1395SOL    HW2 5085   1.436   5.009   2.754
 1396SOL     OW 5086   2.559   1.051   4.668
 1396SOL    HW1 5087   2.540   0.960   4.631
 1396SOL    HW2 5088   2.475   1.089   4.708
 1397SOL     OW 5089   0.841   5.093   4.203
 1397SOL    HW1 5090   0.749   5.111   4.166
 1397SOL    HW2 5091   0.877   5.009   4.163
 1398SOL     OW 5092   0.900   1.671   0.868
 1398SOL    HW1 5093   0.953   1.750   0.836
 1398SOL    HW2 5094   0.946   1.631   0.947
 1399SOL     OW 5095   3.731   0.572   0.619
 1399SOL    HW1 5096   3.825   0.601   0.637
 1399SOL    HW2 5097   3.695   0.522   0.698
 1400SOL     OW 5098   6.096   0.886   4.487
 1400SOL    HW1 5099   6.005   0.920   4.511
 1400SOL    HW2 5100   6.106   0.792   4.518
 1401SOL     OW 5101   5.658   0.488   3.427
 1401SOL    HW1 5102   5.653   0.577   3.382
 1401SOL    HW2 5103   5.566   0.454   3.444
 1402SOL     OW 5104   6.286   3.759   1.915
 1402SOL    HW1 5105   6.362   3.819   1.941
 1402SOL    HW2 5106   6.224   3.808   1.854
 1403SOL     OW 5107   3.826   2.721   6.994
 1403SOL    HW1 5108   3.824   2.714   0.071
 1403SOL    HW2 5109   3.733   2.730   6.959
 1404SOL     OW 5110   4.435   0.245   1.098
 1404SOL    HW1 5111   4.410   0.342   1.098
 1404SOL    HW2 5112   4.519   0.232   1.150
 1405SOL     OW 5113   2.476   3.300   1.256
 1405SOL    HW1 5114   2.499   3.203   1.269
 1405SOL    HW2 5115   2.559   3.355   1.268
 1406SOL     OW 5116   3.200   3.228   0.986
 1406SOL    HW1 5117   3.293   3.192   0.977
 1406SOL    HW2 5118   3.135   3.152   0.992
 1407SOL     OW 5119   0.630   2.934   1.334
 1407SOL    HW1 5120   0.584   3.006   1.282
 1407SOL    HW2 5121   0.649   2.967   1.427
 1408SOL     OW 5122   6.178   6.077   6.521
 1408SOL    HW1 5123   6.146   6.078   6.427
 1408SOL    HW2 5124   6.212   5.985   6.544
 1409SOL     OW 5125   6.969   0.923   5.708
 1409SOL    HW1 5126   6.988   0.833   5.747
 1409SOL    HW2 5127   6.929   0.912   5.617
 1410SOL     OW 5128   3.143   2.764   6.067
 1410SOL    HW1 5129   3.085   2.683   6.057
 1410SOL    HW2 5130   3.146   2.791   6.163
 1411SOL     OW 5131   4.101   5.734   0.423
 1411SOL    HW1 5132   4.108   5.735   0.323
 1411SOL    HW2 5133   4.166   5.799   0.462
 1412SOL     OW 5134   1.571   2.499   0.778
 1412SOL    HW1 5135   1.573   2.589   0.734
 1412SOL    HW2 5136   1.618   2.504   0.866
 1413SOL     OW 5137   2.052   1.583   4.669
 1413SOL    HW1 5138   1.959   1.573   4.634
 1413SOL    HW2 5139   2.050   1.637   4.754
 1414SOL     OW 5140   1.306   3.400   2.043
 1414SOL    HW1 5141   1.327   3.404   2.141
 1414SOL    HW2 5142   1.213   3.365   2.031
 1415SOL     OW 5143   2.023   1.669   3.821
 1415SOL    HW1 5144   2.050   1.576   3.795
 1415SOL    HW2 5145   2.105   1.725   3.835
 1416SOL     OW 5146   4.201   0.161   6.139
 1416SOL    HW1 5147   4.131   0.220   6.098
 1416SOL    HW2 5148   4.220   0.084   6.078
 1417SOL     OW 5149   3.852   2.827   6.156
 1417SOL    HW1 5150   3.789   2.837   6.079
 1417SOL    HW2 5151   3.931   2.773   6.128
 1418SOL     OW 5152   3.648   3.880   7.020
 1418SOL    HW1 5153   3.632   3.913   6.927
 1418SOL    HW2 5154   3.743   3.898   0.023
 1419SOL     OW 5155   2.024   4.618   3.571
 1419SOL    HW1 5156   1.973   4.545   3.616
 1419SOL    HW2 5157   2.039   4.593   3.475
 1420SOL     OW 5158   3.453   5.523   3.250
 1420SOL    HW1 5159   3.434   5.426   3.258
 1420SOL    HW2 5160   3.448   5.551   3.154
 1421SOL     OW 5161   1.587   5.656   6.024
 1421SOL    HW1 5162   1.644   5.666   6.105
 1421SOL    HW2 5163   1.619   5.577   5.970
 1422SOL     OW 5164   2.742   3.387   5.776
 1422SOL    HW1 5165   2.774   3.293   5.790
 1422SOL    HW2 5166   2.818   3.444   5.745
 1423SOL     OW 5167   4.568   1.184   4.556
 1423SOL    HW1 5168   4.585   1.215   4.650
 1423SOL    HW2 5169   4.655   1.181   4.507
 1424SOL     OW 5170   5.642   3.132   6.276
 1424SOL    HW1 5171   5.596   3.202   6.331
 1424SOL    HW2 5172   5.686   3.176   6.197
 1425SOL     OW 5173   4.127   6.972   3.543
 1425SOL    HW1 5174   4.151   6.992   3.638
 1425SOL    HW2 5175   4.140   6.875   3.525
 1426SOL     OW 5176   2.593   2.010   7.018
 1426SOL    HW1 5177   2.603   2.024   0.094
 1426SOL    HW2 5178   2.681   1.983   6.979
 1427SOL     OW 5179   1.432   1.404   3.038
 1427SOL    HW1 5180   1.382   1.490   3.045
 1427SOL    HW2 5181   1.424   1.367   2.945
 1428SOL     OW 5182   6.654   3.590   3.794
 1428SOL    HW1 5183   6.621   3.608   3.886
 1428SOL    HW2 5184   6.752   3.570   3.797
 1429SOL     OW 5185   6.179   1.333   1.104
 1429SOL    HW1 5186   6.121   1.351   1.024
 1429SOL    HW2 5187   6.203   1.236   1.106
 1430SOL     OW 5188   2.015   3.457   3.551
 1430SOL    HW1 5189   2.058   3.405   3.626
 1430SOL    HW2 5190   2.027   3.555   3.568
 1431SOL     OW 5191   2.457   1.688   5.432
 1431SOL    HW1 5192   2.538   1.745   5.436
 1431SOL    HW2 5193   2.417   1.695   5.340
 1432SOL     OW 5194   2.796   1.319   1.483
 1432SOL    HW1 5195   2.798   1.414   1.516
 1432SOL    HW2 5196   2.704   1.298   1.449
 1433SOL     OW 5197   2.942   0.294   4.178
 1433SOL    HW1 5198   3.012   0.327   4.240
 1433SOL    HW2 5199   2.883   0.370   4.151
 1434SOL     OW 5200   6.985   3.381   6.992
 1434SOL    HW1 5201   6.909   3.351   0.027
 1434SOL    HW2 5202   6.949   3.427   6.910
 1435SOL     OW 5203   0.587   6.989   4.898
 1435SOL    HW1 5204   0.615   0.054   4.937
 1435SOL    HW2 5205   0.554   7.003   4.805
 1436SOL     OW 5206   5.453   2.034   0.962
 1436SOL    HW1 5207   5.373   2.033   0.903
 1436SOL    HW2 5208   5.452   2.117   1.018
 1437SOL     OW 5209   4.630   0.743   5.899
 1437SOL    HW1 5210   4.701   0.807   5.928
 1437SOL    HW2 5211   4.630   0.663   5.959
 1438SOL     OW 5212   2.734   0.575   1.640
 1438SOL    HW1 5213   2.706   0.564   1.735
 1438SOL    HW2 5214   2.683   0.511   1.582
 1439SOL     OW 5215   6.752   5.104   6.977
 1439SOL    HW1 5216   6.655   5.098   7.001
 1439SOL    HW2 5217   6.801   5.025   7.013
 1440SOL     OW 5218   3.160   3.572   3.510
 1440SOL    HW1 5219   3.129   3.627   3.433
 1440SOL    HW2 5220   3.259   3.560   3.505
 1441SOL     OW 5221   6.983   2.636   3.564
 1441SOL    HW1 5222   6.906   2.699   3.567
 1441SOL    HW2 5223   7.011   2.613   3.657
 1442SOL     OW 5224   4.930   4.593   0.330
 1442SOL    HW1 5225   4.849   4.540   0.305
 1442SOL    HW2 5226   4.906   4.659   0.401
 1443SOL     OW 5227   0.902   1.724   3.621
 1443SOL    HW1 5228   0.804   1.733   3.640
 1443SOL    HW2 5229   0.943   1.814   3.612
 1444SOL     OW 5230   4.125   0.881   3.714
 1444SOL    HW1 5231   4.144   0.813   3.644
 1444SOL    HW2 5232   4.207   0.935   3.731
 1445SOL     OW 5233   6.527   2.583   1.929
 1445SOL    HW1 5234   6.458   2.539   1.872
 1445SOL    HW2 5235   6.602   2.617   1.872
 1446SOL     OW 5236   3.745   2.005   1.609
 1446SOL    HW1 5237   3.803   2.031   1.532
 1446SOL    HW2 5238   3.780   2.048   1.693
 1447SOL     OW 5239   6.595   1.481   4.498
 1447SOL    HW1 5240   6.628   1.401   4.549
 1447SOL    HW2 5241   6.666   1.509   4.433
 1448SOL     OW 5242   5.629   1.173   6.058
 1448SOL    HW1 5243   5.679   1.135   6.136
 1448SOL    HW2 5244   5.600   1.266   6.079
 1449SOL     OW 5245   4.701   5.732   1.242
 1449SOL    HW1 5246   4.666   5.762   1.331
 1449SOL    HW2 5247   4.755   5.649   1.254
 1450SOL     OW 5248   5.643   2.805   3.117
 1450SOL    HW1 5249   5.665   2.894   3.077
 1450SOL    HW2 5250   5.627   2.738   3.044
 1451SOL     OW 5251   1.334   6.444   2.618
 1451SOL    HW1 5252   1.265   6.371   2.617
 1451SOL    HW2 5253   1.335   6.487   2.708
 1452SOL     OW 5254   5.001   0.619   5.395
 1452SOL    HW1 5255   4.905   0.647   5.387
 1452SOL    HW2 5256   5.046   0.630   5.307
 1453SOL     OW 5257   5.231   4.260   4.831
 1453SOL    HW1 5258   5.236   4.211   4.918
 1453SOL    HW2 5259   5.281   4.346   4.837
 1454SOL     OW 5260   4.838   3.114   1.750
 1454SOL    HW1 5261   4.839   3.056   1.669
 1454SOL    HW2 5262   4.752   3.098   1.800
 1455SOL     OW 5263   1.138   1.858   1.634
 1455SOL    HW1 5264   1.172   1.865   1.728
 1455SOL    HW2 5265   1.045   1.894   1.629
 1456SOL     OW 5266   6.704   6.391   4.270
 1456SOL    HW1 5267   6.766   6.392   4.349
 1456SOL    HW2 5268   6.614   6.424   4.298
 1457SOL     OW 5269   1.784   0.558   3.719
 1457SOL    HW1 5270   1.780   0.575   3.621
 1457SOL    HW2 5271   1.879   0.547   3.747
 1458SOL     OW 5272   5.733   6.112   6.379
 1458SOL    HW1 5273   5.783   6.028   6.396
 1458SOL    HW2 5274   5.779   6.189   6.423
 1459SOL     OW 5275   2.968   6.405   6.902
 1459SOL    HW1 5276   2.942   6.446   6.990
 1459SOL    HW2 5277   2.912   6.445   6.829
 1460SOL     OW 5278   1.336   0.120   6.916
 1460SOL    HW1 5279   1.362   0.036   6.964
 1460SOL    HW2 5280   1.401   0.139   6.843
 1461SOL     OW 5281   5.517   4.353   2.712
 1461SOL    HW1 5282   5.538   4.412   2.790
 1461SOL    HW2 5283   5.567   4.385   2.632
 1462SOL     OW 5284   6.022   0.609   0.102
 1462SOL    HW1 5285   5.928   0.604   0.134
 1462SOL    HW2 5286   6.050   0.705   0.096
 1463SOL     OW 5287   1.199   1.152   5.197
 1463SOL    HW1 5288   1.293   1.132   5.224
 1463SOL    HW2 5289   1.137   1.085   5.238
 1464SOL     OW 5290   0.088   6.454   0.946
 1464SOL    HW1 5291   0.157   6.382   0.958
 1464SOL    HW2 5292   0.132   6.537   0.913
 1465SOL     OW 5293   0.134   0.015   4.998
 1465SOL    HW1 5294   0.227   7.010   5.023
 1465SOL    HW2 5295   0.117   7.016   4.902
 1466SOL     OW 5296   5.991   5.328   3.490
 1466SOL    HW1 5297   5.927   5.270   3.539
 1466SOL    HW2 5298   6.062   5.272   3.446
 1467SOL     OW 5299   0.973   1.248   3.853
 1467SOL    HW1 5300   0.951   1.277   3.946
 1467SOL    HW2 5301   1.001   1.327   3.799
 1468SOL     OW 5302   5.230   6.110   3.526
 1468SOL    HW1 5303   5.252   6.016   3.500
 1468SOL    HW2 5304   5.214   6.114   3.625
 1469SOL     OW 5305   0.819   1.115   2.390
 1469SOL    HW1 5306   0.813   1.033   2.332
 1469SOL    HW2 5307   0.754   1.107   2.465
 1470SOL     OW 5308   1.342   1.337   2.775
 1470SOL    HW1 5309   1.250   1.322   2.740
 1470SOL    HW2 5310   1.385   1.249   2.795
 1471SOL     OW 5311   0.637   0.256   0.031
 1471SOL    HW1 5312   0.557   0.309   0.003
 1471SOL    HW2 5313   0.622   0.217   0.122
 1472SOL     OW 5314   4.941   0.478   6.152
 1472SOL    HW1 5315   4.955   0.577   6.147
 1472SOL    HW2 5316   5.019   0.431   6.110
 1473SOL     OW 5317   6.109   4.294   3.116
 1473SOL    HW1 5318   6.086   4.390   3.105
 1473SOL    HW2 5319   6.026   4.241   3.132
 1474SOL     OW 5320   5.567   5.502   4.231
 1474SOL    HW1 5321   5.583   5.416   4.278
 1474SOL    HW2 5322   5.637   5.516   4.161
 1475SOL     OW 5323   6.751   0.614   2.254
 1475SOL    HW1 5324   6.805   0.552   2.311
 1475SOL    HW2 5325   6.802   0.635   2.170
 1476SOL     OW 5326   0.279   2.268   2.093
 1476SOL    HW1 5327   0.350   2.217   2.142
 1476SOL    HW2 5328   0.196   2.213   2.088
 1477SOL     OW 5329   2.854   6.547   5.254
 1477SOL    HW1 5330   2.869   6.471   5.318
 1477SOL    HW2 5331   2.875   6.633   5.300
 1478SOL     OW 5332   6.206   4.679   0.876
 1478SOL    HW1 5333   6.177   4.706   0.967
 1478SOL    HW2 5334   6.169   4.589   0.854
 1479SOL     OW 5335   1.543   4.658   0.338
 1479SOL    HW1 5336   1.527   4.677   0.434
 1479SOL    HW2 5337   1.481   4.587   0.306
 1480SOL     OW 5338   2.705   1.448   0.450
 1480SOL    HW1 5339   2.655   1.516   0.503
 1480SOL    HW2 5340   2.640   1.390   0.401
 1481SOL     OW 5341   6.001   2.502   5.792
 1481SOL    HW1 5342   5.938   2.431   5.821
 1481SOL    HW2 5343   6.094   2.478   5.819
 1482SOL     OW 5344   5.964   0.655   6.582
 1482SOL    HW1 5345   5.976   0.569   6.632
 1482SOL    HW2 5346   6.040   0.717   6.601
 1483SOL     OW 5347   5.923   2.379   0.438
 1483SOL    HW1 5348   5.839   2.328   0.421
 1483SOL    HW2 5349   5.967   2.400   0.351
 1484SOL     OW 5350   6.691   5.157   2.960
 1484SOL    HW1 5351   6.731   5.247   2.977
 1484SOL    HW2 5352   6.713   5.097   3.037
 1485SOL     OW 5353   5.186   2.379   3.948
 1485SOL    HW1 5354   5.185   2.474   3.919
 1485SOL    HW2 5355   5.252   2.328   3.894
 1486SOL     OW 5356   4.616   1.900   2.665
 1486SOL    HW1 5357   4.534   1.940   2.626
 1486SOL    HW2 5358   4.697   1.948   2.631
 1487SOL     OW 5359   6.506   1.235   5.473
 1487SOL    HW1 5360   6.517   1.309   5.407
 1487SOL    HW2 5361   6.591   1.182   5.478
 1488SOL     OW 5362   4.610   1.225   2.872
 1488SOL    HW1 5363   4.516   1.246   2.849
 1488SOL    HW2 5364   4.620   1.127   2.887
 1489SOL     OW 5365   3.563   5.341   4.829
 1489SOL    HW1 5366   3.617   5.319   4.910
 1489SOL    HW2 5367   3.577   5.271   4.759
 1490SOL     OW 5368   1.412   2.673   0.254
 1490SOL    HW1 5369   1.448   2.590   0.213
 1490SOL    HW2 5370   1.354   2.721   0.188
 1491SOL     OW 5371   0.120   2.988   3.693
 1491SOL    HW1 5372   0.025   2.983   3.723
 1491SOL    HW2 5373   0.180   2.986   3.773
 1492SOL     OW 5374   4.749   1.693   1.546
 1492SOL    HW1 5375   4.748   1.595   1.528
 1492SOL    HW2 5376   4.840   1.721   1.576
 1493SOL     OW 5377   4.984   0.186   5.426
 1493SOL    HW1 5378   4.974   0.098   5.378
 1493SOL    HW2 5379   4.909   0.247   5.399
 1494SOL     OW 5380   4.077   2.243   5.567
 1494SOL    HW1 5381   4.151   2.202   5.621
 1494SOL    HW2 5382   3.997   2.256   5.625
 1495SOL     OW 5383   0.862   3.253   2.361
 1495SOL    HW1 5384   0.900   3.331   2.410
 1495SOL    HW2 5385   0.791   3.210   2.416
 1496SOL     OW 5386   0.252   0.068   2.586
 1496SOL    HW1 5387   0.294   7.014   2.635
 1496SOL    HW2 5388   0.320   0.139   2.571
 1497SOL     OW 5389   6.297   5.212   4.430
 1497SOL    HW1 5390   6.270   5.200   4.335
 1497SOL    HW2 5391   6.344   5.130   4.463
 1498SOL     OW 5392   1.794   5.215   6.756
 1498SOL    HW1 5393   1.713   5.209   6.698
 1498SOL    HW2 5394   1.811   5.126   6.799
 1499SOL     OW 5395   1.139   3.828   5.041
 1499SOL    HW1 5396   1.123   3.763   5.114
 1499SOL    HW2 5397   1.237   3.852   5.039
 1500SOL     OW 5398   5.078   6.314   0.151
 1500SOL    HW1 5399   5.149   6.358   0.206
 1500SOL    HW2 5400   4.990   6.322   0.198
 1501SOL     OW 5401   3.932   0.250   6.501
 1501SOL    HW1 5402   3.897   0.308   6.428
 1501SOL    HW2 5403   4.014   0.203   6.470
 1502SOL     OW 5404   6.281   6.614   0.482
 1502SOL    HW1 5405   6.357   6.656   0.432
 1502SOL    HW2 5406   6.271   6.519   0.453
 1503SOL     OW 5407   3.185   3.073   6.645
 1503SOL    HW1 5408   3.146   3.137   6.710
 1503SOL    HW2 5409   3.152   2.980   6.664
 1504SOL     OW 5410   3.390   6.551   4.629
 1504SOL    HW1 5411   3.395   6.468   4.575
 1504SOL    HW2 5412   3.353   6.530   4.719
 1505SOL     OW 5413   5.926   6.135   6.037
 1505SOL    HW1 5414   5.837   6.146   6.082
 1505SOL    HW2 5415   5.955   6.223   5.999
 1506SOL     OW 5416   1.221   6.047   4.181
 1506SOL    HW1 5417   1.320   6.035   4.181
 1506SOL    HW2 5418   1.189   6.055   4.275
 1507SOL     OW 5419   2.138   1.425   5.021
 1507SOL    HW1 5420   2.079   1.345   5.003
 1507SOL    HW2 5421   2.167   1.424   5.116
 1508SOL     OW 5422   4.631   6.941   0.518
 1508SOL    HW1 5423   4.604   6.880   0.444
 1508SOL    HW2 5424   4.553   6.955   0.580
 1509SOL     OW 5425   4.368   2.947   6.925
 1509SOL    HW1 5426   4.295   2.971   6.989
 1509SOL    HW2 5427   4.417   3.030   6.898
 1510SOL     OW 5428   0.078   1.830   3.964
 1510SOL    HW1 5429   0.086   1.893   3.886
 1510SOL    HW2 5430   7.008   1.836   4.002
 1511SOL     OW 5431   2.483   2.533   0.387
 1511SOL    HW1 5432   2.462   2.542   0.485
 1511SOL    HW2 5433   2.400   2.506   0.338
 1512SOL     OW 5434   0.163   0.853   1.525
 1512SOL    HW1 5435   0.147   0.806   1.612
 1512SOL    HW2 5436   0.147   0.951   1.537
 1513SOL     OW 5437   3.500   0.071   3.756
 1513SOL    HW1 5438   3.483   6.998   3.782
 1513SOL    HW2 5439   3.564   0.073   3.680
 1514SOL     OW 5440   6.216   1.618   4.563
 1514SOL    HW1 5441   6.274   1.671   4.502
 1514SOL    HW2 5442   6.128   1.599   4.517
 1515SOL     OW 5443   0.109   4.878   5.126
 1515SOL    HW1 5444   0.142   4.784   5.128
 1515SOL    HW2 5445   0.179   4.937   5.085
 1516SOL     OW 5446   0.578   1.329   0.640
 1516SOL    HW1 5447   0.600   1.413   0.690
 1516SOL    HW2 5448   0.641   1.318   0.564
 1517SOL     OW 5449   4.762   6.053   3.131
 1517SOL    HW1 5450   4.832   6.119   3.157
 1517SOL    HW2 5451   4.747   6.057   3.032
 1518SOL     OW 5452   6.914   4.525   1.108
 1518SOL    HW1 5453   6.835   4.471   1.134
 1518SOL    HW2 5454   6.893   4.622   1.121
 1519SOL     OW 5455   6.147   4.450   0.719
 1519SOL    HW1 5456   6.065   4.396   0.737
 1519SOL    HW2 5457   6.191   4.416   0.636
 1520SOL     OW 5458   2.142   3.671   2.549
 1520SOL    HW1 5459   2.142   3.577   2.516
 1520SOL    HW2 5460   2.122   3.671   2.647
 1521SOL     OW 5461   2.079   3.114   6.624
 1521SOL    HW1 5462   2.003   3.051   6.643
 1521SOL    HW2 5463   2.116   3.096   6.533
 1522SOL     OW 5464   5.837   1.960   6.560
 1522SOL    HW1 5465   5.748   1.926   6.589
 1522SOL    HW2 5466   5.845   1.953   6.461
 1523SOL     OW 5467   6.187   3.008   1.407
 1523SOL    HW1 5468   6.275   2.962   1.405
 1523SOL    HW2 5469   6.114   2.942   1.386
 1524SOL     OW 5470   0.072   1.115   1.797
 1524SOL    HW1 5471   0.140   1.074   1.857
 1524SOL    HW2 5472   0.088   1.214   1.791
 1525SOL     OW 5473   4.278   1.871   6.084
 1525SOL    HW1 5474   4.293   1.968   6.100
 1525SOL    HW2 5475   4.317   1.845   5.996
 1526SOL     OW 5476   6.792   2.213   1.491
 1526SOL    HW1 5477   6.801   2.282   1.419
 1526SOL    HW2 5478   6.735   2.138   1.457
 1527SOL     OW 5479   3.488   2.088   5.081
 1527SOL    HW1 5480   3.395   2.051   5.086
 1527SOL    HW2 5481   3.514   2.099   4.985
 1528SOL     OW 5482   4.454   6.663   3.418
 1528SOL    HW1 5483   4.516   6.611   3.477
 1528SOL    HW2 5484   4.502   6.741   3.379
 1529SOL     OW 5485   3.637   6.958   6.157
 1529SOL    HW1 5486   3.636   6.872   6.105
 1529SOL    HW2 5487   3.727   7.001   6.148
 1530SOL     OW 5488   3.008   6.361   2.213
 1530SOL    HW1 5489   2.961   6.445   2.238
 1530SOL    HW2 5490   3.089   6.349   2.271
 1531SOL     OW 5491   6.277   0.341   4.366
 1531SOL    HW1 5492   6.345   0.365   4.435
 1531SOL    HW2 5493   6.188   0.329   4.410
 1532SOL     OW 5494   3.364   2.226   5.289
 1532SOL    HW1 5495   3.416   2.186   5.214
 1532SOL    HW2 5496   3.283   2.272   5.253
 1533SOL     OW 5497   5.990   3.381   6.623
 1533SOL    HW1 5498   6.078   3.399   6.579
 1533SOL    HW2 5499   5.981   3.438   6.705
 1534SOL     OW 5500   0.766   5.867   0.902
 1534SOL    HW1 5501   0.729   5.890   0.993
 1534SOL    HW2 5502   0.857   5.908   0.892
 1535SOL     OW 5503   4.901   4.443   3.844
 1535SOL    HW1 5504   4.847   4.390   3.779
 1535SOL    HW2 5505   4.885   4.410   3.937
 1536SOL     OW 5506   2.989   5.681   4.996
 1536SOL    HW1 5507   2.925   5.610   4.965
 1536SOL    HW2 5508   2.947   5.732   5.071
 1537SOL     OW 5509   1.917   5.278   4.630
 1537SOL    HW1 5510   1.863   5.352   4.670
 1537SOL    HW2 5511   2.014   5.294   4.649
 1538SOL     OW 5512   2.766   5.023   0.115
 1538SOL    HW1 5513   2.843   5.051   0.171
 1538SOL    HW2 5514   2.721   5.104   0.076
 1539SOL     OW 5515   3.895   4.855   1.530
 1539SOL    HW1 5516   3.896   4.942   1.578
 1539SOL    HW2 5517   3.811   4.805   1.552
 1540SOL     OW 5518   0.638   0.338   5.397
 1540SOL    HW1 5519   0.624   0.243   5.372
 1540SOL    HW2 5520   0.679   0.388   5.321
 1541SOL     OW 5521   4.594   2.398   1.294
 1541SOL    HW1 5522   4.631   2.483   1.258
 1541SOL    HW2 5523   4.547   2.348   1.221
 1542SOL     OW 5524   0.352   6.359   1.495
 1542SOL    HW1 5525   0.434   6.362   1.552
 1542SOL    HW2 5526   0.295   6.439   1.514
 1543SOL     OW 5527   3.488   3.636   3.842
 1543SOL    HW1 5528   3.444   3.685   3.917
 1543SOL    HW2 5529   3.547   3.564   3.879
 1544SOL     OW 5530   3.265   4.046   2.626
 1544SOL    HW1 5531   3.173   4.027   2.591
 1544SOL    HW2 5532   3.302   3.964   2.668
 1545SOL     OW 5533   6.090   0.613   4.596
 1545SOL    HW1 5534   6.087   0.591   4.693
 1545SOL    HW2 5535   6.020   0.559   4.548
 1546SOL     OW 5536   6.632   5.802   6.400
 1546SOL    HW1 5537   6.720   5.810   6.353
 1546SOL    HW2 5538   6.619   5.881   6.459
 1547SOL     OW 5539   2.731   5.749   2.658
 1547SOL    HW1 5540   2.716   5.832   2.711
 1547SOL    HW2 5541   2.664   5.680   2.686
 1548SOL     OW 5542   4.734   4.350   4.769
 1548SOL    HW1 5543   4.748   4.408   4.689
 1548SOL    HW2 5544   4.758   4.256   4.746
 1549SOL     OW 5545   6.437   2.904   1.435
 1549SOL    HW1 5546   6.531   2.936   1.429
 1549SOL    HW2 5547   6.437   2.804   1.448
 1550SOL     OW 5548   1.928   6.306   4.728
 1550SOL    HW1 5549   1.988   6.348   4.659
 1550SOL    HW2 5550   1.984   6.253   4.792
 1551SOL     OW 5551   2.055   3.257   1.119
 1551SOL    HW1 5552   2.028   3.237   1.213
 1551SOL    HW2 5553   2.151   3.286   1.117
 1552SOL     OW 5554   1.060   1.104   1.081
 1552SOL    HW1 5555   1.002   1.087   1.001
 1552SOL    HW2 5556   1.034   1.041   1.155
 1553SOL     OW 5557   5.987   1.652   6.690
 1553SOL    HW1 5558   5.901   1.653   6.641
 1553SOL    HW2 5559   5.987   1.723   6.761
 1554SOL     OW 5560   3.908   1.776   2.004
 1554SOL    HW1 5561   3.888   1.861   2.054
 1554SOL    HW2 5562   3.888   1.791   1.907
 1555SOL     OW 5563   3.702   1.392   5.613
 1555SOL    HW1 5564   3.715   1.298   5.584
 1555SOL    HW2 5565   3.605   1.414   5.617
 1556SOL     OW 5566   3.975   0.592   0.738
 1556SOL    HW1 5567   3.994   0.618   0.833
 1556SOL    HW2 5568   4.049   0.625   0.679
 1557SOL     OW 5569   1.869   2.048   1.345
 1557SOL    HW1 5570   1.833   2.072   1.255
 1557SOL    HW2 5571   1.820   2.099   1.416
 1558SOL     OW 5572   6.044   3.425   5.509
 1558SOL    HW1 5573   5.976   3.459   5.573
 1558SOL    HW2 5574   6.022   3.456   5.417
 1559SOL     OW 5575   1.731   4.406   2.970
 1559SOL    HW1 5576   1.766   4.489   3.012
 1559SOL    HW2 5577   1.720   4.420   2.872
 1560SOL     OW 5578   3.560   1.511   1.236
 1560SOL    HW1 5579   3.577   1.493   1.333
 1560SOL    HW2 5580   3.610   1.443   1.181
 1561SOL     OW 5581   5.471   6.139   2.032
 1561SOL    HW1 5582   5.401   6.078   2.070
 1561SOL    HW2 5583   5.429   6.227   2.010
 1562SOL     OW 5584   3.266   6.969   1.903
 1562SOL    HW1 5585   3.202   7.012   1.839
 1562SOL    HW2 5586   3.214   6.923   1.976
 1563SOL     OW 5587   4.013   2.225   4.298
 1563SOL    HW1 5588   3.984   2.136   4.263
 1563SOL    HW2 5589   3.959   2.249   4.378
 1564SOL     OW 5590   0.982   2.220   2.322
 1564SOL    HW1 5591   0.950   2.307   2.286
 1564SOL    HW2 5592   1.080   2.226   2.343
 1565SOL     OW 5593   3.639   0.469   3.737
 1565SOL    HW1 5594   3.639   0.557   3.784
 1565SOL    HW2 5595   3.711   0.411   3.775
 1566SOL     OW 5596   4.628   4.370   3.024
 1566SOL    HW1 5597   4.676   4.437   3.081
 1566SOL    HW2 5598   4.677   4.282   3.028
 1567SOL     OW 5599   5.448   6.095   5.350
 1567SOL    HW1 5600   5.530   6.134   5.307
 1567SOL    HW2 5601   5.421   6.152   5.427
 1568SOL     OW 5602   1.874   6.362   2.821
 1568SOL    HW1 5603   1.935   6.362   2.900
 1568SOL    HW2 5604   1.887   6.278   2.768
 1569SOL     OW 5605   2.521   0.124   3.189
 1569SOL    HW1 5606   2.451   0.194   3.175
 1569SOL    HW2 5607   2.593   0.135   3.121
 1570SOL     OW 5608   3.289   6.987   0.367
 1570SOL    HW1 5609   3.234   0.037   0.326
 1570SOL    HW2 5610   3.310   7.010   0.462
 1571SOL     OW 5611   1.119   2.544   3.820
 1571SOL    HW1 5612   1.117   2.530   3.919
 1571SOL    HW2 5613   1.186   2.483   3.779
 1572SOL     OW 5614   1.464   5.184   1.741
 1572SOL    HW1 5615   1.421   5.144   1.659
 1572SOL    HW2 5616   1.539   5.244   1.712
 1573SOL     OW 5617   4.741   4.614   1.231
 1573SOL    HW1 5618   4.759   4.605   1.133
 1573SOL    HW2 5619   4.761   4.527   1.276
 1574SOL     OW 5620   6.762   3.553   2.457
 1574SOL    HW1 5621   6.679   3.578   2.406
 1574SOL    HW2 5622   6.790   3.629   2.515
 1575SOL     OW 5623   0.543   1.051   0.675
 1575SOL    HW1 5624   0.449   1.050   0.640
 1575SOL    HW2 5625   0.573   1.146   0.687
 1576SOL     OW 5626   0.516   6.364   1.943
 1576SOL    HW1 5627   0.503   6.351   2.041
 1576SOL    HW2 5628   0.449   6.309   1.893
 1577SOL     OW 5629   4.113   0.070   6.384
 1577SOL    HW1 5630   4.143   0.106   6.296
 1577SOL    HW2 5631   4.192   0.044   6.439
 1578SOL     OW 5632   4.639   0.614   0.245
 1578SOL    HW1 5633   4.575   0.611   0.168
 1578SOL    HW2 5634   4.618   0.539   0.308
 1579SOL     OW 5635   1.933   2.511   1.709
 1579SOL    HW1 5636   2.033   2.519   1.716
 1579SOL    HW2 5637   1.904   2.421   1.741
 1580SOL     OW 5638   3.322   4.062   3.119
 1580SOL    HW1 5639   3.381   4.090   3.044
 1580SOL    HW2 5640   3.368   3.991   3.173
 1581SOL     OW 5641   0.097   4.221   6.072
 1581SOL    HW1 5642   0.190   4.184   6.079
 1581SOL    HW2 5643   0.031   4.146   6.067
 1582SOL     OW 5644   4.591   6.249   6.086
 1582SOL    HW1 5645   4.636   6.181   6.144
 1582SOL    HW2 5646   4.523   6.299   6.138
 1583SOL     OW 5647   1.046   5.954   5.692
 1583SOL    HW1 5648   1.061   5.925   5.598
 1583SOL    HW2 5649   1.049   6.054   5.697
 1584SOL     OW 5650   0.648   5.042   6.551
 1584SOL    HW1 5651   0.676   5.138   6.553
 1584SOL    HW2 5652   0.602   5.022   6.464
 1585SOL     OW 5653   4.125   6.930   3.111
 1585SOL    HW1 5654   4.072   6.852   3.079
 1585SOL    HW2 5655   4.183   6.964   3.036
 1586SOL     OW 5656   3.049   5.652   4.112
 1586SOL    HW1 5657   3.086   5.605   4.193
 1586SOL    HW2 5658   2.950   5.662   4.123
 1587SOL     OW 5659   2.068   6.189   6.391
 1587SOL    HW1 5660   2.020   6.268   6.431
 1587SOL    HW2 5661   2.061   6.194   6.291
 1588SOL     OW 5662   6.191   6.993   2.705
 1588SOL    HW1 5663   6.183   7.012   2.607
 1588SOL    HW2 5664   6.219   0.054   2.753
 1589SOL     OW 5665   6.577   4.220   2.779
 1589SOL    HW1 5666   6.620   4.245   2.866
 1589SOL    HW2 5667   6.509   4.290   2.754
 1590SOL     OW 5668   6.780   1.519   3.345
 1590SOL    HW1 5669   6.702   1.510   3.408
 1590SOL    HW2 5670   6.855   1.565   3.391
 1591SOL     OW 5671   0.280   5.693   1.301
 1591SOL    HW1 5672   0.195   5.661   1.258
 1591SOL    HW2 5673   0.302   5.784   1.267
 1592SOL     OW 5674   1.335   4.129   7.010
 1592SOL    HW1 5675   1.260   4.195   7.018
 1592SOL    HW2 5676   1.408   4.153   0.052
 1593SOL     OW 5677   0.649   6.880   6.858
 1593SOL    HW1 5678   0.700   6.868   6.944
 1593SOL    HW2 5679   0.571   6.818   6.857
 1594SOL     OW 5680   6.724   0.345   1.524
 1594SOL    HW1 5681   6.668   0.263   1.509
 1594SOL    HW2 5682   6.791   0.328   1.595
 1595SOL     OW 5683   1.517   3.641   6.570
 1595SOL    HW1 5684   1.547   3.674   6.660
 1595SOL    HW2 5685   1.593   3.594   6.525
 1596SOL     OW 5686   5.753   4.427   2.219
 1596SOL    HW1 5687   5.824   4.366   2.254
 1596SOL    HW2 5688   5.753   4.425   2.119
 1597SOL     OW 5689   3.237   5.975   0.911
 1597SOL    HW1 5690   3.298   5.941   0.982
 1597SOL    HW2 5691   3.144   5.982   0.947
 1598SOL     OW 5692   1.473   5.617   0.035
 1598SOL    HW1 5693   1.517   5.673   0.105
 1598SOL    HW2 5694   1.520   5.629   6.970
 1599SOL     OW 5695   4.131   5.062   4.059
 1599SOL    HW1 5696   4.074   5.144   4.051
 1599SOL    HW2 5697   4.085   4.985   4.014
 1600SOL     OW 5698   3.371   0.188   2.557
 1600SOL    HW1 5699   3.318   0.132   2.493
 1600SOL    HW2 5700   3.374   0.142   2.646
 1601SOL     OW 5701   6.613   6.812   3.961
 1601SOL    HW1 5702   6.600   6.713   3.963
 1601SOL    HW2 5703   6.709   6.834   3.975
 1602SOL     OW 5704   4.382   5.225   4.159
 1602SOL    HW1 5705   4.289   5.191   4.170
 1602SOL    HW2 5706   4.390   5.275   4.073
 1603SOL     OW 5707   2.670   6.319   4.147
 1603SOL    HW1 5708   2.750   6.262   4.166
 1603SOL    HW2 5709   2.594   6.261   4.118
 1604SOL     OW 5710   3.822   5.076   2.086
 1604SOL    HW1 5711   3.816   5.004   2.017
 1604SOL    HW2 5712   3.829   5.034   2.177
 1605SOL     OW 5713   4.796   4.855   1.827
 1605SOL    HW1 5714   4.753   4.883   1.913
 1605SOL    HW2 5715   4.732   4.797   1.776
 1606SOL     OW 5716   4.339   6.427   4.474
 1606SOL    HW1 5717   4.414   6.360   4.474
 1606SOL    HW2 5718   4.376   6.518   4.491
 1607SOL     OW 5719   4.505   6.458   2.822
 1607SOL    HW1 5720   4.518   6.379   2.883
 1607SOL    HW2 5721   4.429   6.439   2.760
 1608SOL     OW 5722   6.738   0.332   2.971
 1608SOL    HW1 5723   6.804   0.406   2.956
 1608SOL    HW2 5724   6.668   0.336   2.900
 1609SOL     OW 5725   2.942   6.591   0.789
 1609SOL    HW1 5726   2.994   6.507   0.774
 1609SOL    HW2 5727   2.887   6.612   0.708
 1610SOL     OW 5728   4.178   7.004   0.170
 1610SOL    HW1 5729   4.273   0.010   0.181
 1610SOL    HW2 5730   4.173   6.919   0.119
 1611SOL     OW 5731   0.692   4.007   1.372
 1611SOL    HW1 5732   0.692   4.016   1.273
 1611SOL    HW2 5733   0.688   4.098   1.414
 1612SOL     OW 5734   2.998   6.207   1.036
 1612SOL    HW1 5735   3.018   6.155   1.119
 1612SOL    HW2 5736   2.901   6.234   1.037
 1613SOL     OW 5737   0.428   5.633   2.450
 1613SOL    HW1 5738   0.366   5.610   2.525
 1613SOL    HW2 5739   0.488   5.556   2.430
 1614SOL     OW 5740   5.578   2.783   6.881
 1614SOL    HW1 5741   5.670   2.814   6.855
 1614SOL    HW2 5742   5.581   2.686   6.904
 1615SOL     OW 5743   0.527   4.938   6.290
 1615SOL    HW1 5744   0.474   4.857   6.316
 1615SOL    HW2 5745   0.465   5.014   6.272
 1616SOL     OW 5746   2.940   1.213   5.412
 1616SOL    HW1 5747   2.885   1.150   5.466
 1616SOL    HW2 5748   2.943   1.183   5.317
 1617SOL     OW 5749   4.600   6.773   3.700
 1617SOL    HW1 5750   4.691   6.805   3.675
 1617SOL    HW2 5751   4.534   6.848   3.690
 1618SOL     OW 5752   2.651   5.711   3.161
 1618SOL    HW1 5753   2.678   5.616   3.175
 1618SOL    HW2 5754   2.643   5.756   3.250
 1619SOL     OW 5755   1.001   5.224   6.700
 1619SOL    HW1 5756   0.965   5.131   6.699
 1619SOL    HW2 5757   0.941   5.283   6.754
 1620SOL     OW 5758   3.356   5.149   0.972
 1620SOL    HW1 5759   3.322   5.080   0.908
 1620SOL    HW2 5760   3.357   5.110   1.064
 1621SOL     OW 5761   5.945   6.367   1.296
 1621SOL    HW1 5762   6.041   6.396   1.296
 1621SOL    HW2 5763   5.892   6.429   1.354
 1622SOL     OW 5764   0.775   3.512   5.012
 1622SOL    HW1 5765   0.712   3.543   5.083
 1622SOL    HW2 5766   0.820   3.591   4.970
 1623SOL     OW 5767   0.611   2.069   4.916
 1623SOL    HW1 5768   0.646   2.158   4.945
 1623SOL    HW2 5769   0.586   2.015   4.997
 1624SOL     OW 5770   4.235   1.373   0.603
 1624SOL    HW1 5771   4.190   1.461   0.618
 1624SOL    HW2 5772   4.174   1.299   0.631
 1625SOL     OW 5773   2.130   5.025   0.619
 1625SOL    HW1 5774   2.150   4.927   0.622
 1625SOL    HW2 5775   2.066   5.044   0.545
 1626SOL     OW 5776   3.077   2.166   1.451
 1626SOL    HW1 5777   3.055   2.250   1.401
 1626SOL    HW2 5778   2.995   2.109   1.456
 1627SOL     OW 5779   4.790   2.410   4.037
 1627SOL    HW1 5780   4.841   2.393   3.953
 1627SOL    HW2 5781   4.792   2.328   4.094
 1628SOL     OW 5782   5.150   6.128   6.368
 1628SOL    HW1 5783   5.194   6.183   6.297
 1628SOL    HW2 5784   5.168   6.167   6.458
 1629SOL     OW 5785   2.889   1.678   3.108
 1629SOL    HW1 5786   2.902   1.721   3.019
 1629SOL    HW2 5787   2.861   1.748   3.174
 1630SOL     OW 5788   0.763   3.965   0.259
 1630SOL    HW1 5789   0.757   4.044   0.198
 1630SOL    HW2 5790   0.671   3.928   0.274
 1631SOL     OW 5791   0.281   3.516   0.907
 1631SOL    HW1 5792   0.253   3.589   0.844
 1631SOL    HW2 5793   0.378   3.498   0.896
 1632SOL     OW 5794   5.787   4.266   2.833
 1632SOL    HW1 5795   5.815   4.298   2.924
 1632SOL    HW2 5796   5.798   4.340   2.767
 1633SOL     OW 5797   4.922   3.730   3.818
 1633SOL    HW1 5798   4.912   3.658   3.885
 1633SOL    HW2 5799   5.020   3.745   3.800
 1634SOL     OW 5800   4.746   0.521   4.697
 1634SOL    HW1 5801   4.755   0.428   4.661
 1634SOL    HW2 5802   4.795   0.528   4.783
 1635SOL     OW 5803   3.672   4.960   5.310
 1635SOL    HW1 5804   3.730   4.882   5.285
 1635SOL    HW2 5805   3.601   4.971   5.241
 1636SOL     OW 5806   4.772   5.785   1.582
 1636SOL    HW1 5807   4.869   5.759   1.583
 1636SOL    HW2 5808   4.724   5.739   1.657
 1637SOL     OW 5809   6.963   6.582   2.145
 1637SOL    HW1 5810   6.897   6.534   2.203
 1637SOL    HW2 5811   0.033   6.570   2.183
 1638SOL     OW 5812   6.755   3.358   1.664
 1638SOL    HW1 5813   6.705   3.389   1.745
 1638SOL    HW2 5814   6.724   3.408   1.584
 1639SOL     OW 5815   5.503   3.552   2.259
 1639SOL    HW1 5816   5.472   3.500   2.180
 1639SOL    HW2 5817   5.594   3.590   2.240
 1640SOL     OW 5818   6.351   7.003   0.807
 1640SOL    HW1 5819   6.378   0.010   0.898
 1640SOL    HW2 5820   6.363   6.904   0.799
 1641SOL     OW 5821   0.166   2.450   3.051
 1641SOL    HW1 5822   0.194   2.514   3.122
 1641SOL    HW2 5823   0.095   2.390   3.086
 1642SOL     OW 5824   5.927   2.973   5.904
 1642SOL    HW1 5825   5.830   2.965   5.877
 1642SOL    HW2 5826   5.956   3.068   5.894
 1643SOL     OW 5827   3.484   5.318   4.482
 1643SOL    HW1 5828   3.461   5.271   4.397
 1643SOL    HW2 5829   3.534   5.256   4.542
 1644SOL     OW 5830   5.864   3.241   0.515
 1644SOL    HW1 5831   5.885   3.174   0.586
 1644SOL    HW2 5832   5.764   3.252   0.508
 1645SOL     OW 5833   2.892   1.101   6.107
 1645SOL    HW1 5834   2.802   1.069   6.134
 1645SOL    HW2 5835   2.901   1.095   6.007
 1646SOL     OW 5836   1.088   5.704   0.278
 1646SOL    HW1 5837   1.127   5.748   0.198
 1646SOL    HW2 5838   1.071   5.607   0.259
 1647SOL     OW 5839   6.307   2.879   4.591
 1647SOL    HW1 5840   6.390   2.824   4.603
 1647SOL    HW2 5841   6.287   2.927   4.677
 1648SOL     OW 5842   5.044   5.802   0.858
 1648SOL    HW1 5843   5.079   5.793   0.951
 1648SOL    HW2 5844   4.985   5.883   0.852
 1649SOL     OW 5845   3.190   0.455   3.202
 1649SOL    HW1 5846   3.221   0.520   3.134
 1649SOL    HW2 5847   3.090   0.458   3.208
 1650SOL     OW 5848   2.281   5.258   6.310
 1650SOL    HW1 5849   2.365   5.252   6.363
 1650SOL    HW2 5850   2.236   5.168   6.308
 1651SOL     OW 5851   0.746   2.863   4.005
 1651SOL    HW1 5852   0.663   2.819   4.038
 1651SOL    HW2 5853   0.725   2.916   3.922
 1652SOL     OW 5854   1.060   2.577   1.243
 1652SOL    HW1 5855   1.106   2.632   1.314
 1652SOL    HW2 5856   1.112   2.492   1.229
 1653SOL     OW 5857   6.616   5.076   2.539
 1653SOL    HW1 5858   6.518   5.071   2.520
 1653SOL    HW2 5859   6.646   5.171   2.536
 1654SOL     OW 5860   0.560   2.814   1.794
 1654SOL    HW1 5861   0.617   2.870   1.735
 1654SOL    HW2 5862   0.618   2.762   1.858
 1655SOL     OW 5863   0.127   0.945   4.499
 1655SOL    HW1 5864   0.035   0.911   4.482
 1655SOL    HW2 5865   0.150   1.015   4.431
 1656SOL     OW 5866   2.425   5.350   4.398
 1656SOL    HW1 5867   2.402   5.446   4.416
 1656SOL    HW2 5868   2.516   5.345   4.357
 1657SOL     OW 5869   0.052   0.542   5.588
 1657SOL    HW1 5870   0.042   0.608   5.513
 1657SOL    HW2 5871   6.997   0.550   5.650
 1658SOL     OW 5872   6.622   6.969   0.380
 1658SOL    HW1 5873   6.545   6.907   0.387
 1658SOL    HW2 5874   6.672   6.971   0.467
 1659SOL     OW 5875   4.309   0.048   6.576
 1659SOL    HW1 5876   4.342   6.988   6.623
 1659SOL    HW2 5877   4.376   0.121   6.586
 1660SOL     OW 5878   1.730   6.586   2.178
 1660SOL    HW1 5879   1.737   6.554   2.272
 1660SOL    HW2 5880   1.663   6.660   2.174
 1661SOL     OW 5881   3.192   4.952   2.583
 1661SOL    HW1 5882   3.159   4.941   2.490
 1661SOL    HW2 5883   3.235   5.042   2.594
 1662SOL     OW 5884   0.061   1.598   5.544
 1662SOL    HW1 5885   0.032   1.688   5.577
 1662SOL    HW2 5886   0.085   1.540   5.622
 1663SOL     OW 5887   4.580   4.700   1.717
 1663SOL    HW1 5888   4.581   4.644   1.634
 1663SOL    HW2 5889   4.574   4.641   1.797
 1664SOL     OW 5890   0.711   0.151   5.629
 1664SOL    HW1 5891   0.753   0.241   5.640
 1664SOL    HW2 5892   0.750   0.105   5.549
 1665SOL     OW 5893   1.864   3.737   0.918
 1665SOL    HW1 5894   1.801   3.807   0.951
 1665SOL    HW2 5895   1.860   3.658   0.978
 1666SOL     OW 5896   5.472   0.182   6.480
 1666SOL    HW1 5897   5.491   0.229   6.394
 1666SOL    HW2 5898   5.376   0.192   6.503
 1667SOL     OW 5899   0.340   0.003   0.777
 1667SOL    HW1 5900   0.430   0.044   0.763
 1667SOL    HW2 5901   0.348   6.949   0.841
 1668SOL     OW 5902   4.994   4.811   4.007
 1668SOL    HW1 5903   5.028   4.806   4.101
 1668SOL    HW2 5904   4.909   4.863   4.004
 1669SOL     OW 5905   0.392   3.541   5.670
 1669SOL    HW1 5906   0.349   3.631   5.662
 1669SOL    HW2 5907   0.391   3.495   5.581
 1670SOL     OW 5908   1.702   4.508   6.043
 1670SOL    HW1 5909   1.697   4.601   6.007
 1670SOL    HW2 5910   1.745   4.448   5.976
 1671SOL     OW 5911   5.002   1.581   2.022
 1671SOL    HW1 5912   5.100   1.568   2.037
 1671SOL    HW2 5913   4.975   1.534   1.938
 1672SOL     OW 5914   0.838   3.065   0.128
 1672SOL    HW1 5915   0.925   3.024   0.103
 1672SOL    HW2 5916   0.826   3.151   0.079
 1673SOL     OW 5917   2.511   1.715   4.273
 1673SOL    HW1 5918   2.550   1.627   4.298
 1673SOL    HW2 5919   2.498   1.771   4.355
 1674SOL     OW 5920   5.035   2.846   2.365
 1674SOL    HW1 5921   4.950   2.814   2.322
 1674SOL    HW2 5922   5.112   2.793   2.330
 1675SOL     OW 5923   5.804   0.860   1.306
 1675SOL    HW1 5924   5.903   0.867   1.302
 1675SOL    HW2 5925   5.766   0.865   1.214
 1676SOL     OW 5926   1.869   2.288   2.832
 1676SOL    HW1 5927   1.884   2.366   2.893
 1676SOL    HW2 5928   1.957   2.249   2.806
 1677SOL     OW 5929   3.803   3.716   3.239
 1677SOL    HW1 5930   3.836   3.695   3.147
 1677SOL    HW2 5931   3.837   3.648   3.303
 1678SOL     OW 5932   0.459   6.273   0.539
 1678SOL    HW1 5933   0.416   6.353   0.495
 1678SOL    HW2 5934   0.490   6.298   0.630
 1679SOL     OW 5935   2.039   1.840   5.136
 1679SOL    HW1 5936   2.068   1.842   5.232
 1679SOL    HW2 5937   1.987   1.922   5.115
 1680SOL     OW 5938   5.316   3.012   4.592
 1680SOL    HW1 5939   5.401   3.028   4.541
 1680SOL    HW2 5940   5.253   3.088   4.575
 1681SOL     OW 5941   1.761   5.894   4.109
 1681SOL    HW1 5942   1.712   5.808   4.127
 1681SOL    HW2 5943   1.824   5.912   4.184
 1682SOL     OW 5944   2.896   6.784   5.388
 1682SOL    HW1 5945   2.927   6.794   5.482
 1682SOL    HW2 5946   2.831   6.857   5.366
 1683SOL     OW 5947   5.824   4.796   2.651
 1683SOL    HW1 5948   5.917   4.831   2.639
 1683SOL    HW2 5949   5.782   4.840   2.730
 1684SOL     OW 5950   1.777   4.796   1.585
 1684SOL    HW1 5951   1.800   4.715   1.531
 1684SOL    HW2 5952   1.792   4.776   1.682
 1685SOL     OW 5953   1.348   1.727   5.841
 1685SOL    HW1 5954   1.373   1.662   5.769
 1685SOL    HW2 5955   1.250   1.718   5.861
 1686SOL     OW 5956   4.779   5.529   3.295
 1686SOL    HW1 5957   4.777   5.627   3.276
 1686SOL    HW2 5958   4.870   5.504   3.329
 1687SOL     OW 5959   0.185   3.740   2.452
 1687SOL    HW1 5960   0.271   3.729   2.401
 1687SOL    HW2 5961   0.187   3.682   2.534
 1688SOL     OW 5962   1.880   2.122   3.622
 1688SOL    HW1 5963   1.941   2.172   3.683
 1688SOL    HW2 5964   1.860   2.032   3.660
 1689SOL     OW 5965   6.503   0.837   2.164
 1689SOL    HW1 5966   6.464   0.863   2.252
 1689SOL    HW2 5967   6.437   0.858   2.091
 1690SOL     OW 5968   0.534   3.835   4.163
 1690SOL    HW1 5969   0.499   3.778   4.238
 1690SOL    HW2 5970   0.626   3.804   4.139
 1691SOL     OW 5971   5.088   3.119   4.530
 1691SOL    HW1 5972   5.028   3.114   4.610
 1691SOL    HW2 5973   5.073   3.206   4.483
 1692SOL     OW 5974   5.647   5.095   2.286
 1692SOL    HW1 5975   5.577   5.023   2.286
 1692SOL    HW2 5976   5.711   5.079   2.212
 1693SOL     OW 5977   6.964   1.236   5.424
 1693SOL    HW1 5978   6.969   1.311   5.357
 1693SOL    HW2 5979   0.016   1.171   5.407
 1694SOL     OW 5980   5.994   1.020   4.900
 1694SOL    HW1 5981   6.029   1.009   4.993
 1694SOL    HW2 5982   5.955   1.111   4.890
 1695SOL     OW 5983   3.691   0.846   6.907
 1695SOL    HW1 5984   3.739   0.895   6.980
 1695SOL    HW2 5985   3.753   0.783   6.862
 1696SOL     OW 5986   4.374   5.655   0.248
 1696SOL    HW1 5987   4.437   5.716   0.293
 1696SOL    HW2 5988   4.424   5.576   0.211
 1697SOL     OW 5989   5.995   2.426   1.126
 1697SOL    HW1 5990   5.931   2.374   1.070
 1697SOL    HW2 5991   5.945   2.491   1.183
 1698SOL     OW 5992   3.303   0.755   2.047
 1698SOL    HW1 5993   3.310   0.708   1.959
 1698SOL    HW2 5994   3.323   0.852   2.034
 1699SOL     OW 5995   2.620   1.060   6.736
 1699SOL    HW1 5996   2.583   1.047   6.828
 1699SOL    HW2 5997   2.719   1.067   6.741
 1700SOL     OW 5998   6.040   3.430   3.586
 1700SOL    HW1 5999   6.011   3.455   3.493
 1700SOL    HW2 6000   6.088   3.342   3.583
 1701SOL     OW 6001   6.458   4.675   4.679
 1701SOL    HW1 6002   6.551   4.666   4.714
 1701SOL    HW2 6003   6.443   4.607   4.607
 1702SOL     OW 6004   2.086   1.872   5.881
 1702SOL    HW1 6005   1.999   1.880   5.831
 1702SOL    HW2 6006   2.087   1.938   5.956
 1703SOL     OW 6007   3.024   1.561   6.397
 1703SOL    HW1 6008   2.996   1.485   6.337
 1703SOL    HW2 6009   3.010   1.647   6.349
 1704SOL     OW 6010   2.593   1.657   0.566
 1704SOL    HW1 6011   2.568   1.731   0.628
 1704SOL    HW2 6012   2.606   1.694   0.474
 1705SOL     OW 6013   3.467   1.463   1.677
 1705SOL    HW1 6014   3.387   1.420   1.719
 1705SOL    HW2 6015   3.502   1.534   1.737
 1706SOL     OW 6016   4.579   2.027   0.683
 1706SOL    HW1 6017   4.660   2.021   0.625
 1706SOL    HW2 6018   4.505   1.972   0.642
 1707SOL     OW 6019   4.769   1.386   2.699
 1707SOL    HW1 6020   4.745   1.408   2.605
 1707SOL    HW2 6021   4.688   1.351   2.747
 1708SOL     OW 6022   3.217   5.340   2.210
 1708SOL    HW1 6023   3.237   5.264   2.147
 1708SOL    HW2 6024   3.133   5.386   2.179
 1709SOL     OW 6025   4.881   5.553   0.836
 1709SOL    HW1 6026   4.925   5.642   0.849
 1709SOL    HW2 6027   4.948   5.488   0.801
 1710SOL     OW 6028   4.579   5.407   3.135
 1710SOL    HW1 6029   4.517   5.486   3.128
 1710SOL    HW2 6030   4.636   5.416   3.217
 1711SOL     OW 6031   3.667   6.002   5.960
 1711SOL    HW1 6032   3.642   5.910   5.990
 1711SOL    HW2 6033   3.763   6.020   5.983
 1712SOL     OW 6034   0.345   2.300   4.640
 1712SOL    HW1 6035   0.421   2.365   4.644
 1712SOL    HW2 6036   0.259   2.349   4.636
 1713SOL     OW 6037   3.781   0.669   2.852
 1713SOL    HW1 6038   3.860   0.637   2.800
 1713SOL    HW2 6039   3.718   0.593   2.867
 1714SOL     OW 6040   3.908   2.474   6.886
 1714SOL    HW1 6041   3.946   2.564   6.910
 1714SOL    HW2 6042   3.940   2.406   6.952
 1715SOL     OW 6043   1.098   6.397   2.313
 1715SOL    HW1 6044   1.062   6.417   2.404
 1715SOL    HW2 6045   1.024   6.405   2.246
 1716SOL     OW 6046   4.869   0.719   4.028
 1716SOL    HW1 6047   4.913   0.642   3.982
 1716SOL    HW2 6048   4.937   0.769   4.082
 1717SOL     OW 6049   3.931   6.299   5.363
 1717SOL    HW1 6050   4.006   6.232   5.363
 1717SOL    HW2 6051   3.897   6.311   5.456
 1718SOL     OW 6052   2.017   2.400   2.105
 1718SOL    HW1 6053   2.072   2.356   2.034
 1718SOL    HW2 6054   2.070   2.407   2.190
 1719SOL     OW 6055   1.123   4.662   1.724
 1719SOL    HW1 6056   1.135   4.735   1.791
 1719SOL    HW2 6057   1.212   4.624   1.699
 1720SOL     OW 6058   6.710   2.738   5.875
 1720SOL    HW1 6059   6.728   2.769   5.969
 1720SOL    HW2 6060   6.620   2.695   5.871
 1721SOL     OW 6061   1.018   1.233   1.933
 1721SOL    HW1 6062   1.042   1.303   2.001
 1721SOL    HW2 6063   1.056   1.259   1.844
 1722SOL     OW 6064   3.520   2.071   2.545
 1722SOL    HW1 6065   3.504   1.975   2.521
 1722SOL    HW2 6066   3.440   2.125   2.519
 1723SOL     OW 6067   5.160   2.124   6.776
 1723SOL    HW1 6068   5.098   2.191   6.736
 1723SOL    HW2 6069   5.166   2.140   6.875
 1724SOL     OW 6070   6.445   2.635   1.400
 1724SOL    HW1 6071   6.429   2.648   1.302
 1724SOL    HW2 6072   6.487   2.546   1.415
 1725SOL     OW 6073   2.204   5.103   6.660
 1725SOL    HW1 6074   2.259   5.185   6.647
 1725SOL    HW2 6075   2.261   5.022   6.648
 1726SOL     OW 6076   5.529   4.977   3.790
 1726SOL    HW1 6077   5.501   4.915   3.717
 1726SOL    HW2 6078   5.627   4.966   3.808
 1727SOL     OW 6079   3.133   3.775   3.333
 1727SOL    HW1 6080   3.142   3.861   3.382
 1727SOL    HW2 6081   3.073   3.788   3.254
 1728SOL     OW 6082   4.909   3.279   5.459
 1728SOL    HW1 6083   4.882   3.303   5.365
 1728SOL    HW2 6084   4.993   3.327   5.483
 1729SOL     OW 6085   2.003   4.024   1.982
 1729SOL    HW1 6086   1.947   4.107   1.982
 1729SOL    HW2 6087   1.945   3.945   2.005
 1730SOL     OW 6088   2.603   5.009   5.601
 1730SOL    HW1 6089   2.548   4.942   5.552
 1730SOL    HW2 6090   2.586   5.100   5.564
 1731SOL     OW 6091   5.736   4.662   4.074
 1731SOL    HW1 6092   5.687   4.666   3.987
 1731SOL    HW2 6093   5.682   4.610   4.140
 1732SOL     OW 6094   2.013   4.764   6.965
 1732SOL    HW1 6095   1.965   4.677   6.971
 1732SOL    HW2 6096   2.103   4.756   7.009
 1733SOL     OW 6097   2.860   3.968   0.268
 1733SOL    HW1 6098   2.921   3.903   0.313
 1733SOL    HW2 6099   2.768   3.958   0.303
 1734SOL     OW 6100   0.175   3.369   1.426
 1734SOL    HW1 6101   0.128   3.341   1.510
 1734SOL    HW2 6102   0.234   3.447   1.446
 1735SOL     OW 6103   4.320   5.366   6.624
 1735SOL    HW1 6104   4.239   5.324   6.583
 1735SOL    HW2 6105   4.315   5.358   6.723
 1736SOL     OW 6106   4.740   3.541   1.117
 1736SOL    HW1 6107   4.786   3.509   1.201
 1736SOL    HW2 6108   4.764   3.636   1.101
 1737SOL     OW 6109   4.495   1.394   4.383
 1737SOL    HW1 6110   4.452   1.484   4.388
 1737SOL    HW2 6111   4.503   1.357   4.475
 1738SOL     OW 6112   1.213   3.717   4.043
 1738SOL    HW1 6113   1.190   3.620   4.045
 1738SOL    HW2 6114   1.285   3.732   3.975
 1739SOL     OW 6115   5.508   0.084   4.027
 1739SOL    HW1 6116   5.458   0.127   4.103
 1739SOL    HW2 6117   5.502   0.143   3.947
 1740SOL     OW 6118   0.015   2.086   4.525
 1740SOL    HW1 6119   0.023   2.181   4.495
 1740SOL    HW2 6120   0.018   2.083   4.625
 1741SOL     OW 6121   1.380   1.793   4.744
 1741SOL    HW1 6122   1.480   1.791   4.747
 1741SOL    HW2 6123   1.350   1.844   4.663
 1742SOL     OW 6124   6.428   6.413   6.182
 1742SOL    HW1 6125   6.427   6.374   6.274
 1742SOL    HW2 6126   6.335   6.413   6.145
 1743SOL     OW 6127   1.421   1.082   3.165
 1743SOL    HW1 6128   1.402   1.136   3.083
 1743SOL    HW2 6129   1.520   1.065   3.173
 1744SOL     OW 6130   5.120   2.423   3.386
 1744SOL    HW1 6131   5.022   2.443   3.379
 1744SOL    HW2 6132   5.171   2.491   3.334
 1745SOL     OW 6133   6.318   6.349   1.466
 1745SOL    HW1 6134   6.249   6.283   1.495
 1745SOL    HW2 6135   6.408   6.321   1.499
 1746SOL     OW 6136   1.640   3.716   3.314
 1746SOL    HW1 6137   1.730   3.706   3.273
 1746SOL    HW2 6138   1.650   3.752   3.407
 1747SOL     OW 6139   3.293   1.036   2.050
 1747SOL    HW1 6140   3.283   1.047   2.149
 1747SOL    HW2 6141   3.211   1.071   2.005
 1748SOL     OW 6142   0.192   1.894   4.404
 1748SOL    HW1 6143   0.113   1.956   4.399
 1748SOL    HW2 6144   0.210   1.870   4.499
 1749SOL     OW 6145   2.721   5.509   1.042
 1749SOL    HW1 6146   2.808   5.461   1.038
 1749SOL    HW2 6147   2.666   5.473   1.118
 1750SOL     OW 6148   4.348   0.830   5.929
 1750SOL    HW1 6149   4.342   0.874   6.019
 1750SOL    HW2 6150   4.441   0.838   5.894
 1751SOL     OW 6151   5.857   2.465   5.094
 1751SOL    HW1 6152   5.792   2.441   5.166
 1751SOL    HW2 6153   5.858   2.564   5.082
 1752SOL     OW 6154   6.570   0.895   1.148
 1752SOL    HW1 6155   6.639   0.833   1.110
 1752SOL    HW2 6156   6.565   0.882   1.247
 1753SOL     OW 6157   6.391   1.633   1.946
 1753SOL    HW1 6158   6.463   1.687   1.990
 1753SOL    HW2 6159   6.415   1.536   1.947
 1754SOL     OW 6160   3.160   6.094   5.613
 1754SOL    HW1 6161   3.194   6.085   5.520
 1754SOL    HW2 6162   3.106   6.178   5.621
 1755SOL     OW 6163   6.252   0.023   4.784
 1755SOL    HW1 6164   6.351   0.038   4.781
 1755SOL    HW2 6165   6.208   0.079   4.714
 1756SOL     OW 6166   5.536   0.339   6.208
 1756SOL    HW1 6167   5.576   0.430   6.224
 1756SOL    HW2 6168   5.609   0.276   6.180
 1757SOL     OW 6169   2.669   5.589   5.217
 1757SOL    HW1 6170   2.694   5.519   5.151
 1757SOL    HW2 6171   2.748   5.648   5.236
 1758SOL     OW 6172   2.090   6.688   4.731
 1758SOL    HW1 6173   2.162   6.745   4.769
 1758SOL    HW2 6174   2.051   6.630   4.802
 1759SOL     OW 6175   1.333   6.262   0.285
 1759SOL    HW1 6176   1.242   6.287   0.254
 1759SOL    HW2 6177   1.354   6.168   0.258
 1760SOL     OW 6178   6.524   0.784   5.423
 1760SOL    HW1 6179   6.537   0.869   5.474
 1760SOL    HW2 6180   6.427   0.760   5.424
 1761SOL     OW 6181   6.598   2.021   1.439
 1761SOL    HW1 6182   6.560   2.001   1.529
 1761SOL    HW2 6183   6.525   2.044   1.375
 1762SOL     OW 6184   0.422   1.341   5.655
 1762SOL    HW1 6185   0.483   1.262   5.655
 1762SOL    HW2 6186   0.338   1.318   5.606
 1763SOL     OW 6187   0.707   3.610   4.522
 1763SOL    HW1 6188   0.760   3.537   4.565
 1763SOL    HW2 6189   0.622   3.573   4.486
 1764SOL     OW 6190   1.457   4.586   2.313
 1764SOL    HW1 6191   1.538   4.606   2.258
 1764SOL    HW2 6192   1.474   4.503   2.368
 1765SOL     OW 6193   5.686   3.124   1.960
 1765SOL    HW1 6194   5.672   3.056   1.888
 1765SOL    HW2 6195   5.757   3.094   2.022
 1766SOL     OW 6196   4.127   4.739   4.217
 1766SOL    HW1 6197   4.039   4.762   4.259
 1766SOL    HW2 6198   4.199   4.742   4.286
 1767SOL     OW 6199   6.929   5.042   2.538
 1767SOL    HW1 6200   6.907   5.015   2.444
 1767SOL    HW2 6201   6.845   5.062   2.588
 1768SOL     OW 6202   4.673   6.438   2.236
 1768SOL    HW1 6203   4.667   6.339   2.252
 1768SOL    HW2 6204   4.584   6.480   2.252
 1769SOL     OW 6205   5.676   0.062   6.608
 1769SOL    HW1 6206   5.643   0.044   6.700
 1769SOL    HW2 6207   5.606   0.110   6.555
 1770SOL     OW 6208   1.827   4.518   6.265
 1770SOL    HW1 6209   1.771   4.487   6.188
 1770SOL    HW2 6210   1.889   4.445   6.292
 1771SOL     OW 6211   0.979   3.620   6.032
 1771SOL    HW1 6212   0.983   3.654   5.938
 1771SOL    HW2 6213   1.039   3.541   6.042
 1772SOL     OW 6214   2.770   4.699   3.967
 1772SOL    HW1 6215   2.825   4.716   4.049
 1772SOL    HW2 6216   2.692   4.642   3.991
 1773SOL     OW 6217   0.376   0.001   5.315
 1773SOL    HW1 6218   0.315   6.960   5.363
 1773SOL    HW2 6219   0.386   6.996   5.220
 1774SOL     OW 6220   5.828   5.797   1.275
 1774SOL    HW1 6221   5.750   5.772   1.331
 1774SOL    HW2 6222   5.798   5.853   1.197
 1775SOL     OW 6223   1.788   5.485   6.820
 1775SOL    HW1 6224   1.796   5.389   6.792
 1775SOL    HW2 6225   1.725   5.532   6.759
 1776SOL     OW 6226   4.354   1.312   5.963
 1776SOL    HW1 6227   4.384   1.311   6.058
 1776SOL    HW2 6228   4.265   1.358   5.956
 1777SOL     OW 6229   4.281   6.935   6.861
 1777SOL    HW1 6230   4.327   6.867   6.804
 1777SOL    HW2 6231   4.214   6.890   6.919
 1778SOL     OW 6232   5.869   0.886   3.791
 1778SOL    HW1 6233   5.904   0.924   3.705
 1778SOL    HW2 6234   5.806   0.951   3.833
 1779SOL     OW 6235   5.584   6.638   4.095
 1779SOL    HW1 6236   5.543   6.676   4.012
 1779SOL    HW2 6237   5.517   6.641   4.169
 1780SOL     OW 6238   1.940   5.421   5.143
 1780SOL    HW1 6239   1.988   5.474   5.074
 1780SOL    HW2 6240   1.901   5.482   5.212
 1781SOL     OW 6241   4.173   0.315   3.898
 1781SOL    HW1 6242   4.223   0.312   3.984
 1781SOL    HW2 6243   4.212   0.386   3.839
 1782SOL     OW 6244   1.559   1.859   2.770
 1782SOL    HW1 6245   1.583   1.773   2.815
 1782SOL    HW2 6246   1.606   1.934   2.816
 1783SOL     OW 6247   1.884   3.953   6.025
 1783SOL    HW1 6248   1.926   3.894   5.956
 1783SOL    HW2 6249   1.791   3.975   5.997
 1784SOL     OW 6250   2.032   0.671   1.011
 1784SOL    HW1 6251   2.030   0.595   1.076
 1784SOL    HW2 6252   1.960   0.736   1.034
 1785SOL     OW 6253   1.405   6.657   4.491
 1785SOL    HW1 6254   1.414   6.670   4.392
 1785SOL    HW2 6255   1.406   6.746   4.537
 1786SOL     OW 6256   1.258   6.240   0.945
 1786SOL    HW1 6257   1.321   6.315   0.968
 1786SOL    HW2 6258   1.212   6.261   0.859
 1787SOL     OW 6259   2.118   3.297   5.895
 1787SOL    HW1 6260   2.179   3.323   5.970
 1787SOL    HW2 6261   2.157   3.219   5.846
 1788SOL     OW 6262   4.668   3.872   0.498
 1788SOL    HW1 6263   4.699   3.780   0.522
 1788SOL    HW2 6264   4.600   3.902   0.565
 1789SOL     OW 6265   0.021   3.607   2.109
 1789SOL    HW1 6266   0.072   3.686   2.144
 1789SOL    HW2 6267   6.956   3.638   2.071
 1790SOL     OW 6268   2.794   2.288   4.233
 1790SOL    HW1 6269   2.853   2.259   4.158
 1790SOL    HW2 6270   2.717   2.341   4.196
 1791SOL     OW 6271   5.907   0.074   3.610
 1791SOL    HW1 6272   5.906   0.018   3.527
 1791SOL    HW2 6273   5.891   0.170   3.586
 1792SOL     OW 6274   6.536   1.573   5.034
 1792SOL    HW1 6275   6.585   1.646   5.082
 1792SOL    HW2 6276   6.565   1.571   4.939
 1793SOL     OW 6277   0.135   1.262   5.667
 1793SOL    HW1 6278   0.181   1.174   5.678
 1793SOL    HW2 6279   0.057   1.251   5.605
 1794SOL     OW 6280   0.196   0.076   6.254
 1794SOL    HW1 6281   0.213   0.069   6.155
 1794SOL    HW2 6282   0.114   0.023   6.277
 1795SOL     OW 6283   5.892   5.149   0.006
 1795SOL    HW1 6284   5.807   5.120   6.984
 1795SOL    HW2 6285   5.873   5.178   0.100
 1796SOL     OW 6286   0.931   6.602   5.642
 1796SOL    HW1 6287   0.877   6.685   5.656
 1796SOL    HW2 6288   0.988   6.586   5.723
 1797SOL     OW 6289   2.470   6.292   4.840
 1797SOL    HW1 6290   2.521   6.334   4.915
 1797SOL    HW2 6291   2.506   6.200   4.823
 1798SOL     OW 6292   3.290   3.885   4.826
 1798SOL    HW1 6293   3.266   3.792   4.799
 1798SOL    HW2 6294   3.229   3.915   4.899
 1799SOL     OW 6295   2.949   0.869   0.106
 1799SOL    HW1 6296   2.856   0.885   0.136
 1799SOL    HW2 6297   3.005   0.839   0.184
 1800SOL     OW 6298   5.423   3.420   4.364
 1800SOL    HW1 6299   5.325   3.412   4.348
 1800SOL    HW2 6300   5.468   3.335   4.338
 1801SOL     OW 6301   0.962   1.569   2.238
 1801SOL    HW1 6302   0.906   1.487   2.251
 1801SOL    HW2 6303   0.937   1.638   2.306
 1802SOL     OW 6304   6.461   4.746   3.805
 1802SOL    HW1 6305   6.503   4.673   3.751
 1802SOL    HW2 6306   6.462   4.721   3.901
 1803SOL     OW 6307   0.714   6.830   3.087
 1803SOL    HW1 6308   0.701   6.776   3.004
 1803SOL    HW2 6309   0.626   6.846   3.131
 1804SOL     OW 6310   2.675   3.423   6.029
 1804SOL    HW1 6311   2.709   3.432   5.936
 1804SOL    HW2 6312   2.674   3.512   6.073
 1805SOL     OW 6313   0.149   6.010   6.313
 1805SOL    HW1 6314   0.198   5.941   6.261
 1805SOL    HW2 6315   0.215   6.071   6.358
 1806SOL     OW 6316   6.871   1.913   2.245
 1806SOL    HW1 6317   6.861   2.013   2.251
 1806SOL    HW2 6318   6.933   1.882   2.317
 1807SOL     OW 6319   6.826   3.767   2.005
 1807SOL    HW1 6320   6.788   3.796   2.093
 1807SOL    HW2 6321   6.752   3.749   1.941
 1808SOL     OW 6322   5.242   1.904   5.701
 1808SOL    HW1 6323   5.272   1.948   5.786
 1808SOL    HW2 6324   5.259   1.805   5.706
 1809SOL     OW 6325   3.782   2.207   5.795
 1809SOL    HW1 6326   3.698   2.234   5.841
 1809SOL    HW2 6327   3.770   2.117   5.753
 1810SOL     OW 6328   0.834   6.936   4.228
 1810SOL    HW1 6329   0.845   6.993   4.147
 1810SOL    HW2 6330   0.870   6.984   4.308
 1811SOL     OW 6331   4.252   5.774   2.640
 1811SOL    HW1 6332   4.181   5.809   2.578
 1811SOL    HW2 6333   4.306   5.850   2.675
 1812SOL     OW 6334   4.622   6.797   5.399
 1812SOL    HW1 6335   4.524   6.788   5.415
 1812SOL    HW2 6336   4.660   6.865   5.462
 1813SOL     OW 6337   4.628   4.572   2.548
 1813SOL    HW1 6338   4.644   4.484   2.503
 1813SOL    HW2 6339   4.533   4.600   2.532
 1814SOL     OW 6340   0.297   6.490   0.521
 1814SOL    HW1 6341   0.232   6.505   0.596
 1814SOL    HW2 6342   0.310   6.576   0.471
 1815SOL     OW 6343   5.766   6.303   2.074
 1815SOL    HW1 6344   5.856   6.287   2.035
 1815SOL    HW2 6345   5.746   6.401   2.072
 1816SOL     OW 6346   4.324   5.834   6.122
 1816SOL    HW1 6347   4.272   5.756   6.086
 1816SOL    HW2 6348   4.355   5.891   6.046
 1817SOL     OW 6349   1.380   1.655   3.685
 1817SOL    HW1 6350   1.338   1.565   3.688
 1817SOL    HW2 6351   1.390   1.691   3.778
 1818SOL     OW 6352   2.202   6.725   0.236
 1818SOL    HW1 6353   2.278   6.664   0.256
 1818SOL    HW2 6354   2.117   6.686   0.272
 1819SOL     OW 6355   2.001   4.837   3.096
 1819SOL    HW1 6356   2.036   4.891   3.173
 1819SOL    HW2 6357   2.077   4.806   3.039
 1820SOL     OW 6358   3.522   0.777   3.862
 1820SOL    HW1 6359   3.532   0.870   3.827
 1820SOL    HW2 6360   3.600   0.756   3.921
 1821SOL     OW 6361   4.335   1.874   2.338
 1821SOL    HW1 6362   4.241   1.867   2.371
 1821SOL    HW2 6363   4.339   1.845   2.242
 1822SOL     OW 6364   0.342   3.225   2.265
 1822SOL    HW1 6365   0.323   3.214   2.168
 1822SOL    HW2 6366   0.259   3.208   2.318
 1823SOL     OW 6367   4.167   6.315   2.421
 1823SOL    HW1 6368   4.076   6.282   2.397
 1823SOL    HW2 6369   4.176   6.411   2.393
 1824SOL     OW 6370   4.072   3.248   0.963
 1824SOL    HW1 6371   3.996   3.241   0.899
 1824SOL    HW2 6372   4.125   3.164   0.961
 1825SOL     OW 6373   2.198   2.005   4.904
 1825SOL    HW1 6374   2.139   1.955   4.967
 1825SOL    HW2 6375   2.293   1.996   4.933
 1826SOL     OW 6376   3.533   2.146   1.743
 1826SOL    HW1 6377   3.597   2.201   1.797
 1826SOL    HW2 6378   3.575   2.124   1.654
 1827SOL     OW 6379   5.526   4.676   0.581
 1827SOL    HW1 6380   5.475   4.652   0.498
 1827SOL    HW2 6381   5.492   4.621   0.658
 1828SOL     OW 6382   1.683   3.522   5.411
 1828SOL    HW1 6383   1.719   3.429   5.402
 1828SOL    HW2 6384   1.751   3.580   5.455
 1829SOL     OW 6385   2.970   0.856   3.635
 1829SOL    HW1 6386   3.023   0.873   3.718
 1829SOL    HW2 6387   2.972   0.758   3.614
 1830SOL     OW 6388   5.695   6.750   5.009
 1830SOL    HW1 6389   5.604   6.747   4.966
 1830SOL    HW2 6390   5.684   6.751   5.109
 1831SOL     OW 6391   5.048   5.458   2.560
 1831SOL    HW1 6392   5.013   5.485   2.471
 1831SOL    HW2 6393   5.088   5.537   2.606
 1832SOL     OW 6394   2.806   2.826   0.349
 1832SOL    HW1 6395   2.905   2.837   0.360
 1832SOL    HW2 6396   2.770   2.771   0.424
 1833SOL     OW 6397   4.939   0.322   1.143
 1833SOL    HW1 6398   5.000   0.384   1.093
 1833SOL    HW2 6399   4.962   0.227   1.120
 1834SOL     OW 6400   2.697   2.613   6.546
 1834SOL    HW1 6401   2.761   2.544   6.578
 1834SOL    HW2 6402   2.691   2.610   6.447
 1835SOL     OW 6403   0.219   5.241   1.398
 1835SOL    HW1 6404   0.121   5.250   1.380
 1835SOL    HW2 6405   0.264   5.202   1.318
 1836SOL     OW 6406   5.247   2.457   1.474
 1836SOL    HW1 6407   5.279   2.533   1.532
 1836SOL    HW2 6408   5.217   2.382   1.532
 1837SOL     OW 6409   2.774   1.533   6.131
 1837SOL    HW1 6410   2.757   1.498   6.223
 1837SOL    HW2 6411   2.705   1.496   6.069
 1838SOL     OW 6412   6.513   0.975   0.734
 1838SOL    HW1 6413   6.582   1.014   0.674
 1838SOL    HW2 6414   6.470   1.047   0.787
 1839SOL     OW 6415   5.702   1.068   7.008
 1839SOL    HW1 6416   5.739   0.982   6.972
 1839SOL    HW2 6417   5.610   1.082   6.972
 1840SOL     OW 6418   4.261   0.024   3.327
 1840SOL    HW1 6419   4.229   0.002   3.419
 1840SOL    HW2 6420   4.207   6.996   3.260
 1841SOL     OW 6421   2.097   1.598   2.145
 1841SOL    HW1 6422   2.053   1.601   2.235
 1841SOL    HW2 6423   2.150   1.682   2.131
 1842SOL     OW 6424   1.611   5.830   0.554
 1842SOL    HW1 6425   1.596   5.906   0.491
 1842SOL    HW2 6426   1.605   5.744   0.504
 1843SOL     OW 6427   3.521   1.060   4.435
 1843SOL    HW1 6428   3.428   1.097   4.438
 1843SOL    HW2 6429   3.520   0.964   4.463
 1844SOL     OW 6430   5.533   1.176   6.406
 1844SOL    HW1 6431   5.529   1.098   6.469
 1844SOL    HW2 6432   5.469   1.246   6.436
 1845SOL     OW 6433   1.676   1.336   3.093
 1845SOL    HW1 6434   1.587   1.381   3.096
 1845SOL    HW2 6435   1.719   1.350   3.004
 1846SOL     OW 6436   4.470   1.212   2.587
 1846SOL    HW1 6437   4.440   1.229   2.493
 1846SOL    HW2 6438   4.420   1.273   2.649
 1847SOL     OW 6439   2.117   0.327   5.197
 1847SOL    HW1 6440   2.078   0.408   5.153
 1847SOL    HW2 6441   2.059   0.248   5.177
 1848SOL     OW 6442   2.601   5.976   4.267
 1848SOL    HW1 6443   2.523   6.023   4.225
 1848SOL    HW2 6444   2.587   5.968   4.365
 1849SOL     OW 6445   4.740   2.714   1.849
 1849SOL    HW1 6446   4.722   2.812   1.859
 1849SOL    HW2 6447   4.759   2.674   1.939
 1850SOL     OW 6448   4.998   1.695   1.624
 1850SOL    HW1 6449   5.043   1.732   1.705
 1850SOL    HW2 6450   5.066   1.671   1.555
 1851SOL     OW 6451   6.704   3.863   5.644
 1851SOL    HW1 6452   6.655   3.917   5.575
 1851SOL    HW2 6453   6.684   3.766   5.632
 1852SOL     OW 6454   1.447   5.205   2.126
 1852SOL    HW1 6455   1.358   5.228   2.085
 1852SOL    HW2 6456   1.437   5.197   2.225
 1853SOL     OW 6457   0.543   2.499   4.232
 1853SOL    HW1 6458   0.625   2.453   4.264
 1853SOL    HW2 6459   0.468   2.482   4.295
 1854SOL     OW 6460   0.421   6.403   3.774
 1854SOL    HW1 6461   0.500   6.452   3.812
 1854SOL    HW2 6462   0.446   6.308   3.756
 1855SOL     OW 6463   4.798   3.327   5.200
 1855SOL    HW1 6464   4.717   3.284   5.239
 1855SOL    HW2 6465   4.782   3.425   5.189
 1856SOL     OW 6466   3.534   2.581   0.309
 1856SOL    HW1 6467   3.557   2.635   0.390
 1856SOL    HW2 6468   3.573   2.489   0.318
 1857SOL     OW 6469   4.808   0.984   0.551
 1857SOL    HW1 6470   4.865   1.059   0.584
 1857SOL    HW2 6471   4.850   0.942   0.470
 1858SOL     OW 6472   4.158   2.264   4.057
 1858SOL    HW1 6473   4.087   2.239   3.991
 1858SOL    HW2 6474   4.130   2.233   4.148
 1859SOL     OW 6475   5.574   2.083   3.624
 1859SOL    HW1 6476   5.576   2.021   3.703
 1859SOL    HW2 6477   5.504   2.052   3.560
 1860SOL     OW 6478   1.217   1.182   4.589
 1860SOL    HW1 6479   1.227   1.167   4.491
 1860SOL    HW2 6480   1.263   1.268   4.614
 1861SOL     OW 6481   6.498   0.098   3.318
 1861SOL    HW1 6482   6.520   0.018   3.263
 1861SOL    HW2 6483   6.472   0.069   3.410
 1862SOL     OW 6484   2.646   6.330   6.556
 1862SOL    HW1 6485   2.630   6.412   6.500
 1862SOL    HW2 6486   2.582   6.258   6.528
 1863SOL     OW 6487   0.330   2.702   1.718
 1863SOL    HW1 6488   0.425   2.727   1.738
 1863SOL    HW2 6489   0.268   2.757   1.774
 1864SOL     OW 6490   3.498   5.872   2.769
 1864SOL    HW1 6491   3.505   5.959   2.817
 1864SOL    HW2 6492   3.426   5.877   2.699
 1865SOL     OW 6493   5.765   0.964   5.956
 1865SOL    HW1 6494   5.838   0.924   6.011
 1865SOL    HW2 6495   5.745   1.057   5.987
 1866SOL     OW 6496   0.144   4.656   3.543
 1866SOL    HW1 6497   0.170   4.668   3.447
 1866SOL    HW2 6498   0.094   4.570   3.554
 1867SOL     OW 6499   2.210   2.470   0.775
 1867SOL    HW1 6500   2.226   2.416   0.857
 1867SOL    HW2 6501   2.161   2.554   0.799
 1868SOL     OW 6502   5.976   4.541   5.836
 1868SOL    HW1 6503   5.988   4.605   5.912
 1868SOL    HW2 6504   5.890   4.561   5.789
 1869SOL     OW 6505   4.536   1.749   4.231
 1869SOL    HW1 6506   4.511   1.738   4.134
 1869SOL    HW2 6507   4.453   1.750   4.287
 1870SOL     OW 6508   0.577   5.072   4.071
 1870SOL    HW1 6509   0.605   4.976   4.063
 1870SOL    HW2 6510   0.481   5.081   4.044
 1871SOL     OW 6511   0.564   6.698   0.460
 1871SOL    HW1 6512   0.638   6.665   0.401
 1871SOL    HW2 6513   0.567   6.649   0.548
 1872SOL     OW 6514   2.423   2.583   0.667
 1872SOL    HW1 6515   2.349   2.529   0.707
 1872SOL    HW2 6516   2.398   2.680   0.668
 1873SOL     OW 6517   6.770   0.710   0.112
 1873SOL    HW1 6518   6.673   0.733   0.113
 1873SOL    HW2 6519   6.823   0.791   0.138
 1874SOL     OW 6520   1.107   6.174   0.135
 1874SOL    HW1 6521   1.121   6.098   0.072
 1874SOL    HW2 6522   1.093   6.258   0.083
 1875SOL     OW 6523   6.225   5.130   0.168
 1875SOL    HW1 6524   6.170   5.174   0.097
 1875SOL    HW2 6525   6.165   5.094   0.239
 1876SOL     OW 6526   6.861   6.003   6.366
 1876SOL    HW1 6527   6.816   6.021   6.454
 1876SOL    HW2 6528   6.961   6.007   6.379
 1877SOL     OW 6529   6.973   0.950   2.170
 1877SOL    HW1 6530   6.996   0.855   2.151
 1877SOL    HW2 6531   0.033   1.006   2.170
 1878SOL     OW 6532   6.811   4.880   3.463
 1878SOL    HW1 6533   6.906   4.906   3.483
 1878SOL    HW2 6534   6.811   4.799   3.404
 1879SOL     OW 6535   3.915   5.782   4.601
 1879SOL    HW1 6536   3.822   5.758   4.571
 1879SOL    HW2 6537   3.980   5.714   4.566
 1880SOL     OW 6538   0.465   1.430   3.854
 1880SOL    HW1 6539   0.419   1.412   3.941
 1880SOL    HW2 6540   0.396   1.438   3.781
 1881SOL     OW 6541   1.247   1.490   3.944
 1881SOL    HW1 6542   1.153   1.519   3.926
 1881SOL    HW2 6543   1.258   1.394   3.919
 1882SOL     OW 6544   1.346   5.469   0.217
 1882SOL    HW1 6545   1.246   5.462   0.219
 1882SOL    HW2 6546   1.374   5.519   0.135
 1883SOL     OW 6547   1.716   3.231   2.942
 1883SOL    HW1 6548   1.704   3.229   3.042
 1883SOL    HW2 6549   1.763   3.148   2.913
 1884SOL     OW 6550   2.928   0.389   0.195
 1884SOL    HW1 6551   2.913   0.486   0.176
 1884SOL    HW2 6552   3.001   0.354   0.137
 1885SOL     OW 6553   6.644   2.387   1.061
 1885SOL    HW1 6554   6.698   2.377   1.145
 1885SOL    HW2 6555   6.678   2.325   0.991
 1886SOL     OW 6556   2.634   3.012   6.983
 1886SOL    HW1 6557   2.593   2.925   7.010
 1886SOL    HW2 6558   2.714   2.994   6.926
 1887SOL     OW 6559   1.489   6.473   5.744
 1887SOL    HW1 6560   1.537   6.489   5.830
 1887SOL    HW2 6561   1.443   6.557   5.715
 1888SOL     OW 6562   2.146   2.042   6.092
 1888SOL    HW1 6563   2.216   2.038   6.164
 1888SOL    HW2 6564   2.180   2.096   6.015
 1889SOL     OW 6565   4.408   2.805   0.341
 1889SOL    HW1 6566   4.403   2.904   0.356
 1889SOL    HW2 6567   4.486   2.784   0.282
 1890SOL     OW 6568   0.051   5.612   6.381
 1890SOL    HW1 6569   0.095   5.526   6.356
 1890SOL    HW2 6570   0.052   5.623   6.480
 1891SOL     OW 6571   6.211   3.225   5.441
 1891SOL    HW1 6572   6.223   3.241   5.343
 1891SOL    HW2 6573   6.158   3.299   5.481
 1892SOL     OW 6574   3.762   5.327   1.903
 1892SOL    HW1 6575   3.733   5.391   1.974
 1892SOL    HW2 6576   3.793   5.242   1.946
 1893SOL     OW 6577   3.911   1.687   4.117
 1893SOL    HW1 6578   3.811   1.689   4.114
 1893SOL    HW2 6579   3.943   1.594   4.132
 1894SOL     OW 6580   4.013   3.966   0.584
 1894SOL    HW1 6581   4.096   3.983   0.530
 1894SOL    HW2 6582   3.952   3.906   0.533
 1895SOL     OW 6583   5.673   0.732   3.266
 1895SOL    HW1 6584   5.632   0.809   3.218
 1895SOL    HW2 6585   5.772   0.741   3.265
 1896SOL     OW 6586   6.907   1.407   4.991
 1896SOL    HW1 6587   6.880   1.457   4.909
 1896SOL    HW2 6588   6.998   1.369   4.978
 1897SOL     OW 6589   5.818   4.907   3.471
 1897SOL    HW1 6590   5.863   4.843   3.409
 1897SOL    HW2 6591   5.731   4.936   3.431
 1898SOL     OW 6592   5.761   4.568   0.958
 1898SOL    HW1 6593   5.803   4.503   0.894
 1898SOL    HW2 6594   5.776   4.537   1.052
 1899SOL     OW 6595   0.762   2.813   2.798
 1899SOL    HW1 6596   0.751   2.904   2.837
 1899SOL    HW2 6597   0.846   2.772   2.832
 1900SOL     OW 6598   2.240   5.997   6.185
 1900SOL    HW1 6599   2.280   5.912   6.221
 1900SOL    HW2 6600   2.279   6.075   6.233
 1901SOL     OW 6601   1.749   1.087   6.430
 1901SOL    HW1 6602   1.728   1.151   6.504
 1901SOL    HW2 6603   1.719   1.125   6.343
 1902SOL     OW 6604   0.838   2.739   4.321
 1902SOL    HW1 6605   0.803   2.794   4.396
 1902SOL    HW2 6606   0.866   2.798   4.245
 1903SOL     OW 6607   6.569   3.073   3.681
 1903SOL    HW1 6608   6.660   3.113   3.670
 1903SOL    HW2 6609   6.504   3.144   3.708
 1904SOL     OW 6610   6.463   6.821   3.736
 1904SOL    HW1 6611   6.507   6.841   3.824
 1904SOL    HW2 6612   6.424   6.729   3.739
 1905SOL     OW 6613   6.988   2.264   3.695
 1905SOL    HW1 6614   7.009   2.288   3.600
 1905SOL    HW2 6615   6.903   2.211   3.697
 1906SOL     OW 6616   2.700   0.458   6.359
 1906SOL    HW1 6617   2.776   0.439   6.421
 1906SOL    HW2 6618   2.626   0.504   6.409
 1907SOL     OW 6619   3.143   6.146   3.792
 1907SOL    HW1 6620   3.232   6.109   3.767
 1907SOL    HW2 6621   3.130   6.139   3.891
 1908SOL     OW 6622   4.129   1.459   6.128
 1908SOL    HW1 6623   4.073   1.476   6.209
 1908SOL    HW2 6624   4.221   1.493   6.143
 1909SOL     OW 6625   2.550   5.272   4.645
 1909SOL    HW1 6626   2.532   5.327   4.563
 1909SOL    HW2 6627   2.590   5.184   4.618
 1910SOL     OW 6628   5.340   1.995   5.939
 1910SOL    HW1 6629   5.325   1.947   6.025
 1910SOL    HW2 6630   5.389   2.080   5.956
 1911SOL     OW 6631   6.418   2.890   4.970
 1911SOL    HW1 6632   6.504   2.868   4.924
 1911SOL    HW2 6633   6.350   2.918   4.902
 1912SOL     OW 6634   3.648   6.807   2.955
 1912SOL    HW1 6635   3.731   6.808   3.010
 1912SOL    HW2 6636   3.651   6.732   2.890
 1913SOL     OW 6637   1.766   5.390   5.652
 1913SOL    HW1 6638   1.731   5.353   5.566
 1913SOL    HW2 6639   1.847   5.446   5.634
 1914SOL     OW 6640   3.566   2.566   6.045
 1914SOL    HW1 6641   3.611   2.558   6.134
 1914SOL    HW2 6642   3.614   2.634   5.989
 1915SOL     OW 6643   3.614   0.145   5.835
 1915SOL    HW1 6644   3.671   0.065   5.816
 1915SOL    HW2 6645   3.552   0.161   5.759
 1916SOL     OW 6646   3.222   6.043   2.036
 1916SOL    HW1 6647   3.230   6.043   2.136
 1916SOL    HW2 6648   3.296   6.097   1.997
 1917SOL     OW 6649   2.901   3.368   4.001
 1917SOL    HW1 6650   2.938   3.276   3.989
 1917SOL    HW2 6651   2.887   3.410   3.911
 1918SOL     OW 6652   5.946   6.146   4.683
 1918SOL    HW1 6653   5.941   6.203   4.765
 1918SOL    HW2 6654   5.855   6.141   4.641
 1919SOL     OW 6655   7.004   6.283   1.738
 1919SOL    HW1 6656   0.033   6.272   1.823
 1919SOL    HW2 6657   6.910   6.253   1.752
 1920SOL     OW 6658   0.095   5.933   4.093
 1920SOL    HW1 6659   0.015   5.900   4.043
 1920SOL    HW2 6660   0.139   6.007   4.041
 1921SOL     OW 6661   0.978   6.361   6.949
 1921SOL    HW1 6662   0.966   6.447   6.900
 1921SOL    HW2 6663   0.996   6.288   6.884
 1922SOL     OW 6664   3.721   4.004   0.797
 1922SOL    HW1 6665   3.685   4.086   0.752
 1922SOL    HW2 6666   3.758   3.941   0.728
 1923SOL     OW 6667   1.747   0.860   0.694
 1923SOL    HW1 6668   1.683   0.822   0.761
 1923SOL    HW2 6669   1.708   0.943   0.654
 1924SOL     OW 6670   0.418   4.444   1.780
 1924SOL    HW1 6671   0.407   4.528   1.833
 1924SOL    HW2 6672   0.467   4.376   1.834
 1925SOL     OW 6673   3.415   4.305   1.471
 1925SOL    HW1 6674   3.440   4.358   1.552
 1925SOL    HW2 6675   3.406   4.208   1.496
 1926SOL     OW 6676   1.250   0.110   4.596
 1926SOL    HW1 6677   1.338   0.132   4.554
 1926SOL    HW2 6678   1.179   0.110   4.526
 1927SOL     OW 6679   3.542   3.904   6.535
 1927SOL    HW1 6680   3.577   3.834   6.473
 1927SOL    HW2 6681   3.443   3.912   6.523
 1928SOL     OW 6682   6.023   4.128   5.696
 1928SOL    HW1 6683   6.054   4.171   5.611
 1928SOL    HW2 6684   5.983   4.039   5.675
 1929SOL     OW 6685   0.543   6.100   1.365
 1929SOL    HW1 6686   0.502   6.080   1.454
 1929SOL    HW2 6687   0.581   6.192   1.366
 1930SOL     OW 6688   6.099   4.673   6.328
 1930SOL    HW1 6689   6.042   4.661   6.410
 1930SOL    HW2 6690   6.172   4.738   6.347
 1931SOL     OW 6691   0.656   3.131   4.295
 1931SOL    HW1 6692   0.597   3.209   4.271
 1931SOL    HW2 6693   0.602   3.047   4.293
 1932SOL     OW 6694   5.245   4.068   1.905
 1932SOL    HW1 6695   5.213   3.978   1.935
 1932SOL    HW2 6696   5.167   4.131   1.902
 1933SOL     OW 6697   2.702   4.274   0.636
 1933SOL    HW1 6698   2.740   4.295   0.726
 1933SOL    HW2 6699   2.604   4.294   0.635
 1934SOL     OW 6700   0.761   6.623   6.044
 1934SOL    HW1 6701   0.679   6.635   6.100
 1934SOL    HW2 6702   0.803   6.535   6.064
 1935SOL     OW 6703   2.529   0.324   3.742
 1935SOL    HW1 6704   2.553   0.310   3.646
 1935SOL    HW2 6705   2.546   0.240   3.794
 1936SOL     OW 6706   6.236   6.124   4.766
 1936SOL    HW1 6707   6.149   6.126   4.717
 1936SOL    HW2 6708   6.292   6.050   4.730
 1937SOL     OW 6709   3.957   6.413   2.086
 1937SOL    HW1 6710   3.908   6.498   2.108
 1937SOL    HW2 6711   3.990   6.417   1.992
 1938SOL     OW 6712   3.946   1.087   3.636
 1938SOL    HW1 6713   3.949   0.998   3.589
 1938SOL    HW2 6714   4.038   1.110   3.669
 1939SOL     OW 6715   1.395   1.285   3.627
 1939SOL    HW1 6716   1.483   1.332   3.619
 1939SOL    HW2 6717   1.326   1.333   3.572
 1940SOL     OW 6718   6.549   5.385   0.098
 1940SOL    HW1 6719   6.606   5.449   0.048
 1940SOL    HW2 6720   6.597   5.353   0.179
 1941SOL     OW 6721   5.388   3.441   2.054
 1941SOL    HW1 6722   5.301   3.481   2.026
 1941SOL    HW2 6723   5.443   3.421   1.973
 1942SOL     OW 6724   6.257   4.968   2.392
 1942SOL    HW1 6725   6.291   4.972   2.486
 1942SOL    HW2 6726   6.309   5.031   2.334
 1943SOL     OW 6727   2.361   4.431   3.626
 1943SOL    HW1 6728   2.369   4.371   3.547
 1943SOL    HW2 6729   2.301   4.508   3.603
 1944SOL     OW 6730   5.953   1.182   6.730
 1944SOL    HW1 6731   5.879   1.172   6.797
 1944SOL    HW2 6732   6.039   1.153   6.771
 1945SOL     OW 6733   4.120   5.626   3.956
 1945SOL    HW1 6734   4.213   5.622   3.922
 1945SOL    HW2 6735   4.055   5.613   3.881
 1946SOL     OW 6736   1.240   0.309   0.064
 1946SOL    HW1 6737   1.250   0.279   0.158
 1946SOL    HW2 6738   1.277   0.239   0.002
 1947SOL     OW 6739   5.279   6.376   3.550
 1947SOL    HW1 6740   5.229   6.432   3.616
 1947SOL    HW2 6741   5.241   6.284   3.548
 1948SOL     OW 6742   6.723   5.906   4.424
 1948SOL    HW1 6743   6.728   5.858   4.512
 1948SOL    HW2 6744   6.628   5.932   4.407
 1949SOL     OW 6745   4.584   4.185   6.478
 1949SOL    HW1 6746   4.672   4.138   6.473
 1949SOL    HW2 6747   4.590   4.273   6.431
 1950SOL     OW 6748   3.255   3.933   6.523
 1950SOL    HW1 6749   3.291   4.018   6.563
 1950SOL    HW2 6750   3.162   3.918   6.555
 1951SOL     OW 6751   5.584   1.621   0.126
 1951SOL    HW1 6752   5.620   1.688   0.191
 1951SOL    HW2 6753   5.561   1.537   0.175
 1952SOL     OW 6754   4.067   2.125   0.622
 1952SOL    HW1 6755   4.089   2.222   0.612
 1952SOL    HW2 6756   4.037   2.088   0.534
 1953SOL     OW 6757   0.187   1.896   6.611
 1953SOL    HW1 6758   0.228   1.926   6.697
 1953SOL    HW2 6759   0.114   1.831   6.629
 1954SOL     OW 6760   3.981   1.913   4.240
 1954SOL    HW1 6761   3.893   1.958   4.224
 1954SOL    HW2 6762   3.982   1.824   4.196
 1955SOL     OW 6763   0.415   6.375   2.559
 1955SOL    HW1 6764   0.330   6.363   2.610
 1955SOL    HW2 6765   0.395   6.405   2.466
 1956SOL     OW 6766   5.601   5.695   2.688
 1956SOL    HW1 6767   5.525   5.756   2.707
 1956SOL    HW2 6768   5.684   5.749   2.673
 1957SOL     OW 6769   0.511   5.884   4.427
 1957SOL    HW1 6770   0.436   5.873   4.362
 1957SOL    HW2 6771   0.571   5.803   4.422
 1958SOL     OW 6772   5.208   3.551   5.244
 1958SOL    HW1 6773   5.286   3.611   5.262
 1958SOL    HW2 6774   5.211   3.521   5.148
 1959SOL     OW 6775   1.495   2.075   6.299
 1959SOL    HW1 6776   1.556   2.152   6.279
 1959SOL    HW2 6777   1.548   2.000   6.338
 1960SOL     OW 6778   5.949   5.012   0.341
 1960SOL    HW1 6779   5.992   5.025   0.430
 1960SOL    HW2 6780   6.000   4.942   0.290
 1961SOL     OW 6781   6.013   4.648   4.092
 1961SOL    HW1 6782   6.062   4.702   4.161
 1961SOL    HW2 6783   5.915   4.659   4.104
 1962SOL     OW 6784   1.516   6.300   3.288
 1962SOL    HW1 6785   1.447   6.240   3.246
 1962SOL    HW2 6786   1.541   6.372   3.223
 1963SOL     OW 6787   0.686   0.346   2.595
 1963SOL    HW1 6788   0.759   0.360   2.661
 1963SOL    HW2 6789   0.628   0.427   2.591
 1964SOL     OW 6790   4.136   2.219   2.153
 1964SOL    HW1 6791   4.148   2.235   2.056
 1964SOL    HW2 6792   4.041   2.193   2.171
 1965SOL     OW 6793   0.712   3.547   2.465
 1965SOL    HW1 6794   0.739   3.576   2.373
 1965SOL    HW2 6795   0.792   3.508   2.512
 1966SOL     OW 6796   0.099   5.328   5.027
 1966SOL    HW1 6797   0.057   5.248   5.068
 1966SOL    HW2 6798   0.073   5.410   5.080
 1967SOL     OW 6799   4.942   2.695   5.701
 1967SOL    HW1 6800   4.935   2.711   5.799
 1967SOL    HW2 6801   5.000   2.615   5.684
 1968SOL     OW 6802   2.853   6.484   0.135
 1968SOL    HW1 6803   2.912   6.462   0.212
 1968SOL    HW2 6804   2.813   6.575   0.148
 1969SOL     OW 6805   6.695   2.561   1.675
 1969SOL    HW1 6806   6.698   2.464   1.699
 1969SOL    HW2 6807   6.600   2.591   1.669
 1970SOL     OW 6808   1.602   0.159   5.537
 1970SOL    HW1 6809   1.516   0.179   5.489
 1970SOL    HW2 6810   1.678   0.205   5.490
 1971SOL     OW 6811   0.296   6.259   6.703
 1971SOL    HW1 6812   0.211   6.299   6.670
 1971SOL    HW2 6813   0.276   6.192   6.775
 1972SOL     OW 6814   0.535   4.473   3.989
 1972SOL    HW1 6815   0.535   4.399   4.057
 1972SOL    HW2 6816   0.509   4.559   4.034
 1973SOL     OW 6817   3.535   2.569   1.460
 1973SOL    HW1 6818   3.618   2.577   1.405
 1973SOL    HW2 6819   3.559   2.538   1.553
 1974SOL     OW 6820   5.358   6.808   4.574
 1974SOL    HW1 6821   5.269   6.775   4.543
 1974SOL    HW2 6822   5.416   6.731   4.600
 1975SOL     OW 6823   2.660   0.583   3.775
 1975SOL    HW1 6824   2.579   0.594   3.833
 1975SOL    HW2 6825   2.665   0.489   3.741
 1976SOL     OW 6826   0.444   6.068   0.339
 1976SOL    HW1 6827   0.433   5.969   0.334
 1976SOL    HW2 6828   0.469   6.095   0.432
 1977SOL     OW 6829   1.107   2.380   4.434
 1977SOL    HW1 6830   1.129   2.360   4.339
 1977SOL    HW2 6831   1.188   2.418   4.480
 1978SOL     OW 6832   0.160   1.165   4.742
 1978SOL    HW1 6833   0.129   1.075   4.713
 1978SOL    HW2 6834   0.239   1.192   4.687
 1979SOL     OW 6835   0.121   4.410   5.231
 1979SOL    HW1 6836   0.075   4.346   5.293
 1979SOL    HW2 6837   0.141   4.495   5.279
 1980SOL     OW 6838   3.301   0.034   1.011
 1980SOL    HW1 6839   3.312   6.996   0.932
 1980SOL    HW2 6840   3.368   0.108   1.007
 1981SOL     OW 6841   5.340   2.766   2.004
 1981SOL    HW1 6842   5.413   2.702   1.980
 1981SOL    HW2 6843   5.380   2.854   2.030
 1982SOL     OW 6844   5.879   5.190   4.883
 1982SOL    HW1 6845   5.849   5.102   4.846
 1982SOL    HW2 6846   5.862   5.192   4.982
 1983SOL     OW 6847   1.268   2.627   2.943
 1983SOL    HW1 6848   1.173   2.640   2.974
 1983SOL    HW2 6849   1.320   2.710   2.961
 1984SOL     OW 6850   4.607   1.524   5.901
 1984SOL    HW1 6851   4.644   1.595   5.841
 1984SOL    HW2 6852   4.561   1.455   5.845
 1985SOL     OW 6853   1.113   0.822   1.978
 1985SOL    HW1 6854   1.175   0.878   2.033
 1985SOL    HW2 6855   1.140   0.828   1.882
 1986SOL     OW 6856   1.421   2.398   6.762
 1986SOL    HW1 6857   1.521   2.391   6.757
 1986SOL    HW2 6858   1.382   2.385   6.671
 1987SOL     OW 6859   2.768   3.138   1.778
 1987SOL    HW1 6860   2.767   3.039   1.762
 1987SOL    HW2 6861   2.861   3.172   1.769
 1988SOL     OW 6862   4.796   3.442   6.794
 1988SOL    HW1 6863   4.887   3.418   6.763
 1988SOL    HW2 6864   4.795   3.538   6.824
 1989SOL     OW 6865   1.953   0.148   4.419
 1989SOL    HW1 6866   1.959   0.248   4.418
 1989SOL    HW2 6867   1.948   0.116   4.513
 1990SOL     OW 6868   2.957   1.171   0.755
 1990SOL    HW1 6869   2.865   1.188   0.720
 1990SOL    HW2 6870   2.962   1.201   0.850
 1991SOL     OW 6871   3.331   5.327   5.033
 1991SOL    HW1 6872   3.388   5.323   4.951
 1991SOL    HW2 6873   3.375   5.385   5.101
 1992SOL     OW 6874   2.331   6.641   5.043
 1992SOL    HW1 6875   2.304   6.598   4.956
 1992SOL    HW2 6876   2.350   6.738   5.027
 1993SOL     OW 6877   3.695   3.857   5.375
 1993SOL    HW1 6878   3.631   3.781   5.391
 1993SOL    HW2 6879   3.786   3.820   5.358
 1994SOL     OW 6880   6.803   1.991   1.712
 1994SOL    HW1 6881   6.844   2.038   1.634
 1994SOL    HW2 6882   6.834   1.895   1.713
 1995SOL     OW 6883   6.209   1.867   1.569
 1995SOL    HW1 6884   6.139   1.938   1.570
 1995SOL    HW2 6885   6.169   1.780   1.539
 1996SOL     OW 6886   3.591   3.500   6.955
 1996SOL    HW1 6887   3.585   3.511   6.856
 1996SOL    HW2 6888   3.506   3.531   6.997
 1997SOL     OW 6889   5.852   0.907   5.446
 1997SOL    HW1 6890   5.896   0.920   5.534
 1997SOL    HW2 6891   5.778   0.840   5.455
 1998SOL     OW 6892   2.812   4.169   6.404
 1998SOL    HW1 6893   2.868   4.233   6.457
 1998SOL    HW2 6894   2.736   4.218   6.362
 1999SOL     OW 6895   2.460   0.084   2.395
 1999SOL    HW1 6896   2.508   0.154   2.343
 1999SOL    HW2 6897   2.387   0.126   2.449
 2000SOL     OW 6898   4.202   1.123   5.153
 2000SOL    HW1 6899   4.298   1.096   5.162
 2000SOL    HW2 6900   4.148   1.043   5.126
 2001SOL     OW 6901   3.308   2.033   1.034
 2001SOL    HW1 6902   3.354   1.957   0.988
 2001SOL    HW2 6903   3.252   1.997   1.109
 2002SOL     OW 6904   1.992   6.277   6.119
 2002SOL    HW1 6905   1.900   6.248   6.092
 2002SOL    HW2 6906   2.024   6.348   6.057
 2003SOL     OW 6907   5.449   0.288   3.455
 2003SOL    HW1 6908   5.522   0.224   3.428
 2003SOL    HW2 6909   5.362   0.258   3.414
 2004SOL     OW 6910   3.630   1.252   5.275
 2004SOL    HW1 6911   3.624   1.351   5.281
 2004SOL    HW2 6912   3.560   1.218   5.212
 2005SOL     OW 6913   2.432   6.273   6.218
 2005SOL    HW1 6914   2.402   6.368   6.226
 2005SOL    HW2 6915   2.451   6.237   6.309
 2006SOL     OW 6916   4.558   4.408   3.632
 2006SOL    HW1 6917   4.466   4.384   3.664
 2006SOL    HW2 6918   4.624   4.342   3.669
 2007SOL     OW 6919   5.002   5.415   6.797
 2007SOL    HW1 6920   4.956   5.488   6.747
 2007SOL    HW2 6921   5.098   5.440   6.811
 2008SOL     OW 6922   6.848   6.302   3.444
 2008SOL    HW1 6923   6.820   6.396   3.426
 2008SOL    HW2 6924   6.779   6.255   3.499
 2009SOL     OW 6925   0.155   0.457   1.707
 2009SOL    HW1 6926   0.208   0.408   1.776
 2009SOL    HW2 6927   0.175   0.418   1.617
 2010SOL     OW 6928   1.003   0.785   0.630
 2010SOL    HW1 6929   1.100   0.799   0.652
 2010SOL    HW2 6930   0.958   0.874   0.619
 2011SOL     OW 6931   6.601   2.152   4.992
 2011SOL    HW1 6932   6.544   2.221   4.947
 2011SOL    HW2 6933   6.580   2.151   5.090
 2012SOL     OW 6934   1.225   4.157   2.005
 2012SOL    HW1 6935   1.211   4.122   2.098
 2012SOL    HW2 6936   1.185   4.249   1.998
 2013SOL     OW 6937   5.644   1.721   2.855
 2013SOL    HW1 6938   5.563   1.717   2.913
 2013SOL    HW2 6939   5.616   1.720   2.759
 2014SOL     OW 6940   1.493   5.906   3.833
 2014SOL    HW1 6941   1.586   5.878   3.855
 2014SOL    HW2 6942   1.453   5.839   3.769
 2015SOL     OW 6943   3.730   0.665   0.171
 2015SOL    HW1 6944   3.766   0.703   0.257
 2015SOL    HW2 6945   3.678   0.735   0.123
 2016SOL     OW 6946   1.222   5.676   4.207
 2016SOL    HW1 6947   1.197   5.764   4.167
 2016SOL    HW2 6948   1.301   5.638   4.158
 2017SOL     OW 6949   2.236   5.695   3.458
 2017SOL    HW1 6950   2.253   5.750   3.377
 2017SOL    HW2 6951   2.161   5.734   3.511
 2018SOL     OW 6952   7.000   5.807   5.222
 2018SOL    HW1 6953   0.057   5.750   5.205
 2018SOL    HW2 6954   6.965   5.790   5.314
 2019SOL     OW 6955   5.424   2.889   0.664
 2019SOL    HW1 6956   5.397   2.983   0.684
 2019SOL    HW2 6957   5.444   2.841   0.750
 2020SOL     OW 6958   2.124   5.090   4.261
 2020SOL    HW1 6959   2.168   5.062   4.346
 2020SOL    HW2 6960   2.151   5.185   4.240
 2021SOL     OW 6961   1.411   0.921   2.315
 2021SOL    HW1 6962   1.368   0.961   2.234
 2021SOL    HW2 6963   1.505   0.953   2.323
 2022SOL     OW 6964   2.449   3.607   1.685
 2022SOL    HW1 6965   2.375   3.672   1.703
 2022SOL    HW2 6966   2.449   3.536   1.755
 2023SOL     OW 6967   6.792   0.807   6.807
 2023SOL    HW1 6968   6.730   0.869   6.760
 2023SOL    HW2 6969   6.827   0.851   6.890
 2024SOL     OW 6970   6.396   0.480   3.631
 2024SOL    HW1 6971   6.381   0.440   3.540
 2024SOL    HW2 6972   6.347   0.427   3.699
 2025SOL     OW 6973   0.994   2.279   1.137
 2025SOL    HW1 6974   0.959   2.357   1.085
 2025SOL    HW2 6975   1.081   2.249   1.098
 2026SOL     OW 6976   2.433   2.562   5.908
 2026SOL    HW1 6977   2.482   2.475   5.902
 2026SOL    HW2 6978   2.390   2.582   5.820
 2027SOL     OW 6979   0.506   0.986   2.180
 2027SOL    HW1 6980   0.497   1.079   2.146
 2027SOL    HW2 6981   0.594   0.948   2.152
 2028SOL     OW 6982   3.712   1.794   0.585
 2028SOL    HW1 6983   3.768   1.804   0.667
 2028SOL    HW2 6984   3.632   1.854   0.591
 2029SOL     OW 6985   1.179   1.043   6.563
 2029SOL    HW1 6986   1.225   0.958   6.590
 2029SOL    HW2 6987   1.085   1.023   6.535
 2030SOL     OW 6988   2.222   2.158   3.660
 2030SOL    HW1 6989   2.195   2.223   3.590
 2030SOL    HW2 6990   2.238   2.069   3.618
 2031SOL     OW 6991   5.516   5.963   2.260
 2031SOL    HW1 6992   5.514   5.864   2.242
 2031SOL    HW2 6993   5.427   5.993   2.294
 2032SOL     OW 6994   4.926   6.051   0.807
 2032SOL    HW1 6995   4.986   6.122   0.769
 2032SOL    HW2 6996   4.862   6.021   0.737
 2033SOL     OW 6997   4.438   4.713   6.495
 2033SOL    HW1 6998   4.529   4.679   6.519
 2033SOL    HW2 6999   4.422   4.801   6.541
 2034SOL     OW 7000   2.166   5.976   3.152
 2034SOL    HW1 7001   2.243   6.026   3.192
 2034SOL    HW2 7002   2.137   6.021   3.068
 2035SOL     OW 7003   0.012   1.559   2.394
 2035SOL    HW1 7004   6.955   1.532   2.340
 2035SOL    HW2 7005   7.015   1.646   2.440
 2036SOL     OW 7006   0.583   5.330   0.821
 2036SOL    HW1 7007   0.592   5.346   0.722
 2036SOL    HW2 7008   0.520   5.253   0.836
 2037SOL     OW 7009   6.850   2.499   5.806
 2037SOL    HW1 7010   6.790   2.451   5.743
 2037SOL    HW2 7011   6.811   2.589   5.828
 2038SOL     OW 7012   0.809   1.779   5.202
 2038SOL    HW1 7013   0.797   1.738   5.111
 2038SOL    HW2 7014   0.812   1.707   5.271
 2039SOL     OW 7015   6.937   5.823   3.947
 2039SOL    HW1 7016   6.848   5.858   3.977
 2039SOL    HW2 7017   6.924   5.731   3.908
 2040SOL     OW 7018   3.844   3.540   4.586
 2040SOL    HW1 7019   3.821   3.606   4.515
 2040SOL    HW2 7020   3.933   3.498   4.566
 2041SOL     OW 7021   5.450   4.599   6.222
 2041SOL    HW1 7022   5.502   4.519   6.252
 2041SOL    HW2 7023   5.508   4.681   6.231
 2042SOL     OW 7024   5.093   5.208   1.139
 2042SOL    HW1 7025   5.007   5.235   1.096
 2042SOL    HW2 7026   5.164   5.274   1.114
 2043SOL     OW 7027   6.055   5.200   2.585
 2043SOL    HW1 7028   6.134   5.260   2.598
 2043SOL    HW2 7029   5.971   5.253   2.598
 2044SOL     OW 7030   5.806   6.843   2.247
 2044SOL    HW1 7031   5.804   6.750   2.282
 2044SOL    HW2 7032   5.814   6.907   2.324
 2045SOL     OW 7033   2.085   4.508   6.012
 2045SOL    HW1 7034   2.030   4.440   5.965
 2045SOL    HW2 7035   2.135   4.563   5.945
 2046SOL     OW 7036   0.046   0.230   4.244
 2046SOL    HW1 7037   0.066   0.276   4.330
 2046SOL    HW2 7038   0.034   0.132   4.260
 2047SOL     OW 7039   4.776   1.826   1.306
 2047SOL    HW1 7040   4.758   1.782   1.394
 2047SOL    HW2 7041   4.824   1.913   1.321
 2048SOL     OW 7042   3.664   0.038   0.327
 2048SOL    HW1 7043   3.757   0.005   0.310
 2048SOL    HW2 7044   3.610   6.988   0.369
 2049SOL     OW 7045   4.670   1.723   6.650
 2049SOL    HW1 7046   4.765   1.692   6.641
 2049SOL    HW2 7047   4.666   1.822   6.647
 2050SOL     OW 7048   6.073   2.574   3.823
 2050SOL    HW1 7049   6.086   2.578   3.724
 2050SOL    HW2 7050   6.144   2.629   3.868
 2051SOL     OW 7051   0.831   5.112   6.963
 2051SOL    HW1 7052   0.853   5.037   6.900
 2051SOL    HW2 7053   0.743   5.094   7.007
 2052SOL     OW 7054   0.619   3.124   6.899
 2052SOL    HW1 7055   0.597   3.170   6.985
 2052SOL    HW2 7056   0.698   3.064   6.912
 2053SOL     OW 7057   6.154   0.279   0.490
 2053SOL    HW1 7058   6.065   0.255   0.529
 2053SOL    HW2 7059   6.217   0.202   0.502
 2054SOL     OW 7060   6.160   2.963   0.622
 2054SOL    HW1 7061   6.184   2.866   0.622
 2054SOL    HW2 7062   6.212   3.010   0.694
 2055SOL     OW 7063   5.617   2.430   3.246
 2055SOL    HW1 7064   5.630   2.332   3.262
 2055SOL    HW2 7065   5.626   2.479   3.332
 2056SOL     OW 7066   2.363   1.352   3.095
 2056SOL    HW1 7067   2.316   1.433   3.129
 2056SOL    HW2 7068   2.416   1.376   3.014
 2057SOL     OW 7069   5.538   1.872   3.819
 2057SOL    HW1 7070   5.608   1.894   3.887
 2057SOL    HW2 7071   5.558   1.784   3.778
 2058SOL     OW 7072   0.534   2.014   3.416
 2058SOL    HW1 7073   0.471   2.077   3.369
 2058SOL    HW2 7074   0.627   2.050   3.409
 2059SOL     OW 7075   2.225   0.532   6.851
 2059SOL    HW1 7076   2.226   0.484   6.763
 2059SOL    HW2 7077   2.188   0.471   6.921
 2060SOL     OW 7078   0.123   4.591   2.046
 2060SOL    HW1 7079   0.082   4.520   1.988
 2060SOL    HW2 7080   0.201   4.631   1.998
 2061SOL     OW 7081   6.517   1.173   2.267
 2061SOL    HW1 7082   6.450   1.112   2.224
 2061SOL    HW2 7083   6.563   1.124   2.341
 2062SOL     OW 7084   4.534   0.065   2.531
 2062SOL    HW1 7085   4.616   0.080   2.475
 2062SOL    HW2 7086   4.468   0.138   2.514
 2063SOL     OW 7087   1.533   1.784   6.035
 2063SOL    HW1 7088   1.469   1.780   5.958
 2063SOL    HW2 7089   1.571   1.876   6.042
 2064SOL     OW 7090   1.081   2.305   5.652
 2064SOL    HW1 7091   1.174   2.340   5.662
 2064SOL    HW2 7092   1.026   2.336   5.729
 2065SOL     OW 7093   5.854   3.359   2.147
 2065SOL    HW1 7094   5.931   3.321   2.097
 2065SOL    HW2 7095   5.839   3.454   2.118
 2066SOL     OW 7096   0.683   5.650   4.096
 2066SOL    HW1 7097   0.644   5.558   4.095
 2066SOL    HW2 7098   0.632   5.708   4.034
 2067SOL     OW 7099   6.644   6.754   0.619
 2067SOL    HW1 7100   6.677   6.845   0.646
 2067SOL    HW2 7101   6.547   6.746   0.642
 2068SOL     OW 7102   2.425   1.261   5.325
 2068SOL    HW1 7103   2.479   1.235   5.245
 2068SOL    HW2 7104   2.485   1.299   5.395
 2069SOL     OW 7105   0.720   2.670   2.440
 2069SOL    HW1 7106   0.752   2.606   2.370
 2069SOL    HW2 7107   0.718   2.624   2.529
 2070SOL     OW 7108   1.199   0.320   2.249
 2070SOL    HW1 7109   1.293   0.287   2.242
 2070SOL    HW2 7110   1.143   0.277   2.179
 2071SOL     OW 7111   1.061   6.119   3.980
 2071SOL    HW1 7112   1.097   6.067   4.058
 2071SOL    HW2 7113   0.961   6.110   3.977
 2072SOL     OW 7114   4.760   5.922   2.364
 2072SOL    HW1 7115   4.733   5.840   2.415
 2072SOL    HW2 7116   4.773   5.899   2.268
 2073SOL     OW 7117   4.105   0.392   4.587
 2073SOL    HW1 7118   4.047   0.361   4.511
 2073SOL    HW2 7119   4.048   0.406   4.668
 2074SOL     OW 7120   6.976   2.215   0.006
 2074SOL    HW1 7121   0.030   2.222   6.963
 2074SOL    HW2 7122   6.892   2.195   6.979
 2075SOL     OW 7123   5.067   3.244   1.255
 2075SOL    HW1 7124   5.033   3.160   1.212
 2075SOL    HW2 7125   5.085   3.227   1.352
 2076SOL     OW 7126   5.756   6.295   0.150
 2076SOL    HW1 7127   5.659   6.294   0.123
 2076SOL    HW2 7128   5.762   6.298   0.250
 2077SOL     OW 7129   5.386   2.268   2.084
 2077SOL    HW1 7130   5.471   2.321   2.088
 2077SOL    HW2 7131   5.388   2.208   2.004
 2078SOL     OW 7132   3.041   5.981   6.322
 2078SOL    HW1 7133   3.021   5.920   6.399
 2078SOL    HW2 7134   2.958   6.031   6.297
 2079SOL     OW 7135   5.496   0.913   3.699
 2079SOL    HW1 7136   5.541   0.828   3.672
 2079SOL    HW2 7137   5.398   0.896   3.712
 2080SOL     OW 7138   2.480   2.000   4.981
 2080SOL    HW1 7139   2.577   1.978   4.976
 2080SOL    HW2 7140   2.460   2.076   4.919
 2081SOL     OW 7141   1.000   6.224   5.666
 2081SOL    HW1 7142   1.067   6.264   5.728
 2081SOL    HW2 7143   0.982   6.287   5.591
 2082SOL     OW 7144   5.975   0.661   1.670
 2082SOL    HW1 7145   6.045   0.596   1.640
 2082SOL    HW2 7146   5.910   0.676   1.595
 2083SOL     OW 7147   4.096   5.333   6.870
 2083SOL    HW1 7148   4.016   5.324   6.810
 2083SOL    HW2 7149   4.093   5.423   6.915
 2084SOL     OW 7150   6.941   2.301   3.147
 2084SOL    HW1 7151   6.883   2.349   3.081
 2084SOL    HW2 7152   6.910   2.206   3.154
 2085SOL     OW 7153   5.204   0.993   6.376
 2085SOL    HW1 7154   5.276   0.942   6.423
 2085SOL    HW2 7155   5.166   0.937   6.302
 2086SOL     OW 7156   2.863   4.992   6.385
 2086SOL    HW1 7157   2.794   5.064   6.377
 2086SOL    HW2 7158   2.916   4.987   6.301
 2087SOL     OW 7159   4.802   6.556   2.545
 2087SOL    HW1 7160   4.739   6.628   2.517
 2087SOL    HW2 7161   4.835   6.506   2.464
 2088SOL     OW 7162   3.066   5.873   0.641
 2088SOL    HW1 7163   3.031   5.965   0.658
 2088SOL    HW2 7164   3.134   5.850   0.711
 2089SOL     OW 7165   4.756   1.582   0.068
 2089SOL    HW1 7166   4.741   1.525   7.010
 2089SOL    HW2 7167   4.854   1.601   0.077
 2090SOL     OW 7168   4.048   3.777   4.153
 2090SOL    HW1 7169   4.000   3.841   4.213
 2090SOL    HW2 7170   4.003   3.687   4.158
 2091SOL     OW 7171   0.463   5.906   0.034
 2091SOL    HW1 7172   0.498   5.903   6.963
 2091SOL    HW2 7173   0.465   6.000   0.067
 2092SOL     OW 7174   5.554   6.104   0.535
 2092SOL    HW1 7175   5.537   6.146   0.624
 2092SOL    HW2 7176   5.612   6.024   0.547
 2093SOL     OW 7177   1.376   2.166   1.960
 2093SOL    HW1 7178   1.452   2.204   2.014
 2093SOL    HW2 7179   1.377   2.206   1.869
 2094SOL     OW 7180   6.003   0.558   1.922
 2094SOL    HW1 7181   5.917   0.506   1.921
 2094SOL    HW2 7182   6.018   0.599   1.832
 2095SOL     OW 7183   4.879   6.787   3.674
 2095SOL    HW1 7184   4.878   6.826   3.766
 2095SOL    HW2 7185   4.956   6.724   3.665
 2096SOL     OW 7186   5.234   3.654   3.003
 2096SOL    HW1 7187   5.268   3.560   3.011
 2096SOL    HW2 7188   5.144   3.660   3.047
 2097SOL     OW 7189   0.731   2.758   6.275
 2097SOL    HW1 7190   0.709   2.760   6.373
 2097SOL    HW2 7191   0.814   2.703   6.262
 2098SOL     OW 7192   4.120   6.381   4.103
 2098SOL    HW1 7193   4.118   6.348   4.197
 2098SOL    HW2 7194   4.150   6.307   4.042
 2099SOL     OW 7195   2.794   0.521   4.764
 2099SOL    HW1 7196   2.709   0.565   4.735
 2099SOL    HW2 7197   2.850   0.588   4.813
 2100SOL     OW 7198   3.554   3.669   6.405
 2100SOL    HW1 7199   3.642   3.625   6.390
 2100SOL    HW2 7200   3.483   3.621   6.354
 2101SOL     OW 7201   0.650   6.720   2.185
 2101SOL    HW1 7202   0.711   6.775   2.129
 2101SOL    HW2 7203   0.606   6.777   2.254
 2102SOL     OW 7204   0.301   5.383   2.394
 2102SOL    HW1 7205   0.236   5.388   2.470
 2102SOL    HW2 7206   0.255   5.411   2.310
 2103SOL     OW 7207   2.886   3.995   7.011
 2103SOL    HW1 7208   2.966   4.054   7.009
 2103SOL    HW2 7209   2.867   3.968   0.083
 2104SOL     OW 7210   1.751   3.508   6.515
 2104SOL    HW1 7211   1.782   3.512   6.420
 2104SOL    HW2 7212   1.824   3.469   6.572
 2105SOL     OW 7213   5.529   5.289   2.924
 2105SOL    HW1 7214   5.515   5.192   2.903
 2105SOL    HW2 7215   5.463   5.344   2.875
 2106SOL     OW 7216   4.189   5.144   0.008
 2106SOL    HW1 7217   4.216   5.059   6.986
 2106SOL    HW2 7218   4.138   5.201   6.966
 2107SOL     OW 7219   4.049   3.330   5.790
 2107SOL    HW1 7220   3.949   3.332   5.783
 2107SOL    HW2 7221   4.089   3.339   5.698
 2108SOL     OW 7222   6.375   5.868   5.555
 2108SOL    HW1 7223   6.427   5.874   5.640
 2108SOL    HW2 7224   6.379   5.775   5.519
 2109SOL     OW 7225   4.802   6.849   3.386
 2109SOL    HW1 7226   4.827   6.816   3.477
 2109SOL    HW2 7227   4.711   6.890   3.390
 2110SOL     OW 7228   2.799   4.083   6.725
 2110SOL    HW1 7229   2.836   4.041   6.808
 2110SOL    HW2 7230   2.832   4.177   6.717
 2111SOL     OW 7231   0.924   2.189   6.077
 2111SOL    HW1 7232   1.023   2.173   6.070
 2111SOL    HW2 7233   0.899   2.200   6.173
 2112SOL     OW 7234   4.462   2.103   1.560
 2112SOL    HW1 7235   4.459   2.143   1.651
 2112SOL    HW2 7236   4.554   2.066   1.543
 2113SOL     OW 7237   1.481   6.966   3.535
 2113SOL    HW1 7238   1.484   0.042   3.545
 2113SOL    HW2 7239   1.407   6.940   3.473
 2114SOL     OW 7240   1.589   3.335   0.773
 2114SOL    HW1 7241   1.495   3.348   0.804
 2114SOL    HW2 7242   1.629   3.257   0.820
 2115SOL     OW 7243   2.012   4.212   3.151
 2115SOL    HW1 7244   1.955   4.141   3.109
 2115SOL    HW2 7245   2.003   4.206   3.251
 2116SOL     OW 7246   6.239   4.066   2.827
 2116SOL    HW1 7247   6.232   4.146   2.767
 2116SOL    HW2 7248   6.147   4.036   2.852
 2117SOL     OW 7249   0.007   5.181   2.080
 2117SOL    HW1 7250   0.074   5.255   2.080
 2117SOL    HW2 7251   0.036   5.109   2.016
 2118SOL     OW 7252   0.234   3.547   2.634
 2118SOL    HW1 7253   0.206   3.454   2.657
 2118SOL    HW2 7254   0.334   3.553   2.630
 2119SOL     OW 7255   2.162   6.045   1.206
 2119SOL    HW1 7256   2.146   5.982   1.130
 2119SOL    HW2 7257   2.089   6.033   1.274
 2120SOL     OW 7258   6.344   4.992   2.652
 2120SOL    HW1 7259   6.258   5.023   2.692
 2120SOL    HW2 7260   6.365   4.901   2.686
 2121SOL     OW 7261   0.748   5.048   5.147
 2121SOL    HW1 7262   0.837   5.093   5.136
 2121SOL    HW2 7263   0.682   5.087   5.083
 2122SOL     OW 7264   6.180   4.525   5.263
 2122SOL    HW1 7265   6.091   4.480   5.260
 2122SOL    HW2 7266   6.168   4.622   5.240
 2123SOL     OW 7267   0.523   4.385   2.894
 2123SOL    HW1 7268   0.596   4.349   2.953
 2123SOL    HW2 7269   0.482   4.311   2.842
 2124SOL     OW 7270   1.969   1.630   1.032
 2124SOL    HW1 7271   1.909   1.551   1.023
 2124SOL    HW2 7272   1.957   1.670   1.124
 2125SOL     OW 7273   1.417   1.071   0.087
 2125SOL    HW1 7274   1.449   0.994   0.142
 2125SOL    HW2 7275   1.447   1.059   7.015
 2126SOL     OW 7276   2.740   1.006   0.531
 2126SOL    HW1 7277   2.778   0.914   0.538
 2126SOL    HW2 7278   2.640   1.000   0.540
 2127SOL     OW 7279   6.062   2.737   4.513
 2127SOL    HW1 7280   5.975   2.688   4.522
 2127SOL    HW2 7281   6.077   2.794   4.594
 2128SOL     OW 7282   0.085   4.333   4.972
 2128SOL    HW1 7283   0.110   4.243   4.937
 2128SOL    HW2 7284   0.100   4.336   5.071
 2129SOL     OW 7285   4.647   2.833   5.513
 2129SOL    HW1 7286   4.592   2.885   5.448
 2129SOL    HW2 7287   4.720   2.785   5.463
 2130SOL     OW 7288   4.782   6.850   2.336
 2130SOL    HW1 7289   4.830   6.938   2.329
 2130SOL    HW2 7290   4.698   6.854   2.283
 2131SOL     OW 7291   0.174   1.171   0.663
 2131SOL    HW1 7292   0.192   1.128   0.752
 2131SOL    HW2 7293   0.233   1.130   0.593
 2132SOL     OW 7294   3.825   3.202   0.722
 2132SOL    HW1 7295   3.918   3.211   0.684
 2132SOL    HW2 7296   3.760   3.246   0.661
 2133SOL     OW 7297   2.897   2.657   5.425
 2133SOL    HW1 7298   2.955   2.577   5.409
 2133SOL    HW2 7299   2.810   2.646   5.378
 2134SOL     OW 7300   6.758   2.177   0.878
 2134SOL    HW1 7301   6.727   2.107   0.942
 2134SOL    HW2 7302   6.713   2.163   0.790
 2135SOL     OW 7303   0.117   4.493   4.738
 2135SOL    HW1 7304   0.165   4.441   4.668
 2135SOL    HW2 7305   0.115   4.441   4.823
 2136SOL     OW 7306   2.806   5.392   1.907
 2136SOL    HW1 7307   2.764   5.357   1.990
 2136SOL    HW2 7308   2.881   5.454   1.932
 2137SOL     OW 7309   3.214   5.161   4.685
 2137SOL    HW1 7310   3.220   5.105   4.768
 2137SOL    HW2 7311   3.273   5.241   4.694
 2138SOL     OW 7312   6.060   0.649   3.265
 2138SOL    HW1 7313   6.109   0.626   3.181
 2138SOL    HW2 7314   6.123   0.644   3.343
 2139SOL     OW 7315   3.360   0.490   4.765
 2139SOL    HW1 7316   3.346   0.583   4.798
 2139SOL    HW2 7317   3.413   0.492   4.681
 2140SOL     OW 7318   3.539   0.559   4.993
 2140SOL    HW1 7319   3.479   0.518   5.062
 2140SOL    HW2 7320   3.531   0.506   4.908
 2141SOL     OW 7321   6.278   3.965   2.487
 2141SOL    HW1 7322   6.195   3.937   2.536
 2141SOL    HW2 7323   6.329   3.884   2.459
 2142SOL     OW 7324   1.446   2.620   3.459
 2142SOL    HW1 7325   1.432   2.672   3.375
 2142SOL    HW2 7326   1.360   2.618   3.512
 2143SOL     OW 7327   2.089   5.775   0.998
 2143SOL    HW1 7328   2.056   5.682   0.984
 2143SOL    HW2 7329   2.150   5.800   0.922
 2144SOL     OW 7330   0.547   4.900   4.399
 2144SOL    HW1 7331   0.618   4.924   4.333
 2144SOL    HW2 7332   0.458   4.932   4.365
 2145SOL     OW 7333   4.028   6.850   4.109
 2145SOL    HW1 7334   4.114   6.808   4.137
 2145SOL    HW2 7335   4.003   6.819   4.017
 2146SOL     OW 7336   1.769   2.032   0.268
 2146SOL    HW1 7337   1.767   2.002   0.363
 2146SOL    HW2 7338   1.691   1.993   0.219
 2147SOL     OW 7339   6.672   1.928   5.981
 2147SOL    HW1 7340   6.628   1.888   5.901
 2147SOL    HW2 7341   6.687   1.857   6.050
 2148SOL     OW 7342   0.369   3.117   6.449
 2148SOL    HW1 7343   0.354   3.190   6.382
 2148SOL    HW2 7344   0.444   3.059   6.418
 2149SOL     OW 7345   1.309   0.864   0.481
 2149SOL    HW1 7346   1.215   0.836   0.459
 2149SOL    HW2 7347   1.317   0.963   0.469
 2150SOL     OW 7348   2.625   2.642   1.623
 2150SOL    HW1 7349   2.576   2.554   1.615
 2150SOL    HW2 7350   2.562   2.716   1.601
 2151SOL     OW 7351   0.744   6.394   6.726
 2151SOL    HW1 7352   0.818   6.456   6.750
 2151SOL    HW2 7353   0.720   6.407   6.630
 2152SOL     OW 7354   3.727   5.538   2.088
 2152SOL    HW1 7355   3.639   5.511   2.127
 2152SOL    HW2 7356   3.724   5.635   2.062
 2153SOL     OW 7357   4.726   1.041   2.580
 2153SOL    HW1 7358   4.667   1.121   2.595
 2153SOL    HW2 7359   4.742   1.030   2.481
 2154SOL     OW 7360   2.778   6.648   3.191
 2154SOL    HW1 7361   2.760   6.622   3.286
 2154SOL    HW2 7362   2.862   6.605   3.160
 2155SOL     OW 7363   4.322   7.012   1.090
 2155SOL    HW1 7364   4.356   6.985   1.000
 2155SOL    HW2 7365   4.336   0.088   1.104
 2156SOL     OW 7366   6.468   0.728   4.252
 2156SOL    HW1 7367   6.383   0.782   4.251
 2156SOL    HW2 7368   6.448   0.635   4.223
 2157SOL     OW 7369   4.361   5.937   3.990
 2157SOL    HW1 7370   4.337   6.031   3.967
 2157SOL    HW2 7371   4.342   5.920   4.087
 2158SOL     OW 7372   4.201   0.124   0.835
 2158SOL    HW1 7373   4.110   0.099   0.801
 2158SOL    HW2 7374   4.192   0.194   0.905
 2159SOL     OW 7375   1.546   0.663   5.176
 2159SOL    HW1 7376   1.551   0.710   5.264
 2159SOL    HW2 7377   1.635   0.622   5.155
 2160SOL     OW 7378   5.001   5.334   0.204
 2160SOL    HW1 7379   5.071   5.390   0.159
 2160SOL    HW2 7380   4.941   5.294   0.134
 2161SOL     OW 7381   0.562   3.883   2.668
 2161SOL    HW1 7382   0.577   3.961   2.607
 2161SOL    HW2 7383   0.582   3.910   2.762
 2162SOL     OW 7384   2.777   6.943   3.233
 2162SOL    HW1 7385   2.807   6.851   3.208
 2162SOL    HW2 7386   2.686   6.939   3.275
 2163SOL     OW 7387   1.844   3.449   0.541
 2163SOL    HW1 7388   1.850   3.397   0.455
 2163SOL    HW2 7389   1.753   3.490   0.548
 2164SOL     OW 7390   2.977   2.569   6.955
 2164SOL    HW1 7391   3.055   2.597   6.900
 2164SOL    HW2 7392   2.948   2.644   7.015
 2165SOL     OW 7393   0.696   1.649   4.530
 2165SOL    HW1 7394   0.750   1.711   4.587
 2165SOL    HW2 7395   0.754   1.612   4.456
 2166SOL     OW 7396   0.631   4.092   4.272
 2166SOL    HW1 7397   0.548   4.094   4.327
 2166SOL    HW2 7398   0.615   4.039   4.189
 2167SOL     OW 7399   1.225   2.708   3.623
 2167SOL    HW1 7400   1.185   2.792   3.658
 2167SOL    HW2 7401   1.219   2.636   3.692
 2168SOL     OW 7402   1.073   1.989   3.015
 2168SOL    HW1 7403   1.023   1.955   2.935
 2168SOL    HW2 7404   1.009   2.005   3.090
 2169SOL     OW 7405   0.499   0.658   0.920
 2169SOL    HW1 7406   0.419   0.604   0.893
 2169SOL    HW2 7407   0.547   0.611   0.994
 2170SOL     OW 7408   0.455   4.240   4.966
 2170SOL    HW1 7409   0.470   4.322   5.021
 2170SOL    HW2 7410   0.519   4.240   4.889
 2171SOL     OW 7411   0.523   5.527   1.334
 2171SOL    HW1 7412   0.518   5.433   1.301
 2171SOL    HW2 7413   0.431   5.566   1.338
 2172SOL     OW 7414   1.227   2.035   5.354
 2172SOL    HW1 7415   1.153   2.069   5.296
 2172SOL    HW2 7416   1.222   1.935   5.360
 2173SOL     OW 7417   5.799   0.208   5.513
 2173SOL    HW1 7418   5.857   0.187   5.592
 2173SOL    HW2 7419   5.749   0.126   5.485
 2174SOL     OW 7420   0.396   6.094   5.256
 2174SOL    HW1 7421   0.401   6.123   5.352
 2174SOL    HW2 7422   0.343   6.009   5.250
 2175SOL     OW 7423   1.980   3.006   5.031
 2175SOL    HW1 7424   1.915   2.981   4.959
 2175SOL    HW2 7425   2.017   2.923   5.072
 2176SOL     OW 7426   4.884   2.296   1.473
 2176SOL    HW1 7427   4.943   2.360   1.523
 2176SOL    HW2 7428   4.864   2.333   1.382
 2177SOL     OW 7429   6.546   0.432   2.802
 2177SOL    HW1 7430   6.542   0.522   2.758
 2177SOL    HW2 7431   6.478   0.428   2.875
 2178SOL     OW 7432   1.154   0.953   1.711
 2178SOL    HW1 7433   1.249   0.970   1.736
 2178SOL    HW2 7434   1.114   1.035   1.670
 2179SOL     OW 7435   2.101   4.101   6.535
 2179SOL    HW1 7436   2.162   4.108   6.614
 2179SOL    HW2 7437   2.054   4.013   6.536
 2180SOL     OW 7438   1.883   3.792   2.068
 2180SOL    HW1 7439   1.952   3.733   2.111
 2180SOL    HW2 7440   1.843   3.744   1.990
 2181SOL     OW 7441   4.689   5.010   4.565
 2181SOL    HW1 7442   4.611   5.073   4.567
 2181SOL    HW2 7443   4.739   5.017   4.652
 2182SOL     OW 7444   0.694   4.683   3.599
 2182SOL    HW1 7445   0.727   4.696   3.506
 2182SOL    HW2 7446   0.663   4.588   3.610
 2183SOL     OW 7447   2.588   3.897   0.428
 2183SOL    HW1 7448   2.567   3.987   0.389
 2183SOL    HW2 7449   2.505   3.856   0.464
 2184SOL     OW 7450   5.292   0.294   0.045
 2184SOL    HW1 7451   5.327   0.243   6.990
 2184SOL    HW2 7452   5.207   0.253   0.078
 2185SOL     OW 7453   0.915   0.953   6.519
 2185SOL    HW1 7454   0.818   0.957   6.495
 2185SOL    HW2 7455   0.935   0.864   6.560
 2186SOL     OW 7456   6.046   5.251   5.336
 2186SOL    HW1 7457   6.011   5.345   5.347
 2186SOL    HW2 7458   6.139   5.255   5.299
 2187SOL     OW 7459   0.223   5.527   2.675
 2187SOL    HW1 7460   0.240   5.459   2.746
 2187SOL    HW2 7461   0.200   5.615   2.719
 2188SOL     OW 7462   2.203   5.002   6.355
 2188SOL    HW1 7463   2.175   4.928   6.294
 2188SOL    HW2 7464   2.302   5.002   6.365
 2189SOL     OW 7465   2.490   1.106   2.450
 2189SOL    HW1 7466   2.455   1.169   2.381
 2189SOL    HW2 7467   2.445   1.018   2.441
 2190SOL     OW 7468   6.949   3.398   2.282
 2190SOL    HW1 7469   6.987   3.474   2.229
 2190SOL    HW2 7470   6.895   3.435   2.359
 2191SOL     OW 7471   2.753   1.456   5.173
 2191SOL    HW1 7472   2.771   1.463   5.272
 2191SOL    HW2 7473   2.832   1.414   5.129
 2192SOL     OW 7474   5.817   0.040   2.463
 2192SOL    HW1 7475   5.775   0.106   2.401
 2192SOL    HW2 7476   5.806   0.071   2.557
 2193SOL     OW 7477   6.253   6.695   6.235
 2193SOL    HW1 7478   6.320   6.692   6.309
 2193SOL    HW2 7479   6.188   6.769   6.252
 2194SOL     OW 7480   0.734   4.029   5.528
 2194SOL    HW1 7481   0.689   4.006   5.614
 2194SOL    HW2 7482   0.778   4.119   5.537
 2195SOL     OW 7483   6.718   6.146   5.134
 2195SOL    HW1 7484   6.802   6.093   5.143
 2195SOL    HW2 7485   6.639   6.088   5.156
 2196SOL     OW 7486   3.374   6.625   4.904
 2196SOL    HW1 7487   3.400   6.609   4.999
 2196SOL    HW2 7488   3.423   6.706   4.870
 2197SOL     OW 7489   2.813   3.142   5.877
 2197SOL    HW1 7490   2.875   3.171   5.950
 2197SOL    HW2 7491   2.867   3.120   5.795
 2198SOL     OW 7492   6.302   6.622   1.020
 2198SOL    HW1 7493   6.283   6.718   1.035
 2198SOL    HW2 7494   6.399   6.610   0.997
 2199SOL     OW 7495   4.938   0.059   4.964
 2199SOL    HW1 7496   4.844   0.041   4.935
 2199SOL    HW2 7497   4.947   0.156   4.986
 2200SOL     OW 7498   3.133   1.209   3.676
 2200SOL    HW1 7499   3.098   1.253   3.593
 2200SOL    HW2 7500   3.229   1.187   3.664
 2201SOL     OW 7501   6.235   3.141   3.140
 2201SOL    HW1 7502   6.156   3.118   3.084
 2201SOL    HW2 7503   6.229   3.094   3.228
 2202SOL     OW 7504   2.942   5.975   2.886
 2202SOL    HW1 7505   2.855   5.938   2.855
 2202SOL    HW2 7506   3.018   5.930   2.838
 2203SOL     OW 7507   2.705   3.444   1.517
 2203SOL    HW1 7508   2.617   3.410   1.550
 2203SOL    HW2 7509   2.691   3.500   1.435
 2204SOL     OW 7510   4.400   2.605   1.147
 2204SOL    HW1 7511   4.488   2.651   1.162
 2204SOL    HW2 7512   4.339   2.626   1.223
 2205SOL     OW 7513   1.352   6.957   0.089
 2205SOL    HW1 7514   1.352   6.857   0.084
 2205SOL    HW2 7515   1.286   6.987   0.158
 2206SOL     OW 7516   2.152   4.733   6.289
 2206SOL    HW1 7517   2.061   4.771   6.273
 2206SOL    HW2 7518   2.163   4.651   6.232
 2207SOL     OW 7519   3.290   5.371   0.193
 2207SOL    HW1 7520   3.356   5.427   0.245
 2207SOL    HW2 7521   3.209   5.355   0.249
 2208SOL     OW 7522   1.213   5.586   3.397
 2208SOL    HW1 7523   1.229   5.505   3.454
 2208SOL    HW2 7524   1.300   5.630   3.378
 2209SOL     OW 7525   2.408   5.889   5.031
 2209SOL    HW1 7526   2.360   5.820   4.976
 2209SOL    HW2 7527   2.427   5.852   5.122
 2210SOL     OW 7528   6.760   5.658   2.964
 2210SOL    HW1 7529   6.803   5.740   2.925
 2210SOL    HW2 7530   6.728   5.678   3.057
 2211SOL     OW 7531   6.232   0.666   0.550
 2211SOL    HW1 7532   6.201   0.719   0.629
 2211SOL    HW2 7533   6.152   0.625   0.505
 2212SOL     OW 7534   1.792   5.839   6.750
 2212SOL    HW1 7535   1.861   5.796   6.808
 2212SOL    HW2 7536   1.807   5.938   6.750
 2213SOL     OW 7537   4.695   2.610   5.168
 2213SOL    HW1 7538   4.783   2.594   5.212
 2213SOL    HW2 7539   4.663   2.524   5.127
 2214SOL     OW 7540   3.405   2.859   5.163
 2214SOL    HW1 7541   3.350   2.816   5.235
 2214SOL    HW2 7542   3.344   2.894   5.091
 2215SOL     OW 7543   5.521   1.571   6.671
 2215SOL    HW1 7544   5.599   1.568   6.609
 2215SOL    HW2 7545   5.523   1.491   6.731
 2216SOL     OW 7546   0.412   6.874   6.203
 2216SOL    HW1 7547   0.387   6.911   6.292
 2216SOL    HW2 7548   0.329   6.846   6.154
 2217SOL     OW 7549   4.250   0.480   3.391
 2217SOL    HW1 7550   4.251   0.415   3.315
 2217SOL    HW2 7551   4.235   0.429   3.477
 2218SOL     OW 7552   6.998   5.417   6.621
 2218SOL    HW1 7553   0.026   5.455   6.699
 2218SOL    HW2 7554   0.033   5.348   6.576
 2219SOL     OW 7555   6.143   2.207   1.353
 2219SOL    HW1 7556   6.111   2.293   1.312
 2219SOL    HW2 7557   6.092   2.131   1.314
 2220SOL     OW 7558   2.092   5.924   5.772
 2220SOL    HW1 7559   2.088   6.012   5.818
 2220SOL    HW2 7560   2.005   5.876   5.786
 2221SOL     OW 7561   6.788   1.603   4.836
 2221SOL    HW1 7562   6.702   1.618   4.788
 2221SOL    HW2 7563   6.798   1.672   4.908
 2222SOL     OW 7564   5.910   6.857   0.791
 2222SOL    HW1 7565   5.966   6.819   0.718
 2222SOL    HW2 7566   5.824   6.890   0.753
 2223SOL     OW 7567   6.317   1.406   6.036
 2223SOL    HW1 7568   6.232   1.372   6.078
 2223SOL    HW2 7569   6.311   1.506   6.027
 2224SOL     OW 7570   5.779   3.566   1.864
 2224SOL    HW1 7571   5.786   3.555   1.764
 2224SOL    HW2 7572   5.859   3.616   1.897
 2225SOL     OW 7573   0.257   6.830   3.395
 2225SOL    HW1 7574   0.179   6.846   3.456
 2225SOL    HW2 7575   0.224   6.806   3.304
 2226SOL     OW 7576   3.901   5.572   0.520
 2226SOL    HW1 7577   3.940   5.663   0.505
 2226SOL    HW2 7578   3.938   5.509   0.453
 2227SOL     OW 7579   4.628   2.652   1.616
 2227SOL    HW1 7580   4.664   2.667   1.708
 2227SOL    HW2 7581   4.589   2.560   1.610
 2228SOL     OW 7582   4.768   5.508   0.275
 2228SOL    HW1 7583   4.790   5.587   0.217
 2228SOL    HW2 7584   4.829   5.433   0.252
 2229SOL     OW 7585   4.090   3.742   4.717
 2229SOL    HW1 7586   4.139   3.694   4.791
 2229SOL    HW2 7587   4.138   3.727   4.631
 2230SOL     OW 7588   5.447   6.011   1.495
 2230SOL    HW1 7589   5.397   6.089   1.531
 2230SOL    HW2 7590   5.410   5.927   1.534
 2231SOL     OW 7591   0.844   0.094   6.730
 2231SOL    HW1 7592   0.908   0.044   6.671
 2231SOL    HW2 7593   0.855   0.063   6.825
 2232SOL     OW 7594   0.644   1.174   5.057
 2232SOL    HW1 7595   0.657   1.274   5.058
 2232SOL    HW2 7596   0.675   1.136   5.144
 2233SOL     OW 7597   2.657   3.016   1.023
 2233SOL    HW1 7598   2.726   2.944   1.014
 2233SOL    HW2 7599   2.633   3.050   0.932
 2234SOL     OW 7600   3.661   1.398   0.464
 2234SOL    HW1 7601   3.606   1.444   0.533
 2234SOL    HW2 7602   3.758   1.417   0.480
 2235SOL     OW 7603   2.657   0.343   2.496
 2235SOL    HW1 7604   2.609   0.410   2.552
 2235SOL    HW2 7605   2.599   0.316   2.419
 2236SOL     OW 7606   1.814   3.586   5.883
 2236SOL    HW1 7607   1.909   3.592   5.913
 2236SOL    HW2 7608   1.811   3.581   5.783
 2237SOL     OW 7609   5.873   4.434   4.874
 2237SOL    HW1 7610   5.950   4.481   4.831
 2237SOL    HW2 7611   5.865   4.342   4.837
 2238SOL     OW 7612   4.595   4.843   2.480
 2238SOL    HW1 7613   4.540   4.855   2.562
 2238SOL    HW2 7614   4.668   4.777   2.498
 2239SOL     OW 7615   4.855   5.728   3.703
 2239SOL    HW1 7616   4.880   5.782   3.783
 2239SOL    HW2 7617   4.820   5.789   3.632
 2240SOL     OW 7618   3.569   5.608   2.370
 2240SOL    HW1 7619   3.601   5.685   2.314
 2240SOL    HW2 7620   3.638   5.535   2.369
 2241SOL     OW 7621   6.786   6.783   2.036
 2241SOL    HW1 7622   6.823   6.694   2.064
 2241SOL    HW2 7623   6.804   6.850   2.108
 2242SOL     OW 7624   5.342   3.019   2.767
 2242SOL    HW1 7625   5.329   3.093   2.701
 2242SOL    HW2 7626   5.263   2.958   2.763
 2243SOL     OW 7627   2.021   6.909   0.112
 2243SOL    HW1 7628   2.082   6.851   0.167
 2243SOL    HW2 7629   2.026   7.003   0.145
 2244SOL     OW 7630   2.488   0.151   1.110
 2244SOL    HW1 7631   2.464   0.229   1.168
 2244SOL    HW2 7632   2.534   0.081   1.165
 2245SOL     OW 7633   7.002   1.334   0.934
 2245SOL    HW1 7634   0.027   1.420   0.954
 2245SOL    HW2 7635   7.019   1.269   1.008
 2246SOL     OW 7636   1.728   0.624   4.189
 2246SOL    HW1 7637   1.819   0.632   4.231
 2246SOL    HW2 7638   1.718   0.694   4.119
 2247SOL     OW 7639   3.102   3.165   2.732
 2247SOL    HW1 7640   3.170   3.238   2.720
 2247SOL    HW2 7641   3.146   3.076   2.722
 2248SOL     OW 7642   6.558   4.085   4.441
 2248SOL    HW1 7643   6.500   4.142   4.382
 2248SOL    HW2 7644   6.595   4.141   4.515
 2249SOL     OW 7645   4.467   6.982   3.667
 2249SOL    HW1 7646   4.388   6.958   3.725
 2249SOL    HW2 7647   4.454   0.051   3.629
 2250SOL     OW 7648   3.314   3.691   5.384
 2250SOL    HW1 7649   3.281   3.597   5.378
 2250SOL    HW2 7650   3.263   3.749   5.321
 2251SOL     OW 7651   5.413   0.131   6.100
 2251SOL    HW1 7652   5.433   0.156   6.005
 2251SOL    HW2 7653   5.430   0.210   6.159
 2252SOL     OW 7654   4.911   1.788   2.911
 2252SOL    HW1 7655   4.842   1.735   2.860
 2252SOL    HW2 7656   4.994   1.796   2.855
 2253SOL     OW 7657   0.321   3.811   0.168
 2253SOL    HW1 7658   0.250   3.879   0.187
 2253SOL    HW2 7659   0.295   3.756   0.090
 2254SOL     OW 7660   3.741   3.127   3.938
 2254SOL    HW1 7661   3.647   3.151   3.963
 2254SOL    HW2 7662   3.786   3.083   4.016
 2255SOL     OW 7663   3.214   3.824   5.615
 2255SOL    HW1 7664   3.239   3.765   5.538
 2255SOL    HW2 7665   3.115   3.840   5.614
 2256SOL     OW 7666   4.584   6.496   1.974
 2256SOL    HW1 7667   4.486   6.514   1.961
 2256SOL    HW2 7668   4.611   6.524   2.066
 2257SOL     OW 7669   0.830   0.889   5.081
 2257SOL    HW1 7670   0.803   0.794   5.062
 2257SOL    HW2 7671   0.844   0.937   4.995
 2258SOL     OW 7672   2.063   5.462   4.403
 2258SOL    HW1 7673   2.081   5.485   4.498
 2258SOL    HW2 7674   1.974   5.418   4.395
 2259SOL     OW 7675   5.527   2.898   5.481
 2259SOL    HW1 7676   5.432   2.924   5.501
 2259SOL    HW2 7677   5.582   2.981   5.468
 2260SOL     OW 7678   0.325   3.613   1.457
 2260SOL    HW1 7679   0.317   3.704   1.418
 2260SOL    HW2 7680   0.360   3.619   1.550
 2261SOL     OW 7681   6.786   5.042   0.522
 2261SOL    HW1 7682   6.769   5.036   0.620
 2261SOL    HW2 7683   6.784   5.138   0.494
 2262SOL     OW 7684   6.215   6.826   3.227
 2262SOL    HW1 7685   6.118   6.803   3.230
 2262SOL    HW2 7686   6.249   6.841   3.320
 2263SOL     OW 7687   2.337   6.242   0.300
 2263SOL    HW1 7688   2.325   6.143   0.298
 2263SOL    HW2 7689   2.249   6.287   0.314
 2264SOL     OW 7690   3.026   6.749   6.361
 2264SOL    HW1 7691   3.044   6.707   6.450
 2264SOL    HW2 7692   2.964   6.690   6.309
 2265SOL     OW 7693   1.989   0.641   4.283
 2265SOL    HW1 7694   2.013   0.572   4.351
 2265SOL    HW2 7695   2.043   0.723   4.298
 2266SOL     OW 7696   5.159   2.148   6.340
 2266SOL    HW1 7697   5.236   2.211   6.350
 2266SOL    HW2 7698   5.151   2.091   6.422
 2267SOL     OW 7699   4.728   2.988   5.181
 2267SOL    HW1 7700   4.774   2.993   5.270
 2267SOL    HW2 7701   4.629   2.997   5.195
 2268SOL     OW 7702   6.161   3.911   6.541
 2268SOL    HW1 7703   6.127   3.844   6.607
 2268SOL    HW2 7704   6.204   3.987   6.589
 2269SOL     OW 7705   0.815   3.264   5.333
 2269SOL    HW1 7706   0.909   3.291   5.354
 2269SOL    HW2 7707   0.809   3.164   5.334
 2270SOL     OW 7708   4.014   2.902   6.466
 2270SOL    HW1 7709   4.034   2.805   6.480
 2270SOL    HW2 7710   4.083   2.957   6.514
 2271SOL     OW 7711   5.627   4.457   0.202
 2271SOL    HW1 7712   5.589   4.366   0.193
 2271SOL    HW2 7713   5.647   4.475   0.299
 2272SOL     OW 7714   6.224   1.040   6.727
 2272SOL    HW1 7715   6.304   1.069   6.779
 2272SOL    HW2 7716   6.215   1.096   6.645
 2273SOL     OW 7717   1.293   2.273   1.692
 2273SOL    HW1 7718   1.198   2.293   1.670
 2273SOL    HW2 7719   1.329   2.344   1.754
 2274SOL     OW 7720   0.334   1.688   6.505
 2274SOL    HW1 7721   0.433   1.687   6.516
 2274SOL    HW2 7722   0.300   1.781   6.515
 2275SOL     OW 7723   5.656   6.843   3.124
 2275SOL    HW1 7724   5.733   6.780   3.116
 2275SOL    HW2 7725   5.657   6.907   3.047
 2276SOL     OW 7726   1.599   5.458   1.705
 2276SOL    HW1 7727   1.608   5.424   1.799
 2276SOL    HW2 7728   1.540   5.538   1.704
 2277SOL     OW 7729   3.637   4.086   4.916
 2277SOL    HW1 7730   3.620   3.992   4.945
 2277SOL    HW2 7731   3.553   4.124   4.877
 2278SOL     OW 7732   6.137   2.682   3.583
 2278SOL    HW1 7733   6.145   2.658   3.487
 2278SOL    HW2 7734   6.214   2.740   3.610
 2279SOL     OW 7735   5.962   0.344   5.069
 2279SOL    HW1 7736   5.955   0.407   5.146
 2279SOL    HW2 7737   6.057   0.341   5.038
 2280SOL     OW 7738   6.659   0.010   4.498
 2280SOL    HW1 7739   6.743   6.985   4.473
 2280SOL    HW2 7740   6.603   0.026   4.416
 2281SOL     OW 7741   3.037   0.564   1.699
 2281SOL    HW1 7742   3.065   0.557   1.794
 2281SOL    HW2 7743   3.004   0.657   1.681
 2282SOL     OW 7744   5.656   6.250   5.590
 2282SOL    HW1 7745   5.671   6.156   5.621
 2282SOL    HW2 7746   5.585   6.293   5.645
 2283SOL     OW 7747   1.794   0.508   2.098
 2283SOL    HW1 7748   1.824   0.602   2.107
 2283SOL    HW2 7749   1.774   0.489   2.001
 2284SOL     OW 7750   1.155   3.583   6.333
 2284SOL    HW1 7751   1.228   3.651   6.337
 2284SOL    HW2 7752   1.161   3.532   6.247
 2285SOL     OW 7753   1.129   3.167   0.089
 2285SOL    HW1 7754   1.124   3.104   0.166
 2285SOL    HW2 7755   1.182   3.248   0.115
 2286SOL     OW 7756   5.280   0.479   3.600
 2286SOL    HW1 7757   5.331   0.403   3.559
 2286SOL    HW2 7758   5.186   0.476   3.567
 2287SOL     OW 7759   2.142   0.823   3.592
 2287SOL    HW1 7760   2.046   0.821   3.620
 2287SOL    HW2 7761   2.150   0.863   3.501
 2288SOL     OW 7762   6.872   5.095   4.096
 2288SOL    HW1 7763   6.840   5.002   4.112
 2288SOL    HW2 7764   6.869   5.115   3.998
 2289SOL     OW 7765   0.187   5.430   0.516
 2289SOL    HW1 7766   0.169   5.526   0.536
 2289SOL    HW2 7767   0.285   5.416   0.501
 2290SOL     OW 7768   0.687   3.777   1.521
 2290SOL    HW1 7769   0.691   3.800   1.618
 2290SOL    HW2 7770   0.714   3.858   1.467
 2291SOL     OW 7771   2.563   2.387   5.678
 2291SOL    HW1 7772   2.510   2.366   5.596
 2291SOL    HW2 7773   2.613   2.473   5.664
 2292SOL     OW 7774   1.821   1.723   4.711
 2292SOL    HW1 7775   1.766   1.780   4.771
 2292SOL    HW2 7776   1.835   1.770   4.624
 2293SOL     OW 7777   5.201   6.191   1.946
 2293SOL    HW1 7778   5.225   6.275   1.898
 2293SOL    HW2 7779   5.112   6.159   1.916
 2294SOL     OW 7780   3.100   0.476   6.962
 2294SOL    HW1 7781   3.078   0.573   6.959
 2294SOL    HW2 7782   3.170   0.459   0.008
 2295SOL     OW 7783   0.138   1.359   2.573
 2295SOL    HW1 7784   0.112   1.388   2.480
 2295SOL    HW2 7785   0.232   1.325   2.573
 2296SOL     OW 7786   3.264   6.111   0.523
 2296SOL    HW1 7787   3.213   6.033   0.488
 2296SOL    HW2 7788   3.219   6.146   0.605
 2297SOL     OW 7789   3.838   4.348   5.297
 2297SOL    HW1 7790   3.840   4.277   5.368
 2297SOL    HW2 7791   3.925   4.351   5.249
 2298SOL     OW 7792   3.887   2.728   1.649
 2298SOL    HW1 7793   3.895   2.735   1.550
 2298SOL    HW2 7794   3.936   2.646   1.680
 2299SOL     OW 7795   5.122   0.612   6.624
 2299SOL    HW1 7796   5.214   0.594   6.659
 2299SOL    HW2 7797   5.063   0.535   6.646
 2300SOL     OW 7798   2.436   5.224   1.623
 2300SOL    HW1 7799   2.530   5.228   1.589
 2300SOL    HW2 7800   2.437   5.231   1.723
 2301SOL     OW 7801   3.074   3.107   3.469
 2301SOL    HW1 7802   3.049   3.160   3.388
 2301SOL    HW2 7803   3.171   3.083   3.465
 2302SOL     OW 7804   3.272   0.143   2.113
 2302SOL    HW1 7805   3.362   0.185   2.128
 2302SOL    HW2 7806   3.283   0.053   2.072
 2303SOL     OW 7807   1.840   3.317   6.189
 2303SOL    HW1 7808   1.843   3.222   6.220
 2303SOL    HW2 7809   1.915   3.368   6.232
 2304SOL     OW 7810   2.931   0.432   3.214
 2304SOL    HW1 7811   2.859   0.495   3.245
 2304SOL    HW2 7812   2.890   0.348   3.179
 2305SOL     OW 7813   3.338   5.881   3.419
 2305SOL    HW1 7814   3.248   5.922   3.407
 2305SOL    HW2 7815   3.407   5.939   3.375
 2306SOL     OW 7816   1.873   5.595   1.732
 2306SOL    HW1 7817   1.945   5.577   1.666
 2306SOL    HW2 7818   1.794   5.537   1.713
 2307SOL     OW 7819   2.205   4.353   2.753
 2307SOL    HW1 7820   2.248   4.383   2.838
 2307SOL    HW2 7821   2.193   4.432   2.692
 2308SOL     OW 7822   1.528   6.663   6.805
 2308SOL    HW1 7823   1.611   6.630   6.850
 2308SOL    HW2 7824   1.546   6.678   6.708
 2309SOL     OW 7825   2.944   6.816   0.174
 2309SOL    HW1 7826   2.985   6.764   0.250
 2309SOL    HW2 7827   3.014   6.875   0.134
 2310SOL     OW 7828   6.020   6.317   1.931
 2310SOL    HW1 7829   6.088   6.336   2.002
 2310SOL    HW2 7830   6.022   6.220   1.907
 2311SOL     OW 7831   2.931   6.612   2.306
 2311SOL    HW1 7832   2.879   6.646   2.385
 2311SOL    HW2 7833   2.891   6.647   2.222
 2312SOL     OW 7834   3.639   6.785   3.501
 2312SOL    HW1 7835   3.557   6.758   3.452
 2312SOL    HW2 7836   3.638   6.884   3.518
 2313SOL     OW 7837   4.738   5.674   2.469
 2313SOL    HW1 7838   4.814   5.613   2.447
 2313SOL    HW2 7839   4.711   5.660   2.565
 2314SOL     OW 7840   5.756   0.961   4.279
 2314SOL    HW1 7841   5.797   1.000   4.361
 2314SOL    HW2 7842   5.824   0.902   4.233
 2315SOL     OW 7843   5.043   3.560   4.904
 2315SOL    HW1 7844   4.974   3.576   4.974
 2315SOL    HW2 7845   5.109   3.636   4.904
 2316SOL     OW 7846   3.160   1.158   5.137
 2316SOL    HW1 7847   3.114   1.226   5.080
 2316SOL    HW2 7848   3.240   1.200   5.180
 2317SOL     OW 7849   6.622   6.225   3.579
 2317SOL    HW1 7850   6.524   6.237   3.560
 2317SOL    HW2 7851   6.640   6.246   3.675
 2318SOL     OW 7852   2.136   3.363   4.433
 2318SOL    HW1 7853   2.164   3.294   4.368
 2318SOL    HW2 7854   2.101   3.319   4.516
 2319SOL     OW 7855   3.154   5.687   5.281
 2319SOL    HW1 7856   3.233   5.635   5.311
 2319SOL    HW2 7857   3.149   5.685   5.181
 2320SOL     OW 7858   1.264   2.830   5.031
 2320SOL    HW1 7859   1.323   2.751   5.013
 2320SOL    HW2 7860   1.169   2.801   5.030
 2321SOL     OW 7861   1.876   5.498   0.055
 2321SOL    HW1 7862   1.829   5.499   6.989
 2321SOL    HW2 7863   1.935   5.418   0.061
 2322SOL     OW 7864   1.919   4.227   2.802
 2322SOL    HW1 7865   2.008   4.258   2.768
 2322SOL    HW2 7866   1.902   4.268   2.892
 2323SOL     OW 7867   3.653   4.742   1.597
 2323SOL    HW1 7868   3.609   4.723   1.685
 2323SOL    HW2 7869   3.616   4.681   1.528
 2324SOL     OW 7870   6.754   6.203   1.146
 2324SOL    HW1 7871   6.761   6.105   1.127
 2324SOL    HW2 7872   6.845   6.245   1.140
 2325SOL     OW 7873   0.459   4.234   1.264
 2325SOL    HW1 7874   0.397   4.257   1.339
 2325SOL    HW2 7875   0.540   4.292   1.268
 2326SOL     OW 7876   1.864   6.668   6.675
 2326SOL    HW1 7877   1.874   6.705   6.768
 2326SOL    HW2 7878   1.883   6.570   6.676
 2327SOL     OW 7879   0.431   1.543   2.869
 2327SOL    HW1 7880   0.526   1.545   2.838
 2327SOL    HW2 7881   0.416   1.619   2.932
 2328SOL     OW 7882   1.535   1.666   2.947
 2328SOL    HW1 7883   1.436   1.665   2.963
 2328SOL    HW2 7884   1.582   1.700   3.029
 2329SOL     OW 7885   0.818   4.384   5.259
 2329SOL    HW1 7886   0.801   4.336   5.173
 2329SOL    HW2 7887   0.906   4.431   5.255
 2330SOL     OW 7888   0.227   2.646   1.177
 2330SOL    HW1 7889   0.190   2.595   1.100
 2330SOL    HW2 7890   0.299   2.592   1.221
 2331SOL     OW 7891   3.723   4.873   0.154
 2331SOL    HW1 7892   3.785   4.795   0.159
 2331SOL    HW2 7893   3.707   4.898   0.059
 2332SOL     OW 7894   6.786   6.760   5.701
 2332SOL    HW1 7895   6.813   6.675   5.656
 2332SOL    HW2 7896   6.782   6.834   5.633
 2333SOL     OW 7897   0.038   4.377   3.544
 2333SOL    HW1 7898   0.124   4.342   3.507
 2333SOL    HW2 7899   6.993   4.304   3.546
 2334SOL     OW 7900   2.183   1.288   6.466
 2334SOL    HW1 7901   2.220   1.225   6.533
 2334SOL    HW2 7902   2.213   1.381   6.486
 2335SOL     OW 7903   5.973   0.839   4.153
 2335SOL    HW1 7904   5.938   0.852   4.060
 2335SOL    HW2 7905   5.957   0.744   4.182
 2336SOL     OW 7906   3.921   1.376   4.735
 2336SOL    HW1 7907   3.952   1.291   4.693
 2336SOL    HW2 7908   4.000   1.422   4.778
 2337SOL     OW 7909   3.956   0.279   1.296
 2337SOL    HW1 7910   3.939   0.347   1.368
 2337SOL    HW2 7911   3.870   0.236   1.270
 2338SOL     OW 7912   0.389   2.701   4.583
 2338SOL    HW1 7913   0.327   2.710   4.505
 2338SOL    HW2 7914   0.336   2.693   4.667
 2339SOL     OW 7915   3.412   4.152   3.388
 2339SOL    HW1 7916   3.350   4.144   3.310
 2339SOL    HW2 7917   3.507   4.149   3.356
 2340SOL     OW 7918   6.868   4.426   6.231
 2340SOL    HW1 7919   6.933   4.463   6.164
 2340SOL    HW2 7920   6.876   4.327   6.233
 2341SOL     OW 7921   2.955   4.761   2.258
 2341SOL    HW1 7922   2.886   4.722   2.198
 2341SOL    HW2 7923   3.045   4.754   2.214
 2342SOL     OW 7924   1.088   6.686   5.408
 2342SOL    HW1 7925   1.029   6.758   5.371
 2342SOL    HW2 7926   1.042   6.642   5.485
 2343SOL     OW 7927   1.796   5.145   2.777
 2343SOL    HW1 7928   1.813   5.074   2.709
 2343SOL    HW2 7929   1.880   5.197   2.793
 2344SOL     OW 7930   0.797   5.406   6.815
 2344SOL    HW1 7931   0.788   5.342   6.891
 2344SOL    HW2 7932   0.772   5.498   6.845
 2345SOL     OW 7933   2.843   5.800   5.230
 2345SOL    HW1 7934   2.849   5.899   5.213
 2345SOL    HW2 7935   2.858   5.783   5.328
 2346SOL     OW 7936   3.156   3.486   5.512
 2346SOL    HW1 7937   3.090   3.414   5.532
 2346SOL    HW2 7938   3.124   3.540   5.434
 2347SOL     OW 7939   3.005   2.335   1.247
 2347SOL    HW1 7940   2.933   2.402   1.268
 2347SOL    HW2 7941   3.035   2.348   1.153
 2348SOL     OW 7942   2.197   6.252   3.340
 2348SOL    HW1 7943   2.280   6.223   3.294
 2348SOL    HW2 7944   2.193   6.352   3.342
 2349SOL     OW 7945   1.253   4.969   5.920
 2349SOL    HW1 7946   1.246   4.978   5.820
 2349SOL    HW2 7947   1.340   5.007   5.951
 2350SOL     OW 7948   6.451   6.175   6.001
 2350SOL    HW1 7949   6.524   6.116   6.035
 2350SOL    HW2 7950   6.442   6.254   6.061
 2351SOL     OW 7951   3.046   5.335   4.507
 2351SOL    HW1 7952   3.030   5.411   4.569
 2351SOL    HW2 7953   3.111   5.271   4.548
 2352SOL     OW 7954   0.605   4.075   2.496
 2352SOL    HW1 7955   0.540   4.127   2.440
 2352SOL    HW2 7956   0.687   4.054   2.442
 2353SOL     OW 7957   3.346   5.446   4.675
 2353SOL    HW1 7958   3.418   5.454   4.744
 2353SOL    HW2 7959   3.382   5.399   4.595
 2354SOL     OW 7960   2.977   1.818   5.438
 2354SOL    HW1 7961   3.014   1.729   5.465
 2354SOL    HW2 7962   2.969   1.876   5.519
 2355SOL     OW 7963   2.114   6.960   6.009
 2355SOL    HW1 7964   2.188   6.893   6.018
 2355SOL    HW2 7965   2.143   0.010   5.947
 2356SOL     OW 7966   1.264   3.240   6.396
 2356SOL    HW1 7967   1.356   3.263   6.365
 2356SOL    HW2 7968   1.268   3.202   6.488
 2357SOL     OW 7969   4.150   0.197   2.670
 2357SOL    HW1 7970   4.186   0.107   2.645
 2357SOL    HW2 7971   4.165   0.213   2.768
 2358SOL     OW 7972   3.463   5.429   5.243
 2358SOL    HW1 7973   3.432   5.344   5.285
 2358SOL    HW2 7974   3.556   5.418   5.208
 2359SOL     OW 7975   6.864   1.084   5.183
 2359SOL    HW1 7976   6.946   1.124   5.142
 2359SOL    HW2 7977   6.842   1.133   5.268
 2360SOL     OW 7978   5.351   3.441   0.010
 2360SOL    HW1 7979   5.302   3.522   6.999
 2360SOL    HW2 7980   5.304   3.405   0.090
 2361SOL     OW 7981   2.519   0.778   5.415
 2361SOL    HW1 7982   2.573   0.698   5.445
 2361SOL    HW2 7983   2.486   0.763   5.322
 2362SOL     OW 7984   2.351   6.049   4.212
 2362SOL    HW1 7985   2.257   6.015   4.204
 2362SOL    HW2 7986   2.367   6.081   4.305
 2363SOL     OW 7987   4.580   1.972   4.948
 2363SOL    HW1 7988   4.574   1.978   4.848
 2363SOL    HW2 7989   4.643   1.898   4.973
 2364SOL     OW 7990   0.655   2.212   2.620
 2364SOL    HW1 7991   0.580   2.250   2.566
 2364SOL    HW2 7992   0.727   2.179   2.558
 2365SOL     OW 7993   6.474   2.487   6.451
 2365SOL    HW1 7994   6.508   2.511   6.542
 2365SOL    HW2 7995   6.401   2.419   6.460
 2366SOL     OW 7996   2.794   5.412   6.299
 2366SOL    HW1 7997   2.776   5.432   6.203
 2366SOL    HW2 7998   2.877   5.460   6.328
 2367SOL     OW 7999   2.792   3.821   1.154
 2367SOL    HW1 8000   2.713   3.843   1.096
 2367SOL    HW2 8001   2.766   3.828   1.250
 2368SOL     OW 8002   4.385   0.345   4.590
 2368SOL    HW1 8003   4.426   0.369   4.502
 2368SOL    HW2 8004   4.287   0.333   4.579
 2369SOL     OW 8005   1.796   0.858   5.191
 2369SOL    HW1 8006   1.713   0.809   5.218
 2369SOL    HW2 8007   1.872   0.830   5.250
 2370SOL     OW 8008   4.823   3.029   6.812
 2370SOL    HW1 8009   4.804   3.109   6.869
 2370SOL    HW2 8010   4.764   3.030   6.732
 2371SOL     OW 8011   0.713   6.659   1.641
 2371SOL    HW1 8012   0.637   6.716   1.672
 2371SOL    HW2 8013   0.794   6.716   1.628
 2372SOL     OW 8014   0.257   2.870   1.941
 2372SOL    HW1 8015   0.321   2.942   1.965
 2372SOL    HW2 8016   0.247   2.807   2.018
 2373SOL     OW 8017   0.962   2.339   6.608
 2373SOL    HW1 8018   0.972   2.384   6.696
 2373SOL    HW2 8019   1.040   2.277   6.593
 2374SOL     OW 8020   6.129   1.890   3.490
 2374SOL    HW1 8021   6.057   1.854   3.430
 2374SOL    HW2 8022   6.092   1.900   3.583
 2375SOL     OW 8023   3.209   6.251   4.980
 2375SOL    HW1 8024   3.188   6.348   4.979
 2375SOL    HW2 8025   3.260   6.227   4.898
 2376SOL     OW 8026   6.651   2.328   4.517
 2376SOL    HW1 8027   6.607   2.397   4.461
 2376SOL    HW2 8028   6.743   2.311   4.483
 2377SOL     OW 8029   3.788   3.933   3.416
 2377SOL    HW1 8030   3.868   3.927   3.477
 2377SOL    HW2 8031   3.790   3.858   3.351
 2378SOL     OW 8032   5.194   1.616   0.762
 2378SOL    HW1 8033   5.116   1.607   0.824
 2378SOL    HW2 8034   5.213   1.528   0.719
 2379SOL     OW 8035   6.254   1.631   0.249
 2379SOL    HW1 8036   6.222   1.631   0.344
 2379SOL    HW2 8037   6.208   1.702   0.197
 2380SOL     OW 8038   0.567   1.562   6.817
 2380SOL    HW1 8039   0.655   1.525   6.787
 2380SOL    HW2 8040   0.492   1.508   6.779
 2381SOL     OW 8041   2.122   4.629   4.412
 2381SOL    HW1 8042   2.201   4.657   4.358
 2381SOL    HW2 8043   2.113   4.691   4.491
 2382SOL     OW 8044   1.688   3.871   4.459
 2382SOL    HW1 8045   1.784   3.847   4.477
 2382SOL    HW2 8046   1.685   3.949   4.396
 2383SOL     OW 8047   4.901   6.372   1.012
 2383SOL    HW1 8048   4.891   6.430   1.093
 2383SOL    HW2 8049   4.842   6.292   1.021
 2384SOL     OW 8050   5.899   1.081   3.271
 2384SOL    HW1 8051   5.940   1.057   3.184
 2384SOL    HW2 8052   5.836   1.157   3.259
 2385SOL     OW 8053   1.110   0.011   0.290
 2385SOL    HW1 8054   1.021   7.008   0.252
 2385SOL    HW2 8055   1.107   0.107   0.318
 2386SOL     OW 8056   6.280   5.722   4.491
 2386SOL    HW1 8057   6.193   5.691   4.452
 2386SOL    HW2 8058   6.355   5.692   4.432
 2387SOL     OW 8059   1.461   2.254   3.864
 2387SOL    HW1 8060   1.458   2.155   3.851
 2387SOL    HW2 8061   1.402   2.298   3.796
 2388SOL     OW 8062   0.955   2.187   4.570
 2388SOL    HW1 8063   1.012   2.253   4.521
 2388SOL    HW2 8064   0.896   2.139   4.505
 2389SOL     OW 8065   4.802   4.122   3.337
 2389SOL    HW1 8066   4.719   4.177   3.344
 2389SOL    HW2 8067   4.815   4.069   3.420
 2390SOL     OW 8068   4.143   3.427   3.531
 2390SOL    HW1 8069   4.131   3.334   3.497
 2390SOL    HW2 8070   4.138   3.427   3.631
 2391SOL     OW 8071   4.861   3.884   5.917
 2391SOL    HW1 8072   4.902   3.924   5.835
 2391SOL    HW2 8073   4.770   3.850   5.896
 2392SOL     OW 8074   4.839   6.467   5.465
 2392SOL    HW1 8075   4.880   6.384   5.428
 2392SOL    HW2 8076   4.902   6.544   5.454
 2393SOL     OW 8077   4.978   3.649   5.683
 2393SOL    HW1 8078   5.041   3.635   5.759
 2393SOL    HW2 8079   4.940   3.742   5.688
 2394SOL     OW 8080   1.444   3.727   4.830
 2394SOL    HW1 8081   1.534   3.711   4.789
 2394SOL    HW2 8082   1.410   3.817   4.803
 2395SOL     OW 8083   5.405   2.535   5.918
 2395SOL    HW1 8084   5.461   2.581   5.849
 2395SOL    HW2 8085   5.309   2.560   5.906
 2396SOL     OW 8086   3.538   5.554   1.352
 2396SOL    HW1 8087   3.460   5.614   1.333
 2396SOL    HW2 8088   3.511   5.459   1.335
 2397SOL     OW 8089   6.410   3.920   5.651
 2397SOL    HW1 8090   6.332   3.871   5.691
 2397SOL    HW2 8091   6.494   3.894   5.698
 2398SOL     OW 8092   2.944   3.791   6.833
 2398SOL    HW1 8093   2.884   3.788   6.753
 2398SOL    HW2 8094   2.917   3.867   6.892
 2399SOL     OW 8095   4.729   1.318   1.760
 2399SOL    HW1 8096   4.637   1.293   1.729
 2399SOL    HW2 8097   4.793   1.308   1.684
 2400SOL     OW 8098   3.288   3.869   0.918
 2400SOL    HW1 8099   3.277   3.864   0.819
 2400SOL    HW2 8100   3.204   3.840   0.963
 2401SOL     OW 8101   4.895   6.213   6.647
 2401SOL    HW1 8102   4.954   6.187   6.723
 2401SOL    HW2 8103   4.801   6.190   6.668
 2402SOL     OW 8104   7.004   0.749   3.962
 2402SOL    HW1 8105   6.996   0.694   3.879
 2402SOL    HW2 8106   6.946   0.830   3.953
 2403SOL     OW 8107   2.430   2.300   6.691
 2403SOL    HW1 8108   2.396   2.364   6.759
 2403SOL    HW2 8109   2.449   2.212   6.734
 2404SOL     OW 8110   2.982   1.174   1.041
 2404SOL    HW1 8111   2.907   1.218   1.091
 2404SOL    HW2 8112   2.954   1.082   1.013
 2405SOL     OW 8113   3.491   3.495   2.447
 2405SOL    HW1 8114   3.555   3.421   2.468
 2405SOL    HW2 8115   3.508   3.527   2.354
 2406SOL     OW 8116   2.652   6.964   2.140
 2406SOL    HW1 8117   2.727   0.007   2.136
 2406SOL    HW2 8118   2.581   6.998   2.202
 2407SOL     OW 8119   5.568   1.869   2.232
 2407SOL    HW1 8120   5.475   1.878   2.196
 2407SOL    HW2 8121   5.623   1.946   2.200
 2408SOL     OW 8122   4.478   4.794   2.966
 2408SOL    HW1 8123   4.558   4.809   3.025
 2408SOL    HW2 8124   4.455   4.697   2.965
 2409SOL     OW 8125   1.894   4.740   2.239
 2409SOL    HW1 8126   1.856   4.734   2.332
 2409SOL    HW2 8127   1.970   4.804   2.238
 2410SOL     OW 8128   4.177   3.400   5.397
 2410SOL    HW1 8129   4.127   3.460   5.459
 2410SOL    HW2 8130   4.274   3.426   5.395
 2411SOL     OW 8131   4.311   5.850   5.134
 2411SOL    HW1 8132   4.301   5.760   5.175
 2411SOL    HW2 8133   4.406   5.881   5.143
 2412SOL     OW 8134   5.128   4.859   0.658
 2412SOL    HW1 8135   5.075   4.853   0.574
 2412SOL    HW2 8136   5.085   4.802   0.729
 2413SOL     OW 8137   5.920   1.546   0.619
 2413SOL    HW1 8138   5.917   1.447   0.608
 2413SOL    HW2 8139   5.908   1.569   0.715
 2414SOL     OW 8140   4.729   4.583   2.831
 2414SOL    HW1 8141   4.692   4.499   2.870
 2414SOL    HW2 8142   4.694   4.597   2.739
 2415SOL     OW 8143   6.223   0.649   3.042
 2415SOL    HW1 8144   6.237   0.676   2.947
 2415SOL    HW2 8145   6.254   0.555   3.056
 2416SOL     OW 8146   4.786   2.308   5.245
 2416SOL    HW1 8147   4.829   2.357   5.320
 2416SOL    HW2 8148   4.835   2.326   5.160
 2417SOL     OW 8149   3.795   3.481   5.124
 2417SOL    HW1 8150   3.800   3.478   5.024
 2417SOL    HW2 8151   3.859   3.415   5.163
 2418SOL     OW 8152   3.294   2.965   4.702
 2418SOL    HW1 8153   3.260   2.940   4.611
 2418SOL    HW2 8154   3.259   3.055   4.727
 2419SOL     OW 8155   6.779   0.100   4.858
 2419SOL    HW1 8156   6.853   0.070   4.798
 2419SOL    HW2 8157   6.814   0.110   4.951
 2420SOL     OW 8158   3.180   0.781   2.689
 2420SOL    HW1 8159   3.092   0.737   2.707
 2420SOL    HW2 8160   3.231   0.726   2.622
 2421SOL     OW 8161   2.155   2.546   4.814
 2421SOL    HW1 8162   2.085   2.590   4.871
 2421SOL    HW2 8163   2.193   2.467   4.863
 2422SOL     OW 8164   5.645   1.667   1.059
 2422SOL    HW1 8165   5.552   1.703   1.070
 2422SOL    HW2 8166   5.686   1.653   1.149
 2423SOL     OW 8167   1.504   5.416   2.886
 2423SOL    HW1 8168   1.567   5.419   2.964
 2423SOL    HW2 8169   1.557   5.407   2.801
 2424SOL     OW 8170   6.055   6.904   6.251
 2424SOL    HW1 8171   6.109   6.976   6.209
 2424SOL    HW2 8172   6.004   6.941   6.329
 2425SOL     OW 8173   5.594   0.833   4.105
 2425SOL    HW1 8174   5.629   0.740   4.091
 2425SOL    HW2 8175   5.642   0.875   4.182
 2426SOL     OW 8176   1.070   6.160   4.919
 2426SOL    HW1 8177   0.982   6.111   4.915
 2426SOL    HW2 8178   1.113   6.158   4.829
 2427SOL     OW 8179   5.633   5.856   5.406
 2427SOL    HW1 8180   5.564   5.928   5.401
 2427SOL    HW2 8181   5.595   5.771   5.371
 2428SOL     OW 8182   0.059   0.414   2.190
 2428SOL    HW1 8183   0.019   0.426   2.280
 2428SOL    HW2 8184   0.122   0.336   2.191
 2429SOL     OW 8185   5.709   5.781   3.062
 2429SOL    HW1 8186   5.807   5.776   3.040
 2429SOL    HW2 8187   5.689   5.870   3.102
 2430SOL     OW 8188   6.173   1.045   1.605
 2430SOL    HW1 8189   6.218   1.002   1.527
 2430SOL    HW2 8190   6.181   0.985   1.685
 2431SOL     OW 8191   3.884   0.842   1.535
 2431SOL    HW1 8192   3.863   0.816   1.441
 2431SOL    HW2 8193   3.962   0.905   1.536
 2432SOL     OW 8194   3.480   6.274   2.885
 2432SOL    HW1 8195   3.396   6.222   2.870
 2432SOL    HW2 8196   3.551   6.243   2.821
 2433SOL     OW 8197   3.930   1.753   0.438
 2433SOL    HW1 8198   3.840   1.755   0.482
 2433SOL    HW2 8199   3.960   1.846   0.419
 2434SOL     OW 8200   3.897   1.285   6.012
 2434SOL    HW1 8201   3.936   1.324   6.095
 2434SOL    HW2 8202   3.971   1.264   5.947
 2435SOL     OW 8203   4.646   5.197   5.842
 2435SOL    HW1 8204   4.623   5.204   5.745
 2435SOL    HW2 8205   4.746   5.196   5.852
 2436SOL     OW 8206   1.349   5.304   0.445
 2436SOL    HW1 8207   1.441   5.288   0.481
 2436SOL    HW2 8208   1.356   5.342   0.353
 2437SOL     OW 8209   5.483   6.481   6.764
 2437SOL    HW1 8210   5.484   6.406   6.698
 2437SOL    HW2 8211   5.565   6.475   6.822
 2438SOL     OW 8212   2.924   1.422   6.612
 2438SOL    HW1 8213   2.827   1.399   6.605
 2438SOL    HW2 8214   2.945   1.497   6.549
 2439SOL     OW 8215   0.418   4.707   6.372
 2439SOL    HW1 8216   0.499   4.654   6.397
 2439SOL    HW2 8217   0.387   4.677   6.281
 2440SOL     OW 8218   4.552   6.240   5.819
 2440SOL    HW1 8219   4.556   6.227   5.918
 2440SOL    HW2 8220   4.620   6.307   5.791
 2441SOL     OW 8221   0.069   2.193   6.773
 2441SOL    HW1 8222   0.066   2.190   6.673
 2441SOL    HW2 8223   0.143   2.135   6.806
 2442SOL     OW 8224   0.818   3.890   5.930
 2442SOL    HW1 8225   0.847   3.856   6.019
 2442SOL    HW2 8226   0.876   3.850   5.858
 2443SOL     OW 8227   3.603   5.004   5.977
 2443SOL    HW1 8228   3.515   5.050   5.988
 2443SOL    HW2 8229   3.608   4.961   5.887
 2444SOL     OW 8230   2.498   4.879   6.643
 2444SOL    HW1 8231   2.407   4.838   6.639
 2444SOL    HW2 8232   2.566   4.808   6.660
 2445SOL     OW 8233   0.046   1.618   0.954
 2445SOL    HW1 8234   7.003   1.660   0.891
 2445SOL    HW2 8235   0.088   1.688   1.010
 2446SOL     OW 8236   6.534   4.327   4.107
 2446SOL    HW1 8237   6.605   4.331   4.177
 2446SOL    HW2 8238   6.459   4.268   4.138
 2447SOL     OW 8239   2.153   2.953   7.010
 2447SOL    HW1 8240   2.250   2.949   0.010
 2447SOL    HW2 8241   2.119   3.046   0.001
 2448SOL     OW 8242   0.440   0.673   4.737
 2448SOL    HW1 8243   0.368   0.730   4.776
 2448SOL    HW2 8244   0.441   0.584   4.783
 2449SOL     OW 8245   6.948   4.426   0.446
 2449SOL    HW1 8246   0.023   4.403   0.451
 2449SOL    HW2 8247   6.904   4.368   0.377
 2450SOL     OW 8248   2.375   4.433   3.020
 2450SOL    HW1 8249   2.458   4.459   2.969
 2450SOL    HW2 8250   2.396   4.355   3.080
 2451SOL     OW 8251   1.563   6.886   4.352
 2451SOL    HW1 8252   1.602   6.806   4.306
 2451SOL    HW2 8253   1.504   6.936   4.288
 2452SOL     OW 8254   1.804   3.711   3.094
 2452SOL    HW1 8255   1.861   3.638   3.132
 2452SOL    HW2 8256   1.770   3.682   3.004
 2453SOL     OW 8257   6.444   4.928   1.306
 2453SOL    HW1 8258   6.498   5.006   1.337
 2453SOL    HW2 8259   6.418   4.873   1.385
 2454SOL     OW 8260   3.514   0.964   1.813
 2454SOL    HW1 8261   3.550   0.926   1.898
 2454SOL    HW2 8262   3.586   1.011   1.764
 2455SOL     OW 8263   5.093   5.427   0.743
 2455SOL    HW1 8264   5.118   5.330   0.745
 2455SOL    HW2 8265   5.111   5.464   0.652
 2456SOL     OW 8266   5.027   6.651   1.730
 2456SOL    HW1 8267   4.993   6.705   1.807
 2456SOL    HW2 8268   5.079   6.573   1.765
 2457SOL     OW 8269   5.579   6.632   0.238
 2457SOL    HW1 8270   5.643   6.569   0.282
 2457SOL    HW2 8271   5.553   6.704   0.303
 2458SOL     OW 8272   2.261   5.299   3.291
 2458SOL    HW1 8273   2.321   5.332   3.218
 2458SOL    HW2 8274   2.201   5.228   3.255
 2459SOL     OW 8275   1.515   0.031   0.576
 2459SOL    HW1 8276   1.519   6.962   0.534
 2459SOL    HW2 8277   1.607   0.069   0.580
 2460SOL     OW 8278   2.354   6.151   2.442
 2460SOL    HW1 8279   2.278   6.159   2.377
 2460SOL    HW2 8280   2.428   6.212   2.414
 2461SOL     OW 8281   5.641   0.505   2.329
 2461SOL    HW1 8282   5.730   0.459   2.329
 2461SOL    HW2 8283   5.572   0.445   2.288
 2462SOL     OW 8284   1.978   5.295   0.377
 2462SOL    HW1 8285   2.044   5.266   0.308
 2462SOL    HW2 8286   1.917   5.220   0.400
 2463SOL     OW 8287   6.898   1.955   3.418
 2463SOL    HW1 8288   6.926   1.859   3.417
 2463SOL    HW2 8289   6.845   1.974   3.335
 2464SOL     OW 8290   0.698   4.197   0.869
 2464SOL    HW1 8291   0.723   4.294   0.863
 2464SOL    HW2 8292   0.601   4.186   0.852
 2465SOL     OW 8293   6.752   5.844   2.118
 2465SOL    HW1 8294   6.794   5.753   2.122
 2465SOL    HW2 8295   6.734   5.868   2.023
 2466SOL     OW 8296   4.211   1.594   2.758
 2466SOL    HW1 8297   4.213   1.690   2.786
 2466SOL    HW2 8298   4.117   1.565   2.745
 2467SOL     OW 8299   6.653   0.667   5.998
 2467SOL    HW1 8300   6.578   0.672   6.064
 2467SOL    HW2 8301   6.679   0.760   5.971
 2468SOL     OW 8302   6.688   6.287   2.101
 2468SOL    HW1 8303   6.599   6.242   2.091
 2468SOL    HW2 8304   6.703   6.309   2.198
 2469SOL     OW 8305   2.961   3.925   5.567
 2469SOL    HW1 8306   2.917   3.981   5.497
 2469SOL    HW2 8307   2.891   3.873   5.616
 2470SOL     OW 8308   2.823   4.009   6.168
 2470SOL    HW1 8309   2.729   4.005   6.134
 2470SOL    HW2 8310   2.823   4.013   6.268
 2471SOL     OW 8311   0.650   6.333   2.662
 2471SOL    HW1 8312   0.575   6.390   2.628
 2471SOL    HW2 8313   0.644   6.242   2.622
 2472SOL     OW 8314   5.452   2.121   4.050
 2472SOL    HW1 8315   5.414   2.151   3.962
 2472SOL    HW2 8316   5.542   2.081   4.035
 2473SOL     OW 8317   1.008   5.458   4.543
 2473SOL    HW1 8318   1.002   5.544   4.492
 2473SOL    HW2 8319   1.027   5.383   4.479
 2474SOL     OW 8320   0.102   5.548   5.196
 2474SOL    HW1 8321   0.073   5.575   5.288
 2474SOL    HW2 8322   0.201   5.535   5.194
 2475SOL     OW 8323   4.365   2.546   0.397
 2475SOL    HW1 8324   4.405   2.487   0.326
 2475SOL    HW2 8325   4.374   2.642   0.369
 2476SOL     OW 8326   0.950   1.544   3.992
 2476SOL    HW1 8327   0.852   1.557   3.980
 2476SOL    HW2 8328   0.966   1.478   4.066
 2477SOL     OW 8329   5.607   6.155   1.338
 2477SOL    HW1 8330   5.629   6.115   1.249
 2477SOL    HW2 8331   5.551   6.091   1.390
 2478SOL     OW 8332   6.476   6.470   2.795
 2478SOL    HW1 8333   6.508   6.378   2.771
 2478SOL    HW2 8334   6.378   6.477   2.778
 2479SOL     OW 8335   7.022   2.362   0.651
 2479SOL    HW1 8336   0.020   2.307   0.732
 2479SOL    HW2 8337   0.085   2.391   0.609
 2480SOL     OW 8338   6.692   3.743   1.716
 2480SOL    HW1 8339   6.608   3.748   1.662
 2480SOL    HW2 8340   6.766   3.788   1.666
 2481SOL     OW 8341   4.148   5.525   1.936
 2481SOL    HW1 8342   4.150   5.431   1.970
 2481SOL    HW2 8343   4.202   5.584   1.997
 2482SOL     OW 8344   5.235   3.400   5.014
 2482SOL    HW1 8345   5.252   3.307   4.981
 2482SOL    HW2 8346   5.145   3.430   4.983
 2483SOL     OW 8347   1.041   1.109   6.915
 2483SOL    HW1 8348   1.043   1.031   6.978
 2483SOL    HW2 8349   1.098   1.182   6.951
 2484SOL     OW 8350   2.698   1.244   0.656
 2484SOL    HW1 8351   2.728   1.156   0.619
 2484SOL    HW2 8352   2.714   1.316   0.589
 2485SOL     OW 8353   0.048   5.273   2.575
 2485SOL    HW1 8354   0.015   5.183   2.548
 2485SOL    HW2 8355   6.993   5.336   2.585
 2486SOL     OW 8356   1.997   5.581   3.237
 2486SOL    HW1 8357   2.025   5.493   3.275
 2486SOL    HW2 8358   1.935   5.627   3.300
 2487SOL     OW 8359   3.999   0.256   0.456
 2487SOL    HW1 8360   3.950   0.238   0.541
 2487SOL    HW2 8361   4.075   0.318   0.473
 2488SOL     OW 8362   2.738   4.633   1.440
 2488SOL    HW1 8363   2.757   4.682   1.526
 2488SOL    HW2 8364   2.696   4.545   1.460
 2489SOL     OW 8365   1.443   5.383   5.227
 2489SOL    HW1 8366   1.367   5.429   5.182
 2489SOL    HW2 8367   1.428   5.285   5.228
 2490SOL     OW 8368   6.266   4.209   1.082
 2490SOL    HW1 8369   6.236   4.124   1.040
 2490SOL    HW2 8370   6.313   4.266   1.014
 2491SOL     OW 8371   2.977   4.988   3.062
 2491SOL    HW1 8372   2.957   4.923   3.135
 2491SOL    HW2 8373   3.047   4.950   3.002
 2492SOL     OW 8374   4.789   2.947   6.358
 2492SOL    HW1 8375   4.746   2.864   6.392
 2492SOL    HW2 8376   4.851   2.924   6.283
 2493SOL     OW 8377   5.894   1.702   3.009
 2493SOL    HW1 8378   5.820   1.697   2.943
 2493SOL    HW2 8379   5.913   1.611   3.046
 2494SOL     OW 8380   4.809   2.595   2.101
 2494SOL    HW1 8381   4.775   2.503   2.120
 2494SOL    HW2 8382   4.908   2.592   2.087
 2495SOL     OW 8383   5.603   0.945   5.030
 2495SOL    HW1 8384   5.576   1.030   5.076
 2495SOL    HW2 8385   5.610   0.962   4.932
 2496SOL     OW 8386   1.046   5.507   6.890
 2496SOL    HW1 8387   0.947   5.500   6.884
 2496SOL    HW2 8388   1.079   5.454   6.968
 2497SOL     OW 8389   6.676   1.637   6.620
 2497SOL    HW1 8390   6.688   1.677   6.710
 2497SOL    HW2 8391   6.604   1.687   6.571
 2498SOL     OW 8392   1.741   3.019   4.037
 2498SOL    HW1 8393   1.802   2.950   4.076
 2498SOL    HW2 8394   1.746   3.102   4.092
 2499SOL     OW 8395   5.083   0.762   4.543
 2499SOL    HW1 8396   5.159   0.788   4.602
 2499SOL    HW2 8397   5.043   0.845   4.502
 2500SOL     OW 8398   4.648   3.091   6.158
 2500SOL    HW1 8399   4.556   3.055   6.174
 2500SOL    HW2 8400   4.703   3.078   6.240
 2501SOL     OW 8401   6.228   4.588   0.401
 2501SOL    HW1 8402   6.171   4.509   0.424
 2501SOL    HW2 8403   6.221   4.656   0.475
 2502SOL     OW 8404   1.904   6.968   2.655
 2502SOL    HW1 8405   1.951   0.029   2.683
 2502SOL    HW2 8406   1.945   6.890   2.702
 2503SOL     OW 8407   4.014   4.977   5.756
 2503SOL    HW1 8408   3.959   5.049   5.714
 2503SOL    HW2 8409   4.010   4.894   5.700
 2504SOL     OW 8410   2.019   4.998   4.611
 2504SOL    HW1 8411   2.113   5.014   4.581
 2504SOL    HW2 8412   1.974   5.086   4.630
 2505SOL     OW 8413   4.654   5.597   4.328
 2505SOL    HW1 8414   4.626   5.692   4.315
 2505SOL    HW2 8415   4.688   5.559   4.242
 2506SOL     OW 8416   6.216   2.640   6.074
 2506SOL    HW1 8417   6.286   2.676   6.135
 2506SOL    HW2 8418   6.193   2.707   6.004
 2507SOL     OW 8419   6.257   5.864   0.822
 2507SOL    HW1 8420   6.247   5.891   0.726
 2507SOL    HW2 8421   6.208   5.929   0.880
 2508SOL     OW 8422   2.426   2.175   2.130
 2508SOL    HW1 8423   2.493   2.204   2.197
 2508SOL    HW2 8424   2.435   2.230   2.047
 2509SOL     OW 8425   5.378   2.510   3.147
 2509SOL    HW1 8426   5.471   2.475   3.159
 2509SOL    HW2 8427   5.339   2.472   3.063
 2510SOL     OW 8428   3.346   5.199   0.508
 2510SOL    HW1 8429   3.268   5.157   0.462
 2510SOL    HW2 8430   3.420   5.132   0.516
 2511SOL     OW 8431   1.235   0.689   5.240
 2511SOL    HW1 8432   1.270   0.623   5.173
 2511SOL    HW2 8433   1.245   0.650   5.332
 2512SOL     OW 8434   4.893   3.761   4.545
 2512SOL    HW1 8435   4.872   3.719   4.456
 2512SOL    HW2 8436   4.901   3.860   4.534
 2513SOL     OW 8437   0.724   2.793   6.555
 2513SOL    HW1 8438   0.796   2.740   6.601
 2513SOL    HW2 8439   0.726   2.887   6.588
 2514SOL     OW 8440   1.222   1.128   4.304
 2514SOL    HW1 8441   1.149   1.074   4.262
 2514SOL    HW2 8442   1.300   1.133   4.241
 2515SOL     OW 8443   0.815   5.575   0.767
 2515SOL    HW1 8444   0.797   5.660   0.718
 2515SOL    HW2 8445   0.734   5.551   0.822
 2516SOL     OW 8446   5.802   6.993   3.833
 2516SOL    HW1 8447   5.716   0.019   3.847
 2516SOL    HW2 8448   5.861   0.024   3.773
 2517SOL     OW 8449   2.238   4.803   0.338
 2517SOL    HW1 8450   2.267   4.787   0.432
 2517SOL    HW2 8451   2.150   4.759   0.322
 2518SOL     OW 8452   2.492   2.855   6.439
 2518SOL    HW1 8453   2.588   2.869   6.414
 2518SOL    HW2 8454   2.442   2.819   6.360
 2519SOL     OW 8455   4.679   4.849   4.908
 2519SOL    HW1 8456   4.664   4.753   4.932
 2519SOL    HW2 8457   4.616   4.876   4.835
 2520SOL     OW 8458   2.470   3.911   1.236
 2520SOL    HW1 8459   2.419   3.840   1.285
 2520SOL    HW2 8460   2.492   3.879   1.144
 2521SOL     OW 8461   6.112   0.196   5.796
 2521SOL    HW1 8462   6.168   0.118   5.767
 2521SOL    HW2 8463   6.123   0.271   5.732
 2522SOL     OW 8464   0.779   3.345   4.510
 2522SOL    HW1 8465   0.705   3.318   4.448
 2522SOL    HW2 8466   0.807   3.266   4.565
 2523SOL     OW 8467   0.523   3.890   0.315
 2523SOL    HW1 8468   0.493   3.904   0.409
 2523SOL    HW2 8469   0.451   3.843   0.263
 2524SOL     OW 8470   1.385   6.948   3.897
 2524SOL    HW1 8471   1.409   6.857   3.863
 2524SOL    HW2 8472   1.454   7.014   3.870
 2525SOL     OW 8473   0.831   3.620   3.452
 2525SOL    HW1 8474   0.927   3.644   3.440
 2525SOL    HW2 8475   0.781   3.645   3.369
 2526SOL     OW 8476   0.183   1.561   3.934
 2526SOL    HW1 8477   0.176   1.660   3.928
 2526SOL    HW2 8478   0.262   1.536   3.991
 2527SOL     OW 8479   5.726   6.404   4.424
 2527SOL    HW1 8480   5.807   6.453   4.459
 2527SOL    HW2 8481   5.672   6.370   4.501
 2528SOL     OW 8482   6.204   5.341   0.922
 2528SOL    HW1 8483   6.185   5.438   0.933
 2528SOL    HW2 8484   6.214   5.319   0.825
 2529SOL     OW 8485   5.281   4.758   4.577
 2529SOL    HW1 8486   5.292   4.784   4.481
 2529SOL    HW2 8487   5.188   4.781   4.607
 2530SOL     OW 8488   1.140   0.359   3.527
 2530SOL    HW1 8489   1.147   0.263   3.500
 2530SOL    HW2 8490   1.231   0.401   3.523
 2531SOL     OW 8491   4.120   1.103   5.948
 2531SOL    HW1 8492   4.199   1.139   5.899
 2531SOL    HW2 8493   4.145   1.086   6.044
 2532SOL     OW 8494   1.245   5.012   6.856
 2532SOL    HW1 8495   1.160   4.976   6.819
 2532SOL    HW2 8496   1.234   5.109   6.879
 2533SOL     OW 8497   5.722   6.691   5.920
 2533SOL    HW1 8498   5.802   6.633   5.930
 2533SOL    HW2 8499   5.672   6.695   6.006
 2534SOL     OW 8500   1.437   0.886   3.811
 2534SOL    HW1 8501   1.355   0.938   3.833
 2534SOL    HW2 8502   1.475   0.920   3.725
 2535SOL     OW 8503   2.126   1.057   3.922
 2535SOL    HW1 8504   2.218   1.054   3.961
 2535SOL    HW2 8505   2.109   0.975   3.868
 2536SOL     OW 8506   5.724   1.453   4.264
 2536SOL    HW1 8507   5.734   1.438   4.166
 2536SOL    HW2 8508   5.690   1.545   4.281
 2537SOL     OW 8509   5.267   5.647   1.451
 2537SOL    HW1 8510   5.182   5.684   1.490
 2537SOL    HW2 8511   5.339   5.649   1.520
 2538SOL     OW 8512   1.842   5.050   4.260
 2538SOL    HW1 8513   1.936   5.060   4.293
 2538SOL    HW2 8514   1.832   4.962   4.213
 2539SOL     OW 8515   3.923   0.026   5.448
 2539SOL    HW1 8516   3.853   0.096   5.463
 2539SOL    HW2 8517   4.011   0.070   5.433
 2540SOL     OW 8518   5.515   1.260   2.127
 2540SOL    HW1 8519   5.506   1.358   2.147
 2540SOL    HW2 8520   5.457   1.207   2.189
 2541SOL     OW 8521   1.512   6.236   6.166
 2541SOL    HW1 8522   1.531   6.186   6.250
 2541SOL    HW2 8523   1.574   6.206   6.093
 2542SOL     OW 8524   3.521   1.707   4.417
 2542SOL    HW1 8525   3.604   1.739   4.464
 2542SOL    HW2 8526   3.446   1.770   4.435
 2543SOL     OW 8527   1.023   1.346   3.139
 2543SOL    HW1 8528   0.929   1.315   3.155
 2543SOL    HW2 8529   1.042   1.426   3.195
 2544SOL     OW 8530   6.675   5.211   1.105
 2544SOL    HW1 8531   6.752   5.218   1.041
 2544SOL    HW2 8532   6.636   5.119   1.100
 2545SOL     OW 8533   0.621   1.810   1.484
 2545SOL    HW1 8534   0.574   1.786   1.569
 2545SOL    HW2 8535   0.651   1.727   1.437
 2546SOL     OW 8536   7.008   3.913   1.826
 2546SOL    HW1 8537   6.957   3.858   1.892
 2546SOL    HW2 8538   0.058   3.963   1.872
 2547SOL     OW 8539   5.539   3.916   0.780
 2547SOL    HW1 8540   5.460   3.933   0.839
 2547SOL    HW2 8541   5.507   3.886   0.690
 2548SOL     OW 8542   0.123   6.834   5.360
 2548SOL    HW1 8543   0.162   6.769   5.425
 2548SOL    HW2 8544   0.041   6.875   5.399
 2549SOL     OW 8545   2.640   1.896   0.871
 2549SOL    HW1 8546   2.580   1.918   0.795
 2549SOL    HW2 8547   2.627   1.800   0.897
 2550SOL     OW 8548   4.385   6.772   6.181
 2550SOL    HW1 8549   4.392   6.872   6.185
 2550SOL    HW2 8550   4.312   6.742   6.242
 2551SOL     OW 8551   2.933   5.332   6.816
 2551SOL    HW1 8552   2.923   5.245   6.769
 2551SOL    HW2 8553   3.026   5.341   6.850
 2552SOL     OW 8554   1.787   6.465   0.575
 2552SOL    HW1 8555   1.803   6.445   0.479
 2552SOL    HW2 8556   1.846   6.540   0.604
 2553SOL     OW 8557   4.300   1.661   6.758
 2553SOL    HW1 8558   4.203   1.650   6.780
 2553SOL    HW2 8559   4.313   1.747   6.708
 2554SOL     OW 8560   1.842   5.847   1.170
 2554SOL    HW1 8561   1.888   5.851   1.081
 2554SOL    HW2 8562   1.905   5.811   1.239
 2555SOL     OW 8563   6.103   6.130   5.149
 2555SOL    HW1 8564   6.157   6.062   5.101
 2555SOL    HW2 8565   6.133   6.222   5.122
 2556SOL     OW 8566   3.762   6.672   1.372
 2556SOL    HW1 8567   3.772   6.753   1.314
 2556SOL    HW2 8568   3.685   6.617   1.340
 2557SOL     OW 8569   3.793   0.387   0.158
 2557SOL    HW1 8570   3.838   0.342   0.235
 2557SOL    HW2 8571   3.811   0.485   0.161
 2558SOL     OW 8572   5.754   4.516   6.977
 2558SOL    HW1 8573   5.841   4.556   7.004
 2558SOL    HW2 8574   5.703   4.487   0.036
 2559SOL     OW 8575   0.893   3.499   3.865
 2559SOL    HW1 8576   0.901   3.406   3.901
 2559SOL    HW2 8577   0.820   3.548   3.914
 2560SOL     OW 8578   4.909   2.291   3.107
 2560SOL    HW1 8579   4.924   2.237   3.025
 2560SOL    HW2 8580   4.931   2.387   3.088
 2561SOL     OW 8581   3.581   0.581   4.207
 2561SOL    HW1 8582   3.636   0.630   4.140
 2561SOL    HW2 8583   3.526   0.646   4.260
 2562SOL     OW 8584   3.013   6.900   3.377
 2562SOL    HW1 8585   3.098   6.952   3.385
 2562SOL    HW2 8586   2.942   6.958   3.336
 2563SOL     OW 8587   2.768   1.342   0.155
 2563SOL    HW1 8588   2.847   1.327   0.096
 2563SOL    HW2 8589   2.793   1.403   0.230
 2564SOL     OW 8590   1.622   1.057   0.526
 2564SOL    HW1 8591   1.559   1.055   0.603
 2564SOL    HW2 8592   1.679   1.139   0.531
 2565SOL     OW 8593   1.138   2.130   6.561
 2565SOL    HW1 8594   1.156   2.034   6.540
 2565SOL    HW2 8595   1.188   2.156   6.643
 2566SOL     OW 8596   3.004   0.935   0.896
 2566SOL    HW1 8597   3.034   0.856   0.843
 2566SOL    HW2 8598   2.991   1.013   0.835
 2567SOL     OW 8599   1.754   0.130   6.805
 2567SOL    HW1 8600   1.720   0.189   6.878
 2567SOL    HW2 8601   1.678   0.098   6.750
 2568SOL     OW 8602   2.743   6.244   1.094
 2568SOL    HW1 8603   2.693   6.292   1.022
 2568SOL    HW2 8604   2.690   6.163   1.122
 2569SOL     OW 8605   1.185   1.172   0.783
 2569SOL    HW1 8606   1.102   1.144   0.832
 2569SOL    HW2 8607   1.190   1.272   0.782
 2570SOL     OW 8608   5.156   6.081   0.035
 2570SOL    HW1 8609   5.161   6.000   0.093
 2570SOL    HW2 8610   5.122   6.158   0.088
 2571SOL     OW 8611   4.078   3.635   4.411
 2571SOL    HW1 8612   4.079   3.538   4.389
 2571SOL    HW2 8613   4.101   3.688   4.329
 2572SOL     OW 8614   1.980   6.108   1.400
 2572SOL    HW1 8615   1.881   6.121   1.406
 2572SOL    HW2 8616   2.008   6.037   1.465
 2573SOL     OW 8617   6.750   2.328   3.910
 2573SOL    HW1 8618   6.719   2.374   3.827
 2573SOL    HW2 8619   6.753   2.229   3.895
 2574SOL     OW 8620   6.929   4.064   1.426
 2574SOL    HW1 8621   6.862   4.089   1.496
 2574SOL    HW2 8622   6.891   4.081   1.336
 2575SOL     OW 8623   5.810   3.870   0.720
 2575SOL    HW1 8624   5.833   3.784   0.675
 2575SOL    HW2 8625   5.711   3.882   0.722
 2576SOL     OW 8626   2.126   6.765   2.930
 2576SOL    HW1 8627   2.119   6.736   2.835
 2576SOL    HW2 8628   2.054   6.831   2.950
 2577SOL     OW 8629   2.586   6.772   2.984
 2577SOL    HW1 8630   2.634   6.727   3.060
 2577SOL    HW2 8631   2.529   6.846   3.020
 2578SOL     OW 8632   4.830   2.697   4.071
 2578SOL    HW1 8633   4.856   2.753   3.992
 2578SOL    HW2 8634   4.795   2.609   4.040
 2579SOL     OW 8635   0.656   2.319   6.760
 2579SOL    HW1 8636   0.731   2.326   6.694
 2579SOL    HW2 8637   0.680   2.252   6.830
 2580SOL     OW 8638   2.056   2.356   6.382
 2580SOL    HW1 8639   2.105   2.392   6.304
 2580SOL    HW2 8640   2.077   2.410   6.463
 2581SOL     OW 8641   5.443   5.699   2.246
 2581SOL    HW1 8642   5.476   5.649   2.326
 2581SOL    HW2 8643   5.500   5.677   2.167
 2582SOL     OW 8644   0.917   5.596   2.878
 2582SOL    HW1 8645   0.872   5.665   2.821
 2582SOL    HW2 8646   1.002   5.633   2.915
 2583SOL     OW 8647   0.826   0.059   0.791
 2583SOL    HW1 8648   0.771   7.016   0.739
 2583SOL    HW2 8649   0.860   0.015   0.874
 2584SOL     OW 8650   3.348   6.191   0.823
 2584SOL    HW1 8651   3.329   6.251   0.901
 2584SOL    HW2 8652   3.318   6.098   0.843
 2585SOL     OW 8653   2.853   0.200   1.009
 2585SOL    HW1 8654   2.761   0.237   1.016
 2585SOL    HW2 8655   2.849   0.107   0.973
 2586SOL     OW 8656   6.021   1.699   4.362
 2586SOL    HW1 8657   6.059   1.622   4.310
 2586SOL    HW2 8658   6.026   1.782   4.306
 2587SOL     OW 8659   6.096   6.565   4.355
 2587SOL    HW1 8660   6.021   6.588   4.418
 2587SOL    HW2 8661   6.064   6.496   4.290
 2588SOL     OW 8662   5.744   0.445   1.911
 2588SOL    HW1 8663   5.713   0.365   1.961
 2588SOL    HW2 8664   5.686   0.523   1.933
 2589SOL     OW 8665   6.179   6.970   5.690
 2589SOL    HW1 8666   6.095   6.976   5.744
 2589SOL    HW2 8667   6.226   6.884   5.712
 2590SOL     OW 8668   4.176   6.672   2.908
 2590SOL    HW1 8669   4.154   6.633   2.819
 2590SOL    HW2 8670   4.245   6.744   2.897
 2591SOL     OW 8671   5.289   6.193   1.638
 2591SOL    HW1 8672   5.305   6.283   1.677
 2591SOL    HW2 8673   5.196   6.163   1.659
 2592SOL     OW 8674   3.210   5.572   1.601
 2592SOL    HW1 8675   3.233   5.475   1.601
 2592SOL    HW2 8676   3.294   5.626   1.590
 2593SOL     OW 8677   3.894   6.260   2.853
 2593SOL    HW1 8678   3.916   6.297   2.943
 2593SOL    HW2 8679   3.947   6.177   2.837
 2594SOL     OW 8680   6.959   0.209   7.006
 2594SOL    HW1 8681   6.969   0.273   0.060
 2594SOL    HW2 8682   6.864   0.209   6.975
 2595SOL     OW 8683   6.469   3.559   4.775
 2595SOL    HW1 8684   6.556   3.582   4.819
 2595SOL    HW2 8685   6.441   3.634   4.715
 2596SOL     OW 8686   3.853   2.029   2.088
 2596SOL    HW1 8687   3.848   2.018   2.187
 2596SOL    HW2 8688   3.782   2.093   2.058
 2597SOL     OW 8689   2.870   3.207   1.448
 2597SOL    HW1 8690   2.908   3.197   1.540
 2597SOL    HW2 8691   2.817   3.292   1.444
 2598SOL     OW 8692   6.760   2.785   3.605
 2598SOL    HW1 8693   6.714   2.801   3.518
 2598SOL    HW2 8694   6.789   2.872   3.645
 2599SOL     OW 8695   4.127   5.694   0.144
 2599SOL    HW1 8696   4.110   5.793   0.143
 2599SOL    HW2 8697   4.217   5.677   0.184
 2600SOL     OW 8698   5.794   3.758   4.218
 2600SOL    HW1 8699   5.845   3.673   4.210
 2600SOL    HW2 8700   5.698   3.738   4.238
 2601SOL     OW 8701   3.396   3.409   6.053
 2601SOL    HW1 8702   3.494   3.408   6.072
 2601SOL    HW2 8703   3.345   3.407   6.139
 2602SOL     OW 8704   0.328   4.676   4.821
 2602SOL    HW1 8705   0.325   4.768   4.781
 2602SOL    HW2 8706   0.261   4.617   4.775
 2603SOL     OW 8707   2.317   2.316   0.964
 2603SOL    HW1 8708   2.295   2.334   1.060
 2603SOL    HW2 8709   2.394   2.254   0.958
 2604SOL     OW 8710   5.277   0.351   1.274
 2604SOL    HW1 8711   5.353   0.403   1.314
 2604SOL    HW2 8712   5.309   0.261   1.245
 2605SOL     OW 8713   4.123   4.774   3.961
 2605SOL    HW1 8714   4.215   4.759   3.926
 2605SOL    HW2 8715   4.118   4.742   4.055
 2606SOL     OW 8716   6.024   4.316   1.143
 2606SOL    HW1 8717   6.121   4.291   1.143
 2606SOL    HW2 8718   5.971   4.243   1.101
 2607SOL     OW 8719   1.335   0.815   2.849
 2607SOL    HW1 8720   1.357   0.841   2.943
 2607SOL    HW2 8721   1.359   0.719   2.834
 2608SOL     OW 8722   5.496   0.487   1.450
 2608SOL    HW1 8723   5.494   0.392   1.483
 2608SOL    HW2 8724   5.471   0.549   1.524
 2609SOL     OW 8725   0.622   1.864   2.811
 2609SOL    HW1 8726   0.629   1.921   2.893
 2609SOL    HW2 8727   0.548   1.899   2.753
 2610SOL     OW 8728   6.582   5.632   4.926
 2610SOL    HW1 8729   6.618   5.552   4.879
 2610SOL    HW2 8730   6.656   5.683   4.968
 2611SOL     OW 8731   5.132   6.543   1.273
 2611SOL    HW1 8732   5.098   6.611   1.338
 2611SOL    HW2 8733   5.207   6.582   1.220
 2612SOL     OW 8734   5.148   6.486   3.985
 2612SOL    HW1 8735   5.236   6.446   4.012
 2612SOL    HW2 8736   5.137   6.574   4.031
 2613SOL     OW 8737   3.545   0.254   2.154
 2613SOL    HW1 8738   3.557   0.265   2.055
 2613SOL    HW2 8739   3.589   0.330   2.201
 2614SOL     OW 8740   6.031   6.589   5.790
 2614SOL    HW1 8741   5.961   6.520   5.809
 2614SOL    HW2 8742   6.098   6.589   5.864
 2615SOL     OW 8743   5.464   5.655   2.970
 2615SOL    HW1 8744   5.443   5.591   2.896
 2615SOL    HW2 8745   5.553   5.697   2.953
 2616SOL     OW 8746   3.889   3.012   2.646
 2616SOL    HW1 8747   3.830   3.008   2.566
 2616SOL    HW2 8748   3.985   3.001   2.619
 2617SOL     OW 8749   3.945   5.506   0.792
 2617SOL    HW1 8750   3.971   5.518   0.696
 2617SOL    HW2 8751   3.989   5.578   0.847
 2618SOL     OW 8752   0.202   0.323   1.481
 2618SOL    HW1 8753   0.118   0.286   1.441
 2618SOL    HW2 8754   0.257   0.367   1.410
 2619SOL     OW 8755   4.140   1.672   2.080
 2619SOL    HW1 8756   4.053   1.717   2.100
 2619SOL    HW2 8757   4.190   1.725   2.012
 2620SOL     OW 8758   1.413   4.641   3.339
 2620SOL    HW1 8759   1.340   4.709   3.327
 2620SOL    HW2 8760   1.374   4.556   3.375
 2621SOL     OW 8761   0.617   5.861   3.818
 2621SOL    HW1 8762   0.680   5.839   3.744
 2621SOL    HW2 8763   0.657   5.931   3.877
 2622SOL     OW 8764   1.790   3.620   6.219
 2622SOL    HW1 8765   1.761   3.614   6.123
 2622SOL    HW2 8766   1.881   3.581   6.229
 2623SOL     OW 8767   3.544   1.461   4.595
 2623SOL    HW1 8768   3.518   1.522   4.520
 2623SOL    HW2 8769   3.525   1.366   4.568
 2624SOL     OW 8770   5.985   2.630   2.889
 2624SOL    HW1 8771   5.923   2.594   2.959
 2624SOL    HW2 8772   5.939   2.701   2.836
 2625SOL     OW 8773   2.511   2.850   5.624
 2625SOL    HW1 8774   2.510   2.827   5.721
 2625SOL    HW2 8775   2.430   2.812   5.580
 2626SOL     OW 8776   1.483   6.462   3.786
 2626SOL    HW1 8777   1.479   6.413   3.698
 2626SOL    HW2 8778   1.558   6.426   3.841
 2627SOL     OW 8779   0.322   0.610   4.476
 2627SOL    HW1 8780   0.377   0.641   4.554
 2627SOL    HW2 8781   0.286   0.690   4.428
 2628SOL     OW 8782   3.825   6.401   6.775
 2628SOL    HW1 8783   3.785   6.490   6.796
 2628SOL    HW2 8784   3.763   6.329   6.803
 2629SOL     OW 8785   3.680   4.263   1.423
 2629SOL    HW1 8786   3.581   4.259   1.413
 2629SOL    HW2 8787   3.723   4.212   1.348
 2630SOL     OW 8788   3.496   1.432   2.597
 2630SOL    HW1 8789   3.544   1.519   2.588
 2630SOL    HW2 8790   3.458   1.406   2.508
 2631SOL     OW 8791   4.811   6.770   4.529
 2631SOL    HW1 8792   4.899   6.752   4.485
 2631SOL    HW2 8793   4.808   6.726   4.619
 2632SOL     OW 8794   3.272   1.897   7.005
 2632SOL    HW1 8795   3.204   1.971   7.007
 2632SOL    HW2 8796   3.236   1.821   6.952
 2633SOL     OW 8797   6.038   2.461   6.829
 2633SOL    HW1 8798   6.032   2.459   6.729
 2633SOL    HW2 8799   6.134   2.456   6.856
 2634SOL     OW 8800   2.292   4.236   1.573
 2634SOL    HW1 8801   2.205   4.285   1.566
 2634SOL    HW2 8802   2.274   4.139   1.589
 2635SOL     OW 8803   5.573   5.739   4.479
 2635SOL    HW1 8804   5.538   5.822   4.436
 2635SOL    HW2 8805   5.507   5.665   4.466
 2636SOL     OW 8806   5.478   6.938   5.694
 2636SOL    HW1 8807   5.381   6.949   5.718
 2636SOL    HW2 8808   5.512   6.852   5.732
 2637SOL     OW 8809   5.586   6.953   3.620
 2637SOL    HW1 8810   5.613   6.858   3.638
 2637SOL    HW2 8811   5.629   6.985   3.536
 2638SOL     OW 8812   5.081   6.271   1.258
 2638SOL    HW1 8813   5.093   6.370   1.248
 2638SOL    HW2 8814   4.985   6.250   1.276
 2639SOL     OW 8815   5.800   6.824   1.863
 2639SOL    HW1 8816   5.772   6.809   1.768
 2639SOL    HW2 8817   5.892   6.862   1.865
 2640SOL     OW 8818   0.361   6.350   5.123
 2640SOL    HW1 8819   0.435   6.294   5.161
 2640SOL    HW2 8820   0.369   6.352   5.023
 2641SOL     OW 8821   5.017   3.833   7.008
 2641SOL    HW1 8822   4.952   3.756   7.011
 2641SOL    HW2 8823   5.108   3.801   0.012
 2642SOL     OW 8824   4.809   0.440   4.339
 2642SOL    HW1 8825   4.732   0.497   4.367
 2642SOL    HW2 8826   4.783   0.385   4.259
 2643SOL     OW 8827   0.320   6.289   3.110
 2643SOL    HW1 8828   0.352   6.208   3.061
 2643SOL    HW2 8829   0.223   6.304   3.088
 2644SOL     OW 8830   1.189   5.028   5.653
 2644SOL    HW1 8831   1.126   4.955   5.681
 2644SOL    HW2 8832   1.140   5.093   5.595
 2645SOL     OW 8833   5.191   6.482   5.805
 2645SOL    HW1 8834   5.233   6.481   5.895
 2645SOL    HW2 8835   5.263   6.483   5.735
 2646SOL     OW 8836   6.880   0.518   6.078
 2646SOL    HW1 8837   6.795   0.565   6.053
 2646SOL    HW2 8838   6.908   0.547   6.170
 2647SOL     OW 8839   5.023   1.432   0.892
 2647SOL    HW1 8840   5.054   1.372   0.819
 2647SOL    HW2 8841   4.925   1.449   0.883
 2648SOL     OW 8842   6.578   0.022   2.659
 2648SOL    HW1 8843   6.562   7.020   2.754
 2648SOL    HW2 8844   6.561   6.965   2.600
 2649SOL     OW 8845   3.468   1.191   5.956
 2649SOL    HW1 8846   3.549   1.138   5.933
 2649SOL    HW2 8847   3.399   1.180   5.884
 2650SOL     OW 8848   0.386   5.285   3.729
 2650SOL    HW1 8849   0.371   5.365   3.788
 2650SOL    HW2 8850   0.456   5.307   3.661
 2651SOL     OW 8851   0.313   1.215   1.524
 2651SOL    HW1 8852   0.244   1.255   1.464
 2651SOL    HW2 8853   0.352   1.287   1.582
 2652SOL     OW 8854   3.277   3.345   3.212
 2652SOL    HW1 8855   3.185   3.308   3.196
 2652SOL    HW2 8856   3.279   3.442   3.189
 2653SOL     OW 8857   5.593   6.679   6.175
 2653SOL    HW1 8858   5.656   6.642   6.243
 2653SOL    HW2 8859   5.549   6.761   6.211
 2654SOL     OW 8860   5.231   2.304   5.846
 2654SOL    HW1 8861   5.157   2.267   5.902
 2654SOL    HW2 8862   5.313   2.316   5.903
 2655SOL     OW 8863   4.083   6.353   4.554
 2655SOL    HW1 8864   4.169   6.388   4.517
 2655SOL    HW2 8865   4.010   6.420   4.538
 2656SOL     OW 8866   5.544   4.520   4.241
 2656SOL    HW1 8867   5.502   4.611   4.237
 2656SOL    HW2 8868   5.481   4.456   4.285
 2657SOL     OW 8869   1.941   4.498   6.933
 2657SOL    HW1 8870   2.040   4.510   6.925
 2657SOL    HW2 8871   1.909   4.433   6.865
 2658SOL     OW 8872   6.207   4.339   6.172
 2658SOL    HW1 8873   6.256   4.425   6.182
 2658SOL    HW2 8874   6.179   4.327   6.077
 2659SOL     OW 8875   6.636   2.382   4.796
 2659SOL    HW1 8876   6.621   2.330   4.712
 2659SOL    HW2 8877   6.552   2.382   4.851
 2660SOL     OW 8878   6.333   2.610   2.126
 2660SOL    HW1 8879   6.407   2.591   2.062
 2660SOL    HW2 8880   6.346   2.701   2.166
 2661SOL     OW 8881   3.275   5.643   1.322
 2661SOL    HW1 8882   3.184   5.667   1.358
 2661SOL    HW2 8883   3.269   5.632   1.223
 2662SOL     OW 8884   4.572   6.279   4.763
 2662SOL    HW1 8885   4.660   6.263   4.808
 2662SOL    HW2 8886   4.585   6.282   4.664
 2663SOL     OW 8887   1.913   4.958   1.362
 2663SOL    HW1 8888   1.835   5.014   1.391
 2663SOL    HW2 8889   1.912   4.871   1.411
 2664SOL     OW 8890   3.768   3.992   2.961
 2664SOL    HW1 8891   3.751   4.030   2.870
 2664SOL    HW2 8892   3.746   4.061   3.030
 2665SOL     OW 8893   3.578   1.836   4.865
 2665SOL    HW1 8894   3.591   1.934   4.876
 2665SOL    HW2 8895   3.640   1.802   4.794
 2666SOL     OW 8896   4.825   4.585   0.934
 2666SOL    HW1 8897   4.908   4.634   0.961
 2666SOL    HW2 8898   4.831   4.562   0.836
 2667SOL     OW 8899   1.905   6.129   5.534
 2667SOL    HW1 8900   1.812   6.114   5.568
 2667SOL    HW2 8901   1.944   6.041   5.505
 2668SOL     OW 8902   6.904   3.429   4.611
 2668SOL    HW1 8903   6.902   3.368   4.689
 2668SOL    HW2 8904   6.984   3.408   4.554
 2669SOL     OW 8905   3.920   5.143   5.525
 2669SOL    HW1 8906   3.988   5.215   5.533
 2669SOL    HW2 8907   3.840   5.166   5.582
 2670SOL     OW 8908   0.208   0.886   6.867
 2670SOL    HW1 8909   0.134   0.919   6.807
 2670SOL    HW2 8910   0.251   0.806   6.826
 2671SOL     OW 8911   2.565   4.122   6.581
 2671SOL    HW1 8912   2.659   4.125   6.613
 2671SOL    HW2 8913   2.563   4.135   6.482
 2672SOL     OW 8914   1.799   5.503   0.312
 2672SOL    HW1 8915   1.836   5.533   0.224
 2672SOL    HW2 8916   1.855   5.428   0.347
 2673SOL     OW 8917   4.280   2.230   3.116
 2673SOL    HW1 8918   4.195   2.197   3.074
 2673SOL    HW2 8919   4.266   2.244   3.214
 2674SOL     OW 8920   1.037   4.913   4.663
 2674SOL    HW1 8921   1.020   4.976   4.587
 2674SOL    HW2 8922   0.963   4.845   4.666
 2675SOL     OW 8923   0.302   4.239   5.819
 2675SOL    HW1 8924   0.278   4.145   5.840
 2675SOL    HW2 8925   0.402   4.250   5.824
 2676SOL     OW 8926   5.144   1.757   2.765
 2676SOL    HW1 8927   5.194   1.837   2.731
 2676SOL    HW2 8928   5.203   1.676   2.760
 2677SOL     OW 8929   1.821   4.642   1.855
 2677SOL    HW1 8930   1.727   4.650   1.889
 2677SOL    HW2 8931   1.854   4.549   1.866
 2678SOL     OW 8932   1.468   4.964   6.708
 2678SOL    HW1 8933   1.389   4.981   6.766
 2678SOL    HW2 8934   1.437   4.932   6.618
 2679SOL     OW 8935   3.629   5.198   0.931
 2679SOL    HW1 8936   3.676   5.194   1.019
 2679SOL    HW2 8937   3.530   5.188   0.945
 2680SOL     OW 8938   1.667   1.883   0.484
 2680SOL    HW1 8939   1.717   1.819   0.542
 2680SOL    HW2 8940   1.625   1.833   0.408
 2681SOL     OW 8941   1.363   3.146   4.089
 2681SOL    HW1 8942   1.411   3.226   4.054
 2681SOL    HW2 8943   1.273   3.173   4.125
 2682SOL     OW 8944   5.619   2.815   2.174
 2682SOL    HW1 8945   5.547   2.775   2.230
 2682SOL    HW2 8946   5.636   2.757   2.095
 2683SOL     OW 8947   0.443   4.894   1.032
 2683SOL    HW1 8948   0.437   4.796   1.047
 2683SOL    HW2 8949   0.472   4.939   1.117
 2684SOL     OW 8950   4.311   6.411   2.666
 2684SOL    HW1 8951   4.289   6.378   2.575
 2684SOL    HW2 8952   4.265   6.354   2.734
 2685SOL     OW 8953   5.336   6.507   4.585
 2685SOL    HW1 8954   5.252   6.493   4.637
 2685SOL    HW2 8955   5.411   6.456   4.627
 2686SOL     OW 8956   2.365   2.275   4.141
 2686SOL    HW1 8957   2.404   2.184   4.129
 2686SOL    HW2 8958   2.339   2.312   4.051
 2687SOL     OW 8959   3.934   4.833   2.511
 2687SOL    HW1 8960   3.994   4.823   2.590
 2687SOL    HW2 8961   3.845   4.869   2.541
 2688SOL     OW 8962   4.121   5.190   5.968
 2688SOL    HW1 8963   4.193   5.258   5.954
 2688SOL    HW2 8964   4.115   5.131   5.888
 2689SOL     OW 8965   1.424   1.920   3.576
 2689SOL    HW1 8966   1.421   1.825   3.607
 2689SOL    HW2 8967   1.487   1.972   3.634
 2690SOL     OW 8968   3.910   3.152   3.731
 2690SOL    HW1 8969   3.839   3.135   3.799
 2690SOL    HW2 8970   3.887   3.233   3.677
 2691SOL     OW 8971   1.421   5.670   2.215
 2691SOL    HW1 8972   1.346   5.632   2.271
 2691SOL    HW2 8973   1.473   5.735   2.270
 2692SOL     OW 8974   6.849   5.164   3.822
 2692SOL    HW1 8975   6.786   5.150   3.747
 2692SOL    HW2 8976   6.943   5.171   3.787
 2693SOL     OW 8977   1.996   3.763   3.688
 2693SOL    HW1 8978   2.057   3.727   3.759
 2693SOL    HW2 8979   2.047   3.829   3.632
 2694SOL     OW 8980   2.862   0.124   2.854
 2694SOL    HW1 8981   2.955   0.100   2.883
 2694SOL    HW2 8982   2.865   0.207   2.797
 2695SOL     OW 8983   4.706   2.354   2.193
 2695SOL    HW1 8984   4.625   2.402   2.227
 2695SOL    HW2 8985   4.680   2.261   2.166
 2696SOL     OW 8986   3.759   3.631   5.673
 2696SOL    HW1 8987   3.766   3.724   5.708
 2696SOL    HW2 8988   3.684   3.626   5.606
 2697SOL     OW 8989   4.186   2.184   3.657
 2697SOL    HW1 8990   4.275   2.197   3.700
 2697SOL    HW2 8991   4.114   2.212   3.721
 2698SOL     OW 8992   1.089   4.640   1.307
 2698SOL    HW1 8993   1.088   4.673   1.213
 2698SOL    HW2 8994   1.138   4.553   1.312
 2699SOL     OW 8995   3.774   5.312   0.715
 2699SOL    HW1 8996   3.737   5.254   0.787
 2699SOL    HW2 8997   3.834   5.382   0.755
 2700SOL     OW 8998   2.044   3.378   2.706
 2700SOL    HW1 8999   2.100   3.297   2.722
 2700SOL    HW2 9000   2.084   3.456   2.754
 2701SOL     OW 9001   3.396   0.327   6.888
 2701SOL    HW1 9002   3.330   0.264   6.929
 2701SOL    HW2 9003   3.461   0.357   6.958
 2702SOL     OW 9004   6.721   1.445   3.083
 2702SOL    HW1 9005   6.742   1.477   3.176
 2702SOL    HW2 9006   6.716   1.345   3.083
 2703SOL     OW 9007   2.688   1.676   2.483
 2703SOL    HW1 9008   2.653   1.713   2.569
 2703SOL    HW2 9009   2.681   1.746   2.412
 2704SOL     OW 9010   2.258   5.611   2.105
 2704SOL    HW1 9011   2.158   5.605   2.098
 2704SOL    HW2 9012   2.282   5.660   2.189
 2705SOL     OW 9013   6.759   5.796   3.677
 2705SOL    HW1 9014   6.696   5.832   3.746
 2705SOL    HW2 9015   6.812   5.721   3.716
 2706SOL     OW 9016   6.861   1.391   1.932
 2706SOL    HW1 9017   6.951   1.355   1.911
 2706SOL    HW2 9018   6.799   1.316   1.956
 2707SOL     OW 9019   2.083   1.782   6.866
 2707SOL    HW1 9020   2.134   1.824   6.790
 2707SOL    HW2 9021   2.017   1.848   6.901
 2708SOL     OW 9022   2.256   2.862   1.811
 2708SOL    HW1 9023   2.300   2.795   1.870
 2708SOL    HW2 9024   2.203   2.925   1.867
 2709SOL     OW 9025   4.966   6.024   1.528
 2709SOL    HW1 9026   4.917   6.083   1.463
 2709SOL    HW2 9027   5.021   5.957   1.478
 2710SOL     OW 9028   7.007   3.640   2.764
 2710SOL    HW1 9029   0.052   3.581   2.719
 2710SOL    HW2 9030   6.951   3.686   2.695
 2711SOL     OW 9031   1.506   7.017   2.167
 2711SOL    HW1 9032   1.593   7.009   2.215
 2711SOL    HW2 9033   1.512   0.068   2.100
 2712SOL     OW 9034   2.753   4.870   0.459
 2712SOL    HW1 9035   2.683   4.819   0.509
 2712SOL    HW2 9036   2.806   4.807   0.403
 2713SOL     OW 9037   2.187   3.091   4.851
 2713SOL    HW1 9038   2.255   3.064   4.919
 2713SOL    HW2 9039   2.097   3.060   4.881
 2714SOL     OW 9040   5.689   1.761   6.058
 2714SOL    HW1 9041   5.648   1.810   6.135
 2714SOL    HW2 9042   5.784   1.741   6.078
 2715SOL     OW 9043   5.698   0.888   0.213
 2715SOL    HW1 9044   5.787   0.919   0.247
 2715SOL    HW2 9045   5.662   0.955   0.149
 2716SOL     OW 9046   6.654   5.304   1.668
 2716SOL    HW1 9047   6.614   5.387   1.627
 2716SOL    HW2 9048   6.609   5.224   1.629
 2717SOL     OW 9049   0.747   6.377   2.208
 2717SOL    HW1 9050   0.781   6.291   2.246
 2717SOL    HW2 9051   0.767   6.452   2.271
 2718SOL     OW 9052   1.723   3.667   4.259
 2718SOL    HW1 9053   1.795   3.600   4.277
 2718SOL    HW2 9054   1.741   3.750   4.312
 2719SOL     OW 9055   4.370   5.017   2.435
 2719SOL    HW1 9056   4.396   5.075   2.357
 2719SOL    HW2 9057   4.451   4.974   2.472
 2720SOL     OW 9058   1.853   6.140   3.963
 2720SOL    HW1 9059   1.832   6.066   4.026
 2720SOL    HW2 9060   1.929   6.194   3.999
 2721SOL     OW 9061   2.676   0.084   4.374
 2721SOL    HW1 9062   2.610   0.043   4.436
 2721SOL    HW2 9063   2.768   0.071   4.411
 2722SOL     OW 9064   0.673   5.406   3.245
 2722SOL    HW1 9065   0.735   5.435   3.317
 2722SOL    HW2 9066   0.609   5.338   3.282
 2723SOL     OW 9067   2.254   1.474   5.268
 2723SOL    HW1 9068   2.316   1.548   5.243
 2723SOL    HW2 9069   2.306   1.403   5.317
 2724SOL     OW 9070   3.549   5.203   6.317
 2724SOL    HW1 9071   3.510   5.259   6.243
 2724SOL    HW2 9072   3.518   5.108   6.307
 2725SOL     OW 9073   4.767   4.526   3.210
 2725SOL    HW1 9074   4.840   4.466   3.241
 2725SOL    HW2 9075   4.698   4.535   3.282
 2726SOL     OW 9076   5.126   4.488   1.868
 2726SOL    HW1 9077   5.033   4.517   1.842
 2726SOL    HW2 9078   5.186   4.568   1.869
 2727SOL     OW 9079   0.815   5.152   2.820
 2727SOL    HW1 9080   0.778   5.061   2.838
 2727SOL    HW2 9081   0.788   5.213   2.894
 2728SOL     OW 9082   3.173   0.043   5.025
 2728SOL    HW1 9083   3.189   7.022   4.936
 2728SOL    HW2 9084   3.194   7.000   5.098
 2729SOL     OW 9085   6.648   5.275   3.355
 2729SOL    HW1 9086   6.647   5.345   3.426
 2729SOL    HW2 9087   6.703   5.306   3.278
 2730SOL     OW 9088   2.478   6.979   0.126
 2730SOL    HW1 9089   2.481   0.033   0.061
 2730SOL    HW2 9090   2.529   6.902   0.088
 2731SOL     OW 9091   2.853   3.824   1.667
 2731SOL    HW1 9092   2.947   3.836   1.698
 2731SOL    HW2 9093   2.816   3.913   1.638
 2732SOL     OW 9094   5.953   3.124   2.466
 2732SOL    HW1 9095   5.866   3.170   2.485
 2732SOL    HW2 9096   6.028   3.190   2.471
 2733SOL     OW 9097   0.772   6.838   5.678
 2733SOL    HW1 9098   0.695   6.799   5.626
 2733SOL    HW2 9099   0.772   6.937   5.668
 2734SOL     OW 9100   1.846   6.909   3.791
 2734SOL    HW1 9101   1.837   7.008   3.803
 2734SOL    HW2 9102   1.787   6.862   3.857
 2735SOL     OW 9103   1.213   4.002   2.871
 2735SOL    HW1 9104   1.181   4.089   2.910
 2735SOL    HW2 9105   1.156   3.978   2.793
 2736SOL     OW 9106   4.758   0.646   5.685
 2736SOL    HW1 9107   4.698   0.660   5.763
 2736SOL    HW2 9108   4.765   0.730   5.632
 2737SOL     OW 9109   3.781   3.536   6.367
 2737SOL    HW1 9110   3.819   3.484   6.443
 2737SOL    HW2 9111   3.855   3.580   6.317
 2738SOL     OW 9112   4.948   5.285   3.912
 2738SOL    HW1 9113   4.867   5.228   3.922
 2738SOL    HW2 9114   5.028   5.236   3.947
 2739SOL     OW 9115   5.516   4.534   0.839
 2739SOL    HW1 9116   5.475   4.446   0.863
 2739SOL    HW2 9117   5.602   4.545   0.890
 2740SOL     OW 9118   6.205   2.147   2.474
 2740SOL    HW1 9119   6.270   2.115   2.543
 2740SOL    HW2 9120   6.178   2.072   2.415
 2741SOL     OW 9121   6.964   2.214   5.711
 2741SOL    HW1 9122   7.009   2.209   5.622
 2741SOL    HW2 9123   6.951   2.122   5.748
 2742SOL     OW 9124   1.642   5.480   6.406
 2742SOL    HW1 9125   1.613   5.412   6.474
 2742SOL    HW2 9126   1.622   5.446   6.314
 2743SOL     OW 9127   5.186   5.129   1.581
 2743SOL    HW1 9128   5.146   5.042   1.554
 2743SOL    HW2 9129   5.238   5.117   1.666
 2744SOL     OW 9130   4.120   2.174   6.551
 2744SOL    HW1 9131   4.157   2.217   6.468
 2744SOL    HW2 9132   4.155   2.080   6.557
 2745SOL     OW 9133   1.963   6.532   0.906
 2745SOL    HW1 9134   1.991   6.548   1.001
 2745SOL    HW2 9135   1.903   6.452   0.902
 2746SOL     OW 9136   1.904   2.568   4.948
 2746SOL    HW1 9137   1.875   2.625   5.025
 2746SOL    HW2 9138   1.847   2.587   4.868
 2747SOL     OW 9139   6.209   5.529   4.697
 2747SOL    HW1 9140   6.255   5.595   4.638
 2747SOL    HW2 9141   6.191   5.445   4.645
 2748SOL     OW 9142   3.935   1.481   3.533
 2748SOL    HW1 9143   4.023   1.436   3.521
 2748SOL    HW2 9144   3.897   1.457   3.622
 2749SOL     OW 9145   5.133   4.559   4.041
 2749SOL    HW1 9146   5.051   4.516   4.079
 2749SOL    HW2 9147   5.112   4.654   4.017
 2750SOL     OW 9148   0.559   5.955   2.141
 2750SOL    HW1 9149   0.581   5.922   2.050
 2750SOL    HW2 9150   0.643   5.965   2.195
 2751SOL     OW 9151   1.952   0.137   0.301
 2751SOL    HW1 9152   2.003   0.223   0.292
 2751SOL    HW2 9153   1.854   0.155   0.293
 2752SOL     OW 9154   5.583   6.358   5.060
 2752SOL    HW1 9155   5.667   6.410   5.042
 2752SOL    HW2 9156   5.569   6.352   5.158
 2753SOL     OW 9157   3.630   6.175   6.471
 2753SOL    HW1 9158   3.704   6.205   6.412
 2753SOL    HW2 9159   3.650   6.084   6.507
 2754SOL     OW 9160   0.546   0.156   4.360
 2754SOL    HW1 9161   0.469   0.176   4.421
 2754SOL    HW2 9162   0.630   0.191   4.401
 2755SOL     OW 9163   3.241   6.331   2.378
 2755SOL    HW1 9164   3.228   6.429   2.393
 2755SOL    HW2 9165   3.196   6.280   2.451
 2756SOL     OW 9166   5.507   3.524   4.991
 2756SOL    HW1 9167   5.408   3.520   4.979
 2756SOL    HW2 9168   5.538   3.441   5.038
 2757SOL     OW 9169   4.637   1.774   6.963
 2757SOL    HW1 9170   4.677   1.703   7.020
 2757SOL    HW2 9171   4.647   1.749   6.866
 2758SOL     OW 9172   5.435   5.051   3.164
 2758SOL    HW1 9173   5.356   5.091   3.211
 2758SOL    HW2 9174   5.515   5.057   3.224
 2759SOL     OW 9175   3.490   4.370   6.324
 2759SOL    HW1 9176   3.492   4.470   6.316
 2759SOL    HW2 9177   3.479   4.330   6.233
 2760SOL     OW 9178   5.589   6.114   3.647
 2760SOL    HW1 9179   5.585   6.038   3.582
 2760SOL    HW2 9180   5.571   6.200   3.598
 2761SOL     OW 9181   1.956   3.967   2.685
 2761SOL    HW1 9182   1.888   3.900   2.712
 2761SOL    HW2 9183   1.926   4.058   2.715
 2762SOL     OW 9184   1.684   2.306   6.828
 2762SOL    HW1 9185   1.760   2.370   6.823
 2762SOL    HW2 9186   1.666   2.283   6.923
 2763SOL     OW 9187   4.785   1.363   5.637
 2763SOL    HW1 9188   4.833   1.435   5.588
 2763SOL    HW2 9189   4.705   1.401   5.683
 2764SOL     OW 9190   0.699   4.038   1.720
 2764SOL    HW1 9191   0.683   4.096   1.640
 2764SOL    HW2 9192   0.797   4.027   1.734
 2765SOL     OW 9193   6.015   6.775   7.000
 2765SOL    HW1 9194   5.950   6.813   0.044
 2765SOL    HW2 9195   5.971   6.701   6.949
 2766SOL     OW 9196   5.063   1.307   6.756
 2766SOL    HW1 9197   4.985   1.286   6.815
 2766SOL    HW2 9198   5.052   1.260   6.669
 2767SOL     OW 9199   5.716   5.049   6.314
 2767SOL    HW1 9200   5.684   5.140   6.340
 2767SOL    HW2 9201   5.814   5.053   6.294
 2768SOL     OW 9202   4.304   0.496   1.086
 2768SOL    HW1 9203   4.361   0.564   1.041
 2768SOL    HW2 9204   4.290   0.523   1.181
 2769SOL     OW 9205   1.578   4.121   5.681
 2769SOL    HW1 9206   1.535   4.184   5.616
 2769SOL    HW2 9207   1.619   4.045   5.632
 2770SOL     OW 9208   2.785   6.784   6.634
 2770SOL    HW1 9209   2.788   6.798   6.536
 2770SOL    HW2 9210   2.790   6.872   6.681
 2771SOL     OW 9211   4.494   0.226   5.330
 2771SOL    HW1 9212   4.446   0.139   5.332
 2771SOL    HW2 9213   4.571   0.224   5.393
 2772SOL     OW 9214   4.002   0.516   2.768
 2772SOL    HW1 9215   4.059   0.548   2.844
 2772SOL    HW2 9216   4.060   0.489   2.692
 2773SOL     OW 9217   6.722   2.995   4.352
 2773SOL    HW1 9218   6.810   3.039   4.335
 2773SOL    HW2 9219   6.659   3.019   4.278
 2774SOL     OW 9220   5.039   1.760   3.355
 2774SOL    HW1 9221   5.000   1.853   3.356
 2774SOL    HW2 9222   4.966   1.694   3.339
 2775SOL     OW 9223   0.257   4.055   4.938
 2775SOL    HW1 9224   0.338   4.113   4.948
 2775SOL    HW2 9225   0.245   4.001   5.021
 2776SOL     OW 9226   4.950   5.045   6.075
 2776SOL    HW1 9227   4.872   4.984   6.066
 2776SOL    HW2 9228   5.035   4.995   6.057
 2777SOL     OW 9229   3.188   2.358   5.873
 2777SOL    HW1 9230   3.257   2.291   5.901
 2777SOL    HW2 9231   3.174   2.353   5.774
 2778SOL     OW 9232   2.470   6.131   6.456
 2778SOL    HW1 9233   2.386   6.136   6.510
 2778SOL    HW2 9234   2.506   6.038   6.457
 2779SOL     OW 9235   6.034   5.950   2.449
 2779SOL    HW1 9236   6.035   6.025   2.384
 2779SOL    HW2 9237   6.114   5.957   2.509
 2780SOL     OW 9238   0.216   1.101   6.160
 2780SOL    HW1 9239   0.299   1.088   6.107
 2780SOL    HW2 9240   0.213   1.195   6.195
 2781SOL     OW 9241   6.745   0.432   2.583
 2781SOL    HW1 9242   6.733   0.406   2.679
 2781SOL    HW2 9243   6.657   0.460   2.545
 2782SOL     OW 9244   4.304   1.204   6.697
 2782SOL    HW1 9245   4.233   1.199   6.626
 2782SOL    HW2 9246   4.262   1.221   6.786
 2783SOL     OW 9247   5.591   3.368   1.884
 2783SOL    HW1 9248   5.664   3.436   1.888
 2783SOL    HW2 9249   5.620   3.286   1.933
 2784SOL     OW 9250   1.935   1.849   0.891
 2784SOL    HW1 9251   1.937   1.771   0.954
 2784SOL    HW2 9252   2.019   1.901   0.900
 2785SOL     OW 9253   5.553   2.885   1.766
 2785SOL    HW1 9254   5.647   2.901   1.796
 2785SOL    HW2 9255   5.540   2.789   1.743
 2786SOL     OW 9256   6.841   5.588   0.129
 2786SOL    HW1 9257   6.893   5.673   0.139
 2786SOL    HW2 9258   6.904   5.512   0.114
 2787SOL     OW 9259   6.033   5.372   5.886
 2787SOL    HW1 9260   6.083   5.351   5.802
 2787SOL    HW2 9261   6.097   5.376   5.963
 2788SOL     OW 9262   3.545   6.254   5.383
 2788SOL    HW1 9263   3.521   6.159   5.405
 2788SOL    HW2 9264   3.490   6.285   5.306
 2789SOL     OW 9265   0.088   2.439   4.642
 2789SOL    HW1 9266   0.021   2.461   4.572
 2789SOL    HW2 9267   0.049   2.459   4.732
 2790SOL     OW 9268   2.258   5.652   0.413
 2790SOL    HW1 9269   2.330   5.716   0.385
 2790SOL    HW2 9270   2.204   5.693   0.486
 2791SOL     OW 9271   6.729   3.452   3.041
 2791SOL    HW1 9272   6.629   3.457   3.031
 2791SOL    HW2 9273   6.752   3.375   3.100
 2792SOL     OW 9274   3.351   1.358   5.155
 2792SOL    HW1 9275   3.426   1.393   5.211
 2792SOL    HW2 9276   3.386   1.327   5.066
 2793SOL     OW 9277   3.562   4.681   1.044
 2793SOL    HW1 9278   3.600   4.630   1.121
 2793SOL    HW2 9279   3.629   4.686   0.971
 2794SOL     OW 9280   0.084   1.521   6.047
 2794SOL    HW1 9281   0.132   1.462   6.112
 2794SOL    HW2 9282   7.008   1.515   6.063
 2795SOL     OW 9283   0.882   4.611   1.612
 2795SOL    HW1 9284   0.976   4.622   1.646
 2795SOL    HW2 9285   0.838   4.701   1.607
 2796SOL     OW 9286   0.823   5.852   5.793
 2796SOL    HW1 9287   0.900   5.910   5.766
 2796SOL    HW2 9288   0.829   5.830   5.890
 2797SOL     OW 9289   5.111   6.734   4.362
 2797SOL    HW1 9290   5.081   6.829   4.372
 2797SOL    HW2 9291   5.101   6.706   4.266
 2798SOL     OW 9292   6.105   6.441   2.201
 2798SOL    HW1 9293   6.061   6.506   2.138
 2798SOL    HW2 9294   6.201   6.432   2.177
 2799SOL     OW 9295   3.843   6.356   4.757
 2799SOL    HW1 9296   3.934   6.334   4.792
 2799SOL    HW2 9297   3.845   6.446   4.713
 2800SOL     OW 9298   6.221   0.758   6.696
 2800SOL    HW1 9299   6.213   0.857   6.698
 2800SOL    HW2 9300   6.288   0.731   6.626
 2801SOL     OW 9301   0.585   5.102   5.709
 2801SOL    HW1 9302   0.615   5.013   5.746
 2801SOL    HW2 9303   0.652   5.135   5.644
 2802SOL     OW 9304   6.469   6.034   5.214
 2802SOL    HW1 9305   6.393   6.015   5.151
 2802SOL    HW2 9306   6.437   6.029   5.308
 2803SOL     OW 9307   3.224   3.319   6.276
 2803SOL    HW1 9308   3.127   3.324   6.300
 2803SOL    HW2 9309   3.269   3.253   6.336
 2804SOL     OW 9310   0.520   2.895   4.278
 2804SOL    HW1 9311   0.530   2.842   4.193
 2804SOL    HW2 9312   0.557   2.842   4.354
 2805SOL     OW 9313   4.391   3.676   1.560
 2805SOL    HW1 9314   4.333   3.599   1.585
 2805SOL    HW2 9315   4.333   3.755   1.539
 2806SOL     OW 9316   0.817   4.639   5.811
 2806SOL    HW1 9317   0.891   4.642   5.878
 2806SOL    HW2 9318   0.768   4.726   5.811
 2807SOL     OW 9319   2.846   0.169   3.166
 2807SOL    HW1 9320   2.810   0.078   3.186
 2807SOL    HW2 9321   2.872   0.174   3.069
 2808SOL     OW 9322   5.959   5.537   0.495
 2808SOL    HW1 9323   5.995   5.623   0.530
 2808SOL    HW2 9324   5.865   5.550   0.464
 2809SOL     OW 9325   6.334   4.720   2.312
 2809SOL    HW1 9326   6.312   4.808   2.354
 2809SOL    HW2 9327   6.294   4.717   2.220
 2810SOL     OW 9328   2.547   5.390   3.723
 2810SOL    HW1 9329   2.551   5.294   3.752
 2810SOL    HW2 9330   2.552   5.394   3.623
 2811SOL     OW 9331   0.835   0.177   2.418
 2811SOL    HW1 9332   0.758   0.226   2.458
 2811SOL    HW2 9333   0.828   0.179   2.318
 2812SOL     OW 9334   0.557   3.373   0.987
 2812SOL    HW1 9335   0.480   3.409   1.040
 2812SOL    HW2 9336   0.523   3.336   0.900
 2813SOL     OW 9337   0.683   2.081   1.465
 2813SOL    HW1 9338   0.680   1.981   1.457
 2813SOL    HW2 9339   0.605   2.121   1.417
 2814SOL     OW 9340   1.891   3.785   0.403
 2814SOL    HW1 9341   1.932   3.862   0.355
 2814SOL    HW2 9342   1.850   3.816   0.488
 2815SOL     OW 9343   0.434   5.737   4.982
 2815SOL    HW1 9344   0.368   5.804   4.951
 2815SOL    HW2 9345   0.486   5.702   4.904
 2816SOL     OW 9346   0.234   6.208   5.661
 2816SOL    HW1 9347   0.235   6.299   5.620
 2816SOL    HW2 9348   0.216   6.139   5.590
 2817SOL     OW 9349   3.674   0.811   1.993
 2817SOL    HW1 9350   3.772   0.827   2.007
 2817SOL    HW2 9351   3.650   0.719   2.024
 2818SOL     OW 9352   1.440   0.774   1.411
 2818SOL    HW1 9353   1.381   0.693   1.406
 2818SOL    HW2 9354   1.491   0.783   1.325
 2819SOL     OW 9355   0.489   0.189   0.993
 2819SOL    HW1 9356   0.406   0.214   0.943
 2819SOL    HW2 9357   0.568   0.234   0.950
 2820SOL     OW 9358   1.558   2.502   1.586
 2820SOL    HW1 9359   1.492   2.572   1.610
 2820SOL    HW2 9360   1.514   2.432   1.529
 2821SOL     OW 9361   3.279   4.491   6.587
 2821SOL    HW1 9362   3.238   4.549   6.516
 2821SOL    HW2 9363   3.379   4.504   6.586
 2822SOL     OW 9364   4.474   2.596   0.648
 2822SOL    HW1 9365   4.513   2.506   0.665
 2822SOL    HW2 9366   4.427   2.596   0.560
 2823SOL     OW 9367   4.836   1.992   0.564
 2823SOL    HW1 9368   4.875   1.939   0.488
 2823SOL    HW2 9369   4.837   2.089   0.540
 2824SOL     OW 9370   1.066   3.724   5.293
 2824SOL    HW1 9371   1.024   3.797   5.347
 2824SOL    HW2 9372   1.142   3.683   5.345
 2825SOL     OW 9373   5.342   1.389   6.395
 2825SOL    HW1 9374   5.275   1.344   6.454
 2825SOL    HW2 9375   5.321   1.487   6.389
 2826SOL     OW 9376   1.468   4.138   6.576
 2826SOL    HW1 9377   1.454   4.060   6.636
 2826SOL    HW2 9378   1.565   4.144   6.550
 2827SOL     OW 9379   0.018   0.707   6.399
 2827SOL    HW1 9380   6.941   0.702   6.389
 2827SOL    HW2 9381   0.061   0.647   6.331
 2828SOL     OW 9382   1.468   4.041   0.851
 2828SOL    HW1 9383   1.437   4.131   0.881
 2828SOL    HW2 9384   1.391   3.991   0.811
 2829SOL     OW 9385   3.639   4.089   3.227
 2829SOL    HW1 9386   3.579   4.010   3.215
 2829SOL    HW2 9387   3.697   4.075   3.308
 2830SOL     OW 9388   3.481   5.443   5.831
 2830SOL    HW1 9389   3.473   5.421   5.734
 2830SOL    HW2 9390   3.484   5.543   5.842
 2831SOL     OW 9391   6.465   1.960   1.652
 2831SOL    HW1 9392   6.399   1.906   1.600
 2831SOL    HW2 9393   6.441   1.959   1.749
 2832SOL     OW 9394   0.516   3.118   1.140
 2832SOL    HW1 9395   0.420   3.090   1.146
 2832SOL    HW2 9396   0.524   3.213   1.172
 2833SOL     OW 9397   2.030   2.080   1.718
 2833SOL    HW1 9398   2.126   2.101   1.698
 2833SOL    HW2 9399   2.002   2.001   1.664
 2834SOL     OW 9400   4.335   6.170   4.850
 2834SOL    HW1 9401   4.385   6.088   4.822
 2834SOL    HW2 9402   4.391   6.251   4.837
 2835SOL     OW 9403   0.910   6.740   0.531
 2835SOL    HW1 9404   0.844   6.706   0.599
 2835SOL    HW2 9405   0.862   6.769   0.449
 2836SOL     OW 9406   3.650   5.852   3.757
 2836SOL    HW1 9407   3.579   5.784   3.777
 2836SOL    HW2 9408   3.727   5.839   3.820
 2837SOL     OW 9409   5.245   3.934   2.246
 2837SOL    HW1 9410   5.242   3.861   2.179
 2837SOL    HW2 9411   5.164   3.993   2.235
 2838SOL     OW 9412   4.860   3.721   6.147
 2838SOL    HW1 9413   4.891   3.787   6.079
 2838SOL    HW2 9414   4.933   3.654   6.165
 2839SOL     OW 9415   5.935   3.264   4.977
 2839SOL    HW1 9416   5.974   3.277   5.068
 2839SOL    HW2 9417   5.888   3.176   4.973
 2840SOL     OW 9418   0.404   6.031   3.041
 2840SOL    HW1 9419   0.318   6.002   3.082
 2840SOL    HW2 9420   0.480   5.995   3.095
 2841SOL     OW 9421   5.744   2.267   1.754
 2841SOL    HW1 9422   5.764   2.348   1.810
 2841SOL    HW2 9423   5.765   2.184   1.807
 2842SOL     OW 9424   1.813   6.531   3.708
 2842SOL    HW1 9425   1.764   6.587   3.641
 2842SOL    HW2 9426   1.748   6.495   3.775
 2843SOL     OW 9427   2.183   2.835   3.660
 2843SOL    HW1 9428   2.244   2.855   3.736
 2843SOL    HW2 9429   2.102   2.894   3.664
 2844SOL     OW 9430   4.782   4.283   0.882
 2844SOL    HW1 9431   4.687   4.301   0.908
 2844SOL    HW2 9432   4.844   4.331   0.945
 2845SOL     OW 9433   3.887   2.224   2.983
 2845SOL    HW1 9434   3.803   2.185   2.947
 2845SOL    HW2 9435   3.866   2.287   3.058
 2846SOL     OW 9436   4.998   0.609   0.545
 2846SOL    HW1 9437   4.919   0.583   0.599
 2846SOL    HW2 9438   5.081   0.598   0.599
 2847SOL     OW 9439   4.823   4.202   2.741
 2847SOL    HW1 9440   4.808   4.184   2.839
 2847SOL    HW2 9441   4.917   4.230   2.726
 2848SOL     OW 9442   0.579   3.327   4.925
 2848SOL    HW1 9443   0.619   3.353   4.837
 2848SOL    HW2 9444   0.627   3.374   4.999
 2849SOL     OW 9445   3.878   0.227   2.682
 2849SOL    HW1 9446   3.971   0.226   2.646
 2849SOL    HW2 9447   3.866   0.306   2.741
 2850SOL     OW 9448   2.296   0.026   2.803
 2850SOL    HW1 9449   2.373   0.088   2.816
 2850SOL    HW2 9450   2.330   6.957   2.782
 2851SOL     OW 9451   4.189   3.006   0.965
 2851SOL    HW1 9452   4.227   3.027   1.055
 2851SOL    HW2 9453   4.262   2.972   0.906
 2852SOL     OW 9454   6.653   4.310   5.784
 2852SOL    HW1 9455   6.561   4.306   5.822
 2852SOL    HW2 9456   6.696   4.397   5.811
 2853SOL     OW 9457   0.766   3.803   7.009
 2853SOL    HW1 9458   0.669   3.813   6.989
 2853SOL    HW2 9459   0.814   3.887   6.986
 2854SOL     OW 9460   3.582   1.666   6.001
 2854SOL    HW1 9461   3.503   1.701   5.952
 2854SOL    HW2 9462   3.641   1.616   5.938
 2855SOL     OW 9463   1.610   1.422   4.364
 2855SOL    HW1 9464   1.513   1.438   4.382
 2855SOL    HW2 9465   1.639   1.336   4.407
 2856SOL     OW 9466   1.036   4.436   3.166
 2856SOL    HW1 9467   1.027   4.352   3.220
 2856SOL    HW2 9468   0.948   4.483   3.162
 2857SOL     OW 9469   6.984   3.126   0.734
 2857SOL    HW1 9470   0.029   3.170   0.794
 2857SOL    HW2 9471   6.947   3.045   0.779
 2858SOL     OW 9472   4.363   4.673   3.255
 2858SOL    HW1 9473   4.454   4.657   3.293
 2858SOL    HW2 9474   4.362   4.647   3.159
 2859SOL     OW 9475   5.532   4.837   1.744
 2859SOL    HW1 9476   5.573   4.864   1.831
 2859SOL    HW2 9477   5.581   4.757   1.708
 2860SOL     OW 9478   1.223   5.794   1.397
 2860SOL    HW1 9479   1.196   5.856   1.470
 2860SOL    HW2 9480   1.185   5.826   1.310
 2861SOL     OW 9481   4.599   4.934   6.761
 2861SOL    HW1 9482   4.528   4.868   6.784
 2861SOL    HW2 9483   4.681   4.886   6.730
 2862SOL     OW 9484   4.630   2.938   1.136
 2862SOL    HW1 9485   4.695   3.009   1.107
 2862SOL    HW2 9486   4.578   2.971   1.215
 2863SOL     OW 9487   5.964   0.065   5.161
 2863SOL    HW1 9488   5.986   0.159   5.137
 2863SOL    HW2 9489   6.047   0.010   5.161
 2864SOL     OW 9490   3.959   3.700   0.367
 2864SOL    HW1 9491   3.931   3.796   0.368
 2864SOL    HW2 9492   3.879   3.642   0.385
 2865SOL     OW 9493   5.511   6.011   4.358
 2865SOL    HW1 9494   5.434   6.009   4.422
 2865SOL    HW2 9495   5.551   6.103   4.357
 2866SOL     OW 9496   4.612   3.912   6.647
 2866SOL    HW1 9497   4.618   3.819   6.611
 2866SOL    HW2 9498   4.673   3.971   6.595
 2867SOL     OW 9499   5.712   6.586   2.049
 2867SOL    HW1 9500   5.748   6.613   2.139
 2867SOL    HW2 9501   5.769   6.627   1.978
 2868SOL     OW 9502   1.892   0.958   6.009
 2868SOL    HW1 9503   1.870   1.007   5.925
 2868SOL    HW2 9504   1.987   0.927   6.006
 2869SOL     OW 9505   5.316   5.594   3.754
 2869SOL    HW1 9506   5.221   5.581   3.782
 2869SOL    HW2 9507   5.319   5.617   3.657
 2870SOL     OW 9508   0.606   1.570   1.774
 2870SOL    HW1 9509   0.535   1.608   1.715
 2870SOL    HW2 9510   0.686   1.631   1.773
 2871SOL     OW 9511   6.020   1.745   1.251
 2871SOL    HW1 9512   5.929   1.706   1.264
 2871SOL    HW2 9513   6.090   1.678   1.278
 2872SOL     OW 9514   2.229   2.046   2.281
 2872SOL    HW1 9515   2.300   2.106   2.244
 2872SOL    HW2 9516   2.151   2.102   2.312
 2873SOL     OW 9517   0.599   6.402   1.179
 2873SOL    HW1 9518   0.503   6.419   1.201
 2873SOL    HW2 9519   0.652   6.397   1.264
 2874SOL     OW 9520   1.954   0.725   3.338
 2874SOL    HW1 9521   1.947   0.687   3.246
 2874SOL    HW2 9522   1.966   0.824   3.333
 2875SOL     OW 9523   2.882   6.850   2.863
 2875SOL    HW1 9524   2.856   6.945   2.846
 2875SOL    HW2 9525   2.929   6.844   2.951
 2876SOL     OW 9526   1.273   6.187   2.318
 2876SOL    HW1 9527   1.201   6.255   2.324
 2876SOL    HW2 9528   1.302   6.177   2.223
 2877SOL     OW 9529   1.755   1.046   5.788
 2877SOL    HW1 9530   1.656   1.051   5.778
 2877SOL    HW2 9531   1.792   1.139   5.799
 2878SOL     OW 9532   4.123   3.367   4.750
 2878SOL    HW1 9533   4.204   3.390   4.804
 2878SOL    HW2 9534   4.081   3.284   4.787
 2879SOL     OW 9535   4.296   4.923   6.256
 2879SOL    HW1 9536   4.245   4.904   6.340
 2879SOL    HW2 9537   4.248   4.994   6.204
 2880SOL     OW 9538   1.516   1.343   4.749
 2880SOL    HW1 9539   1.452   1.395   4.692
 2880SOL    HW2 9540   1.483   1.342   4.843
 2881SOL     OW 9541   4.020   6.465   0.004
 2881SOL    HW1 9542   4.008   6.488   0.101
 2881SOL    HW2 9543   3.944   6.409   6.995
 2882SOL     OW 9544   4.468   6.035   0.679
 2882SOL    HW1 9545   4.481   5.972   0.755
 2882SOL    HW2 9546   4.434   6.122   0.714
 2883SOL     OW 9547   6.116   6.362   3.614
 2883SOL    HW1 9548   6.051   6.313   3.671
 2883SOL    HW2 9549   6.079   6.372   3.521
 2884SOL     OW 9550   0.063   5.384   3.062
 2884SOL    HW1 9551   7.009   5.382   2.998
 2884SOL    HW2 9552   0.149   5.383   3.011
 2885SOL     OW 9553   1.047   3.283   2.726
 2885SOL    HW1 9554   1.120   3.284   2.794
 2885SOL    HW2 9555   0.966   3.238   2.764
 2886SOL     OW 9556   2.790   4.746   5.867
 2886SOL    HW1 9557   2.757   4.731   5.960
 2886SOL    HW2 9558   2.880   4.703   5.857
 2887SOL     OW 9559   1.269   6.299   3.989
 2887SOL    HW1 9560   1.278   6.293   3.890
 2887SOL    HW2 9561   1.206   6.229   4.022
 2888SOL     OW 9562   6.472   6.177   0.835
 2888SOL    HW1 9563   6.499   6.242   0.907
 2888SOL    HW2 9564   6.400   6.218   0.779
 2889SOL     OW 9565   3.232   6.470   3.199
 2889SOL    HW1 9566   3.317   6.429   3.235
 2889SOL    HW2 9567   3.178   6.506   3.275
 2890SOL     OW 9568   1.636   0.281   0.791
 2890SOL    HW1 9569   1.702   0.310   0.722
 2890SOL    HW2 9570   1.543   0.293   0.756
 2891SOL     OW 9571   0.216   3.306   3.863
 2891SOL    HW1 9572   0.185   3.223   3.909
 2891SOL    HW2 9573   0.158   3.323   3.783
 2892SOL     OW 9574   6.735   3.805   1.301
 2892SOL    HW1 9575   6.662   3.756   1.253
 2892SOL    HW2 9576   6.747   3.895   1.260
 2893SOL     OW 9577   0.073   4.754   4.548
 2893SOL    HW1 9578   0.097   4.816   4.622
 2893SOL    HW2 9579   0.029   4.672   4.586
 2894SOL     OW 9580   1.110   5.093   1.752
 2894SOL    HW1 9581   1.144   5.158   1.819
 2894SOL    HW2 9582   1.166   5.011   1.753
 2895SOL     OW 9583   3.919   6.766   6.062
 2895SOL    HW1 9584   3.928   6.736   5.967
 2895SOL    HW2 9585   3.896   6.863   6.064
 2896SOL     OW 9586   5.654   6.178   4.621
 2896SOL    HW1 9587   5.629   6.252   4.683
 2896SOL    HW2 9588   5.589   6.102   4.632
 2897SOL     OW 9589   3.689   4.922   2.593
 2897SOL    HW1 9590   3.592   4.899   2.593
 2897SOL    HW2 9591   3.716   4.954   2.684
 2898SOL     OW 9592   5.606   4.055   2.817
 2898SOL    HW1 9593   5.677   4.124   2.810
 2898SOL    HW2 9594   5.591   4.013   2.727
 2899SOL     OW 9595   6.752   3.106   1.047
 2899SOL    HW1 9596   6.812   3.160   0.989
 2899SOL    HW2 9597   6.760   3.136   1.142
 2900SOL     OW 9598   3.323   3.516   0.041
 2900SOL    HW1 9599   3.233   3.474   0.055
 2900SOL    HW2 9600   3.320   3.612   0.069
 2901SOL     OW 9601   1.538   3.464   3.285
 2901SOL    HW1 9602   1.586   3.429   3.365
 2901SOL    HW2 9603   1.571   3.556   3.265
 2902SOL     OW 9604   1.229   5.919   3.873
 2902SOL    HW1 9605   1.175   5.999   3.844
 2902SOL    HW2 9606   1.326   5.943   3.874
 2903SOL     OW 9607   4.176   5.962   0.969
 2903SOL    HW1 9608   4.129   6.049   0.960
 2903SOL    HW2 9609   4.110   5.887   0.962
 2904SOL     OW 9610   2.399   4.591   5.259
 2904SOL    HW1 9611   2.457   4.525   5.306
 2904SOL    HW2 9612   2.441   4.615   5.171
 2905SOL     OW 9613   0.874   4.582   1.900
 2905SOL    HW1 9614   0.792   4.636   1.877
 2905SOL    HW2 9615   0.931   4.573   1.818
 2906SOL     OW 9616   5.838   5.810   3.404
 2906SOL    HW1 9617   5.890   5.726   3.415
 2906SOL    HW2 9618   5.866   5.876   3.473
 2907SOL     OW 9619   1.000   0.464   3.730
 2907SOL    HW1 9620   1.041   0.423   3.648
 2907SOL    HW2 9621   0.963   0.553   3.708
 2908SOL     OW 9622   4.375   0.052   2.973
 2908SOL    HW1 9623   4.318   0.134   2.984
 2908SOL    HW2 9624   4.459   0.063   3.025
 2909SOL     OW 9625   1.136   5.948   2.166
 2909SOL    HW1 9626   1.142   6.005   2.248
 2909SOL    HW2 9627   1.049   5.899   2.166
 2910SOL     OW 9628   7.015   0.494   3.785
 2910SOL    HW1 9629   0.048   0.453   3.712
 2910SOL    HW2 9630   6.918   0.478   3.764
 2911SOL     OW 9631   6.667   3.978   4.218
 2911SOL    HW1 9632   6.756   4.022   4.206
 2911SOL    HW2 9633   6.618   4.022   4.293
 2912SOL     OW 9634   6.835   6.579   0.673
 2912SOL    HW1 9635   6.866   6.552   0.582
 2912SOL    HW2 9636   6.747   6.627   0.666
 2913SOL     OW 9637   2.131   5.783   0.619
 2913SOL    HW1 9638   2.037   5.805   0.644
 2913SOL    HW2 9639   2.193   5.846   0.666
 2914SOL     OW 9640   5.371   4.889   0.380
 2914SOL    HW1 9641   5.376   4.897   0.480
 2914SOL    HW2 9642   5.445   4.832   0.347
 2915SOL     OW 9643   3.012   1.248   3.395
 2915SOL    HW1 9644   2.918   1.243   3.361
 2915SOL    HW2 9645   3.072   1.279   3.322
 2916SOL     OW 9646   1.521   6.161   0.464
 2916SOL    HW1 9647   1.452   6.121   0.525
 2916SOL    HW2 9648   1.475   6.216   0.394
 2917SOL     OW 9649   2.432   6.619   3.234
 2917SOL    HW1 9650   2.528   6.603   3.256
 2917SOL    HW2 9651   2.424   6.698   3.174
 2918SOL     OW 9652   6.159   3.848   1.088
 2918SOL    HW1 9653   6.064   3.833   1.059
 2918SOL    HW2 9654   6.218   3.851   1.008
 2919SOL     OW 9655   1.089   6.120   4.411
 2919SOL    HW1 9656   1.062   6.216   4.406
 2919SOL    HW2 9657   1.097   6.093   4.507
 2920SOL     OW 9658   1.563   1.509   1.488
 2920SOL    HW1 9659   1.535   1.433   1.430
 2920SOL    HW2 9660   1.492   1.580   1.487
 2921SOL     OW 9661   0.284   6.862   5.677
 2921SOL    HW1 9662   0.198   6.908   5.654
 2921SOL    HW2 9663   0.351   6.929   5.708
 2922SOL     OW 9664   3.819   0.655   3.165
 2922SOL    HW1 9665   3.841   0.752   3.164
 2922SOL    HW2 9666   3.800   0.624   3.071
 2923SOL     OW 9667   6.250   4.977   5.026
 2923SOL    HW1 9668   6.189   4.898   5.026
 2923SOL    HW2 9669   6.339   4.951   4.990
 2924SOL     OW 9670   6.613   2.881   5.345
 2924SOL    HW1 9671   6.550   2.950   5.308
 2924SOL    HW2 9672   6.677   2.924   5.408
 2925SOL     OW 9673   5.349   0.186   5.804
 2925SOL    HW1 9674   5.257   0.147   5.805
 2925SOL    HW2 9675   5.387   0.180   5.712
 2926SOL     OW 9676   0.372   1.545   4.672
 2926SOL    HW1 9677   0.359   1.565   4.575
 2926SOL    HW2 9678   0.357   1.629   4.725
 2927SOL     OW 9679   1.618   2.889   1.494
 2927SOL    HW1 9680   1.687   2.922   1.558
 2927SOL    HW2 9681   1.579   2.968   1.445
 2928SOL     OW 9682   6.670   2.211   7.002
 2928SOL    HW1 9683   6.710   2.285   0.033
 2928SOL    HW2 9684   6.595   2.169   0.031
 2929SOL     OW 9685   1.958   2.321   4.617
 2929SOL    HW1 9686   2.006   2.383   4.555
 2929SOL    HW2 9687   1.965   2.354   4.711
 2930SOL     OW 9688   0.371   5.422   4.982
 2930SOL    HW1 9689   0.397   5.492   5.048
 2930SOL    HW2 9690   0.289   5.374   5.014
 2931SOL     OW 9691   4.550   4.189   5.962
 2931SOL    HW1 9692   4.580   4.241   6.042
 2931SOL    HW2 9693   4.470   4.134   5.986
 2932SOL     OW 9694   6.507   5.747   0.730
 2932SOL    HW1 9695   6.579   5.808   0.765
 2932SOL    HW2 9696   6.421   5.769   0.775
 2933SOL     OW 9697   1.103   0.137   0.734
 2933SOL    HW1 9698   1.150   0.156   0.820
 2933SOL    HW2 9699   1.024   0.078   0.750
 2934SOL     OW 9700   3.917   3.876   0.048
 2934SOL    HW1 9701   3.951   3.912   0.135
 2934SOL    HW2 9702   3.995   3.858   7.010
 2935SOL     OW 9703   0.062   2.534   6.515
 2935SOL    HW1 9704   0.022   2.495   6.598
 2935SOL    HW2 9705   0.159   2.554   6.531
 2936SOL     OW 9706   4.760   0.085   0.831
 2936SOL    HW1 9707   4.804   0.161   0.783
 2936SOL    HW2 9708   4.671   0.115   0.865
 2937SOL     OW 9709   4.385   5.447   2.265
 2937SOL    HW1 9710   4.445   5.448   2.185
 2937SOL    HW2 9711   4.440   5.444   2.349
 2938SOL     OW 9712   6.683   5.731   6.734
 2938SOL    HW1 9713   6.666   5.727   6.635
 2938SOL    HW2 9714   6.764   5.787   6.751
 2939SOL     OW 9715   0.026   5.710   1.580
 2939SOL    HW1 9716   0.077   5.631   1.546
 2939SOL    HW2 9717   6.968   5.725   1.523
 2940SOL     OW 9718   5.170   5.886   3.827
 2940SOL    HW1 9719   5.195   5.867   3.922
 2940SOL    HW2 9720   5.194   5.807   3.770
 2941SOL     OW 9721   2.069   3.427   3.854
 2941SOL    HW1 9722   1.969   3.428   3.852
 2941SOL    HW2 9723   2.100   3.374   3.933
 2942SOL     OW 9724   3.486   1.524   0.639
 2942SOL    HW1 9725   3.501   1.532   0.738
 2942SOL    HW2 9726   3.452   1.610   0.603
 2943SOL     OW 9727   5.693   4.255   3.498
 2943SOL    HW1 9728   5.789   4.264   3.473
 2943SOL    HW2 9729   5.643   4.213   3.422
 2944SOL     OW 9730   2.171   5.622   3.796
 2944SOL    HW1 9731   2.174   5.713   3.754
 2944SOL    HW2 9732   2.076   5.591   3.802
 2945SOL     OW 9733   5.392   4.288   1.402
 2945SOL    HW1 9734   5.428   4.314   1.312
 2945SOL    HW2 9735   5.443   4.210   1.437
 2946SOL     OW 9736   3.065   3.905   6.096
 2946SOL    HW1 9737   3.148   3.946   6.135
 2946SOL    HW2 9738   2.986   3.933   6.150
 2947SOL     OW 9739   5.728   6.388   0.748
 2947SOL    HW1 9740   5.789   6.313   0.776
 2947SOL    HW2 9741   5.665   6.409   0.822
 2948SOL     OW 9742   5.783   3.976   2.436
 2948SOL    HW1 9743   5.765   3.889   2.390
 2948SOL    HW2 9744   5.706   3.998   2.496
 2949SOL     OW 9745   1.410   6.982   0.816
 2949SOL    HW1 9746   1.348   0.035   0.837
 2949SOL    HW2 9747   1.456   7.000   0.728
 2950SOL     OW 9748   5.057   4.330   2.628
 2950SOL    HW1 9749   5.040   4.343   2.725
 2950SOL    HW2 9750   5.135   4.386   2.600
 2951SOL     OW 9751   5.741   1.503   1.526
 2951SOL    HW1 9752   5.677   1.525   1.599
 2951SOL    HW2 9753   5.731   1.407   1.500
 2952SOL     OW 9754   6.134   1.480   4.248
 2952SOL    HW1 9755   6.104   1.385   4.240
 2952SOL    HW2 9756   6.213   1.495   4.188
 2953SOL     OW 9757   1.240   5.931   3.508
 2953SOL    HW1 9758   1.246   5.917   3.409
 2953SOL    HW2 9759   1.293   5.860   3.554
 2954SOL     OW 9760   6.949   4.736   6.146
 2954SOL    HW1 9761   7.004   4.723   6.229
 2954SOL    HW2 9762   6.863   4.685   6.155
 2955SOL     OW 9763   2.099   3.894   6.790
 2955SOL    HW1 9764   2.028   3.831   6.758
 2955SOL    HW2 9765   2.186   3.872   6.747
 2956SOL     OW 9766   6.347   4.360   3.453
 2956SOL    HW1 9767   6.276   4.408   3.504
 2956SOL    HW2 9768   6.412   4.319   3.517
 2957SOL     OW 9769   3.112   5.596   1.856
 2957SOL    HW1 9770   3.111   5.696   1.859
 2957SOL    HW2 9771   3.151   5.565   1.770
 2958SOL     OW 9772   2.310   4.784   3.299
 2958SOL    HW1 9773   2.270   4.875   3.296
 2958SOL    HW2 9774   2.389   4.780   3.239
 2959SOL     OW 9775   6.374   2.073   2.666
 2959SOL    HW1 9776   6.474   2.074   2.662
 2959SOL    HW2 9777   6.344   2.124   2.747
 2960SOL     OW 9778   4.566   0.832   0.573
 2960SOL    HW1 9779   4.602   0.744   0.605
 2960SOL    HW2 9780   4.642   0.895   0.559
 2961SOL     OW 9781   5.551   3.959   2.564
 2961SOL    HW1 9782   5.520   3.978   2.471
 2961SOL    HW2 9783   5.528   3.865   2.589
 2962SOL     OW 9784   6.993   6.484   2.515
 2962SOL    HW1 9785   0.060   6.442   2.497
 2962SOL    HW2 9786   7.001   6.547   2.592
 2963SOL     OW 9787   1.991   1.263   4.852
 2963SOL    HW1 9788   1.916   1.204   4.882
 2963SOL    HW2 9789   1.956   1.353   4.829
 2964SOL     OW 9790   0.889   2.992   6.833
 2964SOL    HW1 9791   0.886   3.034   6.742
 2964SOL    HW2 9792   0.984   2.979   6.860
 2965SOL     OW 9793   0.280   0.316   5.124
 2965SOL    HW1 9794   0.274   0.326   5.223
 2965SOL    HW2 9795   0.234   0.231   5.096
 2966SOL     OW 9796   4.312   5.620   3.565
 2966SOL    HW1 9797   4.397   5.652   3.522
 2966SOL    HW2 9798   4.301   5.664   3.654
 2967SOL     OW 9799   6.336   0.977   5.830
 2967SOL    HW1 9800   6.363   1.024   5.914
 2967SOL    HW2 9801   6.301   0.886   5.851
 2968SOL     OW 9802   1.554   2.053   1.072
 2968SOL    HW1 9803   1.480   2.042   1.138
 2968SOL    HW2 9804   1.517   2.053   0.979
 2969SOL     OW 9805   5.683   3.310   4.173
 2969SOL    HW1 9806   5.686   3.384   4.106
 2969SOL    HW2 9807   5.776   3.287   4.201
 2970SOL     OW 9808   2.390   2.588   4.412
 2970SOL    HW1 9809   2.390   2.488   4.409
 2970SOL    HW2 9810   2.394   2.624   4.319
 2971SOL     OW 9811   5.598   3.812   6.607
 2971SOL    HW1 9812   5.508   3.837   6.573
 2971SOL    HW2 9813   5.669   3.845   6.544
 2972SOL     OW 9814   5.557   4.782   6.990
 2972SOL    HW1 9815   5.473   4.824   6.954
 2972SOL    HW2 9816   5.592   4.715   6.924
 2973SOL     OW 9817   5.119   6.912   2.082
 2973SOL    HW1 9818   5.214   6.888   2.062
 2973SOL    HW2 9819   5.107   7.011   2.070
 2974SOL     OW 9820   5.024   5.475   3.401
 2974SOL    HW1 9821   5.026   5.409   3.476
 2974SOL    HW2 9822   5.113   5.475   3.354
 2975SOL     OW 9823   4.530   4.782   4.230
 2975SOL    HW1 9824   4.518   4.789   4.329
 2975SOL    HW2 9825   4.496   4.694   4.199
 2976SOL     OW 9826   4.496   2.210   1.815
 2976SOL    HW1 9827   4.584   2.165   1.834
 2976SOL    HW2 9828   4.429   2.181   1.883
 2977SOL     OW 9829   1.225   0.652   1.743
 2977SOL    HW1 9830   1.209   0.556   1.720
 2977SOL    HW2 9831   1.162   0.710   1.691
 2978SOL     OW 9832   4.186   4.737   6.067
 2978SOL    HW1 9833   4.235   4.803   6.124
 2978SOL    HW2 9834   4.106   4.781   6.027
 2979SOL     OW 9835   2.734   1.156   4.178
 2979SOL    HW1 9836   2.718   1.128   4.272
 2979SOL    HW2 9837   2.761   1.077   4.124
 2980SOL     OW 9838   3.803   3.816   6.041
 2980SOL    HW1 9839   3.825   3.859   5.954
 2980SOL    HW2 9840   3.726   3.754   6.029
 2981SOL     OW 9841   1.707   1.334   0.814
 2981SOL    HW1 9842   1.628   1.274   0.829
 2981SOL    HW2 9843   1.742   1.321   0.721
 2982SOL     OW 9844   0.772   0.610   1.847
 2982SOL    HW1 9845   0.770   0.536   1.779
 2982SOL    HW2 9846   0.805   0.694   1.804
 2983SOL     OW 9847   6.186   3.038   6.617
 2983SOL    HW1 9848   6.101   3.035   6.670
 2983SOL    HW2 9849   6.163   3.038   6.519
 2984SOL     OW 9850   0.167   5.108   0.340
 2984SOL    HW1 9851   0.119   5.055   0.410
 2984SOL    HW2 9852   0.263   5.120   0.367
 2985SOL     OW 9853   0.328   0.437   4.862
 2985SOL    HW1 9854   0.255   0.425   4.794
 2985SOL    HW2 9855   0.314   0.373   4.937
 2986SOL     OW 9856   3.648   4.028   2.719
 2986SOL    HW1 9857   3.566   3.972   2.708
 2986SOL    HW2 9858   3.700   4.029   2.633
 2987SOL     OW 9859   1.065   1.431   4.474
 2987SOL    HW1 9860   0.984   1.452   4.418
 2987SOL    HW2 9861   1.065   1.334   4.496
 2988SOL     OW 9862   0.570   1.691   0.204
 2988SOL    HW1 9863   0.610   1.620   0.147
 2988SOL    HW2 9864   0.601   1.781   0.172
 2989SOL     OW 9865   5.149   3.466   4.269
 2989SOL    HW1 9866   5.068   3.410   4.289
 2989SOL    HW2 9867   5.151   3.546   4.329
 2990SOL     OW 9868   4.926   1.833   4.432
 2990SOL    HW1 9869   5.023   1.811   4.444
 2990SOL    HW2 9870   4.917   1.908   4.367
 2991SOL     OW 9871   5.564   3.312   0.738
 2991SOL    HW1 9872   5.559   3.380   0.665
 2991SOL    HW2 9873   5.622   3.346   0.812
 2992SOL     OW 9874   0.280   3.079   5.670
 2992SOL    HW1 9875   0.344   3.006   5.650
 2992SOL    HW2 9876   0.324   3.168   5.654
 2993SOL     OW 9877   1.251   4.480   0.306
 2993SOL    HW1 9878   1.219   4.399   0.257
 2993SOL    HW2 9879   1.180   4.550   0.305
 2994SOL     OW 9880   4.900   6.792   0.212
 2994SOL    HW1 9881   4.825   6.855   0.195
 2994SOL    HW2 9882   4.963   6.833   0.279
 2995SOL     OW 9883   5.071   6.949   0.455
 2995SOL    HW1 9884   5.043   6.935   0.550
 2995SOL    HW2 9885   5.171   6.941   0.449
 2996SOL     OW 9886   0.793   1.665   4.961
 2996SOL    HW1 9887   0.774   1.745   4.905
 2996SOL    HW2 9888   0.871   1.616   4.924
 2997SOL     OW 9889   4.967   0.521   3.895
 2997SOL    HW1 9890   4.936   0.443   3.842
 2997SOL    HW2 9891   4.999   0.593   3.833
 2998SOL     OW 9892   2.451   1.389   2.794
 2998SOL    HW1 9893   2.429   1.439   2.710
 2998SOL    HW2 9894   2.547   1.404   2.818
 2999SOL     OW 9895   2.945   4.165   0.622
 2999SOL    HW1 9896   2.849   4.193   0.613
 2999SOL    HW2 9897   2.949   4.077   0.670
 3000SOL     OW 9898   3.182   3.823   5.091
 3000SOL    HW1 9899   3.209   3.748   5.030
 3000SOL    HW2 9900   3.251   3.896   5.086
 3001SOL     OW 9901   6.420   1.605   6.348
 3001SOL    HW1 9902   6.415   1.657   6.433
 3001SOL    HW2 9903   6.328   1.593   6.311
 3002SOL     OW 9904   2.013   0.945   1.930
 3002SOL    HW1 9905   1.998   0.969   2.026
 3002SOL    HW2 9906   2.109   0.922   1.916
 3003SOL     OW 9907   1.370   5.981   0.241
 3003SOL    HW1 9908   1.323   5.940   0.163
 3003SOL    HW2 9909   1.359   5.923   0.321
 3004SOL     OW 9910   2.711   5.601   4.461
 3004SOL    HW1 9911   2.698   5.525   4.397
 3004SOL    HW2 9912   2.784   5.660   4.428
 3005SOL     OW 9913   0.980   2.394   5.345
 3005SOL    HW1 9914   0.952   2.318   5.404
 3005SOL    HW2 9915   1.080   2.401   5.345
 3006SOL     OW 9916   5.361   1.623   5.195
 3006SOL    HW1 9917   5.316   1.616   5.284
 3006SOL    HW2 9918   5.458   1.646   5.209
 3007SOL     OW 9919   5.154   5.080   6.925
 3007SOL    HW1 9920   5.097   5.081   7.008
 3007SOL    HW2 9921   5.096   5.059   6.846
 3008SOL     OW 9922   4.489   2.280   5.512
 3008SOL    HW1 9923   4.407   2.299   5.567
 3008SOL    HW2 9924   4.494   2.343   5.435
 3009SOL     OW 9925   0.577   2.905   2.366
 3009SOL    HW1 9926   0.613   2.981   2.420
 3009SOL    HW2 9927   0.619   2.819   2.395
 3010SOL     OW 9928   4.185   6.399   5.923
 3010SOL    HW1 9929   4.270   6.435   5.962
 3010SOL    HW2 9930   4.116   6.388   5.995
 3011SOL     OW 9931   5.989   0.199   1.050
 3011SOL    HW1 9932   6.048   0.279   1.047
 3011SOL    HW2 9933   6.036   0.121   1.010
 3012SOL     OW 9934   2.752   2.905   6.018
 3012SOL    HW1 9935   2.809   2.828   5.989
 3012SOL    HW2 9936   2.759   2.979   5.951
 3013SOL     OW 9937   0.657   6.072   4.280
 3013SOL    HW1 9938   0.673   6.156   4.333
 3013SOL    HW2 9939   0.595   6.012   4.331
 3014SOL     OW 9940   4.745   0.718   5.348
 3014SOL    HW1 9941   4.763   0.760   5.259
 3014SOL    HW2 9942   4.776   0.780   5.420
 3015SOL     OW 9943   1.234   1.270   0.158
 3015SOL    HW1 9944   1.296   1.191   0.154
 3015SOL    HW2 9945   1.287   1.352   0.179
 3016SOL     OW 9946   2.836   6.325   4.777
 3016SOL    HW1 9947   2.851   6.393   4.705
 3016SOL    HW2 9948   2.811   6.372   4.862
 3017SOL     OW 9949   6.425   5.798   1.751
 3017SOL    HW1 9950   6.410   5.741   1.832
 3017SOL    HW2 9951   6.343   5.797   1.694
 3018SOL     OW 9952   3.287   0.102   0.007
 3018SOL    HW1 9953   3.379   0.114   0.045
 3018SOL    HW2 9954   3.220   0.097   0.082
 3019SOL     OW 9955   1.788   0.099   5.946
 3019SOL    HW1 9956   1.725   0.022   5.954
 3019SOL    HW2 9957   1.807   0.136   6.037
 3020SOL     OW 9958   4.991   3.636   0.255
 3020SOL    HW1 9959   5.069   3.627   0.194
 3020SOL    HW2 9960   4.915   3.679   0.205
 3021SOL     OW 9961   3.866   6.565   4.584
 3021SOL    HW1 9962   3.831   6.656   4.607
 3021SOL    HW2 9963   3.915   6.569   4.497
 3022SOL     OW 9964   4.497   6.022   3.721
 3022SOL    HW1 9965   4.413   6.008   3.669
 3022SOL    HW2 9966   4.530   5.934   3.755
 3023SOL     OW 9967   3.908   6.722   3.025
 3023SOL    HW1 9968   3.848   6.652   3.065
 3023SOL    HW2 9969   4.002   6.689   3.026
 3024SOL     OW 9970   0.415   6.119   6.416
 3024SOL    HW1 9971   0.442   6.144   6.509
 3024SOL    HW2 9972   0.423   6.199   6.356
 3025SOL     OW 9973   3.764   5.863   0.675
 3025SOL    HW1 9974   3.700   5.938   0.659
 3025SOL    HW2 9975   3.714   5.776   0.676
 3026SOL     OW 9976   6.002   1.283   0.678
 3026SOL    HW1 9977   5.980   1.334   0.761
 3026SOL    HW2 9978   6.091   1.238   0.689
 3027SOL     OW 9979   5.099   1.300   1.431
 3027SOL    HW1 9980   5.119   1.222   1.372
 3027SOL    HW2 9981   5.184   1.332   1.473
 3028SOL     OW 9982   2.797   4.546   6.338
 3028SOL    HW1 9983   2.727   4.521   6.404
 3028SOL    HW2 9984   2.755   4.558   6.248
 3029SOL     OW 9985   0.812   1.992   4.191
 3029SOL    HW1 9986   0.898   2.018   4.236
 3029SOL    HW2 9987   0.765   2.074   4.159
 3030SOL     OW 9988   1.465   3.496   1.040
 3030SOL    HW1 9989   1.380   3.527   1.082
 3030SOL    HW2 9990   1.533   3.570   1.044
 3031SOL     OW 9991   0.948   6.015   1.176
 3031SOL    HW1 9992   0.972   5.931   1.225
 3031SOL    HW2 9993   0.850   6.013   1.153
 3032SOL     OW 9994   1.640   0.468   2.813
 3032SOL    HW1 9995   1.631   0.559   2.772
 3032SOL    HW2 9996   1.637   0.399   2.741
 3033SOL     OW 9997   6.707   2.176   4.164
 3033SOL    HW1 9998   6.716   2.256   4.104
 3033SOL    HW2 9999   6.796   2.156   4.205
 3034SOL     OW10000   0.632   5.551   3.801
 3034SOL    HW110001   0.687   5.633   3.818
 3034SOL    HW210002   0.692   5.476   3.772
 3035SOL     OW10003   1.353   2.635   6.252
 3035SOL    HW110004   1.411   2.559   6.222
 3035SOL    HW210005   1.395   2.722   6.225
 3036SOL     OW10006   2.665   2.119   6.650
 3036SOL    HW110007   2.672   2.191   6.581
 3036SOL    HW210008   2.701   2.153   6.737
 3037SOL     OW10009   0.379   5.306   6.407
 3037SOL    HW110010   0.284   5.287   6.430
 3037SOL    HW210011   0.422   5.356   6.481
 3038SOL     OW10012   5.079   4.589   6.570
 3038SOL    HW110013   5.158   4.609   6.511
 3038SOL    HW210014   5.090   4.639   6.656
 3039SOL     OW10015   6.411   4.408   6.937
 3039SOL    HW110016   6.390   4.385   6.842
 3039SOL    HW210017   6.475   4.341   6.975
 3040SOL     OW10018   4.063   4.434   6.126
 3040SOL    HW110019   4.101   4.372   6.195
 3040SOL    HW210020   4.021   4.512   6.172
 3041SOL     OW10021   2.286   4.308   4.894
 3041SOL    HW110022   2.307   4.218   4.856
 3041SOL    HW210023   2.276   4.302   4.993
 3042SOL     OW10024   6.944   5.005   2.907
 3042SOL    HW110025   7.005   5.051   2.843
 3042SOL    HW210026   6.863   5.062   2.924
 3043SOL     OW10027   2.863   4.595   0.779
 3043SOL    HW110028   2.838   4.616   0.684
 3043SOL    HW210029   2.783   4.601   0.837
 3044SOL     OW10030   3.072   3.577   5.243
 3044SOL    HW110031   3.098   3.636   5.167
 3044SOL    HW210032   3.072   3.482   5.213
 3045SOL     OW10033   5.049   1.310   2.370
 3045SOL    HW110034   5.070   1.392   2.423
 3045SOL    HW210035   4.950   1.302   2.357
 3046SOL     OW10036   5.534   5.489   0.678
 3046SOL    HW110037   5.580   5.401   0.668
 3046SOL    HW210038   5.602   5.563   0.681
 3047SOL     OW10039   6.480   0.427   6.452
 3047SOL    HW110040   6.470   0.526   6.462
 3047SOL    HW210041   6.399   0.381   6.488
 3048SOL     OW10042   3.950   3.567   1.377
 3048SOL    HW110043   4.022   3.541   1.441
 3048SOL    HW210044   3.926   3.663   1.389
 3049SOL     OW10045   1.331   0.422   4.403
 3049SOL    HW110046   1.261   0.399   4.335
 3049SOL    HW210047   1.421   0.406   4.364
 3050SOL     OW10048   3.099   2.659   1.423
 3050SOL    HW110049   3.114   2.758   1.425
 3050SOL    HW210050   3.002   2.640   1.441
 3051SOL     OW10051   2.197   6.875   4.535
 3051SOL    HW110052   2.185   6.890   4.633
 3051SOL    HW210053   2.211   6.778   4.517
 3052SOL     OW10054   6.205   6.168   2.605
 3052SOL    HW110055   6.275   6.198   2.541
 3052SOL    HW210056   6.244   6.164   2.697
 3053SOL     OW10057   1.392   4.305   0.659
 3053SOL    HW110058   1.417   4.388   0.709
 3053SOL    HW210059   1.474   4.265   0.620
 3054SOL     OW10060   5.804   1.429   2.665
 3054SOL    HW110061   5.777   1.337   2.639
 3054SOL    HW210062   5.794   1.441   2.764
 3055SOL     OW10063   6.203   5.775   6.569
 3055SOL    HW110064   6.292   5.744   6.534
 3055SOL    HW210065   6.130   5.725   6.524
 3056SOL     OW10066   5.167   1.567   6.148
 3056SOL    HW110067   5.179   1.470   6.129
 3056SOL    HW210068   5.108   1.579   6.228
 3057SOL     OW10069   6.446   5.540   3.101
 3057SOL    HW110070   6.523   5.577   3.153
 3057SOL    HW210071   6.429   5.446   3.130
 3058SOL     OW10072   6.305   4.677   6.992
 3058SOL    HW110073   6.348   4.709   0.054
 3058SOL    HW210074   6.344   4.589   6.965
 3059SOL     OW10075   2.573   2.516   4.678
 3059SOL    HW110076   2.530   2.570   4.751
 3059SOL    HW210077   2.547   2.553   4.589
 3060SOL     OW10078   4.332   5.155   5.430
 3060SOL    HW110079   4.282   5.241   5.438
 3060SOL    HW210080   4.363   5.125   5.520
 3061SOL     OW10081   5.298   4.985   5.222
 3061SOL    HW110082   5.317   4.887   5.211
 3061SOL    HW210083   5.294   5.028   5.132
 3062SOL     OW10084   4.977   4.034   1.456
 3062SOL    HW110085   4.969   3.938   1.430
 3062SOL    HW210086   4.989   4.041   1.555
 3063SOL     OW10087   0.084   4.605   1.307
 3063SOL    HW110088   0.056   4.551   1.387
 3063SOL    HW210089   0.040   4.568   1.225
 3064SOL     OW10090   4.010   1.625   6.770
 3064SOL    HW110091   3.976   1.682   6.695
 3064SOL    HW210092   3.981   1.664   6.858
 3065SOL     OW10093   0.952   0.672   6.610
 3065SOL    HW110094   0.888   0.596   6.618
 3065SOL    HW210095   1.012   0.674   6.691
 3066SOL     OW10096   5.659   6.110   6.132
 3066SOL    HW110097   5.610   6.024   6.115
 3066SOL    HW210098   5.696   6.110   6.225
 3067SOL     OW10099   2.552   2.680   6.787
 3067SOL    HW110100   2.617   2.649   6.718
 3067SOL    HW210101   2.496   2.754   6.750
 3068SOL     OW10102   0.487   0.963   0.946
 3068SOL    HW110103   0.519   0.981   0.853
 3068SOL    HW210104   0.504   0.868   0.969
 3069SOL     OW10105   4.997   0.232   2.521
 3069SOL    HW110106   5.062   0.206   2.449
 3069SOL    HW210107   5.046   0.239   2.608
 3070SOL     OW10108   2.920   1.480   0.942
 3070SOL    HW110109   2.969   1.548   0.996
 3070SOL    HW210110   2.897   1.402   1.000
 3071SOL     OW10111   0.188   3.065   3.433
 3071SOL    HW110112   0.144   3.041   3.519
 3071SOL    HW210113   0.118   3.074   3.362
 3072SOL     OW10114   2.526   6.831   6.475
 3072SOL    HW110115   2.448   6.843   6.415
 3072SOL    HW210116   2.494   6.809   6.567
 3073SOL     OW10117   6.185   4.782   0.606
 3073SOL    HW110118   6.169   4.744   0.697
 3073SOL    HW210119   6.125   4.860   0.590
 3074SOL     OW10120   2.004   3.455   1.385
 3074SOL    HW110121   2.059   3.488   1.308
 3074SOL    HW210122   2.064   3.434   1.462
 3075SOL     OW10123   2.122   4.981   3.332
 3075SOL    HW110124   2.097   5.032   3.413
 3075SOL    HW210125   2.092   5.031   3.250
 3076SOL     OW10126   6.928   0.238   4.622
 3076SOL    HW110127   6.916   0.290   4.537
 3076SOL    HW210128   6.838   0.220   4.662
 3077SOL     OW10129   6.553   4.348   2.007
 3077SOL    HW110130   6.612   4.424   1.979
 3077SOL    HW210131   6.598   4.296   2.080
 3078SOL     OW10132   6.709   3.001   1.634
 3078SOL    HW110133   6.741   3.061   1.707
 3078SOL    HW210134   6.647   2.932   1.671
 3079SOL     OW10135   2.245   3.099   5.315
 3079SOL    HW110136   2.248   3.178   5.376
 3079SOL    HW210137   2.335   3.086   5.274
 3080SOL     OW10138   4.380   4.958   1.252
 3080SOL    HW110139   4.329   4.874   1.229
 3080SOL    HW210140   4.383   4.969   1.351
 3081SOL     OW10141   1.713   4.064   0.738
 3081SOL    HW110142   1.630   4.067   0.793
 3081SOL    HW210143   1.729   3.970   0.706
 3082SOL     OW10144   3.872   5.045   4.615
 3082SOL    HW110145   3.921   4.959   4.628
 3082SOL    HW210146   3.897   5.109   4.688
 3083SOL     OW10147   2.243   5.481   2.605
 3083SOL    HW110148   2.243   5.505   2.702
 3083SOL    HW210149   2.166   5.420   2.586
 3084SOL     OW10150   0.725   3.469   3.656
 3084SOL    HW110151   0.758   3.516   3.573
 3084SOL    HW210152   0.782   3.495   3.733
 3085SOL     OW10153   4.603   4.729   0.869
 3085SOL    HW110154   4.586   4.715   0.771
 3085SOL    HW210155   4.700   4.716   0.888
 3086SOL     OW10156   6.219   1.235   6.483
 3086SOL    HW110157   6.292   1.213   6.417
 3086SOL    HW210158   6.234   1.327   6.519
 3087SOL     OW10159   3.016   6.620   2.002
 3087SOL    HW110160   3.013   6.605   1.903
 3087SOL    HW210161   2.922   6.625   2.038
 3088SOL     OW10162   0.997   2.763   5.006
 3088SOL    HW110163   0.899   2.749   5.021
 3088SOL    HW210164   1.016   2.766   4.908
 3089SOL     OW10165   4.997   6.980   5.226
 3089SOL    HW110166   4.973   7.009   5.133
 3089SOL    HW210167   5.094   6.955   5.228
 3090SOL     OW10168   1.015   2.312   1.673
 3090SOL    HW110169   0.984   2.286   1.581
 3090SOL    HW210170   0.952   2.276   1.741
 3091SOL     OW10171   1.089   1.935   0.361
 3091SOL    HW110172   1.091   1.901   0.455
 3091SOL    HW210173   1.089   1.858   0.297
 3092SOL     OW10174   6.659   6.654   2.711
 3092SOL    HW110175   6.613   6.580   2.759
 3092SOL    HW210176   6.750   6.625   2.684
 3093SOL     OW10177   5.411   5.007   6.450
 3093SOL    HW110178   5.490   5.002   6.389
 3093SOL    HW210179   5.428   4.950   6.530
 3094SOL     OW10180   2.565   1.443   5.967
 3094SOL    HW110181   2.610   1.409   5.884
 3094SOL    HW210182   2.516   1.528   5.946
 3095SOL     OW10183   2.153   3.517   5.185
 3095SOL    HW110184   2.098   3.435   5.172
 3095SOL    HW210185   2.185   3.549   5.096
 3096SOL     OW10186   0.344   3.325   4.649
 3096SOL    HW110187   0.404   3.248   4.623
 3096SOL    HW210188   0.323   3.319   4.746
 3097SOL     OW10189   5.425   2.934   6.677
 3097SOL    HW110190   5.340   2.977   6.706
 3097SOL    HW210191   5.463   2.881   6.753
 3098SOL     OW10192   1.767   1.815   1.794
 3098SOL    HW110193   1.740   1.911   1.788
 3098SOL    HW210194   1.703   1.765   1.852
 3099SOL     OW10195   0.387   6.099   3.801
 3099SOL    HW110196   0.407   6.138   3.711
 3099SOL    HW210197   0.384   5.999   3.794
 3100SOL     OW10198   6.523   5.507   2.298
 3100SOL    HW110199   6.549   5.586   2.353
 3100SOL    HW210200   6.431   5.476   2.325
 3101SOL     OW10201   3.964   6.639   5.798
 3101SOL    HW110202   3.894   6.665   5.732
 3101SOL    HW210203   3.937   6.553   5.842
 3102SOL     OW10204   0.373   4.704   0.713
 3102SOL    HW110205   0.443   4.774   0.701
 3102SOL    HW210206   0.284   4.742   0.685
 3103SOL     OW10207   3.296   0.485   1.014
 3103SOL    HW110208   3.378   0.460   1.066
 3103SOL    HW210209   3.227   0.413   1.023
 3104SOL     OW10210   4.691   0.481   6.052
 3104SOL    HW110211   4.640   0.395   6.051
 3104SOL    HW210212   4.778   0.467   6.100
 3105SOL     OW10213   5.170   3.412   0.204
 3105SOL    HW110214   5.107   3.387   0.130
 3105SOL    HW210215   5.176   3.337   0.269
 3106SOL     OW10216   5.957   0.697   5.036
 3106SOL    HW110217   6.035   0.699   5.099
 3106SOL    HW210218   5.873   0.717   5.087
 3107SOL     OW10219   4.118   0.895   5.798
 3107SOL    HW110220   4.196   0.840   5.828
 3107SOL    HW210221   4.110   0.976   5.855
 3108SOL     OW10222   1.895   4.238   4.519
 3108SOL    HW110223   1.992   4.213   4.523
 3108SOL    HW210224   1.862   4.230   4.425
 3109SOL     OW10225   6.835   6.506   3.777
 3109SOL    HW110226   6.880   6.493   3.866
 3109SOL    HW210227   6.886   6.458   3.706
 3110SOL     OW10228   1.816   4.522   3.745
 3110SOL    HW110229   1.721   4.551   3.748
 3110SOL    HW210230   1.822   4.423   3.758
 3111SOL     OW10231   6.276   4.439   4.997
 3111SOL    HW110232   6.270   4.446   5.096
 3111SOL    HW210233   6.359   4.390   4.972
 3112SOL     OW10234   3.228   2.364   6.960
 3112SOL    HW110235   3.238   2.423   0.018
 3112SOL    HW210236   3.316   2.357   6.912
 3113SOL     OW10237   1.890   5.217   3.394
 3113SOL    HW110238   1.840   5.155   3.334
 3113SOL    HW210239   1.845   5.307   3.393
 3114SOL     OW10240   4.135   1.214   6.912
 3114SOL    HW110241   4.160   1.141   6.975
 3114SOL    HW210242   4.040   1.202   6.883
 3115SOL     OW10243   3.996   4.754   5.609
 3115SOL    HW110244   4.039   4.676   5.656
 3115SOL    HW210245   4.012   4.747   5.511
 3116SOL     OW10246   0.504   2.115   0.510
 3116SOL    HW110247   0.428   2.170   0.545
 3116SOL    HW210248   0.471   2.053   0.439
 3117SOL     OW10249   5.138   1.905   5.224
 3117SOL    HW110250   5.238   1.899   5.230
 3117SOL    HW210251   5.114   1.981   5.163
 3118SOL     OW10252   2.116   1.422   2.828
 3118SOL    HW110253   2.122   1.393   2.923
 3118SOL    HW210254   2.096   1.520   2.824
 3119SOL     OW10255   4.170   3.484   5.997
 3119SOL    HW110256   4.160   3.582   5.979
 3119SOL    HW210257   4.132   3.432   5.920
 3120SOL     OW10258   2.498   6.902   4.960
 3120SOL    HW110259   2.543   6.865   5.042
 3120SOL    HW210260   2.454   6.989   4.984
 3121SOL     OW10261   5.026   1.626   4.675
 3121SOL    HW110262   5.065   1.705   4.723
 3121SOL    HW210263   5.027   1.642   4.577
 3122SOL     OW10264   4.111   5.231   4.587
 3122SOL    HW110265   4.186   5.243   4.522
 3122SOL    HW210266   4.149   5.224   4.679
 3123SOL     OW10267   2.415   2.001   3.264
 3123SOL    HW110268   2.489   2.019   3.329
 3123SOL    HW210269   2.342   1.951   3.310
 3124SOL     OW10270   5.138   6.742   4.108
 3124SOL    HW110271   5.209   6.762   4.041
 3124SOL    HW210272   5.068   6.813   4.105
 3125SOL     OW10273   1.684   2.636   4.766
 3125SOL    HW110274   1.665   2.724   4.811
 3125SOL    HW210275   1.605   2.576   4.776
 3126SOL     OW10276   5.327   5.199   4.359
 3126SOL    HW110277   5.412   5.245   4.334
 3126SOL    HW210278   5.289   5.152   4.279
 3127SOL     OW10279   0.664   1.747   4.128
 3127SOL    HW110280   0.596   1.718   4.196
 3127SOL    HW210281   0.704   1.834   4.156
 3128SOL     OW10282   4.724   0.354   0.059
 3128SOL    HW110283   4.795   0.339   0.128
 3128SOL    HW210284   4.752   0.429   7.021
 3129SOL     OW10285   4.612   3.633   0.841
 3129SOL    HW110286   4.591   3.549   0.891
 3129SOL    HW210287   4.633   3.706   0.905
 3130SOL     OW10288   1.403   4.419   1.607
 3130SOL    HW110289   1.386   4.432   1.705
 3130SOL    HW210290   1.502   4.412   1.591
 3131SOL     OW10291   6.677   4.134   2.388
 3131SOL    HW110292   6.727   4.117   2.472
 3131SOL    HW210293   6.738   4.172   2.319
 3132SOL     OW10294   3.937   4.232   0.143
 3132SOL    HW110295   3.995   4.197   0.216
 3132SOL    HW210296   3.994   4.254   0.063
 3133SOL     OW10297   4.170   0.653   3.571
 3133SOL    HW110298   4.076   0.622   3.585
 3133SOL    HW210299   4.214   0.597   3.501
 3134SOL     OW10300   3.862   5.335   2.578
 3134SOL    HW110301   3.801   5.346   2.500
 3134SOL    HW210302   3.829   5.261   2.636
 3135SOL     OW10303   5.811   6.723   6.372
 3135SOL    HW110304   5.816   6.822   6.383
 3135SOL    HW210305   5.758   6.684   6.447
 3136SOL     OW10306   6.182   1.072   2.808
 3136SOL    HW110307   6.157   0.976   2.817
 3136SOL    HW210308   6.103   1.125   2.777
 3137SOL     OW10309   6.298   6.840   0.170
 3137SOL    HW110310   6.201   6.816   0.176
 3137SOL    HW210311   6.312   6.931   0.209
 3138SOL     OW10312   5.325   4.863   4.321
 3138SOL    HW110313   5.418   4.845   4.353
 3138SOL    HW210314   5.328   4.901   4.228
 3139SOL     OW10315   2.460   5.498   1.224
 3139SOL    HW110316   2.411   5.575   1.265
 3139SOL    HW210317   2.394   5.435   1.182
 3140SOL     OW10318   6.478   6.546   5.810
 3140SOL    HW110319   6.556   6.551   5.872
 3140SOL    HW210320   6.457   6.451   5.789
 3141SOL     OW10321   6.860   2.418   6.715
 3141SOL    HW110322   6.871   2.400   6.813
 3141SOL    HW210323   6.798   2.351   6.675
 3142SOL     OW10324   5.415   0.802   2.282
 3142SOL    HW110325   5.405   0.900   2.268
 3142SOL    HW210326   5.510   0.775   2.269
 3143SOL     OW10327   6.078   1.203   0.346
 3143SOL    HW110328   6.013   1.131   0.366
 3143SOL    HW210329   6.055   1.246   0.258
 3144SOL     OW10330   4.142   4.271   6.318
 3144SOL    HW110331   4.061   4.221   6.348
 3144SOL    HW210332   4.214   4.205   6.294
 3145SOL     OW10333   1.488   5.719   1.397
 3145SOL    HW110334   1.535   5.699   1.311
 3145SOL    HW210335   1.391   5.736   1.379
 3146SOL     OW10336   0.610   0.717   5.353
 3146SOL    HW110337   0.556   0.699   5.271
 3146SOL    HW210338   0.566   0.671   5.431
 3147SOL     OW10339   4.101   5.055   6.691
 3147SOL    HW110340   4.045   5.119   6.744
 3147SOL    HW210341   4.191   5.046   6.734
 3148SOL     OW10342   0.808   5.372   3.022
 3148SOL    HW110343   0.756   5.389   3.106
 3148SOL    HW210344   0.829   5.460   2.979
 3149SOL     OW10345   3.042   1.502   0.696
 3149SOL    HW110346   3.082   1.411   0.681
 3149SOL    HW210347   2.993   1.503   0.783
 3150SOL     OW10348   6.704   6.601   5.120
 3150SOL    HW110349   6.632   6.533   5.109
 3150SOL    HW210350   6.792   6.559   5.095
 3151SOL     OW10351   5.608   2.037   6.237
 3151SOL    HW110352   5.513   2.013   6.259
 3151SOL    HW210353   5.615   2.135   6.223
 3152SOL     OW10354   1.516   3.569   6.183
 3152SOL    HW110355   1.517   3.495   6.116
 3152SOL    HW210356   1.609   3.588   6.213
 3153SOL     OW10357   6.638   5.531   0.793
 3153SOL    HW110358   6.578   5.611   0.787
 3153SOL    HW210359   6.583   5.450   0.811
 3154SOL     OW10360   5.758   1.676   1.302
 3154SOL    HW110361   5.702   1.757   1.319
 3154SOL    HW210362   5.747   1.612   1.378
 3155SOL     OW10363   0.091   4.645   0.327
 3155SOL    HW110364   0.017   4.671   0.390
 3155SOL    HW210365   0.167   4.708   0.338
 3156SOL     OW10366   3.584   4.188   2.109
 3156SOL    HW110367   3.680   4.162   2.119
 3156SOL    HW210368   3.575   4.287   2.118
 3157SOL     OW10369   0.679   1.572   5.523
 3157SOL    HW110370   0.768   1.547   5.485
 3157SOL    HW210371   0.679   1.670   5.543
 3158SOL     OW10372   3.145   1.555   5.244
 3158SOL    HW110373   3.212   1.496   5.199
 3158SOL    HW210374   3.166   1.651   5.225
 3159SOL     OW10375   5.321   6.904   0.312
 3159SOL    HW110376   5.315   6.836   0.238
 3159SOL    HW210377   5.379   6.868   0.385
 3160SOL     OW10378   2.572   6.852   6.025
 3160SOL    HW110379   2.633   6.787   5.980
 3160SOL    HW210380   2.619   6.896   6.101
 3161SOL     OW10381   1.832   2.747   3.027
 3161SOL    HW110382   1.769   2.772   2.954
 3161SOL    HW210383   1.845   2.824   3.089
 3162SOL     OW10384   1.879   5.868   0.711
 3162SOL    HW110385   1.785   5.847   0.682
 3162SOL    HW210386   1.879   5.953   0.764
 3163SOL     OW10387   4.693   3.722   0.121
 3163SOL    HW110388   4.675   3.802   0.177
 3163SOL    HW210389   4.637   3.726   0.038
 3164SOL     OW10390   2.780   5.570   3.727
 3164SOL    HW110391   2.686   5.537   3.732
 3164SOL    HW210392   2.837   5.503   3.680
 3165SOL     OW10393   1.064   5.230   0.002
 3165SOL    HW110394   0.974   5.194   6.997
 3165SOL    HW210395   1.115   5.158   0.050
 3166SOL     OW10396   3.710   0.986   5.209
 3166SOL    HW110397   3.665   1.075   5.216
 3166SOL    HW210398   3.663   0.930   5.141
 3167SOL     OW10399   4.472   4.245   0.636
 3167SOL    HW110400   4.431   4.154   0.632
 3167SOL    HW210401   4.471   4.278   0.731
 3168SOL     OW10402   4.342   1.882   0.636
 3168SOL    HW110403   4.317   1.840   0.549
 3168SOL    HW210404   4.262   1.925   0.677
 3169SOL     OW10405   1.109   4.958   2.254
 3169SOL    HW110406   1.130   4.880   2.313
 3169SOL    HW210407   1.043   4.931   2.185
 3170SOL     OW10408   3.879   5.612   3.056
 3170SOL    HW110409   3.813   5.627   2.983
 3170SOL    HW210410   3.936   5.694   3.067
 3171SOL     OW10411   5.793   2.512   3.054
 3171SOL    HW110412   5.757   2.472   3.139
 3171SOL    HW210413   5.721   2.564   3.009
 3172SOL     OW10414   0.105   4.874   0.107
 3172SOL    HW110415   0.024   4.816   0.117
 3172SOL    HW210416   0.111   4.935   0.185
 3173SOL     OW10417   3.194   1.440   0.000
 3173SOL    HW110418   3.146   1.358   6.993
 3173SOL    HW210419   3.172   1.459   0.096
 3174SOL     OW10420   2.553   3.720   5.893
 3174SOL    HW110421   2.492   3.700   5.816
 3174SOL    HW210422   2.641   3.674   5.879
 3175SOL     OW10423   6.558   1.069   3.329
 3175SOL    HW110424   6.557   1.054   3.230
 3175SOL    HW210425   6.616   1.000   3.373
 3176SOL     OW10426   0.642   4.285   4.799
 3176SOL    HW110427   0.703   4.275   4.720
 3176SOL    HW210428   0.622   4.382   4.813
 3177SOL     OW10429   5.896   3.847   3.393
 3177SOL    HW110430   5.797   3.845   3.411
 3177SOL    HW210431   5.943   3.886   3.472
 3178SOL     OW10432   6.213   1.128   0.604
 3178SOL    HW110433   6.301   1.169   0.628
 3178SOL    HW210434   6.169   1.180   0.532
 3179SOL     OW10435   0.903   1.798   2.029
 3179SOL    HW110436   0.933   1.890   2.053
 3179SOL    HW210437   0.925   1.735   2.104
 3180SOL     OW10438   6.582   6.010   6.580
 3180SOL    HW110439   6.572   6.012   6.679
 3180SOL    HW210440   6.576   6.103   6.544
 3181SOL     OW10441   0.693   1.165   4.766
 3181SOL    HW110442   0.699   1.140   4.862
 3181SOL    HW210443   0.669   1.262   4.758
 3182SOL     OW10444   2.635   0.404   0.039
 3182SOL    HW110445   2.577   0.433   6.985
 3182SOL    HW210446   2.644   0.478   0.105
 3183SOL     OW10447   4.647   4.374   2.327
 3183SOL    HW110448   4.637   4.456   2.270
 3183SOL    HW210449   4.595   4.299   2.286
 3184SOL     OW10450   0.751   2.251   4.167
 3184SOL    HW110451   0.806   2.306   4.229
 3184SOL    HW210452   0.779   2.269   4.073
 3185SOL     OW10453   0.212   6.443   6.168
 3185SOL    HW110454   0.116   6.418   6.181
 3185SOL    HW210455   0.263   6.424   6.251
 3186SOL     OW10456   1.009   1.210   6.168
 3186SOL    HW110457   1.028   1.230   6.072
 3186SOL    HW210458   1.093   1.179   6.213
 3187SOL     OW10459   3.930   5.982   2.644
 3187SOL    HW110460   3.967   6.027   2.562
 3187SOL    HW210461   3.913   5.885   2.623
 3188SOL     OW10462   2.228   4.703   5.818
 3188SOL    HW110463   2.308   4.732   5.870
 3188SOL    HW210464   2.245   4.718   5.721
 3189SOL     OW10465   2.539   1.320   0.273
 3189SOL    HW110466   2.479   1.355   0.201
 3189SOL    HW210467   2.632   1.310   0.237
 3190SOL     OW10468   0.002   5.950   4.882
 3190SOL    HW110469   6.973   6.015   4.826
 3190SOL    HW210470   7.015   5.974   4.978
 3191SOL     OW10471   4.967   5.565   2.329
 3191SOL    HW110472   4.992   5.507   2.251
 3191SOL    HW210473   5.036   5.638   2.338
 3192SOL     OW10474   6.539   2.397   1.494
 3192SOL    HW110475   6.626   2.349   1.508
 3192SOL    HW210476   6.464   2.331   1.495
 3193SOL     OW10477   4.279   0.784   5.275
 3193SOL    HW110478   4.196   0.802   5.328
 3193SOL    HW210479   4.359   0.790   5.335
 3194SOL     OW10480   1.504   1.082   5.326
 3194SOL    HW110481   1.577   1.127   5.275
 3194SOL    HW210482   1.463   1.010   5.271
 3195SOL     OW10483   0.392   1.350   1.762
 3195SOL    HW110484   0.293   1.364   1.760
 3195SOL    HW210485   0.438   1.438   1.769
 3196SOL     OW10486   6.489   0.424   5.460
 3196SOL    HW110487   6.584   0.419   5.492
 3196SOL    HW210488   6.488   0.440   5.361
 3197SOL     OW10489   2.627   0.226   6.078
 3197SOL    HW110490   2.630   0.170   5.994
 3197SOL    HW210491   2.532   0.241   6.105
 3198SOL     OW10492   6.596   2.648   3.762
 3198SOL    HW110493   6.589   2.557   3.721
 3198SOL    HW210494   6.649   2.708   3.702
 3199SOL     OW10495   5.824   4.427   3.072
 3199SOL    HW110496   5.749   4.482   3.036
 3199SOL    HW210497   5.901   4.487   3.094
 3200SOL     OW10498   5.861   3.354   3.891
 3200SOL    HW110499   5.859   3.255   3.881
 3200SOL    HW210500   5.767   3.390   3.886
 3201SOL     OW10501   6.314   4.410   2.972
 3201SOL    HW110502   6.254   4.357   3.031
 3201SOL    HW210503   6.301   4.382   2.877
 3202SOL     OW10504   1.018   4.839   0.539
 3202SOL    HW110505   1.081   4.901   0.493
 3202SOL    HW210506   1.070   4.773   0.593
 3203SOL     OW10507   4.366   6.940   1.643
 3203SOL    HW110508   4.279   6.983   1.667
 3203SOL    HW210509   4.417   7.000   1.581
 3204SOL     OW10510   2.910   1.138   3.825
 3204SOL    HW110511   2.835   1.136   3.760
 3204SOL    HW210512   2.997   1.143   3.777
 3205SOL     OW10513   5.573   3.271   5.754
 3205SOL    HW110514   5.551   3.177   5.779
 3205SOL    HW210515   5.577   3.328   5.836
 3206SOL     OW10516   2.495   2.880   1.684
 3206SOL    HW110517   2.478   2.950   1.615
 3206SOL    HW210518   2.411   2.863   1.736
 3207SOL     OW10519   0.517   0.392   5.711
 3207SOL    HW110520   0.538   0.338   5.630
 3207SOL    HW210521   0.596   0.448   5.735
 3208SOL     OW10522   6.175   5.804   5.253
 3208SOL    HW110523   6.167   5.710   5.221
 3208SOL    HW210524   6.211   5.861   5.179
 3209SOL     OW10525   4.701   5.423   6.078
 3209SOL    HW110526   4.741   5.506   6.039
 3209SOL    HW210527   4.611   5.443   6.115
 3210SOL     OW10528   0.358   5.326   1.770
 3210SOL    HW110529   0.421   5.278   1.831
 3210SOL    HW210530   0.408   5.393   1.716
 3211SOL     OW10531   1.467   5.809   0.814
 3211SOL    HW110532   1.457   5.724   0.867
 3211SOL    HW210533   1.511   5.789   0.727
 3212SOL     OW10534   3.271   6.959   2.484
 3212SOL    HW110535   3.185   7.002   2.457
 3212SOL    HW210536   3.258   6.909   2.569
 3213SOL     OW10537   2.189   0.789   6.285
 3213SOL    HW110538   2.164   0.885   6.288
 3213SOL    HW210539   2.266   0.777   6.222
 3214SOL     OW10540   3.818   0.284   3.069
 3214SOL    HW110541   3.792   0.191   3.042
 3214SOL    HW210542   3.753   0.349   3.030
 3215SOL     OW10543   1.320   3.105   0.548
 3215SOL    HW110544   1.302   3.023   0.602
 3215SOL    HW210545   1.279   3.185   0.593
 3216SOL     OW10546   5.334   4.374   1.009
 3216SOL    HW110547   5.369   4.467   1.006
 3216SOL    HW210548   5.234   4.376   1.007
 3217SOL     OW10549   6.845   4.747   2.991
 3217SOL    HW110550   6.875   4.840   2.973
 3217SOL    HW210551   6.751   4.748   3.027
 3218SOL     OW10552   6.836   1.691   2.996
 3218SOL    HW110553   6.805   1.609   3.043
 3218SOL    HW210554   6.916   1.668   2.939
 3219SOL     OW10555   6.821   0.648   5.068
 3219SOL    HW110556   6.835   0.558   5.108
 3219SOL    HW210557   6.741   0.691   5.109
 3220SOL     OW10558   6.904   5.858   6.800
 3220SOL    HW110559   6.950   5.932   6.750
 3220SOL    HW210560   6.850   5.897   6.875
 3221SOL     OW10561   4.016   0.464   2.265
 3221SOL    HW110562   4.097   0.463   2.208
 3221SOL    HW210563   3.993   0.558   2.290
 3222SOL     OW10564   2.873   1.384   3.039
 3222SOL    HW110565   2.866   1.481   3.064
 3222SOL    HW210566   2.965   1.351   3.061
 3223SOL     OW10567   1.607   6.803   0.537
 3223SOL    HW110568   1.653   6.820   0.623
 3223SOL    HW210569   1.674   6.793   0.464
 3224SOL     OW10570   4.688   2.776   4.957
 3224SOL    HW110571   4.687   2.873   4.981
 3224SOL    HW210572   4.713   2.722   5.038
 3225SOL     OW10573   3.744   1.063   3.918
 3225SOL    HW110574   3.802   1.134   3.957
 3225SOL    HW210575   3.769   1.049   3.822
 3226SOL     OW10576   1.034   0.242   2.036
 3226SOL    HW110577   1.094   0.298   1.979
 3226SOL    HW210578   1.040   0.146   2.007
 3227SOL     OW10579   3.908   2.359   6.358
 3227SOL    HW110580   3.934   2.265   6.336
 3227SOL    HW210581   3.985   2.420   6.342
 3228SOL     OW10582   1.038   4.018   0.743
 3228SOL    HW110583   1.064   4.112   0.765
 3228SOL    HW210584   0.966   4.018   0.674
 3229SOL     OW10585   2.439   1.005   6.074
 3229SOL    HW110586   2.416   0.908   6.064
 3229SOL    HW210587   2.400   1.057   5.998
 3230SOL     OW10588   2.701   5.645   5.797
 3230SOL    HW110589   2.665   5.613   5.885
 3230SOL    HW210590   2.692   5.572   5.729
 3231SOL     OW10591   3.532   0.861   2.878
 3231SOL    HW110592   3.604   0.792   2.889
 3231SOL    HW210593   3.531   0.893   2.783
 3232SOL     OW10594   4.275   5.873   4.312
 3232SOL    HW110595   4.204   5.812   4.276
 3232SOL    HW210596   4.234   5.937   4.378
 3233SOL     OW10597   0.402   2.243   6.914
 3233SOL    HW110598   0.451   2.235   6.828
 3233SOL    HW210599   0.467   2.248   6.990
 3234SOL     OW10600   1.946   3.217   0.883
 3234SOL    HW110601   1.978   3.221   0.977
 3234SOL    HW210602   1.966   3.303   0.836
 3235SOL     OW10603   6.537   5.536   1.956
 3235SOL    HW110604   6.590   5.502   2.033
 3235SOL    HW210605   6.439   5.526   1.975
 3236SOL     OW10606   2.419   4.267   0.623
 3236SOL    HW110607   2.327   4.306   0.618
 3236SOL    HW210608   2.439   4.218   0.539
 3237SOL     OW10609   6.498   1.582   4.247
 3237SOL    HW110610   6.433   1.533   4.189
 3237SOL    HW210611   6.494   1.546   4.340
 3238SOL     OW10612   6.044   5.044   0.601
 3238SOL    HW110613   6.129   5.090   0.577
 3238SOL    HW210614   5.984   5.108   0.649
 3239SOL     OW10615   0.164   0.232   3.956
 3239SOL    HW110616   0.168   0.296   3.880
 3239SOL    HW210617   0.136   0.280   4.039
 3240SOL     OW10618   0.245   0.327   6.347
 3240SOL    HW110619   0.226   0.237   6.307
 3240SOL    HW210620   0.341   0.331   6.374
 3241SOL     OW10621   4.806   1.597   6.064
 3241SOL    HW110622   4.735   1.574   5.997
 3241SOL    HW210623   4.833   1.514   6.113
 3242SOL     OW10624   5.180   4.206   5.617
 3242SOL    HW110625   5.194   4.295   5.573
 3242SOL    HW210626   5.174   4.219   5.716
 3243SOL     OW10627   3.997   5.495   6.423
 3243SOL    HW110628   4.031   5.403   6.437
 3243SOL    HW210629   3.982   5.511   6.325
 3244SOL     OW10630   5.974   6.159   6.671
 3244SOL    HW110631   5.922   6.239   6.639
 3244SOL    HW210632   6.030   6.124   6.596
 3245SOL     OW10633   4.396   2.438   4.058
 3245SOL    HW110634   4.430   2.483   4.141
 3245SOL    HW210635   4.308   2.394   4.077
 3246SOL     OW10636   0.177   6.859   2.183
 3246SOL    HW110637   0.098   6.844   2.243
 3246SOL    HW210638   0.170   6.798   2.104
 3247SOL     OW10639   0.367   4.177   2.725
 3247SOL    HW110640   0.342   4.165   2.821
 3247SOL    HW210641   0.320   4.108   2.670
 3248SOL     OW10642   5.487   2.039   2.876
 3248SOL    HW110643   5.585   2.038   2.857
 3248SOL    HW210644   5.470   2.074   2.968
 3249SOL     OW10645   3.655   3.469   3.973
 3249SOL    HW110646   3.647   3.515   4.061
 3249SOL    HW210647   3.584   3.399   3.966
 3250SOL     OW10648   5.139   6.017   3.028
 3250SOL    HW110649   5.074   5.945   3.051
 3250SOL    HW210650   5.231   5.990   3.056
 3251SOL     OW10651   2.339   0.514   4.837
 3251SOL    HW110652   2.303   0.453   4.766
 3251SOL    HW210653   2.272   0.585   4.858
 3252SOL     OW10654   2.668   1.191   3.694
 3252SOL    HW110655   2.696   1.286   3.681
 3252SOL    HW210656   2.687   1.139   3.611
 3253SOL     OW10657   5.977   3.227   1.128
 3253SOL    HW110658   5.970   3.316   1.081
 3253SOL    HW210659   6.069   3.191   1.116
 3254SOL     OW10660   5.229   0.509   0.239
 3254SOL    HW110661   5.276   0.594   0.216
 3254SOL    HW210662   5.264   0.434   0.183
 3255SOL     OW10663   5.663   5.345   1.159
 3255SOL    HW110664   5.662   5.365   1.061
 3255SOL    HW210665   5.633   5.251   1.174
 3256SOL     OW10666   4.488   1.999   1.229
 3256SOL    HW110667   4.579   2.017   1.265
 3256SOL    HW210668   4.490   2.005   1.129
 3257SOL     OW10669   3.055   2.123   2.216
 3257SOL    HW110670   3.000   2.042   2.232
 3257SOL    HW210671   2.997   2.197   2.183
 3258SOL     OW10672   3.646   5.309   3.543
 3258SOL    HW110673   3.640   5.233   3.607
 3258SOL    HW210674   3.717   5.289   3.475
 3259SOL     OW10675   5.583   4.812   4.380
 3259SOL    HW110676   5.627   4.793   4.468
 3259SOL    HW210677   5.648   4.857   4.319
 3260SOL     OW10678   1.695   4.577   2.168
 3260SOL    HW110679   1.769   4.638   2.197
 3260SOL    HW210680   1.725   4.482   2.173
 3261SOL     OW10681   5.745   0.868   2.896
 3261SOL    HW110682   5.755   0.806   2.819
 3261SOL    HW210683   5.818   0.853   2.963
 3262SOL     OW10684   4.078   1.898   2.457
 3262SOL    HW110685   4.065   1.938   2.548
 3262SOL    HW210686   3.999   1.919   2.400
 3263SOL     OW10687   2.573   0.948   3.201
 3263SOL    HW110688   2.547   0.976   3.108
 3263SOL    HW210689   2.511   0.991   3.267
 3264SOL     OW10690   2.326   5.083   0.351
 3264SOL    HW110691   2.300   4.989   0.327
 3264SOL    HW210692   2.271   5.147   0.298
 3265SOL     OW10693   6.278   6.099   5.435
 3265SOL    HW110694   6.182   6.091   5.409
 3265SOL    HW210695   6.303   6.023   5.494
 3266SOL     OW10696   2.989   4.449   0.498
 3266SOL    HW110697   2.960   4.367   0.547
 3266SOL    HW210698   3.058   4.424   0.430
 3267SOL     OW10699   3.976   1.013   1.260
 3267SOL    HW110700   3.948   1.100   1.300
 3267SOL    HW210701   4.065   0.986   1.298
 3268SOL     OW10702   0.709   4.811   1.665
 3268SOL    HW110703   0.683   4.806   1.762
 3268SOL    HW210704   0.626   4.817   1.609
 3269SOL     OW10705   0.408   5.477   2.127
 3269SOL    HW110706   0.480   5.426   2.172
 3269SOL    HW210707   0.415   5.574   2.153
 3270SOL     OW10708   0.725   2.812   5.549
 3270SOL    HW110709   0.672   2.730   5.528
 3270SOL    HW210710   0.818   2.803   5.511
 3271SOL     OW10711   0.020   3.363   1.678
 3271SOL    HW110712   6.943   3.348   1.677
 3271SOL    HW210713   0.045   3.410   1.762
 3272SOL     OW10714   4.099   5.971   0.132
 3272SOL    HW110715   4.116   6.021   0.217
 3272SOL    HW210716   4.175   5.985   0.069
 3273SOL     OW10717   4.678   3.859   6.330
 3273SOL    HW110718   4.598   3.892   6.279
 3273SOL    HW210719   4.740   3.812   6.268
 3274SOL     OW10720   6.279   1.025   0.133
 3274SOL    HW110721   6.291   1.108   0.079
 3274SOL    HW210722   6.311   1.040   0.226
 3275SOL     OW10723   4.736   0.640   1.263
 3275SOL    HW110724   4.690   0.728   1.256
 3275SOL    HW210725   4.799   0.641   1.342
 3276SOL     OW10726   4.509   6.836   0.057
 3276SOL    HW110727   4.420   6.862   0.021
 3276SOL    HW210728   4.563   6.791   7.008
 3277SOL     OW10729   3.002   1.345   1.830
 3277SOL    HW110730   2.909   1.315   1.806
 3277SOL    HW210731   2.997   1.435   1.872
 3278SOL     OW10732   0.069   0.328   6.570
 3278SOL    HW110733   0.085   0.386   6.650
 3278SOL    HW210734   0.141   0.345   6.502
 3279SOL     OW10735   4.422   6.838   1.288
 3279SOL    HW110736   4.491   6.895   1.334
 3279SOL    HW210737   4.370   6.894   1.224
 3280SOL     OW10738   5.608   3.860   3.885
 3280SOL    HW110739   5.651   3.783   3.839
 3280SOL    HW210740   5.524   3.830   3.930
 3281SOL     OW10741   6.992   4.872   1.572
 3281SOL    HW110742   0.052   4.854   1.519
 3281SOL    HW210743   7.017   4.924   1.654
 3282SOL     OW10744   0.582   3.935   5.276
 3282SOL    HW110745   0.635   3.953   5.359
 3282SOL    HW210746   0.504   3.998   5.271
 3283SOL     OW10747   3.315   1.334   1.333
 3283SOL    HW110748   3.306   1.432   1.354
 3283SOL    HW210749   3.230   1.287   1.356
 3284SOL     OW10750   1.789   5.472   4.793
 3284SOL    HW110751   1.737   5.507   4.871
 3284SOL    HW210752   1.798   5.544   4.724
 3285SOL     OW10753   5.105   1.185   4.729
 3285SOL    HW110754   5.138   1.276   4.703
 3285SOL    HW210755   5.168   1.145   4.796
 3286SOL     OW10756   3.262   1.874   1.969
 3286SOL    HW110757   3.200   1.942   1.931
 3286SOL    HW210758   3.355   1.890   1.934
 3287SOL     OW10759   1.161   6.928   6.412
 3287SOL    HW110760   1.244   6.904   6.361
 3287SOL    HW210761   1.184   6.940   6.509
 3288SOL     OW10762   1.484   6.517   0.605
 3288SOL    HW110763   1.508   6.612   0.589
 3288SOL    HW210764   1.567   6.463   0.616
 3289SOL     OW10765   3.005   1.742   6.966
 3289SOL    HW110766   3.003   1.699   0.034
 3289SOL    HW210767   3.079   1.702   6.912
 3290SOL     OW10768   6.286   5.272   0.661
 3290SOL    HW110769   6.306   5.196   0.598
 3290SOL    HW210770   6.317   5.358   0.620
 3291SOL     OW10771   4.194   0.344   6.452
 3291SOL    HW110772   4.191   0.294   6.539
 3291SOL    HW210773   4.264   0.303   6.393
 3292SOL     OW10774   0.658   1.528   0.790
 3292SOL    HW110775   0.749   1.569   0.787
 3292SOL    HW210776   0.604   1.572   0.861
 3293SOL     OW10777   6.947   4.630   2.739
 3293SOL    HW110778   6.921   4.647   2.834
 3293SOL    HW210779   6.870   4.588   2.691
 3294SOL     OW10780   5.575   2.272   5.563
 3294SOL    HW110781   5.638   2.301   5.635
 3294SOL    HW210782   5.483   2.306   5.583
 3295SOL     OW10783   1.693   3.134   0.949
 3295SOL    HW110784   1.787   3.147   0.918
 3295SOL    HW210785   1.691   3.059   1.016
 3296SOL     OW10786   6.860   6.918   5.316
 3296SOL    HW110787   6.829   6.962   5.400
 3296SOL    HW210788   6.849   6.819   5.324
 3297SOL     OW10789   3.136   2.079   5.450
 3297SOL    HW110790   3.050   2.121   5.422
 3297SOL    HW210791   3.207   2.101   5.384
 3298SOL     OW10792   6.040   3.801   4.900
 3298SOL    HW110793   6.007   3.746   4.977
 3298SOL    HW210794   6.043   3.745   4.817
 3299SOL     OW10795   4.132   5.070   3.353
 3299SOL    HW110796   4.127   5.163   3.390
 3299SOL    HW210797   4.130   5.004   3.428
 3300SOL     OW10798   2.565   6.935   5.340
 3300SOL    HW110799   2.651   6.969   5.303
 3300SOL    HW210800   2.506   7.012   5.364
 3301SOL     OW10801   1.533   3.091   2.801
 3301SOL    HW110802   1.596   3.144   2.859
 3301SOL    HW210803   1.568   3.089   2.707
 3302SOL     OW10804   1.319   4.555   6.726
 3302SOL    HW110805   1.291   4.633   6.782
 3302SOL    HW210806   1.280   4.563   6.635
 3303SOL     OW10807   3.546   2.898   0.432
 3303SOL    HW110808   3.642   2.868   0.436
 3303SOL    HW210809   3.525   2.930   0.340
 3304SOL     OW10810   2.163   4.491   6.731
 3304SOL    HW110811   2.200   4.584   6.732
 3304SOL    HW210812   2.183   4.448   6.643
 3305SOL     OW10813   3.408   0.710   0.882
 3305SOL    HW110814   3.406   0.793   0.938
 3305SOL    HW210815   3.372   0.633   0.935
 3306SOL     OW10816   1.300   6.264   6.626
 3306SOL    HW110817   1.356   6.297   6.551
 3306SOL    HW210818   1.328   6.309   6.711
 3307SOL     OW10819   1.167   6.960   6.035
 3307SOL    HW110820   1.157   0.035   6.055
 3307SOL    HW210821   1.078   6.920   6.015
 3308SOL     OW10822   3.855   4.684   1.265
 3308SOL    HW110823   3.860   4.617   1.339
 3308SOL    HW210824   3.867   4.776   1.304
 3309SOL     OW10825   5.426   4.684   4.085
 3309SOL    HW110826   5.384   4.775   4.084
 3309SOL    HW210827   5.354   4.615   4.084
 3310SOL     OW10828   0.754   4.797   4.608
 3310SOL    HW110829   0.730   4.804   4.705
 3310SOL    HW210830   0.704   4.866   4.556
 3311SOL     OW10831   3.743   3.459   1.271
 3311SOL    HW110832   3.831   3.491   1.308
 3311SOL    HW210833   3.689   3.538   1.242
 3312SOL     OW10834   4.431   2.803   5.665
 3312SOL    HW110835   4.464   2.854   5.745
 3312SOL    HW210836   4.505   2.795   5.598
 3313SOL     OW10837   0.637   0.690   3.380
 3313SOL    HW110838   0.714   0.721   3.435
 3313SOL    HW210839   0.671   0.647   3.296
 3314SOL     OW10840   2.201   0.281   2.953
 3314SOL    HW110841   2.107   0.315   2.951
 3314SOL    HW210842   2.263   0.356   2.977
 3315SOL     OW10843   0.789   4.826   4.887
 3315SOL    HW110844   0.710   4.888   4.890
 3315SOL    HW210845   0.870   4.876   4.918
 3316SOL     OW10846   3.265   0.914   6.044
 3316SOL    HW110847   3.202   0.854   6.095
 3316SOL    HW210848   3.276   0.878   5.952
 3317SOL     OW10849   5.829   2.048   1.900
 3317SOL    HW110850   5.821   2.037   1.999
 3317SOL    HW210851   5.844   1.959   1.858
 3318SOL     OW10852   2.785   1.767   6.621
 3318SOL    HW110853   2.857   1.810   6.567
 3318SOL    HW210854   2.695   1.801   6.592
 3319SOL     OW10855   6.953   6.921   2.627
 3319SOL    HW110856   7.015   6.986   2.672
 3319SOL    HW210857   7.006   6.864   2.564
 3320SOL     OW10858   6.547   1.317   0.406
 3320SOL    HW110859   6.522   1.385   0.475
 3320SOL    HW210860   6.645   1.325   0.385
 3321SOL     OW10861   5.665   1.425   0.868
 3321SOL    HW110862   5.630   1.428   0.774
 3321SOL    HW210863   5.676   1.518   0.902
 3322SOL     OW10864   6.460   3.456   0.738
 3322SOL    HW110865   6.544   3.405   0.720
 3322SOL    HW210866   6.482   3.543   0.781
 3323SOL     OW10867   2.583   1.862   1.995
 3323SOL    HW110868   2.674   1.899   2.014
 3323SOL    HW210869   2.514   1.918   2.041
 3324SOL     OW10870   4.757   5.683   5.850
 3324SOL    HW110871   4.691   5.759   5.848
 3324SOL    HW210872   4.709   5.597   5.832
 3325SOL     OW10873   0.935   3.348   6.651
 3325SOL    HW110874   1.031   3.354   6.675
 3325SOL    HW210875   0.914   3.255   6.618
 3326SOL     OW10876   5.276   0.931   3.101
 3326SOL    HW110877   5.215   0.963   3.173
 3326SOL    HW210878   5.241   0.959   3.012
 3327SOL     OW10879   1.704   6.175   1.496
 3327SOL    HW110880   1.697   6.230   1.580
 3327SOL    HW210881   1.657   6.088   1.510
 3328SOL     OW10882   3.616   1.992   1.177
 3328SOL    HW110883   3.554   1.954   1.246
 3328SOL    HW210884   3.629   2.090   1.195
 3329SOL     OW10885   5.903   6.642   5.233
 3329SOL    HW110886   5.933   6.591   5.314
 3329SOL    HW210887   5.825   6.700   5.258
 3330SOL     OW10888   0.116   3.278   2.417
 3330SOL    HW110889   0.070   3.191   2.438
 3330SOL    HW210890   0.049   3.342   2.379
 3331SOL     OW10891   1.939   2.401   1.267
 3331SOL    HW110892   1.853   2.398   1.318
 3331SOL    HW210893   1.923   2.440   1.176
 3332SOL     OW10894   5.370   5.223   0.425
 3332SOL    HW110895   5.470   5.226   0.417
 3332SOL    HW210896   5.345   5.187   0.515
 3333SOL     OW10897   4.096   5.241   6.457
 3333SOL    HW110898   4.083   5.182   6.537
 3333SOL    HW210899   4.087   5.186   6.374
 3334SOL     OW10900   3.533   3.351   1.399
 3334SOL    HW110901   3.609   3.393   1.350
 3334SOL    HW210902   3.542   3.370   1.497
 3335SOL     OW10903   4.725   5.175   5.565
 3335SOL    HW110904   4.689   5.144   5.477
 3335SOL    HW210905   4.805   5.120   5.589
 3336SOL     OW10906   3.032   5.535   5.923
 3336SOL    HW110907   3.109   5.495   5.973
 3336SOL    HW210908   3.023   5.631   5.947
 3337SOL     OW10909   3.771   2.211   1.370
 3337SOL    HW110910   3.681   2.234   1.332
 3337SOL    HW210911   3.774   2.237   1.466
 3338SOL     OW10912   6.685   4.133   1.579
 3338SOL    HW110913   6.675   4.102   1.673
 3338SOL    HW210914   6.606   4.102   1.525
 3339SOL     OW10915   6.875   6.294   6.905
 3339SOL    HW110916   6.815   6.299   6.985
 3339SOL    HW210917   6.820   6.306   6.822
 3340SOL     OW10918   3.509   6.786   1.834
 3340SOL    HW110919   3.414   6.814   1.820
 3340SOL    HW210920   3.540   6.734   1.754
 3341SOL     OW10921   0.231   6.999   2.869
 3341SOL    HW110922   0.310   0.032   2.895
 3341SOL    HW210923   0.150   0.034   2.859
 3342SOL     OW10924   2.129   0.136   3.575
 3342SOL    HW110925   2.179   0.107   3.656
 3342SOL    HW210926   2.110   0.057   3.517
 3343SOL     OW10927   4.756   3.147   0.873
 3343SOL    HW110928   4.826   3.100   0.820
 3343SOL    HW210929   4.665   3.120   0.839
 3344SOL     OW10930   5.198   3.786   4.977
 3344SOL    HW110931   5.244   3.827   5.056
 3344SOL    HW210932   5.130   3.849   4.942
 3345SOL     OW10933   2.762   3.699   6.085
 3345SOL    HW110934   2.812   3.784   6.070
 3345SOL    HW210935   2.827   3.625   6.103
 3346SOL     OW10936   0.530   1.469   2.269
 3346SOL    HW110937   0.514   1.512   2.358
 3346SOL    HW210938   0.620   1.424   2.270
 3347SOL     OW10939   6.783   4.173   3.905
 3347SOL    HW110940   6.705   4.231   3.882
 3347SOL    HW210941   6.844   4.221   3.968
 3348SOL     OW10942   3.476   3.287   3.868
 3348SOL    HW110943   3.432   3.261   3.954
 3348SOL    HW210944   3.417   3.262   3.792
 3349SOL     OW10945   6.994   4.517   4.415
 3349SOL    HW110946   6.975   4.571   4.333
 3349SOL    HW210947   0.057   4.466   4.402
 3350SOL     OW10948   2.214   1.367   6.838
 3350SOL    HW110949   2.228   1.281   6.789
 3350SOL    HW210950   2.127   1.408   6.809
 3351SOL     OW10951   5.848   0.525   1.175
 3351SOL    HW110952   5.872   0.597   1.110
 3351SOL    HW210953   5.909   0.447   1.163
 3352SOL     OW10954   0.908   4.252   0.460
 3352SOL    HW110955   0.926   4.328   0.523
 3352SOL    HW210956   0.865   4.177   0.510
 3353SOL     OW10957   1.538   0.463   0.211
 3353SOL    HW110958   1.542   0.548   0.158
 3353SOL    HW210959   1.442   0.439   0.228
 3354SOL     OW10960   6.458   1.851   3.266
 3354SOL    HW110961   6.448   1.769   3.323
 3354SOL    HW210962   6.526   1.912   3.307
 3355SOL     OW10963   0.002   2.253   0.921
 3355SOL    HW110964   6.928   2.244   0.898
 3355SOL    HW210965   0.016   2.238   1.018
 3356SOL     OW10966   2.949   3.279   0.297
 3356SOL    HW110967   2.878   3.271   0.226
 3356SOL    HW210968   2.956   3.374   0.326
 3357SOL     OW10969   2.013   5.198   1.228
 3357SOL    HW110970   1.942   5.157   1.285
 3357SOL    HW210971   2.026   5.294   1.254
 3358SOL     OW10972   5.083   6.417   2.118
 3358SOL    HW110973   5.061   6.347   2.051
 3358SOL    HW210974   4.999   6.456   2.155
 3359SOL     OW10975   0.293   0.452   2.881
 3359SOL    HW110976   0.385   0.479   2.910
 3359SOL    HW210977   0.225   0.503   2.934
 3360SOL     OW10978   0.361   1.062   0.481
 3360SOL    HW110979   0.411   1.132   0.429
 3360SOL    HW210980   0.286   1.027   0.426
 3361SOL     OW10981   6.341   5.675   2.877
 3361SOL    HW110982   6.243   5.673   2.897
 3361SOL    HW210983   6.389   5.617   2.943
 3362SOL     OW10984   2.975   1.352   5.034
 3362SOL    HW110985   2.999   1.448   5.044
 3362SOL    HW210986   2.982   1.325   4.937
 3363SOL     OW10987   0.673   1.393   6.518
 3363SOL    HW110988   0.745   1.407   6.586
 3363SOL    HW210989   0.704   1.330   6.448
 3364SOL     OW10990   1.052   5.743   6.143
 3364SOL    HW110991   0.979   5.777   6.085
 3364SOL    HW210992   1.129   5.715   6.086
 3365SOL     OW10993   0.500   1.920   4.581
 3365SOL    HW110994   0.445   1.991   4.624
 3365SOL    HW210995   0.486   1.921   4.482
 3366SOL     OW10996   5.899   1.022   5.205
 3366SOL    HW110997   5.882   0.968   5.288
 3366SOL    HW210998   5.816   1.028   5.151
 3367SOL     OW10999   1.794   2.253   1.711
 3367SOL    HW111000   1.780   2.254   1.810
 3367SOL    HW211001   1.865   2.186   1.689
 3368SOL     OW11002   6.469   5.213   6.138
 3368SOL    HW111003   6.519   5.202   6.052
 3368SOL    HW211004   6.512   5.284   6.193
 3369SOL     OW11005   3.621   1.136   0.418
 3369SOL    HW111006   3.642   1.233   0.428
 3369SOL    HW211007   3.698   1.081   0.452
 3370SOL     OW11008   6.544   6.995   4.898
 3370SOL    HW111009   6.556   6.946   4.985
 3370SOL    HW211010   6.628   0.021   4.875
 3371SOL     OW11011   1.231   4.058   2.263
 3371SOL    HW111012   1.154   4.069   2.326
 3371SOL    HW211013   1.268   3.965   2.271
 3372SOL     OW11014   0.147   1.207   2.226
 3372SOL    HW111015   0.188   1.155   2.151
 3372SOL    HW211016   0.211   1.212   2.303
 3373SOL     OW11017   6.008   1.166   4.259
 3373SOL    HW111018   5.956   1.140   4.341
 3373SOL    HW211019   6.105   1.147   4.274
 3374SOL     OW11020   3.769   6.061   5.285
 3374SOL    HW111021   3.766   6.139   5.347
 3374SOL    HW211022   3.815   6.088   5.200
 3375SOL     OW11023   4.576   4.613   5.027
 3375SOL    HW111024   4.599   4.522   5.062
 3375SOL    HW211025   4.479   4.632   5.044
 3376SOL     OW11026   3.711   2.990   2.412
 3376SOL    HW111027   3.624   2.956   2.377
 3376SOL    HW211028   3.769   3.017   2.335
 3377SOL     OW11029   1.241   6.278   5.148
 3377SOL    HW111030   1.195   6.207   5.095
 3377SOL    HW211031   1.331   6.296   5.109
 3378SOL     OW11032   6.662   1.411   1.024
 3378SOL    HW111033   6.695   1.335   1.079
 3378SOL    HW211034   6.659   1.384   0.928
 3379SOL     OW11035   0.247   4.607   6.172
 3379SOL    HW111036   0.157   4.619   6.214
 3379SOL    HW211037   0.238   4.607   6.072
 3380SOL     OW11038   6.617   4.996   6.217
 3380SOL    HW111039   6.599   4.925   6.149
 3380SOL    HW211040   6.569   5.080   6.190
 3381SOL     OW11041   2.500   2.193   0.480
 3381SOL    HW111042   2.416   2.214   0.431
 3381SOL    HW211043   2.541   2.278   0.514
 3382SOL     OW11044   0.148   1.438   0.003
 3382SOL    HW111045   0.217   1.366   0.006
 3382SOL    HW211046   0.084   1.426   0.079
 3383SOL     OW11047   6.156   4.783   2.870
 3383SOL    HW111048   6.106   4.840   2.805
 3383SOL    HW211049   6.246   4.822   2.887
 3384SOL     OW11050   3.518   3.311   4.780
 3384SOL    HW111051   3.534   3.408   4.797
 3384SOL    HW211052   3.440   3.300   4.719
 3385SOL     OW11053   6.226   3.939   3.826
 3385SOL    HW111054   6.256   4.002   3.898
 3385SOL    HW211055   6.172   3.865   3.867
 3386SOL     OW11056   5.912   4.042   4.966
 3386SOL    HW111057   5.860   4.035   5.051
 3386SOL    HW211058   5.958   3.955   4.949
 3387SOL     OW11059   2.479   2.581   2.447
 3387SOL    HW111060   2.519   2.532   2.524
 3387SOL    HW211061   2.534   2.563   2.365
 3388SOL     OW11062   5.588   3.051   0.952
 3388SOL    HW111063   5.671   3.066   1.005
 3388SOL    HW211064   5.577   3.125   0.885
 3389SOL     OW11065   4.670   4.221   3.989
 3389SOL    HW111066   4.661   4.320   4.002
 3389SOL    HW211067   4.692   4.179   4.077
 3390SOL     OW11068   5.011   2.951   5.932
 3390SOL    HW111069   4.918   2.945   5.897
 3390SOL    HW211070   5.076   2.942   5.856
 3391SOL     OW11071   4.406   1.392   4.709
 3391SOL    HW111072   4.393   1.380   4.808
 3391SOL    HW211073   4.460   1.474   4.692
 3392SOL     OW11074   1.885   1.006   4.081
 3392SOL    HW111075   1.867   0.908   4.081
 3392SOL    HW211076   1.954   1.027   4.012
 3393SOL     OW11077   6.375   6.737   0.774
 3393SOL    HW111078   6.422   6.664   0.823
 3393SOL    HW211079   6.277   6.718   0.773
 3394SOL     OW11080   5.804   3.033   1.102
 3394SOL    HW111081   5.752   3.019   1.186
 3394SOL    HW211082   5.875   3.101   1.118
 3395SOL     OW11083   6.454   3.320   3.770
 3395SOL    HW111084   6.419   3.332   3.863
 3395SOL    HW211085   6.484   3.408   3.734
 3396SOL     OW11086   0.453   3.277   3.477
 3396SOL    HW111087   0.420   3.331   3.400
 3396SOL    HW211088   0.408   3.187   3.476
 3397SOL     OW11089   3.709   0.856   5.516
 3397SOL    HW111090   3.757   0.859   5.429
 3397SOL    HW211091   3.765   0.807   5.584
 3398SOL     OW11092   1.075   0.169   4.091
 3398SOL    HW111093   1.012   0.222   4.034
 3398SOL    HW211094   1.115   0.095   4.036
 3399SOL     OW11095   4.327   4.587   4.114
 3399SOL    HW111096   4.314   4.610   4.018
 3399SOL    HW211097   4.239   4.592   4.162
 3400SOL     OW11098   4.751   2.134   6.108
 3400SOL    HW111099   4.733   2.048   6.155
 3400SOL    HW211100   4.678   2.151   6.042
 3401SOL     OW11101   6.990   3.898   1.023
 3401SOL    HW111102   0.027   3.817   1.033
 3401SOL    HW211103   0.021   3.974   0.986
 3402SOL     OW11104   5.575   5.735   1.416
 3402SOL    HW111105   5.536   5.675   1.347
 3402SOL    HW211106   5.552   5.700   1.507
 3403SOL     OW11107   4.003   0.629   5.021
 3403SOL    HW111108   3.910   0.641   4.986
 3403SOL    HW211109   4.053   0.565   4.962
 3404SOL     OW11110   4.577   1.783   0.405
 3404SOL    HW111111   4.572   1.690   0.369
 3404SOL    HW211112   4.488   1.827   0.396
 3405SOL     OW11113   6.514   3.775   5.946
 3405SOL    HW111114   6.607   3.739   5.936
 3405SOL    HW211115   6.516   3.856   6.005
 3406SOL     OW11116   2.164   4.586   1.871
 3406SOL    HW111117   2.249   4.582   1.923
 3406SOL    HW211118   2.169   4.661   1.805
 3407SOL     OW11119   1.438   5.665   1.790
 3407SOL    HW111120   1.415   5.758   1.763
 3407SOL    HW211121   1.487   5.667   1.877
 3408SOL     OW11122   4.753   4.240   3.713
 3408SOL    HW111123   4.770   4.162   3.652
 3408SOL    HW211124   4.743   4.206   3.807
 3409SOL     OW11125   3.934   0.009   5.739
 3409SOL    HW111126   4.014   6.981   5.706
 3409SOL    HW211127   3.932   0.099   5.695
 3410SOL     OW11128   6.038   5.611   0.002
 3410SOL    HW111129   6.090   5.668   6.960
 3410SOL    HW211130   6.065   5.634   0.095
 3411SOL     OW11131   6.055   2.319   2.039
 3411SOL    HW111132   6.009   2.295   2.124
 3411SOL    HW211133   6.147   2.351   2.058
 3412SOL     OW11134   4.069   3.405   0.093
 3412SOL    HW111135   4.133   3.481   0.103
 3412SOL    HW211136   3.994   3.432   0.032
 3413SOL     OW11137   4.092   1.237   2.742
 3413SOL    HW111138   4.027   1.311   2.759
 3413SOL    HW211139   4.086   1.208   2.646
 3414SOL     OW11140   3.316   1.743   4.850
 3414SOL    HW111141   3.410   1.763   4.823
 3414SOL    HW211142   3.315   1.689   4.934
 3415SOL     OW11143   1.042   4.820   4.374
 3415SOL    HW111144   1.080   4.760   4.444
 3415SOL    HW211145   1.091   4.908   4.374
 3416SOL     OW11146   0.005   4.453   5.961
 3416SOL    HW111147   0.073   4.499   5.905
 3416SOL    HW211148   0.047   4.374   6.006
 3417SOL     OW11149   6.538   5.884   2.787
 3417SOL    HW111150   6.472   5.817   2.820
 3417SOL    HW211151   6.543   5.960   2.853
 3418SOL     OW11152   4.139   0.872   4.043
 3418SOL    HW111153   4.108   0.939   3.975
 3418SOL    HW211154   4.086   0.884   4.127
 3419SOL     OW11155   3.812   4.970   6.248
 3419SOL    HW111156   3.740   5.035   6.227
 3419SOL    HW211157   3.788   4.918   6.330
 3420SOL     OW11158   5.331   1.769   3.318
 3420SOL    HW111159   5.238   1.806   3.316
 3420SOL    HW211160   5.361   1.750   3.224
 3421SOL     OW11161   6.390   0.590   5.624
 3421SOL    HW111162   6.457   0.663   5.633
 3421SOL    HW211163   6.422   0.523   5.556
 3422SOL     OW11164   3.605   0.135   0.814
 3422SOL    HW111165   3.603   0.226   0.855
 3422SOL    HW211166   3.696   0.095   0.824
 3423SOL     OW11167   2.205   1.112   7.017
 3423SOL    HW111168   2.299   1.088   6.992
 3423SOL    HW211169   2.151   1.126   6.935
 3424SOL     OW11170   3.951   0.722   2.330
 3424SOL    HW111171   3.867   0.737   2.382
 3424SOL    HW211172   4.028   0.765   2.377
 3425SOL     OW11173   4.744   4.142   2.495
 3425SOL    HW111174   4.719   4.228   2.451
 3425SOL    HW211175   4.751   4.155   2.593
 3426SOL     OW11176   3.589   3.644   0.193
 3426SOL    HW111177   3.631   3.623   0.105
 3426SOL    HW211178   3.546   3.735   0.188
 3427SOL     OW11179   6.469   6.723   0.343
 3427SOL    HW111180   6.568   6.706   0.344
 3427SOL    HW211181   6.440   6.743   0.249
 3428SOL     OW11182   4.057   5.229   2.071
 3428SOL    HW111183   4.069   5.294   2.146
 3428SOL    HW211184   3.988   5.161   2.096
 3429SOL     OW11185   0.990   2.288   6.917
 3429SOL    HW111186   0.931   2.221   6.962
 3429SOL    HW211187   1.073   2.243   6.884
 3430SOL     OW11188   1.489   6.405   6.472
 3430SOL    HW111189   1.580   6.372   6.499
 3430SOL    HW211190   1.489   6.505   6.475
 3431SOL     OW11191   2.274   6.950   1.143
 3431SOL    HW111192   2.309   0.001   1.201
 3431SOL    HW211193   2.302   6.862   1.181
 3432SOL     OW11194   2.736   2.290   5.252
 3432SOL    HW111195   2.811   2.227   5.230
 3432SOL    HW211196   2.649   2.241   5.245
 3433SOL     OW11197   2.255   1.132   6.687
 3433SOL    HW111198   2.182   1.077   6.645
 3433SOL    HW211199   2.344   1.091   6.665
 3434SOL     OW11200   3.283   2.836   0.420
 3434SOL    HW111201   3.372   2.873   0.446
 3434SOL    HW211202   3.270   2.747   0.464
 3435SOL     OW11203   6.820   2.376   1.278
 3435SOL    HW111204   6.807   2.475   1.284
 3435SOL    HW211205   6.908   2.357   1.235
 3436SOL     OW11206   4.595   6.884   5.125
 3436SOL    HW111207   4.605   6.785   5.134
 3436SOL    HW211208   4.621   6.928   5.211
 3437SOL     OW11209   4.399   0.850   6.198
 3437SOL    HW111210   4.489   0.806   6.206
 3437SOL    HW211211   4.378   0.899   6.282
 3438SOL     OW11212   1.499   2.974   6.276
 3438SOL    HW111213   1.408   2.951   6.242
 3438SOL    HW211214   1.502   3.071   6.299
 3439SOL     OW11215   2.852   0.037   4.688
 3439SOL    HW111216   2.870   0.083   4.601
 3439SOL    HW211217   2.766   7.009   4.681
 3440SOL     OW11218   4.556   3.300   1.360
 3440SOL    HW111219   4.547   3.399   1.354
 3440SOL    HW211220   4.644   3.272   1.322
 3441SOL     OW11221   5.047   0.456   3.278
 3441SOL    HW111222   5.096   0.522   3.220
 3441SOL    HW211223   5.008   0.503   3.357
 3442SOL     OW11224   2.280   4.715   3.559
 3442SOL    HW111225   2.291   4.727   3.460
 3442SOL    HW211226   2.183   4.700   3.580
 3443SOL     OW11227   5.486   1.183   3.312
 3443SOL    HW111228   5.397   1.228   3.323
 3443SOL    HW211229   5.474   1.095   3.265
 3444SOL     OW11230   5.222   5.496   6.523
 3444SOL    HW111231   5.253   5.402   6.519
 3444SOL    HW211232   5.152   5.511   6.452
 3445SOL     OW11233   6.373   3.831   4.322
 3445SOL    HW111234   6.455   3.882   4.348
 3445SOL    HW211235   6.292   3.885   4.343
 3446SOL     OW11236   5.032   0.605   2.906
 3446SOL    HW111237   5.073   0.522   2.943
 3446SOL    HW211238   4.938   0.586   2.877
 3447SOL     OW11239   5.245   5.069   0.227
 3447SOL    HW111240   5.288   4.985   0.260
 3447SOL    HW211241   5.290   5.148   0.270
 3448SOL     OW11242   3.810   6.629   1.058
 3448SOL    HW111243   3.842   6.539   1.086
 3448SOL    HW211244   3.887   6.683   1.025
 3449SOL     OW11245   6.409   6.238   2.452
 3449SOL    HW111246   6.469   6.168   2.492
 3449SOL    HW211247   6.458   6.325   2.446
 3450SOL     OW11248   0.923   2.482   0.758
 3450SOL    HW111249   0.844   2.498   0.699
 3450SOL    HW211250   0.966   2.395   0.734
 3451SOL     OW11251   0.806   5.346   3.786
 3451SOL    HW111252   0.788   5.248   3.791
 3451SOL    HW211253   0.875   5.371   3.853
 3452SOL     OW11254   6.665   1.061   0.189
 3452SOL    HW111255   6.618   0.974   0.172
 3452SOL    HW211256   6.618   1.111   0.261
 3453SOL     OW11257   5.806   5.983   5.242
 3453SOL    HW111258   5.754   5.908   5.285
 3453SOL    HW211259   5.820   5.963   5.145
 3454SOL     OW11260   2.087   1.051   6.324
 3454SOL    HW111261   2.063   1.060   6.420
 3454SOL    HW211262   2.046   1.126   6.272
 3455SOL     OW11263   1.280   2.830   4.605
 3455SOL    HW111264   1.354   2.769   4.578
 3455SOL    HW211265   1.231   2.862   4.523
 3456SOL     OW11266   5.931   5.699   2.147
 3456SOL    HW111267   5.912   5.680   2.243
 3456SOL    HW211268   5.916   5.616   2.093
 3457SOL     OW11269   2.764   5.112   4.264
 3457SOL    HW111270   2.851   5.084   4.305
 3457SOL    HW211271   2.693   5.046   4.288
 3458SOL     OW11272   5.284   6.640   6.898
 3458SOL    HW111273   5.333   6.562   6.858
 3458SOL    HW211274   5.234   6.689   6.827
 3459SOL     OW11275   0.299   3.715   3.156
 3459SOL    HW111276   0.356   3.742   3.079
 3459SOL    HW211277   0.348   3.732   3.241
 3460SOL     OW11278   3.504   3.449   0.646
 3460SOL    HW111279   3.411   3.442   0.611
 3460SOL    HW211280   3.502   3.469   0.744
 3461SOL     OW11281   3.795   5.516   4.761
 3461SOL    HW111282   3.702   5.493   4.791
 3461SOL    HW211283   3.806   5.615   4.760
 3462SOL     OW11284   6.189   3.285   2.422
 3462SOL    HW111285   6.289   3.287   2.419
 3462SOL    HW211286   6.158   3.345   2.495
 3463SOL     OW11287   0.780   3.110   2.834
 3463SOL    HW111288   0.723   3.131   2.913
 3463SOL    HW211289   0.722   3.101   2.753
 3464SOL     OW11290   5.533   2.181   6.796
 3464SOL    HW111291   5.609   2.245   6.804
 3464SOL    HW211292   5.490   2.170   6.886
 3465SOL     OW11293   1.660   3.185   2.121
 3465SOL    HW111294   1.674   3.243   2.041
 3465SOL    HW211295   1.731   3.203   2.189
 3466SOL     OW11296   5.468   5.448   5.642
 3466SOL    HW111297   5.454   5.364   5.695
 3466SOL    HW211298   5.426   5.525   5.691
 3467SOL     OW11299   3.079   1.748   0.572
 3467SOL    HW111300   3.043   1.659   0.602
 3467SOL    HW211301   3.005   1.803   0.535
 3468SOL     OW11302   5.591   1.876   2.585
 3468SOL    HW111303   5.663   1.943   2.566
 3468SOL    HW211304   5.507   1.924   2.611
 3469SOL     OW11305   5.207   0.914   5.955
 3469SOL    HW111306   5.271   0.947   6.024
 3469SOL    HW211307   5.145   0.988   5.929
 3470SOL     OW11308   0.288   2.515   1.992
 3470SOL    HW111309   0.344   2.512   1.910
 3470SOL    HW211310   0.279   2.423   2.031
 3471SOL     OW11311   5.014   4.666   3.761
 3471SOL    HW111312   4.967   4.723   3.829
 3471SOL    HW211313   4.990   4.570   3.775
 3472SOL     OW11314   3.585   0.939   2.591
 3472SOL    HW111315   3.631   0.951   2.504
 3472SOL    HW211316   3.488   0.964   2.581
 3473SOL     OW11317   6.793   3.222   3.708
 3473SOL    HW111318   6.824   3.317   3.706
 3473SOL    HW211319   6.735   3.207   3.788
 3474SOL     OW11320   0.574   4.416   3.704
 3474SOL    HW111321   0.641   4.344   3.690
 3474SOL    HW211322   0.558   4.429   3.802
 3475SOL     OW11323   0.739   4.807   3.991
 3475SOL    HW111324   0.735   4.718   3.946
 3475SOL    HW211325   0.830   4.821   4.030
 3476SOL     OW11326   1.115   1.592   3.313
 3476SOL    HW111327   1.200   1.643   3.308
 3476SOL    HW211328   1.039   1.650   3.283
 3477SOL     OW11329   1.066   3.529   0.348
 3477SOL    HW111330   1.108   3.531   0.439
 3477SOL    HW211331   0.985   3.587   0.347
 3478SOL     OW11332   3.075   6.837   6.701
 3478SOL    HW111333   2.985   6.798   6.681
 3478SOL    HW211334   3.068   6.897   6.781
 3479SOL     OW11335   1.066   1.467   3.708
 3479SOL    HW111336   1.020   1.553   3.687
 3479SOL    HW211337   1.125   1.441   3.631
 3480SOL     OW11338   0.795   5.810   6.049
 3480SOL    HW111339   0.775   5.729   6.103
 3480SOL    HW211340   0.711   5.863   6.037
 3481SOL     OW11341   5.265   0.813   1.007
 3481SOL    HW111342   5.306   0.724   0.985
 3481SOL    HW211343   5.334   0.885   0.996
 3482SOL     OW11344   6.201   1.857   2.659
 3482SOL    HW111345   6.176   1.807   2.742
 3482SOL    HW211346   6.281   1.914   2.677
 3483SOL     OW11347   5.450   2.092   3.135
 3483SOL    HW111348   5.357   2.127   3.141
 3483SOL    HW211349   5.498   2.111   3.221
 3484SOL     OW11350   1.435   3.326   6.778
 3484SOL    HW111351   1.420   3.421   6.804
 3484SOL    HW211352   1.363   3.298   6.714
 3485SOL     OW11353   1.040   2.025   5.135
 3485SOL    HW111354   1.013   2.036   5.040
 3485SOL    HW211355   0.962   2.044   5.195
 3486SOL     OW11356   1.879   0.157   3.761
 3486SOL    HW111357   1.924   0.148   3.672
 3486SOL    HW211358   1.799   0.216   3.752
 3487SOL     OW11359   6.494   3.042   6.938
 3487SOL    HW111360   6.520   3.092   7.021
 3487SOL    HW211361   6.553   2.963   6.927
 3488SOL     OW11362   5.632   0.984   4.772
 3488SOL    HW111363   5.596   1.068   4.732
 3488SOL    HW211364   5.722   0.963   4.732
 3489SOL     OW11365   3.310   0.320   1.718
 3489SOL    HW111366   3.223   0.291   1.759
 3489SOL    HW211367   3.293   0.356   1.626
 3490SOL     OW11368   3.445   5.035   1.717
 3490SOL    HW111369   3.371   5.069   1.659
 3490SOL    HW211370   3.406   4.982   1.793
 3491SOL     OW11371   3.926   3.106   5.934
 3491SOL    HW111372   3.964   3.186   5.888
 3491SOL    HW211373   3.832   3.091   5.902
 3492SOL     OW11374   6.420   4.250   1.517
 3492SOL    HW111375   6.425   4.349   1.502
 3492SOL    HW211376   6.436   4.230   1.613
 3493SOL     OW11377   6.527   3.732   4.058
 3493SOL    HW111378   6.488   3.738   4.150
 3493SOL    HW211379   6.455   3.706   3.993
 3494SOL     OW11380   2.344   1.030   1.845
 3494SOL    HW111381   2.394   1.023   1.931
 3494SOL    HW211382   2.408   1.030   1.768
 3495SOL     OW11383   1.011   3.903   2.657
 3495SOL    HW111384   1.015   4.001   2.642
 3495SOL    HW211385   1.024   3.855   2.569
 3496SOL     OW11386   5.459   5.181   1.275
 3496SOL    HW111387   5.476   5.106   1.338
 3496SOL    HW211388   5.403   5.250   1.320
 3497SOL     OW11389   2.792   0.954   3.999
 3497SOL    HW111390   2.813   1.009   3.918
 3497SOL    HW211391   2.701   0.915   3.990
 3498SOL     OW11392   2.879   1.328   2.470
 3498SOL    HW111393   2.900   1.404   2.532
 3498SOL    HW211394   2.798   1.280   2.502
 3499SOL     OW11395   6.658   4.886   4.429
 3499SOL    HW111396   6.755   4.898   4.409
 3499SOL    HW211397   6.644   4.803   4.483
 3500SOL     OW11398   1.947   2.974   3.469
 3500SOL    HW111399   1.890   2.971   3.552
 3500SOL    HW211400   2.013   3.049   3.477
 3501SOL     OW11401   3.184   0.169   6.266
 3501SOL    HW111402   3.211   0.089   6.320
 3501SOL    HW211403   3.209   0.253   6.315
 3502SOL     OW11404   6.499   3.223   1.293
 3502SOL    HW111405   6.597   3.211   1.273
 3502SOL    HW211406   6.453   3.262   1.212
 3503SOL     OW11407   0.289   6.433   5.509
 3503SOL    HW111408   0.240   6.520   5.500
 3503SOL    HW211409   0.368   6.433   5.447
 3504SOL     OW11410   1.987   1.049   2.193
 3504SOL    HW111411   1.897   1.022   2.227
 3504SOL    HW211412   2.007   1.143   2.222
 3505SOL     OW11413   5.672   5.025   5.131
 3505SOL    HW111414   5.709   5.118   5.129
 3505SOL    HW211415   5.598   5.020   5.199
 3506SOL     OW11416   5.712   4.485   5.097
 3506SOL    HW111417   5.774   4.454   5.024
 3506SOL    HW211418   5.686   4.580   5.082
 3507SOL     OW11419   2.392   0.249   0.198
 3507SOL    HW111420   2.488   0.257   0.170
 3507SOL    HW211421   2.375   0.158   0.234
 3508SOL     OW11422   2.904   2.336   6.245
 3508SOL    HW111423   2.941   2.252   6.206
 3508SOL    HW211424   2.913   2.333   6.345
 3509SOL     OW11425   5.801   6.877   6.749
 3509SOL    HW111426   5.890   6.849   6.713
 3509SOL    HW211427   5.814   6.925   6.836
 3510SOL     OW11428   1.546   0.622   1.670
 3510SOL    HW111429   1.489   0.687   1.620
 3510SOL    HW211430   1.531   0.632   1.768
 3511SOL     OW11431   1.991   4.302   1.706
 3511SOL    HW111432   2.060   4.354   1.756
 3511SOL    HW211433   1.902   4.314   1.750
 3512SOL     OW11434   0.756   4.018   1.075
 3512SOL    HW111435   0.685   3.950   1.060
 3512SOL    HW211436   0.748   4.090   1.006
 3513SOL     OW11437   6.057   2.016   1.201
 3513SOL    HW111438   6.061   1.917   1.216
 3513SOL    HW211439   6.074   2.036   1.104
 3514SOL     OW11440   6.261   0.579   2.083
 3514SOL    HW111441   6.205   0.660   2.095
 3514SOL    HW211442   6.223   0.522   2.010
 3515SOL     OW11443   5.458   6.565   3.153
 3515SOL    HW111444   5.416   6.632   3.215
 3515SOL    HW211445   5.392   6.539   3.083
 3516SOL     OW11446   4.580   5.979   1.604
 3516SOL    HW111447   4.678   5.962   1.597
 3516SOL    HW211448   4.561   6.074   1.581
 3517SOL     OW11449   0.172   1.779   1.127
 3517SOL    HW111450   0.164   1.792   1.226
 3517SOL    HW211451   0.259   1.816   1.095
 3518SOL     OW11452   5.133   2.513   5.061
 3518SOL    HW111453   5.210   2.450   5.077
 3518SOL    HW211454   5.156   2.574   4.985
 3519SOL     OW11455   2.169   0.895   5.918
 3519SOL    HW111456   2.153   0.990   5.894
 3519SOL    HW211457   2.221   0.850   5.845
 3520SOL     OW11458   2.883   6.785   0.591
 3520SOL    HW111459   2.895   6.879   0.625
 3520SOL    HW211460   2.956   6.763   0.526
 3521SOL     OW11461   4.151   2.755   0.236
 3521SOL    HW111462   4.112   2.847   0.229
 3521SOL    HW211463   4.233   2.758   0.293
 3522SOL     OW11464   6.392   5.599   6.820
 3522SOL    HW111465   6.395   5.509   6.864
 3522SOL    HW211466   6.451   5.598   6.739
 3523SOL     OW11467   1.986   4.566   5.084
 3523SOL    HW111468   1.924   4.637   5.051
 3523SOL    HW211469   2.054   4.547   5.014
 3524SOL     OW11470   5.122   1.860   1.827
 3524SOL    HW111471   5.214   1.835   1.857
 3524SOL    HW211472   5.071   1.899   1.904
 3525SOL     OW11473   6.455   3.460   4.396
 3525SOL    HW111474   6.552   3.435   4.403
 3525SOL    HW211475   6.399   3.383   4.428
 3526SOL     OW11476   2.117   0.068   3.144
 3526SOL    HW111477   2.052   0.011   3.093
 3526SOL    HW211478   2.158   0.135   3.082
 3527SOL     OW11479   5.348   3.580   6.479
 3527SOL    HW111480   5.338   3.622   6.389
 3527SOL    HW211481   5.311   3.487   6.477
 3528SOL     OW11482   2.164   6.376   5.180
 3528SOL    HW111483   2.178   6.462   5.130
 3528SOL    HW211484   2.093   6.323   5.134
 3529SOL     OW11485   4.095   6.356   1.089
 3529SOL    HW111486   3.995   6.354   1.100
 3529SOL    HW211487   4.126   6.451   1.083
 3530SOL     OW11488   6.636   5.264   1.947
 3530SOL    HW111489   6.672   5.262   1.854
 3530SOL    HW211490   6.556   5.324   1.950
 3531SOL     OW11491   5.132   2.834   0.635
 3531SOL    HW111492   5.229   2.853   0.620
 3531SOL    HW211493   5.094   2.903   0.697
 3532SOL     OW11494   2.675   0.828   1.565
 3532SOL    HW111495   2.663   0.835   1.466
 3532SOL    HW211496   2.695   0.733   1.589
 3533SOL     OW11497   0.542   0.773   2.872
 3533SOL    HW111498   0.567   0.866   2.899
 3533SOL    HW211499   0.487   0.777   2.789
 3534SOL     OW11500   0.860   2.105   0.986
 3534SOL    HW111501   0.917   2.177   1.025
 3534SOL    HW211502   0.776   2.097   1.038
 3535SOL     OW11503   2.024   5.407   6.384
 3535SOL    HW111504   2.117   5.368   6.386
 3535SOL    HW211505   1.968   5.362   6.453
 3536SOL     OW11506   3.404   2.124   2.918
 3536SOL    HW111507   3.336   2.151   2.850
 3536SOL    HW211508   3.359   2.072   2.991
 3537SOL     OW11509   1.879   5.285   2.048
 3537SOL    HW111510   1.924   5.373   2.063
 3537SOL    HW211511   1.923   5.238   1.972
 3538SOL     OW11512   2.339   5.833   5.625
 3538SOL    HW111513   2.414   5.767   5.630
 3538SOL    HW211514   2.270   5.809   5.694
 3539SOL     OW11515   3.506   3.574   4.789
 3539SOL    HW111516   3.502   3.648   4.721
 3539SOL    HW211517   3.590   3.582   4.842
 3540SOL     OW11518   2.292   2.327   4.413
 3540SOL    HW111519   2.354   2.296   4.341
 3540SOL    HW211520   2.293   2.262   4.489
 3541SOL     OW11521   2.687   2.626   5.643
 3541SOL    HW111522   2.770   2.640   5.589
 3541SOL    HW211523   2.621   2.698   5.622
 3542SOL     OW11524   1.503   4.746   2.964
 3542SOL    HW111525   1.584   4.776   2.913
 3542SOL    HW211526   1.485   4.649   2.944
 3543SOL     OW11527   6.645   2.544   4.041
 3543SOL    HW111528   6.677   2.459   3.999
 3543SOL    HW211529   6.647   2.618   3.974
 3544SOL     OW11530   1.655   4.279   6.439
 3544SOL    HW111531   1.622   4.207   6.378
 3544SOL    HW211532   1.750   4.301   6.416
 3545SOL     OW11533   3.762   6.020   6.897
 3545SOL    HW111534   3.712   6.106   6.898
 3545SOL    HW211535   3.854   6.035   6.860
 3546SOL     OW11536   0.888   4.731   3.073
 3546SOL    HW111537   0.940   4.805   3.031
 3546SOL    HW211538   0.804   4.716   3.021
 3547SOL     OW11539   5.494   4.609   3.799
 3547SOL    HW111540   5.493   4.688   3.739
 3547SOL    HW211541   5.465   4.636   3.891
 3548SOL     OW11542   5.696   1.483   6.283
 3548SOL    HW111543   5.608   1.452   6.245
 3548SOL    HW211544   5.753   1.518   6.210
 3549SOL     OW11545   6.727   4.612   4.837
 3549SOL    HW111546   6.805   4.670   4.862
 3549SOL    HW211547   6.669   4.598   4.918
 3550SOL     OW11548   5.438   2.686   2.308
 3550SOL    HW111549   5.454   2.661   2.403
 3550SOL    HW211550   5.379   2.617   2.265
 3551SOL     OW11551   4.204   6.197   2.812
 3551SOL    HW111552   4.252   6.184   2.899
 3551SOL    HW211553   4.128   6.132   2.806
 3552SOL     OW11554   5.207   5.972   2.114
 3552SOL    HW111555   5.206   6.053   2.055
 3552SOL    HW211556   5.210   6.001   2.210
 3553SOL     OW11557   5.851   2.980   1.496
 3553SOL    HW111558   5.911   3.059   1.496
 3553SOL    HW211559   5.773   2.997   1.436
 3554SOL     OW11560   3.889   3.249   1.168
 3554SOL    HW111561   3.971   3.269   1.113
 3554SOL    HW211562   3.850   3.335   1.201
 3555SOL     OW11563   1.049   3.057   3.058
 3555SOL    HW111564   1.087   3.146   3.084
 3555SOL    HW211565   0.981   3.029   3.126
 3556SOL     OW11566   3.720   1.067   4.762
 3556SOL    HW111567   3.677   1.004   4.826
 3556SOL    HW211568   3.753   1.148   4.811
 3557SOL     OW11569   0.757   0.710   3.641
 3557SOL    HW111570   0.740   0.805   3.616
 3557SOL    HW211571   0.670   0.663   3.658
 3558SOL     OW11572   0.385   5.821   1.534
 3558SOL    HW111573   0.360   5.776   1.448
 3558SOL    HW211574   0.336   5.907   1.542
 3559SOL     OW11575   0.050   0.025   4.723
 3559SOL    HW111576   7.005   0.088   4.684
 3559SOL    HW211577   0.103   7.005   4.650
 3560SOL     OW11578   1.527   5.290   0.818
 3560SOL    HW111579   1.494   5.379   0.852
 3560SOL    HW211580   1.600   5.257   0.878
 3561SOL     OW11581   4.345   5.017   5.657
 3561SOL    HW111582   4.270   4.963   5.619
 3561SOL    HW211583   4.396   4.961   5.722
 3562SOL     OW11584   4.556   1.048   4.243
 3562SOL    HW111585   4.564   0.954   4.211
 3562SOL    HW211586   4.514   1.048   4.334
 3563SOL     OW11587   5.560   0.970   1.471
 3563SOL    HW111588   5.651   0.944   1.438
 3563SOL    HW211589   5.492   0.907   1.433
 3564SOL     OW11590   1.371   4.500   4.154
 3564SOL    HW111591   1.448   4.471   4.097
 3564SOL    HW211592   1.406   4.529   4.244
 3565SOL     OW11593   3.765   6.836   4.560
 3565SOL    HW111594   3.808   6.920   4.593
 3565SOL    HW211595   3.790   6.822   4.464
 3566SOL     OW11596   0.277   3.162   6.108
 3566SOL    HW111597   0.218   3.182   6.030
 3566SOL    HW211598   0.290   3.245   6.163
 3567SOL     OW11599   1.360   2.561   6.973
 3567SOL    HW111600   1.360   2.516   6.884
 3567SOL    HW211601   1.422   2.639   6.971
 3568SOL     OW11602   5.438   5.003   2.917
 3568SOL    HW111603   5.417   5.035   3.009
 3568SOL    HW211604   5.354   5.000   2.862
 3569SOL     OW11605   2.848   2.916   5.416
 3569SOL    HW111606   2.909   2.969   5.357
 3569SOL    HW211607   2.888   2.826   5.433
 3570SOL     OW11608   5.281   0.310   5.135
 3570SOL    HW111609   5.257   0.292   5.231
 3570SOL    HW211610   5.333   0.234   5.098
 3571SOL     OW11611   1.419   0.878   4.915
 3571SOL    HW111612   1.475   0.943   4.865
 3571SOL    HW211613   1.351   0.837   4.854
 3572SOL     OW11614   5.382   3.373   2.734
 3572SOL    HW111615   5.350   3.459   2.696
 3572SOL    HW211616   5.396   3.384   2.833
 3573SOL     OW11617   6.633   4.449   2.372
 3573SOL    HW111618   6.631   4.406   2.462
 3573SOL    HW211619   6.680   4.390   2.307
 3574SOL     OW11620   1.909   3.339   0.297
 3574SOL    HW111621   1.922   3.255   0.243
 3574SOL    HW211622   1.855   3.404   0.245
 3575SOL     OW11623   5.085   5.748   1.616
 3575SOL    HW111624   5.167   5.783   1.661
 3575SOL    HW211625   5.057   5.663   1.661
 3576SOL     OW11626   0.019   2.188   0.259
 3576SOL    HW111627   7.016   2.193   0.163
 3576SOL    HW211628   0.025   2.280   0.297
 3577SOL     OW11629   2.574   3.101   5.708
 3577SOL    HW111630   2.664   3.126   5.743
 3577SOL    HW211631   2.579   3.009   5.667
 3578SOL     OW11632   4.093   2.689   1.226
 3578SOL    HW111633   4.040   2.750   1.168
 3578SOL    HW211634   4.175   2.736   1.259
 3579SOL     OW11635   6.987   3.097   3.260
 3579SOL    HW111636   6.898   3.119   3.220
 3579SOL    HW211637   0.010   3.028   3.204
 3580SOL     OW11638   6.809   4.041   1.179
 3580SOL    HW111639   6.775   4.127   1.140
 3580SOL    HW211640   6.852   3.986   1.107
 3581SOL     OW11641   0.986   6.752   3.164
 3581SOL    HW111642   0.890   6.726   3.157
 3581SOL    HW211643   1.001   6.838   3.115
 3582SOL     OW11644   3.366   5.275   5.594
 3582SOL    HW111645   3.438   5.269   5.525
 3582SOL    HW211646   3.277   5.276   5.549
 3583SOL     OW11647   1.472   4.253   0.182
 3583SOL    HW111648   1.428   4.238   0.270
 3583SOL    HW211649   1.421   4.321   0.129
 3584SOL     OW11650   5.625   5.070   5.728
 3584SOL    HW111651   5.665   5.160   5.739
 3584SOL    HW211652   5.533   5.069   5.769
 3585SOL     OW11653   3.404   2.110   4.552
 3585SOL    HW111654   3.326   2.135   4.609
 3585SOL    HW211655   3.379   2.033   4.493
 3586SOL     OW11656   6.569   2.758   4.516
 3586SOL    HW111657   6.594   2.823   4.445
 3586SOL    HW211658   6.571   2.665   4.478
 3587SOL     OW11659   3.326   5.555   6.450
 3587SOL    HW111660   3.302   5.500   6.530
 3587SOL    HW211661   3.424   5.575   6.451
 3588SOL     OW11662   6.722   4.371   4.324
 3588SOL    HW111663   6.708   4.467   4.351
 3588SOL    HW211664   6.765   4.322   4.400
 3589SOL     OW11665   6.623   0.028   6.275
 3589SOL    HW111666   6.595   6.960   6.241
 3589SOL    HW211667   6.697   0.064   6.218
 3590SOL     OW11668   0.394   3.810   0.854
 3590SOL    HW111669   0.437   3.832   0.767
 3590SOL    HW211670   0.463   3.809   0.926
 3591SOL     OW11671   5.692   2.959   0.564
 3591SOL    HW111672   5.745   2.993   0.642
 3591SOL    HW211673   5.598   2.941   0.594
 3592SOL     OW11674   0.475   0.206   2.430
 3592SOL    HW111675   0.473   0.252   2.518
 3592SOL    HW211676   0.503   0.111   2.442
 3593SOL     OW11677   0.452   4.624   5.691
 3593SOL    HW111678   0.520   4.618   5.618
 3593SOL    HW211679   0.416   4.718   5.695
 3594SOL     OW11680   4.339   6.988   5.024
 3594SOL    HW111681   4.359   0.056   4.986
 3594SOL    HW211682   4.413   6.959   5.084
 3595SOL     OW11683   6.187   6.209   0.195
 3595SOL    HW111684   6.098   6.235   0.157
 3595SOL    HW211685   6.234   6.148   0.131
 3596SOL     OW11686   4.191   2.304   3.383
 3596SOL    HW111687   4.130   2.245   3.436
 3596SOL    HW211688   4.276   2.319   3.434
 3597SOL     OW11689   2.165   3.706   5.618
 3597SOL    HW111690   2.193   3.798   5.588
 3597SOL    HW211691   2.163   3.645   5.539
 3598SOL     OW11692   1.947   6.401   5.707
 3598SOL    HW111693   2.011   6.396   5.783
 3598SOL    HW211694   1.876   6.331   5.719
 3599SOL     OW11695   4.655   1.872   6.140
 3599SOL    HW111696   4.684   1.777   6.149
 3599SOL    HW211697   4.643   1.894   6.044
 3600SOL     OW11698   1.840   3.666   1.307
 3600SOL    HW111699   1.898   3.586   1.299
 3600SOL    HW211700   1.888   3.746   1.270
 3601SOL     OW11701   5.449   1.874   5.378
 3601SOL    HW111702   5.467   1.954   5.434
 3601SOL    HW211703   5.394   1.809   5.430
 3602SOL     OW11704   2.209   2.549   1.692
 3602SOL    HW111705   2.250   2.462   1.666
 3602SOL    HW211706   2.229   2.618   1.622
 3603SOL     OW11707   3.413   1.027   6.251
 3603SOL    HW111708   3.445   1.121   6.236
 3603SOL    HW211709   3.350   1.001   6.178
 3604SOL     OW11710   6.323   0.761   3.731
 3604SOL    HW111711   6.398   0.794   3.788
 3604SOL    HW211712   6.353   0.679   3.682
 3605SOL     OW11713   1.259   4.952   4.078
 3605SOL    HW111714   1.327   4.879   4.068
 3605SOL    HW211715   1.279   5.025   4.012
 3606SOL     OW11716   1.709   6.471   1.742
 3606SOL    HW111717   1.777   6.514   1.684
 3606SOL    HW211718   1.666   6.541   1.800
 3607SOL     OW11719   4.906   2.557   2.822
 3607SOL    HW111720   4.832   2.616   2.791
 3607SOL    HW211721   4.911   2.476   2.762
 3608SOL     OW11722   4.836   2.015   3.984
 3608SOL    HW111723   4.899   2.077   4.030
 3608SOL    HW211724   4.883   1.930   3.961
 3609SOL     OW11725   2.298   6.588   4.460
 3609SOL    HW111726   2.357   6.555   4.534
 3609SOL    HW211727   2.354   6.636   4.392
 3610SOL     OW11728   2.297   0.406   5.384
 3610SOL    HW111729   2.250   0.485   5.423
 3610SOL    HW211730   2.242   0.369   5.309
 3611SOL     OW11731   4.537   4.452   4.231
 3611SOL    HW111732   4.456   4.494   4.190
 3611SOL    HW211733   4.512   4.364   4.272
 3612SOL     OW11734   6.399   1.503   6.757
 3612SOL    HW111735   6.450   1.437   6.812
 3612SOL    HW211736   6.407   1.594   6.798
 3613SOL     OW11737   4.810   5.298   1.945
 3613SOL    HW111738   4.779   5.279   1.852
 3613SOL    HW211739   4.819   5.213   1.996
 3614SOL     OW11740   3.315   3.357   6.631
 3614SOL    HW111741   3.234   3.353   6.689
 3614SOL    HW211742   3.361   3.445   6.643
 3615SOL     OW11743   5.836   3.496   5.663
 3615SOL    HW111744   5.752   3.512   5.611
 3615SOL    HW211745   5.857   3.578   5.717
 3616SOL     OW11746   1.715   1.999   6.036
 3616SOL    HW111747   1.734   1.971   5.942
 3616SOL    HW211748   1.786   2.061   6.068
 3617SOL     OW11749   4.723   6.789   5.806
 3617SOL    HW111750   4.770   6.700   5.804
 3617SOL    HW211751   4.653   6.788   5.878
 3618SOL     OW11752   2.163   3.799   4.994
 3618SOL    HW111753   2.202   3.891   4.985
 3618SOL    HW211754   2.233   3.736   5.029
 3619SOL     OW11755   5.440   3.582   0.596
 3619SOL    HW111756   5.461   3.679   0.582
 3619SOL    HW211757   5.404   3.569   0.689
 3620SOL     OW11758   6.467   5.992   4.397
 3620SOL    HW111759   6.391   6.044   4.358
 3620SOL    HW211760   6.451   5.978   4.495
 3621SOL     OW11761   3.968   3.120   4.164
 3621SOL    HW111762   3.879   3.148   4.201
 3621SOL    HW211763   4.014   3.061   4.230
 3622SOL     OW11764   0.753   0.785   0.919
 3622SOL    HW111765   0.684   0.729   0.874
 3622SOL    HW211766   0.844   0.752   0.895
 3623SOL     OW11767   0.745   5.558   5.207
 3623SOL    HW111768   0.738   5.521   5.114
 3623SOL    HW211769   0.655   5.554   5.251
 3624SOL     OW11770   1.706   0.167   1.490
 3624SOL    HW111771   1.791   0.157   1.540
 3624SOL    HW211772   1.695   0.263   1.462
 3625SOL     OW11773   6.840   2.940   0.024
 3625SOL    HW111774   6.804   2.948   6.953
 3625SOL    HW211775   6.799   2.860   0.068
 3626SOL     OW11776   0.402   3.782   4.517
 3626SOL    HW111777   0.357   3.765   4.604
 3626SOL    HW211778   0.497   3.808   4.533
 3627SOL     OW11779   4.774   2.846   1.494
 3627SOL    HW111780   4.717   2.927   1.480
 3627SOL    HW211781   4.716   2.766   1.511
 3628SOL     OW11782   1.226   1.924   1.906
 3628SOL    HW111783   1.248   1.838   1.952
 3628SOL    HW211784   1.304   1.986   1.914
 3629SOL     OW11785   1.429   0.457   3.748
 3629SOL    HW111786   1.414   0.538   3.803
 3629SOL    HW211787   1.355   0.391   3.764
 3630SOL     OW11788   6.768   2.384   2.937
 3630SOL    HW111789   6.680   2.341   2.920
 3630SOL    HW211790   6.784   2.455   2.867
 3631SOL     OW11791   2.323   6.853   3.107
 3631SOL    HW111792   2.255   6.797   3.060
 3631SOL    HW211793   2.284   6.943   3.126
 3632SOL     OW11794   4.173   3.876   0.813
 3632SOL    HW111795   4.225   3.791   0.813
 3632SOL    HW211796   4.131   3.890   0.723
 3633SOL     OW11797   3.471   2.660   5.581
 3633SOL    HW111798   3.480   2.647   5.483
 3633SOL    HW211799   3.377   2.640   5.609
 3634SOL     OW11800   2.569   6.227   5.802
 3634SOL    HW111801   2.579   6.252   5.706
 3634SOL    HW211802   2.587   6.129   5.814
 3635SOL     OW11803   2.617   1.110   1.241
 3635SOL    HW111804   2.555   1.091   1.164
 3635SOL    HW211805   2.582   1.188   1.293
 3636SOL     OW11806   6.724   5.483   0.534
 3636SOL    HW111807   6.702   5.481   0.632
 3636SOL    HW211808   6.788   5.558   0.516
 3637SOL     OW11809   0.830   3.333   0.072
 3637SOL    HW111810   0.824   3.403   0.000
 3637SOL    HW211811   0.921   3.292   0.070
 3638SOL     OW11812   6.684   3.947   2.694
 3638SOL    HW111813   6.736   3.941   2.779
 3638SOL    HW211814   6.659   4.042   2.677
 3639SOL     OW11815   3.958   4.151   5.105
 3639SOL    HW111816   3.971   4.210   5.025
 3639SOL    HW211817   3.936   4.058   5.075
 3640SOL     OW11818   5.528   3.071   0.238
 3640SOL    HW111819   5.463   3.060   0.163
 3640SOL    HW211820   5.621   3.060   0.203
 3641SOL     OW11821   6.081   3.954   1.345
 3641SOL    HW111822   6.044   3.876   1.394
 3641SOL    HW211823   6.103   3.927   1.251
 3642SOL     OW11824   5.690   2.439   6.538
 3642SOL    HW111825   5.699   2.373   6.612
 3642SOL    HW211826   5.627   2.402   6.469
 3643SOL     OW11827   4.194   6.373   6.410
 3643SOL    HW111828   4.142   6.317   6.474
 3643SOL    HW211829   4.292   6.365   6.430
 3644SOL     OW11830   2.483   0.732   1.782
 3644SOL    HW111831   2.569   0.759   1.739
 3644SOL    HW211832   2.410   0.793   1.753
 3645SOL     OW11833   1.145   3.447   4.023
 3645SOL    HW111834   1.127   3.387   4.101
 3645SOL    HW211835   1.059   3.483   3.988
 3646SOL     OW11836   3.018   4.874   4.423
 3646SOL    HW111837   3.116   4.880   4.406
 3646SOL    HW211838   2.999   4.901   4.518
 3647SOL     OW11839   2.380   6.785   6.718
 3647SOL    HW111840   2.312   6.853   6.745
 3647SOL    HW211841   2.451   6.780   6.789
 3648SOL     OW11842   4.970   6.113   3.447
 3648SOL    HW111843   4.977   6.142   3.352
 3648SOL    HW211844   5.055   6.069   3.476
 3649SOL     OW11845   5.588   3.724   6.876
 3649SOL    HW111846   5.600   3.792   6.949
 3649SOL    HW211847   5.590   3.769   6.787
 3650SOL     OW11848   4.909   3.992   0.437
 3650SOL    HW111849   4.926   4.083   0.400
 3650SOL    HW211850   4.810   3.977   0.446
 3651SOL     OW11851   2.005   2.491   5.440
 3651SOL    HW111852   2.044   2.526   5.355
 3651SOL    HW211853   1.927   2.547   5.467
 3652SOL     OW11854   5.444   1.179   2.504
 3652SOL    HW111855   5.491   1.260   2.470
 3652SOL    HW211856   5.488   1.097   2.467
 3653SOL     OW11857   0.710   0.584   2.362
 3653SOL    HW111858   0.693   0.599   2.460
 3653SOL    HW211859   0.788   0.523   2.351
 3654SOL     OW11860   4.789   6.113   1.049
 3654SOL    HW111861   4.689   6.111   1.052
 3654SOL    HW211862   4.822   6.050   0.978
 3655SOL     OW11863   2.981   1.254   4.242
 3655SOL    HW111864   3.012   1.201   4.322
 3655SOL    HW211865   2.890   1.224   4.215
 3656SOL     OW11866   0.833   5.886   2.226
 3656SOL    HW111867   0.814   5.801   2.275
 3656SOL    HW211868   0.822   5.870   2.128
 3657SOL     OW11869   4.715   5.939   5.377
 3657SOL    HW111870   4.806   5.902   5.395
 3657SOL    HW211871   4.686   5.996   5.454
 3658SOL     OW11872   1.626   5.668   6.636
 3658SOL    HW111873   1.687   5.739   6.671
 3658SOL    HW211874   1.662   5.631   6.551
 3659SOL     OW11875   0.181   1.351   6.302
 3659SOL    HW111876   0.261   1.386   6.351
 3659SOL    HW211877   0.099   1.367   6.356
 3660SOL     OW11878   5.731   5.983   5.614
 3660SOL    HW111879   5.721   5.934   5.528
 3660SOL    HW211880   5.779   5.926   5.680
 3661SOL     OW11881   0.231   0.884   4.773
 3661SOL    HW111882   0.154   0.855   4.830
 3661SOL    HW211883   0.199   0.905   4.681
 3662SOL     OW11884   3.892   0.771   5.708
 3662SOL    HW111885   3.973   0.823   5.735
 3662SOL    HW211886   3.839   0.746   5.789
 3663SOL     OW11887   2.007   2.838   0.197
 3663SOL    HW111888   2.021   2.835   0.296
 3663SOL    HW211889   2.089   2.876   0.154
 3664SOL     OW11890   4.603   1.641   2.421
 3664SOL    HW111891   4.505   1.652   2.438
 3664SOL    HW211892   4.617   1.601   2.330
 3665SOL     OW11893   0.511   6.529   5.381
 3665SOL    HW111894   0.552   6.522   5.291
 3665SOL    HW211895   0.580   6.513   5.451
 3666SOL     OW11896   1.507   2.298   3.300
 3666SOL    HW111897   1.454   2.314   3.384
 3666SOL    HW211898   1.458   2.336   3.222
 3667SOL     OW11899   1.282   1.790   2.763
 3667SOL    HW111900   1.266   1.758   2.856
 3667SOL    HW211901   1.379   1.811   2.751
 3668SOL     OW11902   1.247   0.358   1.905
 3668SOL    HW111903   1.234   0.438   1.963
 3668SOL    HW211904   1.336   0.364   1.860
 3669SOL     OW11905   6.328   2.368   4.242
 3669SOL    HW111906   6.375   2.282   4.262
 3669SOL    HW211907   6.352   2.436   4.311
 3670SOL     OW11908   3.675   5.147   1.549
 3670SOL    HW111909   3.630   5.077   1.605
 3670SOL    HW211910   3.665   5.236   1.594
 3671SOL     OW11911   6.694   0.568   3.280
 3671SOL    HW111912   6.650   0.488   3.239
 3671SOL    HW211913   6.735   0.624   3.209
 3672SOL     OW11914   5.184   1.063   2.460
 3672SOL    HW111915   5.116   1.136   2.448
 3672SOL    HW211916   5.271   1.103   2.489
 3673SOL     OW11917   5.081   6.060   0.475
 3673SOL    HW111918   5.177   6.035   0.461
 3673SOL    HW211919   5.025   5.978   0.474
 3674SOL     OW11920   1.719   5.935   6.065
 3674SOL    HW111921   1.640   5.910   6.121
 3674SOL    HW211922   1.803   5.909   6.113
 3675SOL     OW11923   0.558   1.972   3.822
 3675SOL    HW111924   0.535   2.049   3.762
 3675SOL    HW211925   0.657   1.955   3.817
 3676SOL     OW11926   4.535   2.473   3.155
 3676SOL    HW111927   4.556   2.555   3.100
 3676SOL    HW211928   4.518   2.396   3.094
 3677SOL     OW11929   1.784   0.964   4.355
 3677SOL    HW111930   1.814   0.972   4.260
 3677SOL    HW211931   1.862   0.977   4.416
 3678SOL     OW11932   1.216   0.306   3.851
 3678SOL    HW111933   1.143   0.371   3.830
 3678SOL    HW211934   1.191   0.216   3.817
 3679SOL     OW11935   5.321   0.447   2.946
 3679SOL    HW111936   5.402   0.486   2.903
 3679SOL    HW211937   5.294   0.505   3.024
 3680SOL     OW11938   4.855   1.361   3.349
 3680SOL    HW111939   4.868   1.264   3.366
 3680SOL    HW211940   4.794   1.373   3.270
 3681SOL     OW11941   1.335   0.505   5.081
 3681SOL    HW111942   1.424   0.548   5.100
 3681SOL    HW211943   1.348   0.428   5.018
 3682SOL     OW11944   5.311   2.729   1.049
 3682SOL    HW111945   5.242   2.715   0.978
 3682SOL    HW211946   5.401   2.733   1.007
 3683SOL     OW11947   0.176   0.366   4.481
 3683SOL    HW111948   0.226   0.447   4.451
 3683SOL    HW211949   0.143   0.379   4.575
 3684SOL     OW11950   2.129   6.689   5.538
 3684SOL    HW111951   2.044   6.653   5.500
 3684SOL    HW211952   2.199   6.618   5.539
 3685SOL     OW11953   2.389   6.112   5.521
 3685SOL    HW111954   2.355   6.022   5.549
 3685SOL    HW211955   2.313   6.167   5.488
 3686SOL     OW11956   6.390   3.594   3.603
 3686SOL    HW111957   6.434   3.663   3.546
 3686SOL    HW211958   6.356   3.519   3.545
 3687SOL     OW11959   4.910   6.249   3.694
 3687SOL    HW111960   4.817   6.253   3.730
 3687SOL    HW211961   4.911   6.194   3.610
 3688SOL     OW11962   6.176   3.064   0.157
 3688SOL    HW111963   6.216   3.110   0.078
 3688SOL    HW211964   6.092   3.111   0.184
 3689SOL     OW11965   2.386   1.537   4.947
 3689SOL    HW111966   2.319   1.486   5.001
 3689SOL    HW211967   2.438   1.473   4.890
 3690SOL     OW11968   4.857   5.353   1.039
 3690SOL    HW111969   4.885   5.393   0.952
 3690SOL    HW211970   4.776   5.297   1.026
 3691SOL     OW11971   2.912   1.755   6.168
 3691SOL    HW111972   2.856   1.829   6.205
 3691SOL    HW211973   2.857   1.673   6.159
 3692SOL     OW11974   0.001   3.810   6.119
 3692SOL    HW111975   0.077   3.779   6.061
 3692SOL    HW211976   0.022   3.788   6.214
 3693SOL     OW11977   0.461   1.607   2.473
 3693SOL    HW111978   0.512   1.690   2.450
 3693SOL    HW211979   0.380   1.632   2.526
 3694SOL     OW11980   0.909   0.728   1.447
 3694SOL    HW111981   0.922   0.754   1.543
 3694SOL    HW211982   0.829   0.776   1.411
 3695SOL     OW11983   6.613   2.481   2.349
 3695SOL    HW111984   6.616   2.438   2.259
 3695SOL    HW211985   6.654   2.420   2.416
 3696SOL     OW11986   4.875   0.821   4.775
 3696SOL    HW111987   4.952   0.863   4.824
 3696SOL    HW211988   4.905   0.736   4.733
 3697SOL     OW11989   6.596   6.060   3.344
 3697SOL    HW111990   6.687   6.020   3.330
 3697SOL    HW211991   6.601   6.128   3.417
 3698SOL     OW11992   1.673   0.639   3.377
 3698SOL    HW111993   1.649   0.734   3.361
 3698SOL    HW211994   1.771   0.625   3.357
 3699SOL     OW11995   2.735   1.989   3.936
 3699SOL    HW111996   2.708   2.075   3.979
 3699SOL    HW211997   2.835   1.987   3.925
 3700SOL     OW11998   2.038   5.109   5.081
 3700SOL    HW111999   2.077   5.157   5.160
 3700SOL    HW212000   1.963   5.163   5.044
 3701SOL     OW12001   0.922   6.679   2.729
 3701SOL    HW112002   1.007   6.724   2.758
 3701SOL    HW212003   0.911   6.690   2.630
 3702SOL     OW12004   5.801   5.575   4.060
 3702SOL    HW112005   5.730   5.606   3.997
 3702SOL    HW212006   5.870   5.647   4.071
 3703SOL     OW12007   1.125   1.242   5.924
 3703SOL    HW112008   1.113   1.171   5.855
 3703SOL    HW212009   1.089   1.329   5.889
 3704SOL     OW12010   5.994   2.897   0.930
 3704SOL    HW112011   5.957   2.952   1.005
 3704SOL    HW212012   6.059   2.830   0.967
 3705SOL     OW12013   4.991   5.013   3.747
 3705SOL    HW112014   5.053   4.969   3.811
 3705SOL    HW212015   4.908   5.041   3.795
 3706SOL     OW12016   0.960   3.770   0.890
 3706SOL    HW112017   0.931   3.839   0.824
 3706SOL    HW212018   0.896   3.692   0.887
 3707SOL     OW12019   3.013   5.054   3.778
 3707SOL    HW112020   3.087   5.029   3.716
 3707SOL    HW212021   2.929   5.070   3.726
 3708SOL     OW12022   3.570   6.708   1.122
 3708SOL    HW112023   3.658   6.689   1.079
 3708SOL    HW212024   3.578   6.790   1.179
 3709SOL     OW12025   2.197   0.632   1.689
 3709SOL    HW112026   2.108   0.626   1.734
 3709SOL    HW212027   2.267   0.590   1.747
 3710SOL     OW12028   0.561   5.221   5.325
 3710SOL    HW112029   0.618   5.165   5.265
 3710SOL    HW212030   0.618   5.261   5.397
 3711SOL     OW12031   1.720   6.390   5.347
 3711SOL    HW112032   1.743   6.335   5.266
 3711SOL    HW212033   1.642   6.349   5.394
 3712SOL     OW12034   2.343   5.521   6.201
 3712SOL    HW112035   2.391   5.542   6.116
 3712SOL    HW212036   2.329   5.422   6.208
 3713SOL     OW12037   6.892   6.524   4.542
 3713SOL    HW112038   6.885   6.623   4.555
 3713SOL    HW212039   6.827   6.477   4.601
 3714SOL     OW12040   0.926   4.812   0.091
 3714SOL    HW112041   0.942   4.789   7.018
 3714SOL    HW212042   0.830   4.837   0.103
 3715SOL     OW12043   0.051   5.954   3.734
 3715SOL    HW112044   7.017   5.910   3.803
 3715SOL    HW212045   0.147   5.951   3.762
 3716SOL     OW12046   6.443   5.564   4.113
 3716SOL    HW112047   6.360   5.606   4.078
 3716SOL    HW212048   6.468   5.486   4.057
 3717SOL     OW12049   4.894   1.152   0.763
 3717SOL    HW112050   4.868   1.248   0.767
 3717SOL    HW212051   4.821   1.096   0.802
 3718SOL     OW12052   0.474   6.698   6.474
 3718SOL    HW112053   0.389   6.734   6.437
 3718SOL    HW212054   0.455   6.619   6.533
 3719SOL     OW12055   4.190   3.207   6.412
 3719SOL    HW112056   4.102   3.172   6.381
 3719SOL    HW212057   4.239   3.136   6.463
 3720SOL     OW12058   6.260   3.618   1.215
 3720SOL    HW112059   6.198   3.690   1.182
 3720SOL    HW212060   6.220   3.574   1.295
 3721SOL     OW12061   6.393   5.346   6.906
 3721SOL    HW112062   6.459   5.343   6.982
 3721SOL    HW212063   6.301   5.327   6.941
 3722SOL     OW12064   4.514   6.798   1.869
 3722SOL    HW112065   4.569   6.720   1.840
 3722SOL    HW212066   4.460   6.832   1.792
 3723SOL     OW12067   4.550   5.423   0.484
 3723SOL    HW112068   4.616   5.425   0.560
 3723SOL    HW212069   4.589   5.471   0.405
 3724SOL     OW12070   1.534   5.033   5.378
 3724SOL    HW112071   1.504   5.021   5.472
 3724SOL    HW212072   1.614   4.976   5.360
 3725SOL     OW12073   0.387   6.177   0.099
 3725SOL    HW112074   0.383   6.142   0.193
 3725SOL    HW212075   0.441   6.262   0.097
 3726SOL     OW12076   4.921   4.634   4.436
 3726SOL    HW112077   5.001   4.583   4.466
 3726SOL    HW212078   4.949   4.706   4.373
 3727SOL     OW12079   0.297   3.050   4.187
 3727SOL    HW112080   0.364   2.996   4.238
 3727SOL    HW212081   0.273   3.131   4.240
 3728SOL     OW12082   3.244   3.420   0.594
 3728SOL    HW112083   3.211   3.512   0.616
 3728SOL    HW212084   3.236   3.361   0.674
 3729SOL     OW12085   0.265   0.367   5.621
 3729SOL    HW112086   0.188   0.431   5.609
 3729SOL    HW212087   0.350   0.419   5.626
 3730SOL     OW12088   4.173   6.707   5.944
 3730SOL    HW112089   4.122   6.630   5.908
 3730SOL    HW212090   4.214   6.682   6.032
 3731SOL     OW12091   0.393   1.428   6.445
 3731SOL    HW112092   0.363   1.517   6.477
 3731SOL    HW212093   0.490   1.415   6.469
 3732SOL     OW12094   2.126   1.509   0.346
 3732SOL    HW112095   2.188   1.585   0.365
 3732SOL    HW212096   2.080   1.526   0.258
 3733SOL     OW12097   1.880   2.678   3.667
 3733SOL    HW112098   1.910   2.655   3.574
 3733SOL    HW212099   1.937   2.631   3.734
 3734SOL     OW12100   3.841   0.452   1.498
 3734SOL    HW112101   3.840   0.500   1.586
 3734SOL    HW212102   3.748   0.427   1.473
 3735SOL     OW12103   4.177   6.583   2.358
 3735SOL    HW112104   4.148   6.604   2.452
 3735SOL    HW212105   4.122   6.635   2.293
 3736SOL     OW12106   6.529   1.149   1.000
 3736SOL    HW112107   6.585   1.162   0.918
 3736SOL    HW212108   6.545   1.058   1.037
 3737SOL     OW12109   6.498   2.393   3.327
 3737SOL    HW112110   6.442   2.405   3.246
 3737SOL    HW212111   6.481   2.467   3.392
 3738SOL     OW12112   6.742   5.889   0.821
 3738SOL    HW112113   6.742   5.971   0.763
 3738SOL    HW212114   6.829   5.883   0.870
 3739SOL     OW12115   3.090   4.754   1.818
 3739SOL    HW112116   3.146   4.721   1.742
 3739SOL    HW212117   3.007   4.698   1.824
 3740SOL     OW12118   5.807   5.857   6.460
 3740SOL    HW112119   5.785   5.839   6.364
 3740SOL    HW212120   5.886   5.801   6.486
 3741SOL     OW12121   5.334   2.552   0.039
 3741SOL    HW112122   5.338   2.652   0.038
 3741SOL    HW212123   5.256   2.522   0.094
 3742SOL     OW12124   4.579   5.769   0.384
 3742SOL    HW112125   4.650   5.838   0.372
 3742SOL    HW212126   4.582   5.734   0.478
 3743SOL     OW12127   4.260   4.185   1.120
 3743SOL    HW112128   4.226   4.258   1.179
 3743SOL    HW212129   4.351   4.207   1.086
 3744SOL     OW12130   1.296   6.513   2.115
 3744SOL    HW112131   1.344   6.427   2.097
 3744SOL    HW212132   1.248   6.506   2.203
 3745SOL     OW12133   4.914   3.371   2.421
 3745SOL    HW112134   4.884   3.284   2.383
 3745SOL    HW212135   4.931   3.361   2.519
 3746SOL     OW12136   6.790   0.078   3.522
 3746SOL    HW112137   6.736   0.148   3.477
 3746SOL    HW212138   6.735   7.017   3.533
 3747SOL     OW12139   4.409   6.493   6.056
 3747SOL    HW112140   4.399   6.556   6.133
 3747SOL    HW212141   4.499   6.505   6.015
 3748SOL     OW12142   5.636   0.990   2.407
 3748SOL    HW112143   5.680   0.965   2.494
 3748SOL    HW212144   5.678   0.939   2.333
 3749SOL     OW12145   0.992   5.385   2.696
 3749SOL    HW112146   1.077   5.425   2.729
 3749SOL    HW212147   0.923   5.456   2.687
 3750SOL     OW12148   5.858   4.341   0.755
 3750SOL    HW112149   5.771   4.344   0.705
 3750SOL    HW212150   5.890   4.246   0.759
 3751SOL     OW12151   1.616   3.301   1.153
 3751SOL    HW112152   1.657   3.254   1.074
 3751SOL    HW212153   1.543   3.361   1.122
 3752SOL     OW12154   0.123   0.141   6.822
 3752SOL    HW112155   0.040   0.145   6.878
 3752SOL    HW212156   0.099   0.157   6.726
 3753SOL     OW12157   0.796   6.759   4.628
 3753SOL    HW112158   0.872   6.750   4.563
 3753SOL    HW212159   0.830   6.799   4.713
 3754SOL     OW12160   5.639   6.633   1.101
 3754SOL    HW112161   5.661   6.616   1.197
 3754SOL    HW212162   5.539   6.636   1.089
 3755SOL     OW12163   5.178   5.158   3.987
 3755SOL    HW112164   5.160   5.225   4.059
 3755SOL    HW212165   5.229   5.202   3.913
 3756SOL     OW12166   2.071   1.590   6.115
 3756SOL    HW112167   2.110   1.587   6.024
 3756SOL    HW212168   2.005   1.665   6.121
 3757SOL     OW12169   3.453   5.967   5.469
 3757SOL    HW112170   3.517   5.907   5.422
 3757SOL    HW212171   3.361   5.928   5.464
 3758SOL     OW12172   2.307   0.928   4.746
 3758SOL    HW112173   2.256   1.015   4.743
 3758SOL    HW212174   2.258   0.863   4.804
 3759SOL     OW12175   4.895   5.386   5.496
 3759SOL    HW112176   4.937   5.433   5.574
 3759SOL    HW212177   4.855   5.300   5.527
 3760SOL     OW12178   1.321   3.089   3.687
 3760SOL    HW112179   1.262   3.120   3.761
 3760SOL    HW212180   1.405   3.051   3.725
 3761SOL     OW12181   0.673   6.844   5.127
 3761SOL    HW112182   0.599   6.874   5.067
 3761SOL    HW212183   0.686   6.745   5.119
 3762SOL     OW12184   1.097   4.185   0.266
 3762SOL    HW112185   1.177   4.165   0.323
 3762SOL    HW212186   1.020   4.211   0.324
 3763SOL     OW12187   6.713   3.993   6.668
 3763SOL    HW112188   6.793   4.049   6.690
 3763SOL    HW212189   6.706   3.918   6.733
 3764SOL     OW12190   1.994   0.425   4.465
 3764SOL    HW112191   1.901   0.406   4.495
 3764SOL    HW212192   2.056   0.426   4.544
 3765SOL     OW12193   4.733   0.762   3.442
 3765SOL    HW112194   4.742   0.767   3.342
 3765SOL    HW212195   4.644   0.725   3.465
 3766SOL     OW12196   0.680   1.092   3.875
 3766SOL    HW112197   0.653   1.101   3.971
 3766SOL    HW212198   0.779   1.098   3.868
 3767SOL     OW12199   1.583   5.166   0.506
 3767SOL    HW112200   1.659   5.150   0.568
 3767SOL    HW212201   1.576   5.090   0.441
 3768SOL     OW12202   4.343   6.267   6.672
 3768SOL    HW112203   4.279   6.279   6.748
 3768SOL    HW212204   4.307   6.199   6.609
 3769SOL     OW12205   5.813   5.908   4.985
 3769SOL    HW112206   5.795   5.995   4.939
 3769SOL    HW212207   5.840   5.840   4.916
 3770SOL     OW12208   2.108   1.157   5.852
 3770SOL    HW112209   2.144   1.227   5.913
 3770SOL    HW212210   2.021   1.186   5.814
 3771SOL     OW12211   5.291   2.210   0.497
 3771SOL    HW112212   5.251   2.300   0.482
 3771SOL    HW212213   5.233   2.158   0.560
 3772SOL     OW12214   6.305   0.832   1.080
 3772SOL    HW112215   6.402   0.841   1.099
 3772SOL    HW212216   6.291   0.802   0.986
 3773SOL     OW12217   5.741   3.100   5.612
 3773SOL    HW112218   5.826   3.108   5.561
 3773SOL    HW212219   5.705   3.191   5.632
 3774SOL     OW12220   1.529   0.002   6.408
 3774SOL    HW112221   1.467   0.045   6.342
 3774SOL    HW212222   1.542   6.928   6.384
 3775SOL     OW12223   5.346   3.894   3.173
 3775SOL    HW112224   5.257   3.897   3.127
 3775SOL    HW212225   5.419   3.896   3.105
 3776SOL     OW12226   2.379   1.805   1.517
 3776SOL    HW112227   2.304   1.770   1.462
 3776SOL    HW212228   2.368   1.776   1.612
 3777SOL     OW12229   2.968   4.972   4.677
 3777SOL    HW112230   3.043   4.935   4.732
 3777SOL    HW212231   2.989   5.067   4.652
 3778SOL     OW12232   2.319   5.630   2.860
 3778SOL    HW112233   2.308   5.606   2.957
 3778SOL    HW212234   2.370   5.715   2.853
 3779SOL     OW12235   2.539   4.582   0.109
 3779SOL    HW112236   2.512   4.540   0.196
 3779SOL    HW212237   2.591   4.516   0.055
 3780SOL     OW12238   3.669   5.513   5.076
 3780SOL    HW112239   3.734   5.587   5.092
 3780SOL    HW212240   3.709   5.426   5.105
 3781SOL     OW12241   2.319   6.710   4.041
 3781SOL    HW112242   2.277   6.632   3.994
 3781SOL    HW212243   2.324   6.788   3.978
 3782SOL     OW12244   2.991   1.878   4.141
 3782SOL    HW112245   2.973   1.857   4.045
 3782SOL    HW212246   2.910   1.921   4.181
 3783SOL     OW12247   6.654   6.889   5.128
 3783SOL    HW112248   6.734   6.906   5.186
 3783SOL    HW212249   6.650   6.792   5.103
 3784SOL     OW12250   5.809   1.544   3.681
 3784SOL    HW112251   5.712   1.548   3.706
 3784SOL    HW212252   5.832   1.453   3.648
 3785SOL     OW12253   2.602   1.864   0.358
 3785SOL    HW112254   2.631   1.958   0.341
 3785SOL    HW212255   2.534   1.837   0.290
 3786SOL     OW12256   2.985   4.836   3.506
 3786SOL    HW112257   3.036   4.752   3.523
 3786SOL    HW212258   3.039   4.897   3.449
 3787SOL     OW12259   5.497   0.957   4.425
 3787SOL    HW112260   5.433   0.887   4.392
 3787SOL    HW212261   5.570   0.970   4.357
 3788SOL     OW12262   6.294   3.065   3.415
 3788SOL    HW112263   6.354   3.089   3.491
 3788SOL    HW212264   6.209   3.025   3.450
 3789SOL     OW12265   1.067   4.154   4.102
 3789SOL    HW112266   1.066   4.079   4.035
 3789SOL    HW212267   1.010   4.130   4.180
 3790SOL     OW12268   1.966   3.832   4.461
 3790SOL    HW112269   2.009   3.793   4.542
 3790SOL    HW212270   2.031   3.835   4.385
 3791SOL     OW12271   5.388   6.689   1.085
 3791SOL    HW112272   5.375   6.773   1.139
 3791SOL    HW212273   5.340   6.698   0.998
 3792SOL     OW12274   6.241   0.490   5.325
 3792SOL    HW112275   6.219   0.577   5.368
 3792SOL    HW212276   6.304   0.438   5.383
 3793SOL     OW12277   2.099   1.362   2.569
 3793SOL    HW112278   2.168   1.406   2.512
 3793SOL    HW212279   2.123   1.374   2.665
 3794SOL     OW12280   3.950   5.451   2.234
 3794SOL    HW112281   3.881   5.480   2.167
 3794SOL    HW212282   4.028   5.513   2.231
 3795SOL     OW12283   5.165   7.014   6.697
 3795SOL    HW112284   5.237   6.955   6.661
 3795SOL    HW212285   5.112   0.030   6.621
 3796SOL     OW12286   1.304   2.059   1.510
 3796SOL    HW112287   1.294   2.130   1.580
 3796SOL    HW212288   1.246   1.981   1.533
 3797SOL     OW12289   6.811   5.461   2.196
 3797SOL    HW112290   6.735   5.443   2.258
 3797SOL    HW212291   6.896   5.465   2.248
 3798SOL     OW12292   2.580   4.797   3.155
 3798SOL    HW112293   2.660   4.821   3.210
 3798SOL    HW212294   2.600   4.814   3.058
 3799SOL     OW12295   1.370   1.814   5.016
 3799SOL    HW112296   1.365   1.816   4.916
 3799SOL    HW212297   1.299   1.875   5.054
 3800SOL     OW12298   5.217   2.659   4.851
 3800SOL    HW112299   5.284   2.734   4.848
 3800SOL    HW212300   5.138   2.683   4.794
 3801SOL     OW12301   6.301   6.376   5.345
 3801SOL    HW112302   6.284   6.381   5.246
 3801SOL    HW212303   6.300   6.280   5.374
 3802SOL     OW12304   1.246   2.319   5.402
 3802SOL    HW112305   1.230   2.220   5.403
 3802SOL    HW212306   1.286   2.347   5.489
 3803SOL     OW12307   4.239   0.737   1.996
 3803SOL    HW112308   4.248   0.801   2.072
 3803SOL    HW212309   4.323   0.738   1.942
 3804SOL     OW12310   4.588   1.612   4.886
 3804SOL    HW112311   4.510   1.628   4.827
 3804SOL    HW212312   4.664   1.575   4.833
 3805SOL     OW12313   3.152   4.124   1.661
 3805SOL    HW112314   3.239   4.131   1.613
 3805SOL    HW212315   3.159   4.056   1.734
 3806SOL     OW12316   3.020   2.859   6.776
 3806SOL    HW112317   2.975   2.933   6.826
 3806SOL    HW212318   3.088   2.816   6.835
 3807SOL     OW12319   1.525   0.129   4.481
 3807SOL    HW112320   1.530   0.190   4.402
 3807SOL    HW212321   1.546   0.036   4.452
 3808SOL     OW12322   3.138   0.611   2.205
 3808SOL    HW112323   3.153   0.513   2.205
 3808SOL    HW212324   3.221   0.658   2.177
 3809SOL     OW12325   5.982   2.104   6.916
 3809SOL    HW112326   5.988   2.005   6.915
 3809SOL    HW212327   5.905   2.134   6.861
 3810SOL     OW12328   3.369   3.495   5.679
 3810SOL    HW112329   3.436   3.426   5.652
 3810SOL    HW212330   3.294   3.496   5.613
 3811SOL     OW12331   0.553   3.953   4.742
 3811SOL    HW112332   0.478   4.018   4.729
 3811SOL    HW212333   0.570   3.940   4.840
 3812SOL     OW12334   6.325   2.099   5.987
 3812SOL    HW112335   6.376   2.168   6.038
 3812SOL    HW212336   6.313   2.018   6.044
 3813SOL     OW12337   3.758   5.281   1.158
 3813SOL    HW112338   3.820   5.358   1.170
 3813SOL    HW212339   3.794   5.201   1.205
 3814SOL     OW12340   6.994   6.089   1.023
 3814SOL    HW112341   0.024   6.112   1.105
 3814SOL    HW212342   6.921   6.025   1.048
 3815SOL     OW12343   4.935   2.143   1.061
 3815SOL    HW112344   4.914   2.055   1.017
 3815SOL    HW212345   4.932   2.132   1.160
 3816SOL     OW12346   6.780   6.483   2.340
 3816SOL    HW112347   6.855   6.479   2.406
 3816SOL    HW212348   6.693   6.475   2.389
 3817SOL     OW12349   4.609   2.553   4.246
 3817SOL    HW112350   4.645   2.501   4.323
 3817SOL    HW212351   4.658   2.529   4.162
 3818SOL     OW12352   4.535   6.655   2.552
 3818SOL    HW112353   4.543   6.727   2.621
 3818SOL    HW212354   4.472   6.585   2.584
 3819SOL     OW12355   5.720   5.551   0.356
 3819SOL    HW112356   5.627   5.523   0.381
 3819SOL    HW212357   5.719   5.590   0.263
 3820SOL     OW12358   5.897   6.019   4.064
 3820SOL    HW112359   5.858   6.098   4.111
 3820SOL    HW212360   5.879   6.027   3.966
 3821SOL     OW12361   1.746   3.696   1.857
 3821SOL    HW112362   1.673   3.762   1.842
 3821SOL    HW212363   1.826   3.721   1.803
 3822SOL     OW12364   1.920   5.244   1.538
 3822SOL    HW112365   1.837   5.192   1.519
 3822SOL    HW212366   2.000   5.187   1.521
 3823SOL     OW12367   3.758   2.165   5.152
 3823SOL    HW112368   3.662   2.183   5.132
 3823SOL    HW212369   3.771   2.157   5.251
 3824SOL     OW12370   6.162   2.165   5.784
 3824SOL    HW112371   6.190   2.096   5.851
 3824SOL    HW212372   6.162   2.255   5.827
 3825SOL     OW12373   6.697   0.216   6.908
 3825SOL    HW112374   6.702   0.219   6.808
 3825SOL    HW212375   6.673   0.307   6.943
 3826SOL     OW12376   0.484   3.439   0.396
 3826SOL    HW112377   0.572   3.427   0.443
 3826SOL    HW212378   0.495   3.420   0.299
 3827SOL     OW12379   3.756   4.317   0.527
 3827SOL    HW112380   3.671   4.344   0.572
 3827SOL    HW212381   3.822   4.287   0.595
 3828SOL     OW12382   4.481   1.960   0.956
 3828SOL    HW112383   4.408   1.892   0.944
 3828SOL    HW212384   4.513   1.991   0.867
 3829SOL     OW12385   2.485   5.121   3.431
 3829SOL    HW112386   2.415   5.185   3.463
 3829SOL    HW212387   2.479   5.037   3.485
 3830SOL     OW12388   1.838   0.232   5.425
 3830SOL    HW112389   1.813   0.328   5.432
 3830SOL    HW212390   1.876   0.214   5.334
 3831SOL     OW12391   3.918   1.689   2.558
 3831SOL    HW112392   3.985   1.739   2.504
 3831SOL    HW212393   3.906   1.597   2.520
 3832SOL     OW12394   6.271   0.858   1.792
 3832SOL    HW112395   6.294   0.767   1.757
 3832SOL    HW212396   6.352   0.917   1.788
 3833SOL     OW12397   0.757   4.649   0.646
 3833SOL    HW112398   0.710   4.576   0.696
 3833SOL    HW212399   0.691   4.699   0.590
 3834SOL     OW12400   2.836   2.153   0.578
 3834SOL    HW112401   2.819   2.222   0.507
 3834SOL    HW212402   2.863   2.067   0.535
 3835SOL     OW12403   3.675   5.740   5.574
 3835SOL    HW112404   3.591   5.692   5.599
 3835SOL    HW212405   3.754   5.696   5.617
 3836SOL     OW12406   1.996   4.189   6.065
 3836SOL    HW112407   1.924   4.121   6.067
 3836SOL    HW212408   2.032   4.196   5.971
 3837SOL     OW12409   4.404   3.432   0.302
 3837SOL    HW112410   4.328   3.471   0.354
 3837SOL    HW212411   4.490   3.472   0.336
 3838SOL     OW12412   5.296   2.009   4.232
 3838SOL    HW112413   5.200   2.036   4.225
 3838SOL    HW212414   5.346   2.044   4.153
 3839SOL     OW12415   5.717   0.007   5.041
 3839SOL    HW112416   5.788   0.005   5.112
 3839SOL    HW212417   5.689   6.936   5.020
 3840SOL     OW12418   1.597   1.075   4.808
 3840SOL    HW112419   1.659   1.087   4.886
 3840SOL    HW212420   1.548   1.160   4.791
 3841SOL     OW12421   0.986   4.069   4.946
 3841SOL    HW112422   1.041   3.987   4.959
 3841SOL    HW212423   0.921   4.055   4.871
 3842SOL     OW12424   0.681   5.409   0.088
 3842SOL    HW112425   0.666   5.504   0.114
 3842SOL    HW212426   0.727   5.360   0.162
 3843SOL     OW12427   6.217   3.533   0.569
 3843SOL    HW112428   6.312   3.513   0.593
 3843SOL    HW212429   6.157   3.464   0.609
 3844SOL     OW12430   1.895   5.037   5.699
 3844SOL    HW112431   1.809   5.086   5.717
 3844SOL    HW212432   1.911   4.971   5.772
 3845SOL     OW12433   3.571   3.343   3.367
 3845SOL    HW112434   3.561   3.363   3.269
 3845SOL    HW212435   3.480   3.333   3.408
 3846SOL     OW12436   0.177   4.329   4.542
 3846SOL    HW112437   0.226   4.242   4.546
 3846SOL    HW212438   0.081   4.313   4.564
 3847SOL     OW12439   6.908   0.374   6.326
 3847SOL    HW112440   6.940   0.337   6.238
 3847SOL    HW212441   6.959   0.332   6.400
 3848SOL     OW12442   2.085   4.944   2.165
 3848SOL    HW112443   2.011   5.003   2.198
 3848SOL    HW212444   2.171   4.994   2.167
 3849SOL     OW12445   0.777   1.366   5.774
 3849SOL    HW112446   0.722   1.426   5.716
 3849SOL    HW212447   0.819   1.294   5.718
 3850SOL     OW12448   3.012   3.952   2.228
 3850SOL    HW112449   2.985   3.856   2.225
 3850SOL    HW212450   2.955   4.004   2.165
 3851SOL     OW12451   2.148   3.788   3.273
 3851SOL    HW112452   2.120   3.852   3.345
 3851SOL    HW212453   2.173   3.839   3.191
 3852SOL     OW12454   4.530   0.792   5.075
 3852SOL    HW112455   4.569   0.715   5.026
 3852SOL    HW212456   4.444   0.765   5.118
 3853SOL     OW12457   1.060   3.293   2.016
 3853SOL    HW112458   1.026   3.258   1.929
 3853SOL    HW212459   1.053   3.222   2.085
 3854SOL     OW12460   1.111   3.223   4.227
 3854SOL    HW112461   1.117   3.309   4.278
 3854SOL    HW212462   1.019   3.186   4.236
 3855SOL     OW12463   6.099   4.288   5.903
 3855SOL    HW112464   6.074   4.213   5.842
 3855SOL    HW212465   6.049   4.370   5.876
 3856SOL     OW12466   6.872   0.097   5.797
 3856SOL    HW112467   6.819   0.167   5.845
 3856SOL    HW212468   6.834   0.083   5.705
 3857SOL     OW12469   1.115   6.475   4.894
 3857SOL    HW112470   1.081   6.506   4.805
 3857SOL    HW212471   1.109   6.375   4.899
 3858SOL     OW12472   1.635   5.985   6.451
 3858SOL    HW112473   1.667   6.071   6.411
 3858SOL    HW212474   1.713   5.922   6.463
 3859SOL     OW12475   0.063   2.872   3.125
 3859SOL    HW112476   0.143   2.823   3.092
 3859SOL    HW212477   0.015   2.817   3.193
 3860SOL     OW12478   2.313   5.866   5.959
 3860SOL    HW112479   2.296   5.929   6.035
 3860SOL    HW212480   2.239   5.874   5.892
 3861SOL     OW12481   4.890   4.403   1.347
 3861SOL    HW112482   4.864   4.451   1.431
 3861SOL    HW212483   4.981   4.363   1.358
 3862SOL     OW12484   0.981   6.394   6.059
 3862SOL    HW112485   1.043   6.315   6.068
 3862SOL    HW212486   0.895   6.364   6.018
 3863SOL     OW12487   3.590   3.678   1.167
 3863SOL    HW112488   3.601   3.710   1.072
 3863SOL    HW212489   3.504   3.714   1.204
 3864SOL     OW12490   3.260   1.868   6.564
 3864SOL    HW112491   3.245   1.920   6.480
 3864SOL    HW212492   3.358   1.846   6.572
 3865SOL     OW12493   4.023   0.335   1.984
 3865SOL    HW112494   4.098   0.386   2.027
 3865SOL    HW212495   4.010   0.249   2.033
 3866SOL     OW12496   3.793   0.040   0.986
 3866SOL    HW112497   3.883   0.047   1.029
 3866SOL    HW212498   3.793   6.984   0.924
 3867SOL     OW12499   2.066   3.519   3.161
 3867SOL    HW112500   2.103   3.594   3.217
 3867SOL    HW212501   2.142   3.469   3.120
 3868SOL     OW12502   2.758   6.699   2.100
 3868SOL    HW112503   2.691   6.627   2.119
 3868SOL    HW212504   2.713   6.788   2.102
 3869SOL     OW12505   0.432   2.982   3.445
 3869SOL    HW112506   0.338   3.010   3.424
 3869SOL    HW212507   0.438   2.958   3.542
 3870SOL     OW12508   3.129   5.637   0.065
 3870SOL    HW112509   3.222   5.600   0.070
 3870SOL    HW212510   3.134   5.737   0.061
 3871SOL     OW12511   3.232   0.161   3.190
 3871SOL    HW112512   3.226   0.099   3.269
 3871SOL    HW212513   3.206   0.253   3.219
 3872SOL     OW12514   4.015   3.899   1.323
 3872SOL    HW112515   4.076   3.907   1.244
 3872SOL    HW212516   3.920   3.914   1.293
 3873SOL     OW12517   5.500   4.940   1.486
 3873SOL    HW112518   5.426   4.891   1.441
 3873SOL    HW212519   5.522   4.896   1.573
 3874SOL     OW12520   4.263   6.824   0.456
 3874SOL    HW112521   4.355   6.821   0.418
 3874SOL    HW212522   4.236   6.919   0.472
 3875SOL     OW12523   1.714   4.260   1.821
 3875SOL    HW112524   1.770   4.262   1.904
 3875SOL    HW212525   1.635   4.201   1.835
 3876SOL     OW12526   5.896   4.003   4.235
 3876SOL    HW112527   5.867   3.908   4.243
 3876SOL    HW212528   5.841   4.049   4.165
 3877SOL     OW12529   6.151   0.829   2.063
 3877SOL    HW112530   6.194   0.909   2.103
 3877SOL    HW212531   6.174   0.823   1.966
 3878SOL     OW12532   4.061   6.646   6.784
 3878SOL    HW112533   4.039   6.677   6.876
 3878SOL    HW212534   4.057   6.547   6.779
 3879SOL     OW12535   4.236   5.363   1.635
 3879SOL    HW112536   4.156   5.334   1.687
 3879SOL    HW212537   4.227   5.334   1.540
 3880SOL     OW12538   5.684   3.038   3.340
 3880SOL    HW112539   5.619   2.965   3.360
 3880SOL    HW212540   5.773   2.998   3.319
 3881SOL     OW12541   0.925   4.443   0.909
 3881SOL    HW112542   0.878   4.526   0.940
 3881SOL    HW212543   0.951   4.388   0.989
 3882SOL     OW12544   6.782   1.275   5.722
 3882SOL    HW112545   6.848   1.225   5.666
 3882SOL    HW212546   6.793   1.373   5.708
 3883SOL     OW12547   4.147   0.882   4.830
 3883SOL    HW112548   4.131   0.784   4.826
 3883SOL    HW212549   4.105   0.919   4.913
 3884SOL     OW12550   1.861   5.818   5.846
 3884SOL    HW112551   1.802   5.871   5.907
 3884SOL    HW212552   1.870   5.725   5.882
 3885SOL     OW12553   6.655   0.893   3.575
 3885SOL    HW112554   6.749   0.886   3.610
 3885SOL    HW212555   6.591   0.895   3.652
 3886SOL     OW12556   0.016   6.786   4.885
 3886SOL    HW112557   0.029   6.875   4.929
 3886SOL    HW212558   0.022   6.713   4.954
 3887SOL     OW12559   4.458   1.963   5.658
 3887SOL    HW112560   4.437   1.918   5.571
 3887SOL    HW212561   4.556   1.985   5.661
 3888SOL     OW12562   6.896   1.736   0.750
 3888SOL    HW112563   6.936   1.731   0.659
 3888SOL    HW212564   6.817   1.797   0.749
 3889SOL     OW12565   0.916   6.261   6.415
 3889SOL    HW112566   0.976   6.291   6.341
 3889SOL    HW212567   0.886   6.167   6.398
 3890SOL     OW12568   5.861   4.939   3.074
 3890SOL    HW112569   5.910   5.010   3.023
 3890SOL    HW212570   5.921   4.899   3.143
 3891SOL     OW12571   5.300   5.143   4.991
 3891SOL    HW112572   5.294   5.178   4.898
 3891SOL    HW212573   5.315   5.219   5.055
 3892SOL     OW12574   5.564   0.016   2.936
 3892SOL    HW112575   5.534   6.996   2.850
 3892SOL    HW212576   5.485   0.051   2.985
 3893SOL     OW12577   3.422   5.529   4.327
 3893SOL    HW112578   3.487   5.506   4.400
 3893SOL    HW212579   3.471   5.534   4.240
 3894SOL     OW12580   4.537   3.419   0.071
 3894SOL    HW112581   4.613   3.484   0.070
 3894SOL    HW212582   4.487   3.429   0.157
 3895SOL     OW12583   2.574   1.662   5.776
 3895SOL    HW112584   2.474   1.672   5.771
 3895SOL    HW212585   2.613   1.744   5.819
 3896SOL     OW12586   6.515   3.290   5.355
 3896SOL    HW112587   6.486   3.252   5.443
 3896SOL    HW212588   6.507   3.220   5.284
 3897SOL     OW12589   3.508   0.077   1.785
 3897SOL    HW112590   3.461   0.029   1.859
 3897SOL    HW212591   3.441   0.113   1.720
 3898SOL     OW12592   4.050   3.869   3.902
 3898SOL    HW112593   3.978   3.935   3.881
 3898SOL    HW212594   4.049   3.849   4.000
 3899SOL     OW12595   4.721   1.703   5.727
 3899SOL    HW112596   4.699   1.729   5.633
 3899SOL    HW212597   4.820   1.690   5.735
 3900SOL     OW12598   6.423   2.371   2.984
 3900SOL    HW112599   6.372   2.450   3.019
 3900SOL    HW212600   6.460   2.392   2.893
 3901SOL     OW12601   1.437   6.909   5.393
 3901SOL    HW112602   1.372   6.953   5.455
 3901SOL    HW212603   1.387   6.871   5.315
 3902SOL     OW12604   4.049   4.918   1.299
 3902SOL    HW112605   4.107   4.844   1.264
 3902SOL    HW212606   4.042   4.910   1.399
 3903SOL     OW12607   4.510   2.665   6.799
 3903SOL    HW112608   4.532   2.687   6.894
 3903SOL    HW212609   4.502   2.566   6.789
 3904SOL     OW12610   1.066   6.470   0.403
 3904SOL    HW112611   0.979   6.503   0.439
 3904SOL    HW212612   1.065   6.370   0.400
 3905SOL     OW12613   6.743   0.450   5.547
 3905SOL    HW112614   6.790   0.411   5.468
 3905SOL    HW212615   6.794   0.529   5.582
 3906SOL     OW12616   1.881   4.778   4.171
 3906SOL    HW112617   1.813   4.794   4.099
 3906SOL    HW212618   1.973   4.783   4.132
 3907SOL     OW12619   0.085   1.031   3.826
 3907SOL    HW112620   0.126   1.095   3.760
 3907SOL    HW212621   0.005   0.987   3.785
 3908SOL     OW12622   1.052   0.445   5.130
 3908SOL    HW112623   1.125   0.483   5.072
 3908SOL    HW212624   1.050   0.346   5.121
 3909SOL     OW12625   5.707   2.890   6.413
 3909SOL    HW112626   5.699   2.952   6.335
 3909SOL    HW212627   5.692   2.942   6.498
 3910SOL     OW12628   3.652   1.464   0.126
 3910SOL    HW112629   3.740   1.421   0.142
 3910SOL    HW212630   3.579   1.398   0.144
 3911SOL     OW12631   6.845   0.955   0.928
 3911SOL    HW112632   6.881   0.954   0.835
 3911SOL    HW212633   6.905   1.010   0.986
 3912SOL     OW12634   4.072   1.603   0.638
 3912SOL    HW112635   4.000   1.636   0.577
 3912SOL    HW212636   4.033   1.578   0.726
 3913SOL     OW12637   5.248   5.137   0.672
 3913SOL    HW112638   5.272   5.043   0.647
 3913SOL    HW212639   5.288   5.158   0.762
 3914SOL     OW12640   6.143   1.687   0.498
 3914SOL    HW112641   6.094   1.634   0.568
 3914SOL    HW212642   6.115   1.783   0.505
 3915SOL     OW12643   4.387   5.383   6.887
 3915SOL    HW112644   4.459   5.411   6.950
 3915SOL    HW212645   4.301   5.371   6.938
 3916SOL     OW12646   2.031   1.736   1.849
 3916SOL    HW112647   1.948   1.791   1.852
 3916SOL    HW212648   2.013   1.649   1.804
 3917SOL     OW12649   3.195   5.090   1.571
 3917SOL    HW112650   3.126   5.079   1.642
 3917SOL    HW212651   3.236   5.182   1.578
 3918SOL     OW12652   5.229   1.102   0.705
 3918SOL    HW112653   5.187   1.031   0.649
 3918SOL    HW212654   5.327   1.106   0.686
 3919SOL     OW12655   3.414   0.522   1.836
 3919SOL    HW112656   3.493   0.515   1.898
 3919SOL    HW212657   3.404   0.436   1.785
 3920SOL     OW12658   3.132   1.344   5.615
 3920SOL    HW112659   3.137   1.315   5.519
 3920SOL    HW212660   3.113   1.442   5.619
 3921SOL     OW12661   0.442   2.809   6.306
 3921SOL    HW112662   0.542   2.817   6.309
 3921SOL    HW212663   0.411   2.815   6.211
 3922SOL     OW12664   5.453   4.420   3.226
 3922SOL    HW112665   5.523   4.488   3.201
 3922SOL    HW212666   5.464   4.339   3.169
 3923SOL     OW12667   5.713   1.207   1.481
 3923SOL    HW112668   5.655   1.126   1.492
 3923SOL    HW212669   5.806   1.178   1.459
 3924SOL     OW12670   5.676   4.951   4.795
 3924SOL    HW112671   5.699   4.897   4.714
 3924SOL    HW212672   5.579   4.976   4.792
 3925SOL     OW12673   4.780   3.650   0.633
 3925SOL    HW112674   4.710   3.643   0.704
 3925SOL    HW212675   4.870   3.628   0.672
 3926SOL     OW12676   0.536   6.636   6.186
 3926SOL    HW112677   0.555   6.611   6.281
 3926SOL    HW212678   0.482   6.720   6.183
 3927SOL     OW12679   5.752   2.745   5.117
 3927SOL    HW112680   5.766   2.750   5.216
 3927SOL    HW212681   5.654   2.737   5.097
 3928SOL     OW12682   2.639   5.959   2.833
 3928SOL    HW112683   2.650   6.039   2.773
 3928SOL    HW212684   2.564   5.976   2.897
 3929SOL     OW12685   0.381   2.177   5.206
 3929SOL    HW112686   0.385   2.078   5.191
 3929SOL    HW212687   0.454   2.222   5.154
 3930SOL     OW12688   0.334   4.161   3.704
 3930SOL    HW112689   0.362   4.212   3.623
 3930SOL    HW212690   0.399   4.177   3.778
 3931SOL     OW12691   2.064   2.358   1.505
 3931SOL    HW112692   2.027   2.384   1.415
 3931SOL    HW212693   2.005   2.394   1.577
 3932SOL     OW12694   2.422   5.553   4.147
 3932SOL    HW112695   2.388   5.537   4.055
 3932SOL    HW212696   2.522   5.551   4.147
 3933SOL     OW12697   2.231   5.584   0.782
 3933SOL    HW112698   2.323   5.584   0.822
 3933SOL    HW212699   2.233   5.632   0.694
 3934SOL     OW12700   0.341   1.303   1.136
 3934SOL    HW112701   0.290   1.314   1.051
 3934SOL    HW212702   0.391   1.388   1.156
 3935SOL     OW12703   6.243   3.447   6.475
 3935SOL    HW112704   6.246   3.537   6.431
 3935SOL    HW212705   6.288   3.380   6.417
 3936SOL     OW12706   0.635   4.839   5.288
 3936SOL    HW112707   0.564   4.877   5.348
 3936SOL    HW212708   0.674   4.912   5.232
 3937SOL     OW12709   6.995   0.076   1.992
 3937SOL    HW112710   6.959   0.167   2.013
 3937SOL    HW212711   0.071   0.083   1.972
 3938SOL     OW12712   0.601   4.264   3.154
 3938SOL    HW112713   0.637   4.191   3.213
 3938SOL    HW212714   0.506   4.282   3.179
 3939SOL     OW12715   1.313   1.054   2.084
 3939SOL    HW112716   1.385   1.122   2.094
 3939SOL    HW212717   1.230   1.086   2.130
 3940SOL     OW12718   3.630   5.379   1.694
 3940SOL    HW112719   3.686   5.353   1.773
 3940SOL    HW212720   3.638   5.477   1.678
 3941SOL     OW12721   5.182   6.609   3.331
 3941SOL    HW112722   5.248   6.677   3.362
 3941SOL    HW212723   5.189   6.528   3.390
 3942SOL     OW12724   6.845   5.924   5.920
 3942SOL    HW112725   6.935   5.895   5.886
 3942SOL    HW212726   6.776   5.908   5.849
 3943SOL     OW12727   1.466   3.021   6.824
 3943SOL    HW112728   1.399   3.053   6.756
 3943SOL    HW212729   1.558   3.047   6.794
 3944SOL     OW12730   5.745   2.357   6.832
 3944SOL    HW112731   5.838   2.377   6.864
 3944SOL    HW212732   5.679   2.403   6.891
 3945SOL     OW12733   6.441   0.046   3.599
 3945SOL    HW112734   6.383   0.116   3.642
 3945SOL    HW212735   6.437   6.984   3.653
 3946SOL     OW12736   1.151   3.004   0.327
 3946SOL    HW112737   1.083   2.940   0.365
 3946SOL    HW212738   1.215   3.031   0.398
 3947SOL     OW12739   5.468   4.688   2.379
 3947SOL    HW112740   5.541   4.690   2.311
 3947SOL    HW212741   5.381   4.709   2.334
 3948SOL     OW12742   0.924   2.563   6.285
 3948SOL    HW112743   0.957   2.547   6.192
 3948SOL    HW212744   1.002   2.572   6.347
 3949SOL     OW12745   5.616   6.921   2.063
 3949SOL    HW112746   5.664   6.908   1.976
 3949SOL    HW212747   5.677   6.899   2.139
 3950SOL     OW12748   3.119   4.460   1.683
 3950SOL    HW112749   3.061   4.501   1.752
 3950SOL    HW212750   3.113   4.360   1.689
 3951SOL     OW12751   0.716   2.481   5.288
 3951SOL    HW112752   0.809   2.467   5.321
 3951SOL    HW212753   0.653   2.421   5.338
 3952SOL     OW12754   5.889   3.679   6.112
 3952SOL    HW112755   5.883   3.779   6.123
 3952SOL    HW212756   5.799   3.639   6.129
 3953SOL     OW12757   3.302   4.008   6.167
 3953SOL    HW112758   3.391   3.965   6.185
 3953SOL    HW212759   3.276   4.064   6.245
 3954SOL     OW12760   0.395   3.172   5.209
 3954SOL    HW112761   0.458   3.154   5.134
 3954SOL    HW212762   0.411   3.105   5.282
 3955SOL     OW12763   6.625   4.860   0.334
 3955SOL    HW112764   6.611   4.946   0.383
 3955SOL    HW212765   6.685   4.800   0.389
 3956SOL     OW12766   0.948   2.710   5.414
 3956SOL    HW112767   0.955   2.611   5.404
 3956SOL    HW212768   1.032   2.753   5.381
 3957SOL     OW12769   1.104   1.280   2.656
 3957SOL    HW112770   1.088   1.181   2.659
 3957SOL    HW212771   1.026   1.325   2.611
 3958SOL     OW12772   5.564   6.681   5.703
 3958SOL    HW112773   5.609   6.669   5.791
 3958SOL    HW212774   5.633   6.704   5.634
 3959SOL     OW12775   2.312   4.804   0.619
 3959SOL    HW112776   2.310   4.721   0.675
 3959SOL    HW212777   2.380   4.868   0.655
 3960SOL     OW12778   4.317   3.309   0.726
 3960SOL    HW112779   4.241   3.244   0.731
 3960SOL    HW212780   4.337   3.344   0.818
 3961SOL     OW12781   5.696   0.797   2.193
 3961SOL    HW112782   5.692   0.698   2.192
 3961SOL    HW212783   5.777   0.829   2.145
 3962SOL     OW12784   0.654   0.064   6.456
 3962SOL    HW112785   0.669   0.049   6.553
 3962SOL    HW212786   0.569   0.018   6.428
 3963SOL     OW12787   5.304   5.860   3.417
 3963SOL    HW112788   5.244   5.804   3.474
 3963SOL    HW212789   5.254   5.889   3.335
 3964SOL     OW12790   5.662   6.320   5.313
 3964SOL    HW112791   5.672   6.269   5.399
 3964SOL    HW212792   5.752   6.334   5.272
 3965SOL     OW12793   3.849   3.449   6.869
 3965SOL    HW112794   3.777   3.452   6.938
 3965SOL    HW212795   3.892   3.539   6.862
 3966SOL     OW12796   5.576   3.778   5.062
 3966SOL    HW112797   5.559   3.689   5.019
 3966SOL    HW212798   5.530   3.850   5.010
 3967SOL     OW12799   0.855   5.622   6.495
 3967SOL    HW112800   0.858   5.625   6.395
 3967SOL    HW212801   0.847   5.528   6.526
 3968SOL     OW12802   5.864   0.373   1.637
 3968SOL    HW112803   5.820   0.447   1.586
 3968SOL    HW212804   5.852   0.388   1.735
 3969SOL     OW12805   0.192   5.486   1.564
 3969SOL    HW112806   0.159   5.443   1.648
 3969SOL    HW212807   0.245   5.420   1.511
 3970SOL     OW12808   4.708   5.005   3.149
 3970SOL    HW112809   4.622   5.057   3.154
 3970SOL    HW212810   4.688   4.908   3.136
 3971SOL     OW12811   1.498   5.335   3.924
 3971SOL    HW112812   1.512   5.358   3.828
 3971SOL    HW212813   1.586   5.316   3.967
 3972SOL     OW12814   1.388   6.782   0.322
 3972SOL    HW112815   1.480   6.821   0.324
 3972SOL    HW212816   1.341   6.804   0.407
 3973SOL     OW12817   3.064   3.221   3.735
 3973SOL    HW112818   3.037   3.317   3.739
 3973SOL    HW212819   3.029   3.180   3.650
 3974SOL     OW12820   6.233   1.911   6.435
 3974SOL    HW112821   6.158   1.921   6.370
 3974SOL    HW212822   6.305   1.977   6.412
 3975SOL     OW12823   6.649   1.243   5.979
 3975SOL    HW112824   6.594   1.327   5.972
 3975SOL    HW212825   6.716   1.241   5.904
 3976SOL     OW12826   0.990   3.649   0.033
 3976SOL    HW112827   0.916   3.716   0.028
 3976SOL    HW212828   1.007   3.625   0.128
 3977SOL     OW12829   4.187   6.298   6.888
 3977SOL    HW112830   4.220   6.216   6.935
 3977SOL    HW212831   4.117   6.343   6.944
 3978SOL     OW12832   5.745   3.571   6.408
 3978SOL    HW112833   5.802   3.490   6.423
 3978SOL    HW212834   5.766   3.640   6.477
 3979SOL     OW12835   1.103   0.103   3.495
 3979SOL    HW112836   1.092   0.097   3.594
 3979SOL    HW212837   1.023   0.148   3.455
 3980SOL     OW12838   5.574   2.738   3.840
 3980SOL    HW112839   5.551   2.652   3.885
 3980SOL    HW212840   5.518   2.749   3.758
 3981SOL     OW12841   6.921   1.870   6.342
 3981SOL    HW112842   6.925   1.776   6.374
 3981SOL    HW212843   6.984   1.881   6.264
 3982SOL     OW12844   2.605   1.925   3.696
 3982SOL    HW112845   2.617   1.949   3.792
 3982SOL    HW212846   2.682   1.869   3.665
 3983SOL     OW12847   3.022   6.414   4.065
 3983SOL    HW112848   3.022   6.314   4.070
 3983SOL    HW212849   3.025   6.452   4.158
 3984SOL     OW12850   1.588   6.663   1.871
 3984SOL    HW112851   1.606   6.761   1.871
 3984SOL    HW212852   1.538   6.638   1.954
 3985SOL     OW12853   1.790   3.107   1.421
 3985SOL    HW112854   1.736   3.184   1.388
 3985SOL    HW212855   1.803   3.115   1.520
 3986SOL     OW12856   0.643   2.535   2.008
 3986SOL    HW112857   0.556   2.577   2.032
 3986SOL    HW212858   0.627   2.444   1.970
 3987SOL     OW12859   2.697   4.742   6.789
 3987SOL    HW112860   2.650   4.774   6.872
 3987SOL    HW212861   2.792   4.773   6.790
 3988SOL     OW12862   3.843   2.788   0.467
 3988SOL    HW112863   3.815   2.692   0.463
 3988SOL    HW212864   3.865   2.812   0.562
 3989SOL     OW12865   4.544   6.643   6.394
 3989SOL    HW112866   4.618   6.703   6.424
 3989SOL    HW212867   4.501   6.681   6.312
 3990SOL     OW12868   0.957   2.877   3.619
 3990SOL    HW112869   0.968   2.976   3.624
 3990SOL    HW212870   0.950   2.839   3.711
 3991SOL     OW12871   0.448   1.993   4.321
 3991SOL    HW112872   0.351   1.967   4.323
 3991SOL    HW212873   0.471   2.024   4.228
 3992SOL     OW12874   4.221   3.638   6.452
 3992SOL    HW112875   4.263   3.722   6.488
 3992SOL    HW212876   4.225   3.567   6.522
 3993SOL     OW12877   2.536   2.429   2.652
 3993SOL    HW112878   2.496   2.470   2.734
 3993SOL    HW212879   2.546   2.331   2.666
 3994SOL     OW12880   2.307   2.536   3.671
 3994SOL    HW112881   2.285   2.633   3.664
 3994SOL    HW212882   2.237   2.482   3.625
 3995SOL     OW12883   1.896   3.754   2.462
 3995SOL    HW112884   1.990   3.734   2.489
 3995SOL    HW212885   1.838   3.675   2.482
 3996SOL     OW12886   6.195   0.145   3.309
 3996SOL    HW112887   6.287   0.114   3.336
 3996SOL    HW212888   6.171   0.227   3.360
 3997SOL     OW12889   5.750   3.507   2.566
 3997SOL    HW112890   5.705   3.556   2.640
 3997SOL    HW212891   5.725   3.410   2.569
 3998SOL     OW12892   6.484   1.899   2.958
 3998SOL    HW112893   6.550   1.828   2.983
 3998SOL    HW212894   6.502   1.982   3.011
 3999SOL     OW12895   5.641   2.934   2.428
 3999SOL    HW112896   5.639   2.871   2.351
 3999SOL    HW212897   5.663   3.026   2.395
 4000SOL     OW12898   2.934   5.989   1.964
 4000SOL    HW112899   2.881   5.953   2.042
 4000SOL    HW212900   3.021   5.941   1.958
 4001SOL     OW12901   2.279   4.277   5.159
 4001SOL    HW112902   2.361   4.335   5.156
 4001SOL    HW212903   2.306   4.181   5.145
 4002SOL     OW12904   3.442   3.046   4.098
 4002SOL    HW112905   3.439   3.130   4.152
 4002SOL    HW212906   3.524   2.994   4.123
 4003SOL     OW12907   1.756   0.507   5.165
 4003SOL    HW112908   1.838   0.483   5.112
 4003SOL    HW212909   1.780   0.514   5.262
 4004SOL     OW12910   0.337   3.889   3.589
 4004SOL    HW112911   0.367   3.933   3.674
 4004SOL    HW212912   0.247   3.924   3.563
 4005SOL     OW12913   4.531   3.875   1.224
 4005SOL    HW112914   4.523   3.775   1.230
 4005SOL    HW212915   4.538   3.914   1.315
 4006SOL     OW12916   5.214   5.123   3.331
 4006SOL    HW112917   5.122   5.093   3.304
 4006SOL    HW212918   5.223   5.118   3.431
 4007SOL     OW12919   6.839   1.213   2.595
 4007SOL    HW112920   6.878   1.299   2.627
 4007SOL    HW212921   6.846   1.208   2.495
 4008SOL     OW12922   1.626   0.277   1.093
 4008SOL    HW112923   1.672   0.270   1.004
 4008SOL    HW212924   1.602   0.373   1.111
 4009SOL     OW12925   4.055   1.944   0.853
 4009SOL    HW112926   4.055   2.013   0.781
 4009SOL    HW212927   4.111   1.975   0.930
 4010SOL     OW12928   2.714   5.083   1.460
 4010SOL    HW112929   2.761   5.132   1.534
 4010SOL    HW212930   2.779   5.063   1.387
 4011SOL     OW12931   6.232   5.910   0.544
 4011SOL    HW112932   6.310   5.895   0.483
 4011SOL    HW212933   6.199   6.004   0.533
 4012SOL     OW12934   3.909   6.789   2.375
 4012SOL    HW112935   3.959   6.715   2.418
 4012SOL    HW212936   3.970   6.867   2.361
 4013SOL     OW12937   1.230   0.817   0.081
 4013SOL    HW112938   1.174   0.898   0.065
 4013SOL    HW212939   1.241   0.766   7.018
 4014SOL     OW12940   2.739   5.537   4.062
 4014SOL    HW112941   2.684   5.602   4.010
 4014SOL    HW212942   2.781   5.471   3.999
 4015SOL     OW12943   4.499   5.246   6.456
 4015SOL    HW112944   4.455   5.295   6.532
 4015SOL    HW212945   4.591   5.219   6.483
 4016SOL     OW12946   3.951   5.997   6.016
 4016SOL    HW112947   3.956   6.009   6.115
 4016SOL    HW212948   3.915   5.906   5.995
 4017SOL     OW12949   1.407   5.414   5.936
 4017SOL    HW112950   1.367   5.470   5.863
 4017SOL    HW212951   1.337   5.350   5.970
 4018SOL     OW12952   4.273   6.019   2.059
 4018SOL    HW112953   4.306   6.097   2.005
 4018SOL    HW212954   4.186   5.988   2.022
 4019SOL     OW12955   4.851   3.043   2.784
 4019SOL    HW112956   4.800   3.129   2.770
 4019SOL    HW212957   4.916   3.030   2.710
 4020SOL     OW12958   6.526   4.640   5.066
 4020SOL    HW112959   6.486   4.560   5.111
 4020SOL    HW212960   6.621   4.652   5.097
 4021SOL     OW12961   3.348   3.705   5.847
 4021SOL    HW112962   3.324   3.780   5.786
 4021SOL    HW212963   3.369   3.624   5.793
 4022SOL     OW12964   2.483   0.541   0.841
 4022SOL    HW112965   2.410   0.472   0.835
 4022SOL    HW212966   2.529   0.548   0.753
 4023SOL     OW12967   0.037   2.568   5.592
 4023SOL    HW112968   6.974   2.570   5.645
 4023SOL    HW212969   0.021   2.609   5.502
 4024SOL     OW12970   0.888   4.836   3.719
 4024SOL    HW112971   0.801   4.805   3.681
 4024SOL    HW212972   0.947   4.757   3.734
 4025SOL     OW12973   1.490   6.150   3.683
 4025SOL    HW112974   1.499   6.101   3.769
 4025SOL    HW212975   1.394   6.147   3.653
 4026SOL     OW12976   6.908   6.193   3.838
 4026SOL    HW112977   6.857   6.108   3.829
 4026SOL    HW212978   6.999   6.173   3.875
 4027SOL     OW12979   2.426   3.297   5.994
 4027SOL    HW112980   2.415   3.248   5.908
 4027SOL    HW212981   2.515   3.343   5.996
 4028SOL     OW12982   4.839   1.734   2.512
 4028SOL    HW112983   4.744   1.719   2.483
 4028SOL    HW212984   4.863   1.830   2.498
 4029SOL     OW12985   2.911   4.315   6.742
 4029SOL    HW112986   2.931   4.357   6.653
 4029SOL    HW212987   2.989   4.329   6.803
 4030SOL     OW12988   6.754   0.902   1.776
 4030SOL    HW112989   6.757   0.890   1.875
 4030SOL    HW212990   6.781   0.817   1.731
 4031SOL     OW12991   5.496   0.221   1.516
 4031SOL    HW112992   5.475   0.125   1.499
 4031SOL    HW212993   5.596   0.233   1.520
 4032SOL     OW12994   6.176   0.049   1.479
 4032SOL    HW112995   6.089   0.093   1.457
 4032SOL    HW212996   6.174   6.977   1.449
 4033SOL     OW12997   3.262   2.151   2.473
 4033SOL    HW112998   3.312   2.145   2.387
 4033SOL    HW212999   3.174   2.195   2.457
 4034SOL     OW13000   0.259   2.716   4.830
 4034SOL    HW113001   0.265   2.768   4.915
 4034SOL    HW213002   0.176   2.660   4.831
 4035SOL     OW13003   6.258   2.464   1.123
 4035SOL    HW113004   6.169   2.424   1.103
 4035SOL    HW213005   6.329   2.414   1.074
 4036SOL     OW13006   3.239   5.510   3.783
 4036SOL    HW113007   3.155   5.562   3.798
 4036SOL    HW213008   3.292   5.553   3.711
 4037SOL     OW13009   2.098   1.142   5.556
 4037SOL    HW113010   2.068   1.237   5.564
 4037SOL    HW213011   2.137   1.112   5.644
 4038SOL     OW13012   3.828   3.925   6.297
 4038SOL    HW113013   3.919   3.889   6.319
 4038SOL    HW213014   3.806   3.903   6.201
 4039SOL     OW13015   5.298   4.709   1.838
 4039SOL    HW113016   5.384   4.756   1.819
 4039SOL    HW213017   5.221   4.763   1.803
 4040SOL     OW13018   3.915   5.627   5.622
 4040SOL    HW113019   3.930   5.660   5.529
 4040SOL    HW213020   3.990   5.657   5.680
 4041SOL     OW13021   2.064   6.726   1.796
 4041SOL    HW113022   2.065   6.797   1.726
 4041SOL    HW213023   2.070   6.636   1.752
 4042SOL     OW13024   6.176   0.168   3.030
 4042SOL    HW113025   6.093   0.203   2.988
 4042SOL    HW213026   6.167   0.169   3.130
 4043SOL     OW13027   5.990   3.576   6.909
 4043SOL    HW113028   5.961   3.652   6.967
 4043SOL    HW213029   5.941   3.493   6.935
 4044SOL     OW13030   4.037   4.779   3.128
 4044SOL    HW113031   4.064   4.693   3.171
 4044SOL    HW213032   4.106   4.849   3.146
 4045SOL     OW13033   5.052   6.758   6.377
 4045SOL    HW113034   5.140   6.724   6.344
 4045SOL    HW213035   4.991   6.681   6.396
 4046SOL     OW13036   0.763   1.293   3.292
 4046SOL    HW113037   0.719   1.328   3.209
 4046SOL    HW213038   0.795   1.369   3.348
 4047SOL     OW13039   2.396   2.902   6.686
 4047SOL    HW113040   2.412   2.990   6.731
 4047SOL    HW213041   2.440   2.903   6.596
 4048SOL     OW13042   4.902   0.936   2.143
 4048SOL    HW113043   4.973   0.889   2.196
 4048SOL    HW213044   4.925   0.934   2.046
 4049SOL     OW13045   3.562   5.828   6.824
 4049SOL    HW113046   3.495   5.876   6.880
 4049SOL    HW213047   3.652   5.871   6.837
 4050SOL     OW13048   0.629   6.088   2.527
 4050SOL    HW113049   0.640   5.989   2.529
 4050SOL    HW213050   0.532   6.111   2.513
 4051SOL     OW13051   5.365   1.094   6.124
 4051SOL    HW113052   5.462   1.100   6.099
 4051SOL    HW213053   5.354   1.122   6.220
 4052SOL     OW13054   6.660   1.459   2.790
 4052SOL    HW113055   6.640   1.448   2.887
 4052SOL    HW213056   6.759   1.451   2.775
 4053SOL     OW13057   1.156   6.184   4.680
 4053SOL    HW113058   1.253   6.161   4.676
 4053SOL    HW213059   1.146   6.284   4.687
 4054SOL     OW13060   4.584   4.142   1.116
 4054SOL    HW113061   4.663   4.163   1.173
 4054SOL    HW213062   4.526   4.075   1.161
 4055SOL     OW13063   1.602   3.988   2.185
 4055SOL    HW113064   1.611   4.005   2.087
 4055SOL    HW213065   1.588   4.075   2.233
 4056SOL     OW13066   5.560   3.655   1.274
 4056SOL    HW113067   5.659   3.661   1.288
 4056SOL    HW213068   5.513   3.665   1.363
 4057SOL     OW13069   6.435   3.460   6.669
 4057SOL    HW113070   6.361   3.471   6.602
 4057SOL    HW213071   6.419   3.376   6.722
 4058SOL     OW13072   2.447   5.750   5.257
 4058SOL    HW113073   2.418   5.760   5.352
 4058SOL    HW213074   2.522   5.684   5.252
 4059SOL     OW13075   1.157   2.465   4.083
 4059SOL    HW113076   1.169   2.543   4.145
 4059SOL    HW213077   1.179   2.380   4.131
 4060SOL     OW13078   6.347   5.903   4.673
 4060SOL    HW113079   6.353   5.847   4.755
 4060SOL    HW213080   6.302   5.851   4.600
 4061SOL     OW13081   2.331   5.084   2.187
 4061SOL    HW113082   2.425   5.050   2.186
 4061SOL    HW213083   2.330   5.180   2.157
 4062SOL     OW13084   2.254   1.277   1.866
 4062SOL    HW113085   2.292   1.185   1.859
 4062SOL    HW213086   2.158   1.272   1.894
 4063SOL     OW13087   5.864   6.848   1.246
 4063SOL    HW113088   5.869   6.798   1.159
 4063SOL    HW213089   5.772   6.886   1.257
 4064SOL     OW13090   2.138   1.885   4.662
 4064SOL    HW113091   2.188   1.925   4.739
 4064SOL    HW213092   2.146   1.785   4.665
 4065SOL     OW13093   1.437   6.691   0.028
 4065SOL    HW113094   1.518   6.724   0.077
 4065SOL    HW213095   1.450   6.706   6.952
 4066SOL     OW13096   6.345   3.823   2.823
 4066SOL    HW113097   6.311   3.917   2.814
 4066SOL    HW213098   6.390   3.796   2.738
 4067SOL     OW13099   6.032   3.923   2.574
 4067SOL    HW113100   6.023   3.974   2.660
 4067SOL    HW213101   5.950   3.937   2.518
 4068SOL     OW13102   1.752   2.737   4.512
 4068SOL    HW113103   1.851   2.743   4.499
 4068SOL    HW213104   1.733   2.675   4.589
 4069SOL     OW13105   3.580   6.250   6.853
 4069SOL    HW113106   3.538   6.323   6.798
 4069SOL    HW213107   3.516   6.174   6.859
 4070SOL     OW13108   1.029   2.895   2.857
 4070SOL    HW113109   1.018   2.949   2.774
 4070SOL    HW213110   1.042   2.956   2.935
 4071SOL     OW13111   1.559   0.379   4.273
 4071SOL    HW113112   1.605   0.463   4.245
 4071SOL    HW213113   1.613   0.300   4.243
 4072SOL     OW13114   1.495   5.349   4.558
 4072SOL    HW113115   1.503   5.436   4.609
 4072SOL    HW213116   1.582   5.329   4.514
 4073SOL     OW13117   2.157   5.248   0.155
 4073SOL    HW113118   2.187   5.341   0.133
 4073SOL    HW213119   2.175   5.188   0.077
 4074SOL     OW13120   1.399   4.693   1.266
 4074SOL    HW113121   1.407   4.658   1.172
 4074SOL    HW213122   1.363   4.620   1.325
 4075SOL     OW13123   5.322   1.479   0.483
 4075SOL    HW113124   5.286   1.522   0.401
 4075SOL    HW213125   5.247   1.438   0.535
 4076SOL     OW13126   3.469   3.370   5.379
 4076SOL    HW113127   3.411   3.288   5.386
 4076SOL    HW213128   3.509   3.375   5.288
 4077SOL     OW13129   4.624   1.327   1.312
 4077SOL    HW113130   4.596   1.421   1.292
 4077SOL    HW213131   4.600   1.269   1.235
 4078SOL     OW13132   2.945   4.770   2.556
 4078SOL    HW113133   2.956   4.757   2.457
 4078SOL    HW213134   3.021   4.725   2.603
 4079SOL     OW13135   1.624   1.715   4.104
 4079SOL    HW113136   1.643   1.777   4.180
 4079SOL    HW213137   1.659   1.624   4.125
 4080SOL     OW13138   4.925   2.322   4.985
 4080SOL    HW113139   4.849   2.327   4.920
 4080SOL    HW213140   4.985   2.401   4.971
 4081SOL     OW13141   1.959   2.862   4.267
 4081SOL    HW113142   1.997   2.918   4.341
 4081SOL    HW213143   1.872   2.822   4.297
 4082SOL     OW13144   1.170   3.181   0.860
 4082SOL    HW113145   1.140   3.247   0.929
 4082SOL    HW213146   1.092   3.130   0.825
 4083SOL     OW13147   5.966   2.686   3.319
 4083SOL    HW113148   5.928   2.615   3.259
 4083SOL    HW213149   5.900   2.707   3.391
 4084SOL     OW13150   6.403   1.932   3.929
 4084SOL    HW113151   6.424   1.934   3.832
 4084SOL    HW213152   6.325   1.871   3.945
 4085SOL     OW13153   4.132   6.299   0.843
 4085SOL    HW113154   4.049   6.302   0.787
 4085SOL    HW213155   4.111   6.330   0.936
 4086SOL     OW13156   1.993   5.708   1.351
 4086SOL    HW113157   2.006   5.662   1.438
 4086SOL    HW213158   2.019   5.647   1.276
 4087SOL     OW13159   2.458   2.462   3.209
 4087SOL    HW113160   2.461   2.428   3.303
 4087SOL    HW213161   2.372   2.511   3.195
 4088SOL     OW13162   6.656   1.972   1.020
 4088SOL    HW113163   6.710   1.895   1.054
 4088SOL    HW213164   6.565   1.970   1.061
 4089SOL     OW13165   0.465   6.628   3.282
 4089SOL    HW113166   0.400   6.659   3.351
 4089SOL    HW213167   0.558   6.647   3.314
 4090SOL     OW13168   2.745   4.277   6.119
 4090SOL    HW113169   2.783   4.201   6.068
 4090SOL    HW213170   2.816   4.345   6.137
 4091SOL     OW13171   5.864   6.602   6.799
 4091SOL    HW113172   5.802   6.680   6.787
 4091SOL    HW213173   5.817   6.531   6.851
 4092SOL     OW13174   7.020   2.630   5.332
 4092SOL    HW113175   6.931   2.654   5.295
 4092SOL    HW213176   0.009   2.531   5.329
 4093SOL     OW13177   4.604   0.396   3.861
 4093SOL    HW113178   4.555   0.411   3.776
 4093SOL    HW213179   4.647   0.481   3.890
 4094SOL     OW13180   2.255   4.920   5.208
 4094SOL    HW113181   2.185   4.893   5.274
 4094SOL    HW213182   2.223   4.900   5.115
 4095SOL     OW13183   0.922   3.834   6.228
 4095SOL    HW113184   0.952   3.755   6.175
 4095SOL    HW213185   0.837   3.812   6.275
 4096SOL     OW13186   4.441   5.785   1.244
 4096SOL    HW113187   4.530   5.746   1.222
 4096SOL    HW213188   4.408   5.749   1.331
 4097SOL     OW13189   3.040   4.287   5.981
 4097SOL    HW113190   3.019   4.303   5.885
 4097SOL    HW213191   3.118   4.224   5.988
 4098SOL     OW13192   0.310   2.913   2.458
 4098SOL    HW113193   0.239   2.942   2.394
 4098SOL    HW213194   0.399   2.943   2.425
 4099SOL     OW13195   2.790   5.179   1.725
 4099SOL    HW113196   2.801   5.259   1.784
 4099SOL    HW213197   2.709   5.128   1.753
 4100SOL     OW13198   5.581   5.681   3.938
 4100SOL    HW113199   5.580   5.767   3.989
 4100SOL    HW213200   5.503   5.677   3.875
 4101SOL     OW13201   5.622   0.691   7.022
 4101SOL    HW113202   5.602   0.633   6.943
 4101SOL    HW213203   5.662   0.777   6.990
 4102SOL     OW13204   6.429   0.532   1.392
 4102SOL    HW113205   6.493   0.565   1.462
 4102SOL    HW213206   6.463   0.557   1.301
 4103SOL     OW13207   0.654   1.024   1.892
 4103SOL    HW113208   0.613   1.108   1.927
 4103SOL    HW213209   0.746   1.015   1.928
 4104SOL     OW13210   1.415   4.659   2.645
 4104SOL    HW113211   1.510   4.634   2.630
 4104SOL    HW213212   1.382   4.616   2.730
 4105SOL     OW13213   4.104   5.777   1.433
 4105SOL    HW113214   4.033   5.844   1.412
 4105SOL    HW213215   4.178   5.820   1.484
 4106SOL     OW13216   0.383   3.695   4.993
 4106SOL    HW113217   0.388   3.726   4.898
 4106SOL    HW213218   0.455   3.739   5.046
 4107SOL     OW13219   0.758   6.287   0.723
 4107SOL    HW113220   0.748   6.261   0.819
 4107SOL    HW213221   0.742   6.207   0.665
 4108SOL     OW13222   6.960   4.940   5.984
 4108SOL    HW113223   6.968   5.020   6.042
 4108SOL    HW213224   6.972   4.857   6.039
 4109SOL     OW13225   4.367   6.740   4.469
 4109SOL    HW113226   4.414   6.791   4.541
 4109SOL    HW213227   4.275   6.777   4.456
 4110SOL     OW13228   4.270   4.076   6.822
 4110SOL    HW113229   4.195   4.060   6.758
 4110SOL    HW213230   4.332   4.145   6.784
 4111SOL     OW13231   3.330   3.074   0.140
 4111SOL    HW113232   3.276   2.992   0.156
 4111SOL    HW213233   3.342   3.123   0.226
 4112SOL     OW13234   5.341   1.644   5.485
 4112SOL    HW113235   5.414   1.577   5.502
 4112SOL    HW213236   5.281   1.648   5.565
 4113SOL     OW13237   4.061   6.232   4.856
 4113SOL    HW113238   4.015   6.179   4.785
 4113SOL    HW213239   4.160   6.232   4.838
 4114SOL     OW13240   3.141   2.021   3.552
 4114SOL    HW113241   3.228   2.054   3.589
 4114SOL    HW213242   3.151   1.926   3.523
 4115SOL     OW13243   5.262   6.072   2.379
 4115SOL    HW113244   5.194   6.032   2.441
 4115SOL    HW213245   5.332   6.119   2.432
 4116SOL     OW13246   4.239   2.117   1.421
 4116SOL    HW113247   4.329   2.108   1.464
 4116SOL    HW213248   4.240   2.195   1.358
 4117SOL     OW13249   0.497   4.887   1.469
 4117SOL    HW113250   0.567   4.940   1.421
 4117SOL    HW213251   0.437   4.949   1.520
 4118SOL     OW13252   1.364   6.671   0.974
 4118SOL    HW113253   1.361   6.571   0.976
 4118SOL    HW213254   1.459   6.701   0.985
 4119SOL     OW13255   4.091   1.182   4.169
 4119SOL    HW113256   4.178   1.180   4.118
 4119SOL    HW213257   4.079   1.095   4.217
 4120SOL     OW13258   4.652   6.545   1.721
 4120SOL    HW113259   4.738   6.497   1.708
 4120SOL    HW213260   4.614   6.524   1.811
 4121SOL     OW13261   6.181   1.973   4.539
 4121SOL    HW113262   6.271   1.991   4.499
 4121SOL    HW213263   6.112   1.968   4.467
 4122SOL     OW13264   0.931   6.320   5.423
 4122SOL    HW113265   0.921   6.381   5.345
 4122SOL    HW213266   0.856   6.253   5.423
 4123SOL     OW13267   5.696   4.856   5.988
 4123SOL    HW113268   5.740   4.810   5.911
 4123SOL    HW213269   5.654   4.941   5.957
 4124SOL     OW13270   6.106   5.546   5.189
 4124SOL    HW113271   6.105   5.546   5.089
 4124SOL    HW213272   6.020   5.509   5.223
 4125SOL     OW13273   5.110   0.511   1.446
 4125SOL    HW113274   5.074   0.603   1.432
 4125SOL    HW213275   5.125   0.466   1.358
 4126SOL     OW13276   1.044   3.936   3.951
 4126SOL    HW113277   0.992   3.913   3.868
 4126SOL    HW213278   1.095   3.856   3.981
 4127SOL     OW13279   5.376   3.778   4.002
 4127SOL    HW113280   5.316   3.701   3.983
 4127SOL    HW213281   5.322   3.861   4.010
 4128SOL     OW13282   2.020   4.182   2.364
 4128SOL    HW113283   2.109   4.137   2.370
 4128SOL    HW213284   1.949   4.113   2.346
 4129SOL     OW13285   5.329   1.805   6.161
 4129SOL    HW113286   5.262   1.732   6.175
 4129SOL    HW213287   5.345   1.853   6.248
 4130SOL     OW13288   6.911   3.406   5.751
 4130SOL    HW113289   6.964   3.413   5.667
 4130SOL    HW213290   6.816   3.382   5.729
 4131SOL     OW13291   0.900   5.763   3.909
 4131SOL    HW113292   0.945   5.677   3.933
 4131SOL    HW213293   0.874   5.811   3.993
 4132SOL     OW13294   6.152   3.761   4.024
 4132SOL    HW113295   6.083   3.703   4.068
 4132SOL    HW213296   6.238   3.711   4.018
 4133SOL     OW13297   3.143   6.806   1.178
 4133SOL    HW113298   3.204   6.885   1.181
 4133SOL    HW213299   3.111   6.792   1.084
 4134SOL     OW13300   1.219   2.188   0.373
 4134SOL    HW113301   1.210   2.238   0.286
 4134SOL    HW213302   1.146   2.120   0.380
 4135SOL     OW13303   2.180   0.865   2.147
 4135SOL    HW113304   2.121   0.935   2.188
 4135SOL    HW213305   2.124   0.791   2.110
 4136SOL     OW13306   0.445   2.083   4.046
 4136SOL    HW113307   0.449   2.183   4.038
 4136SOL    HW213308   0.486   2.042   3.965
 4137SOL     OW13309   2.484   3.794   0.716
 4137SOL    HW113310   2.527   3.744   0.641
 4137SOL    HW213311   2.393   3.825   0.687
 4138SOL     OW13312   3.617   5.104   3.720
 4138SOL    HW113313   3.679   5.154   3.780
 4138SOL    HW213314   3.559   5.043   3.775
 4139SOL     OW13315   2.429   2.240   6.030
 4139SOL    HW113316   2.362   2.206   5.965
 4139SOL    HW213317   2.430   2.181   6.111
 4140SOL     OW13318   3.644   0.396   5.255
 4140SOL    HW113319   3.645   0.450   5.171
 4140SOL    HW213320   3.655   0.299   5.231
 4141SOL     OW13321   4.998   5.256   1.441
 4141SOL    HW113322   5.065   5.204   1.495
 4141SOL    HW213323   5.041   5.286   1.356
 4142SOL     OW13324   6.774   5.636   1.107
 4142SOL    HW113325   6.819   5.589   1.030
 4142SOL    HW213326   6.682   5.599   1.119
 4143SOL     OW13327   6.967   3.399   0.612
 4143SOL    HW113328   6.997   3.307   0.638
 4143SOL    HW213329   0.021   3.448   0.571
 4144SOL     OW13330   5.781   2.419   0.830
 4144SOL    HW113331   5.683   2.400   0.833
 4144SOL    HW213332   5.796   2.511   0.796
 4145SOL     OW13333   6.772   6.191   1.857
 4145SOL    HW113334   6.747   6.097   1.835
 4145SOL    HW213335   6.756   6.208   1.955
 4146SOL     OW13336   6.034   0.736   5.850
 4146SOL    HW113337   6.134   0.746   5.850
 4146SOL    HW213338   6.011   0.643   5.879
 4147SOL     OW13339   3.601   1.968   5.315
 4147SOL    HW113340   3.695   1.974   5.349
 4147SOL    HW213341   3.596   2.006   5.223
 4148SOL     OW13342   0.571   0.037   3.898
 4148SOL    HW113343   0.524   0.091   3.968
 4148SOL    HW213344   0.666   0.021   3.927
 4149SOL     OW13345   0.511   3.519   6.879
 4149SOL    HW113346   0.503   3.438   6.820
 4149SOL    HW213347   0.593   3.570   6.855
 4150SOL     OW13348   5.586   0.783   6.076
 4150SOL    HW113349   5.537   0.736   6.002
 4150SOL    HW213350   5.639   0.859   6.038
 4151SOL     OW13351   5.508   5.972   0.029
 4151SOL    HW113352   5.418   5.940   7.022
 4151SOL    HW213353   5.559   5.896   0.069
 4152SOL     OW13354   3.249   5.183   1.994
 4152SOL    HW113355   3.181   5.167   1.923
 4152SOL    HW213356   3.286   5.095   2.025
 4153SOL     OW13357   5.162   5.459   5.685
 4153SOL    HW113358   5.204   5.523   5.750
 4153SOL    HW213359   5.147   5.505   5.598
 4154SOL     OW13360   6.709   3.919   5.320
 4154SOL    HW113361   6.623   3.960   5.352
 4154SOL    HW213362   6.780   3.989   5.318
 4155SOL     OW13363   0.006   3.374   3.297
 4155SOL    HW113364   0.005   3.274   3.294
 4155SOL    HW213365   0.074   3.408   3.232
 4156SOL     OW13366   5.451   0.130   5.019
 4156SOL    HW113367   5.533   0.087   4.980
 4156SOL    HW213368   5.380   0.135   4.949
 4157SOL     OW13369   3.475   0.298   3.896
 4157SOL    HW113370   3.522   0.366   3.839
 4157SOL    HW213371   3.472   0.210   3.848
 4158SOL     OW13372   1.244   5.016   4.354
 4158SOL    HW113373   1.307   4.944   4.384
 4158SOL    HW213374   1.248   5.025   4.255
 4159SOL     OW13375   1.788   3.215   3.736
 4159SOL    HW113376   1.781   3.118   3.759
 4159SOL    HW213377   1.748   3.230   3.646
 4160SOL     OW13378   6.120   0.444   1.110
 4160SOL    HW113379   6.121   0.458   1.209
 4160SOL    HW213380   6.094   0.529   1.065
 4161SOL     OW13381   2.387   0.356   6.609
 4161SOL    HW113382   2.287   0.366   6.611
 4161SOL    HW213383   2.412   0.264   6.639
 4162SOL     OW13384   5.826   0.543   4.732
 4162SOL    HW113385   5.728   0.548   4.746
 4162SOL    HW213386   5.870   0.506   4.814
 4163SOL     OW13387   6.007   1.454   3.094
 4163SOL    HW113388   5.992   1.424   3.189
 4163SOL    HW213389   6.105   1.465   3.077
 4164SOL     OW13390   1.698   0.304   7.021
 4164SOL    HW113391   1.643   0.358   0.063
 4164SOL    HW213392   1.794   0.330   0.006
 4165SOL     OW13393   4.366   6.567   1.305
 4165SOL    HW113394   4.384   6.665   1.313
 4165SOL    HW213395   4.308   6.550   1.225
 4166SOL     OW13396   4.003   2.480   1.401
 4166SOL    HW113397   3.965   2.393   1.368
 4166SOL    HW213398   4.045   2.529   1.325
 4167SOL     OW13399   2.271   2.916   0.964
 4167SOL    HW113400   2.209   2.890   1.038
 4167SOL    HW213401   2.251   3.009   0.934
 4168SOL     OW13402   0.090   4.787   0.902
 4168SOL    HW113403   0.125   4.809   0.811
 4168SOL    HW213404   0.096   4.689   0.918
 4169SOL     OW13405   5.352   4.131   4.550
 4169SOL    HW113406   5.415   4.073   4.499
 4169SOL    HW213407   5.316   4.079   4.628
 4170SOL     OW13408   4.094   2.747   5.543
 4170SOL    HW113409   4.015   2.735   5.483
 4170SOL    HW213410   4.097   2.841   5.577
 4171SOL     OW13411   5.016   3.946   1.046
 4171SOL    HW113412   5.000   3.926   0.949
 4171SOL    HW213413   4.948   3.898   1.101
 4172SOL     OW13414   0.180   2.413   6.908
 4172SOL    HW113415   0.116   2.355   6.857
 4172SOL    HW213416   0.267   2.365   6.919
 4173SOL     OW13417   5.479   3.340   5.316
 4173SOL    HW113418   5.442   3.351   5.224
 4173SOL    HW213419   5.434   3.262   5.360
 4174SOL     OW13420   4.890   1.151   4.107
 4174SOL    HW113421   4.879   1.213   4.185
 4174SOL    HW213422   4.919   1.061   4.140
 4175SOL     OW13423   3.096   6.910   4.290
 4175SOL    HW113424   3.104   6.859   4.204
 4175SOL    HW213425   3.185   6.909   4.337
 4176SOL     OW13426   4.116   6.949   2.364
 4176SOL    HW113427   4.083   0.018   2.341
 4176SOL    HW213428   4.168   6.953   2.449
 4177SOL     OW13429   0.524   4.933   4.891
 4177SOL    HW113430   0.455   4.936   4.963
 4177SOL    HW213431   0.480   4.913   4.804
 4178SOL     OW13432   3.456   1.054   5.574
 4178SOL    HW113433   3.549   1.079   5.547
 4178SOL    HW213434   3.459   0.974   5.634
 4179SOL     OW13435   6.075   3.050   4.338
 4179SOL    HW113436   5.994   3.060   4.396
 4179SOL    HW213437   6.099   2.953   4.330
 4180SOL     OW13438   5.503   4.266   2.182
 4180SOL    HW113439   5.430   4.303   2.239
 4180SOL    HW213440   5.577   4.334   2.175
 4181SOL     OW13441   1.153   2.009   6.237
 4181SOL    HW113442   1.082   1.941   6.251
 4181SOL    HW213443   1.243   1.968   6.253
 4182SOL     OW13444   0.433   0.272   2.713
 4182SOL    HW113445   0.356   0.317   2.758
 4182SOL    HW213446   0.516   0.287   2.767
 4183SOL     OW13447   2.632   1.729   1.360
 4183SOL    HW113448   2.566   1.755   1.432
 4183SOL    HW213449   2.584   1.676   1.290
 4184SOL     OW13450   3.957   5.403   1.279
 4184SOL    HW113451   3.904   5.454   1.346
 4184SOL    HW213452   4.033   5.356   1.325
 4185SOL     OW13453   0.977   5.722   3.457
 4185SOL    HW113454   0.927   5.756   3.377
 4185SOL    HW213455   1.065   5.686   3.428
 4186SOL     OW13456   1.950   4.115   6.884
 4186SOL    HW113457   2.021   4.047   6.867
 4186SOL    HW213458   1.938   4.172   6.803
 4187SOL     OW13459   3.586   3.278   5.626
 4187SOL    HW113460   3.605   3.181   5.606
 4187SOL    HW213461   3.566   3.326   5.540
 4188SOL     OW13462   4.542   0.700   4.755
 4188SOL    HW113463   4.544   0.780   4.695
 4188SOL    HW213464   4.616   0.638   4.729
 4189SOL     OW13465   3.198   1.718   4.222
 4189SOL    HW113466   3.155   1.797   4.180
 4189SOL    HW213467   3.128   1.649   4.242
 4190SOL     OW13468   2.405   0.337   6.263
 4190SOL    HW113469   2.325   0.391   6.289
 4190SOL    HW213470   2.476   0.348   6.333
 4191SOL     OW13471   5.729   3.030   3.015
 4191SOL    HW113472   5.761   3.056   2.924
 4191SOL    HW213473   5.803   3.041   3.081
 4192SOL     OW13474   6.259   1.483   2.985
 4192SOL    HW113475   6.288   1.391   3.011
 4192SOL    HW213476   6.325   1.549   3.020
 4193SOL     OW13477   2.299   6.495   2.133
 4193SOL    HW113478   2.269   6.441   2.054
 4193SOL    HW213479   2.230   6.488   2.206
 4194SOL     OW13480   6.793   1.978   4.466
 4194SOL    HW113481   6.878   2.017   4.501
 4194SOL    HW213482   6.715   2.023   4.509
 4195SOL     OW13483   4.105   0.604   1.324
 4195SOL    HW113484   4.166   0.526   1.341
 4195SOL    HW213485   4.013   0.581   1.353
 4196SOL     OW13486   5.787   2.292   4.108
 4196SOL    HW113487   5.859   2.302   4.039
 4196SOL    HW213488   5.733   2.376   4.112
 4197SOL     OW13489   5.108   4.482   4.527
 4197SOL    HW113490   5.101   4.502   4.625
 4197SOL    HW213491   5.205   4.480   4.501
 4198SOL     OW13492   5.962   3.725   0.228
 4198SOL    HW113493   5.879   3.739   0.281
 4198SOL    HW213494   5.980   3.627   0.217
 4199SOL     OW13495   3.016   3.044   5.261
 4199SOL    HW113496   2.969   3.132   5.265
 4199SOL    HW213497   3.052   3.030   5.169
 4200SOL     OW13498   2.307   6.731   6.040
 4200SOL    HW113499   2.392   6.783   6.029
 4200SOL    HW213500   2.282   6.688   5.953
 4201SOL     OW13501   6.359   6.357   3.165
 4201SOL    HW113502   6.369   6.394   3.257
 4201SOL    HW213503   6.342   6.259   3.171
 4202SOL     OW13504   4.953   4.989   5.578
 4202SOL    HW113505   4.888   4.915   5.563
 4202SOL    HW213506   5.031   4.979   5.517
 4203SOL     OW13507   4.871   6.300   2.816
 4203SOL    HW113508   4.938   6.288   2.743
 4203SOL    HW213509   4.908   6.360   2.886
 4204SOL     OW13510   3.228   2.856   1.952
 4204SOL    HW113511   3.154   2.813   1.900
 4204SOL    HW213512   3.236   2.810   2.041
 4205SOL     OW13513   3.589   4.934   4.268
 4205SOL    HW113514   3.570   5.032   4.274
 4205SOL    HW213515   3.519   4.883   4.318
 4206SOL     OW13516   4.456   0.490   5.767
 4206SOL    HW113517   4.513   0.549   5.824
 4206SOL    HW213518   4.427   0.540   5.685
 4207SOL     OW13519   1.732   1.149   1.982
 4207SOL    HW113520   1.828   1.172   1.999
 4207SOL    HW213521   1.725   1.100   1.895
 4208SOL     OW13522   1.828   2.670   1.176
 4208SOL    HW113523   1.764   2.639   1.246
 4208SOL    HW213524   1.850   2.594   1.115
 4209SOL     OW13525   1.057   0.178   5.082
 4209SOL    HW113526   1.141   0.131   5.108
 4209SOL    HW213527   1.051   0.186   4.983
 4210SOL     OW13528   3.722   3.616   1.685
 4210SOL    HW113529   3.815   3.587   1.708
 4210SOL    HW213530   3.664   3.535   1.673
 4211SOL     OW13531   4.676   4.851   5.198
 4211SOL    HW113532   4.653   4.815   5.107
 4211SOL    HW213533   4.766   4.817   5.225
 4212SOL     OW13534   6.395   1.509   2.507
 4212SOL    HW113535   6.320   1.445   2.517
 4212SOL    HW213536   6.389   1.579   2.578
 4213SOL     OW13537   1.805   0.808   1.826
 4213SOL    HW113538   1.890   0.843   1.865
 4213SOL    HW213539   1.826   0.750   1.747
 4214SOL     OW13540   1.141   3.418   6.109
 4214SOL    HW113541   1.136   3.333   6.161
 4214SOL    HW213542   1.199   3.405   6.028
 4215SOL     OW13543   0.697   5.708   4.353
 4215SOL    HW113544   0.797   5.713   4.355
 4215SOL    HW213545   0.667   5.691   4.259
 4216SOL     OW13546   1.247   2.094   3.711
 4216SOL    HW113547   1.318   2.035   3.673
 4216SOL    HW213548   1.205   2.049   3.789
 4217SOL     OW13549   0.315   6.773   2.431
 4217SOL    HW113550   0.283   6.790   2.524
 4217SOL    HW213551   0.244   6.804   2.366
 4218SOL     OW13552   4.930   0.409   1.703
 4218SOL    HW113553   5.020   0.449   1.722
 4218SOL    HW213554   4.912   0.335   1.767
 4219SOL     OW13555   3.497   4.951   5.070
 4219SOL    HW113556   3.407   4.916   5.098
 4219SOL    HW213557   3.501   4.958   4.971
 4220SOL     OW13558   6.222   3.801   3.365
 4220SOL    HW113559   6.258   3.856   3.440
 4220SOL    HW213560   6.175   3.860   3.299
 4221SOL     OW13561   5.442   5.667   6.165
 4221SOL    HW113562   5.393   5.738   6.215
 4221SOL    HW213563   5.400   5.578   6.184
 4222SOL     OW13564   6.078   2.211   1.803
 4222SOL    HW113565   6.169   2.245   1.778
 4222SOL    HW213566   6.041   2.266   1.878
 4223SOL     OW13567   3.470   3.827   2.598
 4223SOL    HW113568   3.481   3.738   2.642
 4223SOL    HW213569   3.401   3.820   2.525
 4224SOL     OW13570   4.724   2.647   4.702
 4224SOL    HW113571   4.669   2.704   4.763
 4224SOL    HW213572   4.708   2.551   4.722
 4225SOL     OW13573   5.900   0.859   4.719
 4225SOL    HW113574   5.938   0.908   4.797
 4225SOL    HW213575   5.929   0.763   4.722
 4226SOL     OW13576   1.160   1.016   3.804
 4226SOL    HW113577   1.098   1.087   3.770
 4226SOL    HW213578   1.106   0.938   3.835
 4227SOL     OW13579   4.167   4.731   0.415
 4227SOL    HW113580   4.079   4.685   0.419
 4227SOL    HW213581   4.240   4.663   0.418
 4228SOL     OW13582   5.730   6.418   4.021
 4228SOL    HW113583   5.701   6.373   3.936
 4228SOL    HW213584   5.670   6.495   4.040
 4229SOL     OW13585   4.401   4.972   6.571
 4229SOL    HW113586   4.426   5.036   6.498
 4229SOL    HW213587   4.465   4.982   6.647
 4230SOL     OW13588   2.899   0.085   4.985
 4230SOL    HW113589   2.891   0.053   4.891
 4230SOL    HW213590   2.996   0.087   5.011
 4231SOL     OW13591   5.272   6.412   5.162
 4231SOL    HW113592   5.190   6.457   5.196
 4231SOL    HW213593   5.353   6.453   5.205
 4232SOL     OW13594   1.016   5.350   2.118
 4232SOL    HW113595   0.967   5.412   2.056
 4232SOL    HW213596   1.076   5.290   2.065
 4233SOL     OW13597   5.818   0.329   6.613
 4233SOL    HW113598   5.785   0.235   6.602
 4233SOL    HW213599   5.891   0.331   6.681
 4234SOL     OW13600   3.058   5.262   6.267
 4234SOL    HW113601   2.973   5.248   6.217
 4234SOL    HW213602   3.118   5.182   6.253
 4235SOL     OW13603   6.286   4.752   5.919
 4235SOL    HW113604   6.288   4.690   5.997
 4235SOL    HW213605   6.250   4.704   5.839
 4236SOL     OW13606   0.385   2.691   3.650
 4236SOL    HW113607   0.379   2.786   3.680
 4236SOL    HW213608   0.342   2.631   3.718
 4237SOL     OW13609   5.197   4.115   4.296
 4237SOL    HW113610   5.193   4.165   4.383
 4237SOL    HW213611   5.287   4.071   4.287
 4238SOL     OW13612   3.887   5.180   3.836
 4238SOL    HW113613   3.911   5.218   3.925
 4238SOL    HW213614   3.858   5.085   3.847
 4239SOL     OW13615   4.784   6.443   5.101
 4239SOL    HW113616   4.852   6.460   5.029
 4239SOL    HW213617   4.750   6.530   5.136
 4240SOL     OW13618   3.123   5.044   0.016
 4240SOL    HW113619   3.132   5.011   6.944
 4240SOL    HW213620   3.165   4.977   0.078
 4241SOL     OW13621   5.306   6.942   1.110
 4241SOL    HW113622   5.261   6.962   1.023
 4241SOL    HW213623   5.261   6.991   1.184
 4242SOL     OW13624   2.444   6.814   2.729
 4242SOL    HW113625   2.475   6.764   2.649
 4242SOL    HW213626   2.508   6.800   2.805
 4243SOL     OW13627   0.725   3.525   1.986
 4243SOL    HW113628   0.694   3.469   1.909
 4243SOL    HW213629   0.793   3.591   1.954
 4244SOL     OW13630   4.830   6.194   1.298
 4244SOL    HW113631   4.821   6.182   1.200
 4244SOL    HW213632   4.739   6.192   1.340
 4245SOL     OW13633   6.595   3.135   0.197
 4245SOL    HW113634   6.659   3.202   0.158
 4245SOL    HW213635   6.643   3.051   0.218
 4246SOL     OW13636   5.088   2.242   2.798
 4246SOL    HW113637   5.021   2.179   2.837
 4246SOL    HW213638   5.041   2.309   2.740
 4247SOL     OW13639   2.260   5.054   4.928
 4247SOL    HW113640   2.281   4.961   4.895
 4247SOL    HW213641   2.172   5.053   4.975
 4248SOL     OW13642   1.819   0.936   2.520
 4248SOL    HW113643   1.756   0.962   2.447
 4248SOL    HW213644   1.780   0.962   2.608
 4249SOL     OW13645   0.124   1.166   4.348
 4249SOL    HW113646   0.074   1.246   4.381
 4249SOL    HW213647   0.147   1.179   4.251
 4250SOL     OW13648   0.282   5.987   4.312
 4250SOL    HW113649   0.265   6.058   4.380
 4250SOL    HW213650   0.198   5.971   4.259
 4251SOL     OW13651   5.985   2.454   6.554
 4251SOL    HW113652   5.891   2.435   6.526
 4251SOL    HW213653   6.026   2.519   6.491
 4252SOL     OW13654   6.055   6.491   5.415
 4252SOL    HW113655   6.052   6.569   5.478
 4252SOL    HW213656   6.149   6.457   5.407
 4253SOL     OW13657   4.345   6.152   2.296
 4253SOL    HW113658   4.289   6.216   2.349
 4253SOL    HW213659   4.290   6.112   2.223
 4254SOL     OW13660   2.225   3.267   6.818
 4254SOL    HW113661   2.180   3.198   6.761
 4254SOL    HW213662   2.308   3.227   6.857
 4255SOL     OW13663   0.706   4.178   2.743
 4255SOL    HW113664   0.692   4.160   2.645
 4255SOL    HW213665   0.769   4.254   2.754
 4256SOL     OW13666   0.681   4.786   1.952
 4256SOL    HW113667   0.767   4.829   1.978
 4256SOL    HW213668   0.640   4.743   2.032
 4257SOL     OW13669   6.227   1.108   5.131
 4257SOL    HW113670   6.286   1.187   5.146
 4257SOL    HW213671   6.152   1.110   5.197
 4258SOL     OW13672   3.664   5.626   0.629
 4258SOL    HW113673   3.741   5.588   0.579
 4258SOL    HW213674   3.591   5.649   0.566
 4259SOL     OW13675   1.187   6.555   1.363
 4259SOL    HW113676   1.195   6.467   1.317
 4259SOL    HW213677   1.216   6.545   1.459
 4260SOL     OW13678   5.167   6.774   5.045
 4260SOL    HW113679   5.101   6.776   4.970
 4260SOL    HW213680   5.137   6.709   5.115
 4261SOL     OW13681   1.934   0.110   4.679
 4261SOL    HW113682   1.970   0.158   4.759
 4261SOL    HW213683   1.857   0.052   4.707
 4262SOL     OW13684   1.367   4.893   6.448
 4262SOL    HW113685   1.438   4.823   6.453
 4262SOL    HW213686   1.287   4.856   6.401
 4263SOL     OW13687   2.723   2.350   3.703
 4263SOL    HW113688   2.649   2.286   3.686
 4263SOL    HW213689   2.800   2.330   3.642
 4264SOL     OW13690   5.500   1.325   4.393
 4264SOL    HW113691   5.582   1.322   4.336
 4264SOL    HW213692   5.426   1.275   4.348
 4265SOL     OW13693   2.634   0.361   0.991
 4265SOL    HW113694   2.575   0.422   0.937
 4265SOL    HW213695   2.578   0.288   1.031
 4266SOL     OW13696   1.071   6.725   0.241
 4266SOL    HW113697   1.088   6.641   0.293
 4266SOL    HW213698   1.146   6.788   0.255
 4267SOL     OW13699   1.690   3.984   4.163
 4267SOL    HW113700   1.777   4.027   4.140
 4267SOL    HW213701   1.660   3.927   4.086
 4268SOL     OW13702   1.489   5.082   6.286
 4268SOL    HW113703   1.586   5.080   6.310
 4268SOL    HW213704   1.439   5.016   6.342
 4269SOL     OW13705   3.300   1.874   4.436
 4269SOL    HW113706   3.281   1.796   4.377
 4269SOL    HW213707   3.217   1.898   4.487
 4270SOL     OW13708   3.972   2.971   0.291
 4270SOL    HW113709   3.950   2.889   0.345
 4270SOL    HW213710   3.895   3.035   0.294
 4271SOL     OW13711   6.532   0.260   0.958
 4271SOL    HW113712   6.468   0.335   0.942
 4271SOL    HW213713   6.508   0.213   1.043
 4272SOL     OW13714   6.463   3.185   5.617
 4272SOL    HW113715   6.490   3.092   5.645
 4272SOL    HW213716   6.364   3.189   5.607
 4273SOL     OW13717   4.502   5.898   4.615
 4273SOL    HW113718   4.527   5.903   4.711
 4273SOL    HW213719   4.408   5.928   4.602
 4274SOL     OW13720   6.432   6.934   1.849
 4274SOL    HW113721   6.367   6.997   1.892
 4274SOL    HW213722   6.450   6.857   1.911
 4275SOL     OW13723   0.910   2.574   3.555
 4275SOL    HW113724   0.909   2.662   3.508
 4275SOL    HW213725   0.957   2.584   3.643
 4276SOL     OW13726   2.792   5.789   4.208
 4276SOL    HW113727   2.735   5.869   4.229
 4276SOL    HW213728   2.739   5.723   4.155
 4277SOL     OW13729   6.084   5.622   4.324
 4277SOL    HW113730   6.039   5.694   4.271
 4277SOL    HW213731   6.037   5.535   4.309
 4278SOL     OW13732   0.596   0.026   2.104
 4278SOL    HW113733   0.544   7.000   2.173
 4278SOL    HW213734   0.662   0.087   2.149
 4279SOL     OW13735   1.631   1.992   2.513
 4279SOL    HW113736   1.581   1.950   2.588
 4279SOL    HW213737   1.572   1.995   2.432
 4280SOL     OW13738   6.762   6.910   6.467
 4280SOL    HW113739   6.699   6.979   6.432
 4280SOL    HW213740   6.747   6.897   6.565
 4281SOL     OW13741   4.723   5.505   3.826
 4281SOL    HW113742   4.722   5.599   3.791
 4281SOL    HW213743   4.713   5.442   3.750
 4282SOL     OW13744   3.138   4.297   0.786
 4282SOL    HW113745   3.217   4.253   0.829
 4282SOL    HW213746   3.088   4.229   0.732
 4283SOL     OW13747   4.839   0.845   3.730
 4283SOL    HW113748   4.806   0.909   3.661
 4283SOL    HW213749   4.761   0.815   3.786
 4284SOL     OW13750   5.076   5.849   6.782
 4284SOL    HW113751   5.049   5.779   6.847
 4284SOL    HW213752   5.143   5.910   6.824
 4285SOL     OW13753   3.097   0.745   6.165
 4285SOL    HW113754   3.002   0.727   6.191
 4285SOL    HW213755   3.119   0.698   6.080
 4286SOL     OW13756   6.647   0.973   6.670
 4286SOL    HW113757   6.671   0.993   6.575
 4286SOL    HW213758   6.571   1.031   6.699
 4287SOL     OW13759   4.497   0.920   7.006
 4287SOL    HW113760   4.562   0.957   0.050
 4287SOL    HW213761   4.427   0.866   0.031
 4288SOL     OW13762   6.677   6.028   2.330
 4288SOL    HW113763   6.681   5.965   2.252
 4288SOL    HW213764   6.765   6.073   2.341
 4289SOL     OW13765   1.080   2.724   4.747
 4289SOL    HW113766   1.086   2.631   4.784
 4289SOL    HW213767   1.165   2.748   4.701
 4290SOL     OW13768   0.335   0.714   3.048
 4290SOL    HW113769   0.381   0.632   3.082
 4290SOL    HW213770   0.402   0.773   3.002
 4291SOL     OW13771   4.878   3.232   5.885
 4291SOL    HW113772   4.839   3.319   5.917
 4291SOL    HW213773   4.819   3.194   5.814
 4292SOL     OW13774   5.401   1.799   0.401
 4292SOL    HW113775   5.378   1.782   0.305
 4292SOL    HW213776   5.497   1.824   0.408
 4293SOL     OW13777   4.719   3.695   6.554
 4293SOL    HW113778   4.813   3.662   6.565
 4293SOL    HW213779   4.709   3.741   6.466
 4294SOL     OW13780   3.142   1.975   5.982
 4294SOL    HW113781   3.204   1.921   6.039
 4294SOL    HW213782   3.193   2.052   5.942
 4295SOL     OW13783   4.443   6.586   2.288
 4295SOL    HW113784   4.486   6.626   2.369
 4295SOL    HW213785   4.343   6.590   2.298
 4296SOL     OW13786   2.491   6.681   0.765
 4296SOL    HW113787   2.398   6.715   0.747
 4296SOL    HW213788   2.515   6.700   0.860
 4297SOL     OW13789   5.994   5.462   0.773
 4297SOL    HW113790   5.940   5.531   0.821
 4297SOL    HW213791   5.992   5.481   0.674
 4298SOL     OW13792   3.365   6.269   1.346
 4298SOL    HW113793   3.352   6.233   1.254
 4298SOL    HW213794   3.359   6.369   1.343
 4299SOL     OW13795   0.710   2.769   6.875
 4299SOL    HW113796   0.774   2.841   6.851
 4299SOL    HW213797   0.760   2.683   6.891
 4300SOL     OW13798   4.222   0.611   0.626
 4300SOL    HW113799   4.215   0.562   0.539
 4300SOL    HW213800   4.318   0.630   0.646
 4301SOL     OW13801   3.204   6.422   2.034
 4301SOL    HW113802   3.168   6.356   2.099
 4301SOL    HW213803   3.139   6.498   2.023
 4302SOL     OW13804   1.748   6.224   6.394
 4302SOL    HW113805   1.767   6.299   6.458
 4302SOL    HW213806   1.808   6.231   6.315
 4303SOL     OW13807   6.121   4.321   4.409
 4303SOL    HW113808   6.147   4.299   4.503
 4303SOL    HW213809   6.022   4.331   4.404
 4304SOL     OW13810   3.376   3.727   1.586
 4304SOL    HW113811   3.467   3.766   1.579
 4304SOL    HW213812   3.381   3.627   1.576
 4305SOL     OW13813   0.224   0.240   5.374
 4305SOL    HW113814   0.274   0.158   5.345
 4305SOL    HW213815   0.257   0.269   5.464
 4306SOL     OW13816   4.982   3.950   4.340
 4306SOL    HW113817   5.059   4.004   4.307
 4306SOL    HW213818   4.968   3.871   4.281
 4307SOL     OW13819   5.834   2.356   5.485
 4307SOL    HW113820   5.860   2.283   5.548
 4307SOL    HW213821   5.742   2.340   5.450
 4308SOL     OW13822   4.821   4.564   1.580
 4308SOL    HW113823   4.751   4.533   1.645
 4308SOL    HW213824   4.810   4.662   1.563
 4309SOL     OW13825   0.961   3.353   0.641
 4309SOL    HW113826   0.993   3.317   0.553
 4309SOL    HW213827   0.944   3.277   0.704
 4310SOL     OW13828   0.132   1.707   2.184
 4310SOL    HW113829   0.230   1.697   2.169
 4310SOL    HW213830   0.100   1.639   2.250
 4311SOL     OW13831   1.071   6.364   2.607
 4311SOL    HW113832   1.064   6.265   2.617
 4311SOL    HW213833   1.021   6.409   2.681
 4312SOL     OW13834   0.515   5.033   2.141
 4312SOL    HW113835   0.583   4.961   2.126
 4312SOL    HW213836   0.431   4.993   2.177
 4313SOL     OW13837   5.864   1.620   0.052
 4313SOL    HW113838   5.895   1.582   0.139
 4313SOL    HW213839   5.824   1.548   7.019
 4314SOL     OW13840   6.623   3.182   5.015
 4314SOL    HW113841   6.543   3.139   5.057
 4314SOL    HW213842   6.705   3.152   5.062
 4315SOL     OW13843   2.397   1.137   4.026
 4315SOL    HW113844   2.464   1.200   4.065
 4315SOL    HW213845   2.435   1.045   4.025
 4316SOL     OW13846   5.762   0.201   2.245
 4316SOL    HW113847   5.847   0.230   2.199
 4316SOL    HW213848   5.695   0.174   2.176
 4317SOL     OW13849   4.807   0.871   5.555
 4317SOL    HW113850   4.864   0.939   5.508
 4317SOL    HW213851   4.744   0.917   5.617
 4318SOL     OW13852   0.758   1.385   3.703
 4318SOL    HW113853   0.796   1.304   3.748
 4318SOL    HW213854   0.743   1.457   3.771
 4319SOL     OW13855   1.330   3.688   1.965
 4319SOL    HW113856   1.314   3.643   2.053
 4319SOL    HW213857   1.291   3.632   1.892
 4320SOL     OW13858   3.572   6.496   0.488
 4320SOL    HW113859   3.636   6.490   0.564
 4320SOL    HW213860   3.600   6.431   0.416
 4321SOL     OW13861   6.533   6.475   2.453
 4321SOL    HW113862   6.536   6.512   2.546
 4321SOL    HW213863   6.508   6.548   2.390
 4322SOL     OW13864   0.349   2.599   5.319
 4322SOL    HW113865   0.327   2.696   5.310
 4322SOL    HW213866   0.438   2.588   5.363
 4323SOL     OW13867   4.534   5.475   0.106
 4323SOL    HW113868   4.624   5.515   0.124
 4323SOL    HW213869   4.540   5.375   0.111
 4324SOL     OW13870   0.184   3.520   6.059
 4324SOL    HW113871   0.086   3.499   6.058
 4324SOL    HW213872   0.214   3.535   6.153
 4325SOL     OW13873   2.837   0.841   2.884
 4325SOL    HW113874   2.823   0.857   2.786
 4325SOL    HW213875   2.885   0.919   2.924
 4326SOL     OW13876   5.081   2.691   2.024
 4326SOL    HW113877   5.018   2.765   2.004
 4326SOL    HW213878   5.175   2.724   2.018
 4327SOL     OW13879   3.715   5.565   4.461
 4327SOL    HW113880   3.810   5.540   4.441
 4327SOL    HW213881   3.688   5.526   4.550
 4328SOL     OW13882   6.168   5.537   5.488
 4328SOL    HW113883   6.087   5.586   5.520
 4328SOL    HW213884   6.194   5.572   5.398
 4329SOL     OW13885   5.929   3.261   5.845
 4329SOL    HW113886   6.001   3.296   5.904
 4329SOL    HW213887   5.900   3.332   5.781
 4330SOL     OW13888   2.542   5.227   5.394
 4330SOL    HW113889   2.582   5.307   5.438
 4330SOL    HW213890   2.554   5.233   5.295
 4331SOL     OW13891   6.339   0.594   1.744
 4331SOL    HW113892   6.281   0.542   1.681
 4331SOL    HW213893   6.374   0.533   1.815
 4332SOL     OW13894   0.086   4.408   2.739
 4332SOL    HW113895   0.022   4.465   2.688
 4332SOL    HW213896   0.160   4.379   2.678
 4333SOL     OW13897   4.284   2.129   5.024
 4333SOL    HW113898   4.185   2.133   5.011
 4333SOL    HW213899   4.320   2.047   4.980
 4334SOL     OW13900   1.333   2.929   3.477
 4334SOL    HW113901   1.295   2.840   3.501
 4334SOL    HW213902   1.322   2.992   3.554
 4335SOL     OW13903   3.434   3.272   1.146
 4335SOL    HW113904   3.337   3.297   1.138
 4335SOL    HW213905   3.465   3.289   1.239
 4336SOL     OW13906   2.320   5.757   6.314
 4336SOL    HW113907   2.339   5.668   6.271
 4336SOL    HW213908   2.370   5.764   6.400
 4337SOL     OW13909   1.247   5.599   2.429
 4337SOL    HW113910   1.151   5.610   2.401
 4337SOL    HW213911   1.260   5.509   2.470
 4338SOL     OW13912   5.376   0.610   5.377
 4338SOL    HW113913   5.349   0.581   5.469
 4338SOL    HW213914   5.399   0.530   5.322
 4339SOL     OW13915   4.339   2.433   5.939
 4339SOL    HW113916   4.318   2.471   5.849
 4339SOL    HW213917   4.429   2.466   5.968
 4340SOL     OW13918   6.712   4.312   1.123
 4340SOL    HW113919   6.624   4.268   1.143
 4340SOL    HW213920   6.723   4.322   1.024
 4341SOL     OW13921   0.829   6.146   2.353
 4341SOL    HW113922   0.751   6.139   2.415
 4341SOL    HW213923   0.862   6.055   2.330
 4342SOL     OW13924   4.854   3.869   2.877
 4342SOL    HW113925   4.861   3.774   2.905
 4342SOL    HW213926   4.831   3.873   2.780
 4343SOL     OW13927   4.194   0.564   6.095
 4343SOL    HW113928   4.197   0.510   6.012
 4343SOL    HW213929   4.277   0.620   6.101
 4344SOL     OW13930   0.025   2.523   3.801
 4344SOL    HW113931   7.019   2.428   3.792
 4344SOL    HW213932   0.125   2.528   3.809
 4345SOL     OW13933   2.895   3.318   2.582
 4345SOL    HW113934   2.968   3.281   2.639
 4345SOL    HW213935   2.847   3.243   2.537
 4346SOL     OW13936   2.273   2.796   2.238
 4346SOL    HW113937   2.265   2.783   2.140
 4346SOL    HW213938   2.339   2.730   2.275
 4347SOL     OW13939   5.395   4.969   2.065
 4347SOL    HW113940   5.480   4.917   2.052
 4347SOL    HW213941   5.354   4.944   2.152
 4348SOL     OW13942   6.682   5.946   4.038
 4348SOL    HW113943   6.732   6.029   4.064
 4348SOL    HW213944   6.594   5.945   4.085
 4349SOL     OW13945   0.027   3.925   3.603
 4349SOL    HW113946   6.989   3.863   3.652
 4349SOL    HW213947   7.003   4.013   3.588
 4350SOL     OW13948   5.253   1.469   4.764
 4350SOL    HW113949   5.232   1.457   4.861
 4350SOL    HW213950   5.184   1.528   4.722
 4351SOL     OW13951   1.151   6.858   0.894
 4351SOL    HW113952   1.159   6.759   0.883
 4351SOL    HW213953   1.236   6.902   0.865
 4352SOL     OW13954   3.928   4.224   0.729
 4352SOL    HW113955   3.945   4.126   0.722
 4352SOL    HW213956   3.934   4.252   0.824
 4353SOL     OW13957   3.098   3.331   6.807
 4353SOL    HW113958   3.026   3.383   6.762
 4353SOL    HW213959   3.061   3.282   6.886
 4354SOL     OW13960   6.380   0.359   4.111
 4354SOL    HW113961   6.358   0.344   4.208
 4354SOL    HW213962   6.341   0.446   4.081
 4355SOL     OW13963   1.716   6.792   3.559
 4355SOL    HW113964   1.618   6.813   3.555
 4355SOL    HW213965   1.755   6.833   3.642
 4356SOL     OW13966   5.162   2.684   6.229
 4356SOL    HW113967   5.189   2.724   6.317
 4356SOL    HW213968   5.158   2.585   6.237
 4357SOL     OW13969   6.614   0.543   1.834
 4357SOL    HW113970   6.687   0.609   1.819
 4357SOL    HW213971   6.586   0.545   1.930
 4358SOL     OW13972   0.672   0.599   0.326
 4358SOL    HW113973   0.609   0.665   0.286
 4358SOL    HW213974   0.755   0.594   0.270
 4359SOL     OW13975   2.463   0.605   6.947
 4359SOL    HW113976   2.434   0.570   0.013
 4359SOL    HW213977   2.399   0.573   6.876
 4360SOL     OW13978   1.349   2.788   3.244
 4360SOL    HW113979   1.312   2.809   3.153
 4360SOL    HW213980   1.308   2.851   3.311
 4361SOL     OW13981   0.997   1.926   0.843
 4361SOL    HW113982   0.942   1.940   0.760
 4361SOL    HW213983   0.967   1.990   0.914
 4362SOL     OW13984   1.524   6.040   4.190
 4362SOL    HW113985   1.534   6.139   4.181
 4362SOL    HW213986   1.603   5.994   4.148
 4363SOL     OW13987   4.465   0.808   2.389
 4363SOL    HW113988   4.446   0.874   2.461
 4363SOL    HW213989   4.393   0.813   2.319
 4364SOL     OW13990   3.435   3.758   2.968
 4364SOL    HW113991   3.501   3.831   2.987
 4364SOL    HW213992   3.463   3.707   2.887
 4365SOL     OW13993   3.065   2.049   1.895
 4365SOL    HW113994   3.084   2.147   1.904
 4365SOL    HW213995   3.020   2.031   1.807
 4366SOL     OW13996   5.250   5.993   5.199
 4366SOL    HW113997   5.274   6.045   5.117
 4366SOL    HW213998   5.325   5.996   5.264
 4367SOL     OW13999   3.017   5.652   3.840
 4367SOL    HW114000   2.920   5.632   3.827
 4367SOL    HW214001   3.042   5.637   3.936
 4368SOL     OW14002   4.973   4.625   2.468
 4368SOL    HW114003   4.964   4.608   2.566
 4368SOL    HW214004   4.932   4.550   2.416
 4369SOL     OW14005   4.805   5.122   2.858
 4369SOL    HW114006   4.733   5.123   2.789
 4369SOL    HW214007   4.777   5.063   2.935
 4370SOL     OW14008   3.923   4.768   1.863
 4370SOL    HW114009   3.828   4.777   1.833
 4370SOL    HW214010   3.938   4.824   1.944
 4371SOL     OW14011   2.118   0.502   1.256
 4371SOL    HW114012   2.192   0.482   1.321
 4371SOL    HW214013   2.065   0.580   1.289
 4372SOL     OW14014   2.017   2.742   4.521
 4372SOL    HW114015   2.094   2.791   4.560
 4372SOL    HW214016   2.040   2.645   4.512
 4373SOL     OW14017   4.511   1.004   5.702
 4373SOL    HW114018   4.438   1.066   5.729
 4373SOL    HW214019   4.477   0.940   5.633
 4374SOL     OW14020   2.811   1.966   1.415
 4374SOL    HW114021   2.811   1.873   1.377
 4374SOL    HW214022   2.726   2.013   1.389
 4375SOL     OW14023   3.283   0.537   3.467
 4375SOL    HW114024   3.316   0.629   3.486
 4375SOL    HW214025   3.253   0.531   3.372
 4376SOL     OW14026   6.596   6.539   1.260
 4376SOL    HW114027   6.558   6.614   1.314
 4376SOL    HW214028   6.696   6.545   1.261
 4377SOL     OW14029   6.449   6.127   6.827
 4377SOL    HW114030   6.391   6.110   6.907
 4377SOL    HW214031   6.393   6.160   6.752
 4378SOL     OW14032   1.952   5.956   2.920
 4378SOL    HW114033   1.919   6.028   2.858
 4378SOL    HW214034   1.907   5.869   2.896
 4379SOL     OW14035   1.123   1.096   1.472
 4379SOL    HW114036   1.220   1.070   1.473
 4379SOL    HW214037   1.072   1.031   1.416
 4380SOL     OW14038   1.661   6.023   5.589
 4380SOL    HW114039   1.583   6.073   5.552
 4380SOL    HW214040   1.690   5.953   5.524
 4381SOL     OW14041   3.837   0.090   4.625
 4381SOL    HW114042   3.742   0.118   4.641
 4381SOL    HW214043   3.888   0.097   4.711
 4382SOL     OW14044   5.106   3.896   3.991
 4382SOL    HW114045   5.018   3.850   3.983
 4382SOL    HW214046   5.092   3.994   4.008
 4383SOL     OW14047   1.202   2.633   5.890
 4383SOL    HW114048   1.224   2.730   5.904
 4383SOL    HW214049   1.284   2.584   5.863
 4384SOL     OW14050   3.817   6.335   1.083
 4384SOL    HW114051   3.766   6.336   1.169
 4384SOL    HW214052   3.777   6.266   1.022
 4385SOL     OW14053   0.213   1.305   3.374
 4385SOL    HW114054   0.114   1.293   3.378
 4385SOL    HW214055   0.240   1.337   3.283
 4386SOL     OW14056   0.729   4.136   6.730
 4386SOL    HW114057   0.632   4.129   6.709
 4386SOL    HW214058   0.775   4.052   6.701
 4387SOL     OW14059   6.794   3.228   1.289
 4387SOL    HW114060   6.893   3.221   1.294
 4387SOL    HW214061   6.762   3.299   1.352
 4388SOL     OW14062   3.398   0.543   5.785
 4388SOL    HW114063   3.493   0.575   5.784
 4388SOL    HW214064   3.391   0.462   5.844
 4389SOL     OW14065   5.823   2.920   1.781
 4389SOL    HW114066   5.834   2.936   1.683
 4389SOL    HW214067   5.912   2.899   1.822
 4390SOL     OW14068   4.721   2.053   1.856
 4390SOL    HW114069   4.791   2.086   1.918
 4390SOL    HW214070   4.687   1.964   1.887
 4391SOL     OW14071   0.890   5.862   0.405
 4391SOL    HW114072   0.954   5.795   0.369
 4391SOL    HW214073   0.866   5.927   0.334
 4392SOL     OW14074   5.272   3.100   4.261
 4392SOL    HW114075   5.237   3.097   4.354
 4392SOL    HW214076   5.372   3.093   4.262
 4393SOL     OW14077   5.095   6.971   3.515
 4393SOL    HW114078   5.171   6.999   3.575
 4393SOL    HW214079   5.029   6.919   3.569
 4394SOL     OW14080   5.556   6.644   2.728
 4394SOL    HW114081   5.508   6.575   2.783
 4394SOL    HW214082   5.564   6.612   2.634
 4395SOL     OW14083   4.435   1.317   1.602
 4395SOL    HW114084   4.368   1.249   1.630
 4395SOL    HW214085   4.407   1.407   1.635
 4396SOL     OW14086   0.746   0.945   4.355
 4396SOL    HW114087   0.696   0.872   4.401
 4396SOL    HW214088   0.731   1.032   4.402
 4397SOL     OW14089   6.761   1.003   4.925
 4397SOL    HW114090   6.698   1.080   4.912
 4397SOL    HW214091   6.787   0.997   5.021
 4398SOL     OW14092   1.021   4.023   4.542
 4398SOL    HW114093   1.119   4.007   4.558
 4398SOL    HW214094   1.006   4.044   4.446
 4399SOL     OW14095   1.753   1.293   0.531
 4399SOL    HW114096   1.726   1.335   0.444
 4399SOL    HW214097   1.853   1.288   0.535
 4400SOL     OW14098   2.393   6.840   4.288
 4400SOL    HW114099   2.380   6.816   4.191
 4400SOL    HW214100   2.329   6.913   4.313
 4401SOL     OW14101   5.934   5.780   4.173
 4401SOL    HW114102   5.860   5.768   4.239
 4401SOL    HW214103   5.925   5.869   4.128
 4402SOL     OW14104   1.158   5.836   2.914
 4402SOL    HW114105   1.114   5.898   2.850
 4402SOL    HW214106   1.250   5.814   2.882
 4403SOL     OW14107   0.051   7.022   3.289
 4403SOL    HW114108   0.079   0.022   3.382
 4403SOL    HW214109   0.029   0.083   3.239
 4404SOL     OW14110   0.284   4.292   3.446
 4404SOL    HW114111   0.307   4.205   3.402
 4404SOL    HW214112   0.339   4.365   3.407
 4405SOL     OW14113   3.096   5.155   5.844
 4405SOL    HW114114   3.094   5.089   5.769
 4405SOL    HW214115   3.093   5.248   5.808
 4406SOL     OW14116   5.349   4.496   1.669
 4406SOL    HW114117   5.387   4.404   1.670
 4406SOL    HW214118   5.329   4.525   1.763
 4407SOL     OW14119   6.666   5.950   0.276
 4407SOL    HW114120   6.650   6.049   0.270
 4407SOL    HW214121   6.621   5.905   0.199
 4408SOL     OW14122   4.908   0.274   0.713
 4408SOL    HW114123   5.008   0.281   0.703
 4408SOL    HW214124   4.868   0.241   0.628
 4409SOL     OW14125   3.740   1.388   1.806
 4409SOL    HW114126   3.675   1.426   1.872
 4409SOL    HW214127   3.732   1.289   1.804
 4410SOL     OW14128   2.099   5.472   1.220
 4410SOL    HW114129   2.082   5.469   1.121
 4410SOL    HW214130   2.191   5.438   1.239
 4411SOL     OW14131   3.820   3.063   2.908
 4411SOL    HW114132   3.820   3.032   2.812
 4411SOL    HW214133   3.741   3.025   2.955
 4412SOL     OW14134   3.845   1.051   6.480
 4412SOL    HW114135   3.804   1.141   6.463
 4412SOL    HW214136   3.776   0.980   6.471
 4413SOL     OW14137   3.959   5.424   4.397
 4413SOL    HW114138   3.927   5.329   4.390
 4413SOL    HW214139   4.003   5.438   4.485
 4414SOL     OW14140   4.201   4.777   2.376
 4414SOL    HW114141   4.253   4.862   2.383
 4414SOL    HW214142   4.103   4.798   2.385
 4415SOL     OW14143   5.090   4.020   6.312
 4415SOL    HW114144   5.188   4.025   6.296
 4415SOL    HW214145   5.042   4.033   6.225
 4416SOL     OW14146   2.924   1.274   4.568
 4416SOL    HW114147   2.891   1.200   4.511
 4416SOL    HW214148   2.872   1.358   4.549
 4417SOL     OW14149   0.242   5.305   2.037
 4417SOL    HW114150   0.233   5.304   1.937
 4417SOL    HW214151   0.316   5.367   2.063
 4418SOL     OW14152   4.435   6.135   4.365
 4418SOL    HW114153   4.506   6.173   4.424
 4418SOL    HW214154   4.458   6.040   4.342
 4419SOL     OW14155   6.305   5.042   0.529
 4419SOL    HW114156   6.390   5.070   0.485
 4419SOL    HW214157   6.309   4.945   0.553
 4420SOL     OW14158   4.429   0.912   0.330
 4420SOL    HW114159   4.398   0.820   0.303
 4420SOL    HW214160   4.470   0.907   0.421
 4421SOL     OW14161   1.937   1.638   2.755
 4421SOL    HW114162   1.912   1.672   2.665
 4421SOL    HW214163   1.896   1.695   2.825
 4422SOL     OW14164   2.761   3.870   6.483
 4422SOL    HW114165   2.736   3.966   6.498
 4422SOL    HW214166   2.712   3.835   6.404
 4423SOL     OW14167   1.157   2.328   6.206
 4423SOL    HW114168   1.108   2.266   6.267
 4423SOL    HW214169   1.092   2.386   6.157
 4424SOL     OW14170   5.562   6.313   3.216
 4424SOL    HW114171   5.513   6.400   3.212
 4424SOL    HW214172   5.628   6.308   3.142
 4425SOL     OW14173   3.881   5.745   5.968
 4425SOL    HW114174   3.799   5.759   6.024
 4425SOL    HW214175   3.865   5.669   5.905
 4426SOL     OW14176   0.084   0.745   5.384
 4426SOL    HW114177   0.100   0.709   5.292
 4426SOL    HW214178   0.170   0.748   5.434
 4427SOL     OW14179   0.477   0.494   3.420
 4427SOL    HW114180   0.538   0.572   3.413
 4427SOL    HW214181   0.454   0.477   3.516
 4428SOL     OW14182   2.297   5.110   4.492
 4428SOL    HW114183   2.351   5.050   4.551
 4428SOL    HW214184   2.356   5.180   4.452
 4429SOL     OW14185   2.666   6.614   3.453
 4429SOL    HW114186   2.627   6.533   3.497
 4429SOL    HW214187   2.667   6.690   3.517
 4430SOL     OW14188   3.559   1.858   2.751
 4430SOL    HW114189   3.634   1.828   2.809
 4430SOL    HW214190   3.541   1.955   2.765
 4431SOL     OW14191   2.832   1.646   3.768
 4431SOL    HW114192   2.848   1.579   3.696
 4431SOL    HW214193   2.834   1.599   3.857
 4432SOL     OW14194   3.219   3.415   2.745
 4432SOL    HW114195   3.232   3.404   2.646
 4432SOL    HW214196   3.210   3.512   2.766
 4433SOL     OW14197   5.854   6.493   2.932
 4433SOL    HW114198   5.949   6.463   2.941
 4433SOL    HW214199   5.849   6.570   2.869
 4434SOL     OW14200   5.180   1.275   3.706
 4434SOL    HW114201   5.140   1.190   3.739
 4434SOL    HW214202   5.107   1.342   3.688
 4435SOL     OW14203   3.689   2.960   1.388
 4435SOL    HW114204   3.630   2.988   1.312
 4435SOL    HW214205   3.632   2.923   1.462
 4436SOL     OW14206   3.275   1.885   0.274
 4436SOL    HW114207   3.308   1.840   0.190
 4436SOL    HW214208   3.321   1.972   0.286
 4437SOL     OW14209   4.279   0.638   4.586
 4437SOL    HW114210   4.351   0.654   4.654
 4437SOL    HW214211   4.267   0.540   4.574
 4438SOL     OW14212   4.131   2.064   6.882
 4438SOL    HW114213   4.149   2.064   6.784
 4438SOL    HW214214   4.139   1.971   6.918
 4439SOL     OW14215   0.816   5.219   1.945
 4439SOL    HW114216   0.850   5.172   1.863
 4439SOL    HW214217   0.842   5.315   1.941
 4440SOL     OW14218   1.709   6.109   0.069
 4440SOL    HW114219   1.635   6.171   0.094
 4440SOL    HW214220   1.797   6.154   0.083
 4441SOL     OW14221   6.091   2.715   2.249
 4441SOL    HW114222   6.156   2.653   2.204
 4441SOL    HW214223   6.061   2.784   2.183
 4442SOL     OW14224   4.027   5.968   3.742
 4442SOL    HW114225   3.986   6.060   3.737
 4442SOL    HW214226   4.008   5.928   3.832
 4443SOL     OW14227   2.678   2.357   6.077
 4443SOL    HW114228   2.765   2.320   6.046
 4443SOL    HW214229   2.605   2.328   6.015
 4444SOL     OW14230   4.565   6.186   1.418
 4444SOL    HW114231   4.540   6.272   1.460
 4444SOL    HW214232   4.485   6.148   1.370
 4445SOL     OW14233   1.290   0.646   6.050
 4445SOL    HW114234   1.367   0.604   6.098
 4445SOL    HW214235   1.317   0.735   6.014
 4446SOL     OW14236   6.098   6.810   2.933
 4446SOL    HW114237   6.184   6.788   2.980
 4446SOL    HW214238   6.117   6.826   2.836
 4447SOL     OW14239   5.401   3.026   5.913
 4447SOL    HW114240   5.369   3.102   5.969
 4447SOL    HW214241   5.353   2.942   5.940
 4448SOL     OW14242   2.550   3.523   0.898
 4448SOL    HW114243   2.596   3.445   0.941
 4448SOL    HW214244   2.602   3.551   0.817
 4449SOL     OW14245   2.533   0.484   5.023
 4449SOL    HW114246   2.470   0.495   4.947
 4449SOL    HW214247   2.605   0.420   4.998
 4450SOL     OW14248   3.364   3.042   3.455
 4450SOL    HW114249   3.405   2.958   3.491
 4450SOL    HW214250   3.364   3.038   3.355
 4451SOL     OW14251   6.234   4.334   2.697
 4451SOL    HW114252   6.272   4.311   2.607
 4451SOL    HW214253   6.177   4.415   2.689
 4452SOL     OW14254   6.144   6.254   5.767
 4452SOL    HW114255   6.077   6.306   5.714
 4452SOL    HW214256   6.138   6.158   5.742
 4453SOL     OW14257   5.654   2.626   1.999
 4453SOL    HW114258   5.577   2.596   1.943
 4453SOL    HW214259   5.735   2.571   1.977
 4454SOL     OW14260   5.026   3.006   0.850
 4454SOL    HW114261   5.029   3.007   0.950
 4454SOL    HW214262   4.942   2.960   0.820
 4455SOL     OW14263   3.634   6.738   2.345
 4455SOL    HW114264   3.611   6.711   2.251
 4455SOL    HW214265   3.733   6.736   2.357
 4456SOL     OW14266   1.601   5.284   2.378
 4456SOL    HW114267   1.662   5.305   2.454
 4456SOL    HW214268   1.598   5.362   2.315
 4457SOL     OW14269   4.262   2.279   6.326
 4457SOL    HW114270   4.237   2.374   6.306
 4457SOL    HW214271   4.360   2.275   6.346
 4458SOL     OW14272   2.605   2.243   6.339
 4458SOL    HW114273   2.625   2.292   6.255
 4458SOL    HW214274   2.515   2.201   6.333
 4459SOL     OW14275   4.799   6.621   4.766
 4459SOL    HW114276   4.868   6.574   4.821
 4459SOL    HW214277   4.708   6.588   4.792
 4460SOL     OW14278   2.582   3.602   6.834
 4460SOL    HW114279   2.578   3.699   6.811
 4460SOL    HW214280   2.498   3.557   6.806
 4461SOL     OW14281   1.195   0.136   2.517
 4461SOL    HW114282   1.108   0.103   2.552
 4461SOL    HW214283   1.188   0.234   2.498
 4462SOL     OW14284   6.255   5.077   0.939
 4462SOL    HW114285   6.276   5.048   0.846
 4462SOL    HW214286   6.210   5.166   0.936
 4463SOL     OW14287   2.002   3.467   6.297
 4463SOL    HW114288   2.029   3.512   6.382
 4463SOL    HW214289   2.079   3.417   6.259
 4464SOL     OW14290   5.670   4.244   6.292
 4464SOL    HW114291   5.659   4.265   6.195
 4464SOL    HW214292   5.738   4.172   6.303
 4465SOL     OW14293   1.847   6.361   2.069
 4465SOL    HW114294   1.794   6.442   2.094
 4465SOL    HW214295   1.788   6.294   2.025
 4466SOL     OW14296   0.861   1.688   2.488
 4466SOL    HW114297   0.769   1.728   2.493
 4466SOL    HW214298   0.923   1.739   2.548
 4467SOL     OW14299   1.403   6.958   3.146
 4467SOL    HW114300   1.375   6.946   3.242
 4467SOL    HW214301   1.499   6.986   3.142
 4468SOL     OW14302   1.123   2.666   6.866
 4468SOL    HW114303   1.211   2.634   6.902
 4468SOL    HW214304   1.049   2.624   6.918
 4469SOL     OW14305   3.049   0.365   1.105
 4469SOL    HW114306   3.009   0.456   1.107
 4469SOL    HW214307   2.986   0.302   1.059
 4470SOL     OW14308   4.794   3.800   1.555
 4470SOL    HW114309   4.737   3.850   1.490
 4470SOL    HW214310   4.816   3.859   1.633
 4471SOL     OW14311   0.215   2.244   1.422
 4471SOL    HW114312   0.146   2.186   1.464
 4471SOL    HW214313   0.224   2.329   1.473
 4472SOL     OW14314   2.106   4.384   2.083
 4472SOL    HW114315   2.181   4.319   2.097
 4472SOL    HW214316   2.137   4.459   2.025
 4473SOL     OW14317   0.314   0.147   4.562
 4473SOL    HW114318   0.376   0.198   4.622
 4473SOL    HW214319   0.249   0.211   4.520
 4474SOL     OW14320   4.006   6.854   2.752
 4474SOL    HW114321   3.991   6.823   2.846
 4474SOL    HW214322   3.918   6.881   2.711
 4475SOL     OW14323   1.665   3.906   1.025
 4475SOL    HW114324   1.586   3.910   0.963
 4475SOL    HW214325   1.683   3.998   1.061
 4476SOL     OW14326   5.236   6.623   2.019
 4476SOL    HW114327   5.289   6.678   2.084
 4476SOL    HW214328   5.184   6.554   2.069
 4477SOL     OW14329   1.775   1.302   6.616
 4477SOL    HW114330   1.801   1.384   6.566
 4477SOL    HW214331   1.686   1.317   6.660
 4478SOL     OW14332   2.584   6.653   2.446
 4478SOL    HW114333   2.530   6.689   2.371
 4478SOL    HW214334   2.675   6.695   2.445
 4479SOL     OW14335   1.028   0.309   5.781
 4479SOL    HW114336   0.953   0.369   5.752
 4479SOL    HW214337   1.064   0.341   5.868
 4480SOL     OW14338   1.339   4.245   4.641
 4480SOL    HW114339   1.321   4.173   4.708
 4480SOL    HW214340   1.407   4.309   4.677
 4481SOL     OW14341   1.265   6.579   3.971
 4481SOL    HW114342   1.219   6.491   3.979
 4481SOL    HW214343   1.348   6.569   3.916
 4482SOL     OW14344   0.896   4.400   4.128
 4482SOL    HW114345   0.982   4.389   4.176
 4482SOL    HW214346   0.854   4.311   4.112
 4483SOL     OW14347   6.397   2.837   1.015
 4483SOL    HW114348   6.467   2.782   1.060
 4483SOL    HW214349   6.306   2.810   1.047
 4484SOL     OW14350   3.927   2.750   5.336
 4484SOL    HW114351   3.850   2.787   5.284
 4484SOL    HW214352   3.973   2.680   5.282
 4485SOL     OW14353   4.959   1.764   6.638
 4485SOL    HW114354   4.958   1.845   6.697
 4485SOL    HW214355   4.965   1.681   6.694
 4486SOL     OW14356   0.014   4.354   5.476
 4486SOL    HW114357   6.989   4.267   5.459
 4486SOL    HW214358   0.101   4.336   5.521
 4487SOL     OW14359   2.618   3.637   6.498
 4487SOL    HW114360   2.578   3.574   6.564
 4487SOL    HW214361   2.661   3.714   6.547
 4488SOL     OW14362   6.059   1.949   5.284
 4488SOL    HW114363   6.113   1.972   5.366
 4488SOL    HW214364   6.022   1.856   5.295
 4489SOL     OW14365   5.295   5.317   4.783
 4489SOL    HW114366   5.316   5.407   4.821
 4489SOL    HW214367   5.365   5.293   4.715
 4490SOL     OW14368   5.754   1.196   2.042
 4490SOL    HW114369   5.738   1.102   2.012
 4490SOL    HW214370   5.672   1.233   2.086
 4491SOL     OW14371   1.463   3.690   2.962
 4491SOL    HW114372   1.397   3.751   3.008
 4491SOL    HW214373   1.511   3.741   2.891
 4492SOL     OW14374   5.161   2.244   0.004
 4492SOL    HW114375   5.186   2.216   0.097
 4492SOL    HW214376   5.114   2.332   0.007
 4493SOL     OW14377   4.675   5.378   5.091
 4493SOL    HW114378   4.582   5.378   5.126
 4493SOL    HW214379   4.717   5.289   5.107
 4494SOL     OW14380   0.171   3.701   5.574
 4494SOL    HW114381   0.078   3.701   5.611
 4494SOL    HW214382   0.185   3.783   5.520
 4495SOL     OW14383   5.373   6.838   2.141
 4495SOL    HW114384   5.382   6.832   2.240
 4495SOL    HW214385   5.457   6.876   2.102
 4496SOL     OW14386   5.855   4.393   6.587
 4496SOL    HW114387   5.837   4.452   6.508
 4496SOL    HW214388   5.772   4.387   6.643
 4497SOL     OW14389   5.236   5.770   6.570
 4497SOL    HW114390   5.183   5.783   6.654
 4497SOL    HW214391   5.237   5.673   6.545
 4498SOL     OW14392   0.165   4.068   6.383
 4498SOL    HW114393   0.174   3.995   6.451
 4498SOL    HW214394   0.220   4.147   6.412
 4499SOL     OW14395   6.914   3.305   4.862
 4499SOL    HW114396   6.821   3.318   4.895
 4499SOL    HW214397   6.964   3.391   4.868
 4500SOL     OW14398   2.956   3.767   4.096
 4500SOL    HW114399   2.878   3.787   4.038
 4500SOL    HW214400   3.018   3.845   4.098
 4501SOL     OW14401   1.041   4.029   5.702
 4501SOL    HW114402   1.078   4.122   5.699
 4501SOL    HW214403   0.957   4.027   5.756
 4502SOL     OW14404   1.629   2.488   6.437
 4502SOL    HW114405   1.687   2.448   6.365
 4502SOL    HW214406   1.533   2.484   6.408
 4503SOL     OW14407   2.011   1.498   3.400
 4503SOL    HW114408   2.034   1.420   3.342
 4503SOL    HW214409   1.971   1.466   3.485
 4504SOL     OW14410   6.035   2.788   5.401
 4504SOL    HW114411   6.060   2.693   5.424
 4504SOL    HW214412   5.936   2.798   5.408
 4505SOL     OW14413   0.746   6.124   5.373
 4505SOL    HW114414   0.651   6.124   5.403
 4505SOL    HW214415   0.776   6.030   5.359
 4506SOL     OW14416   3.934   1.665   5.136
 4506SOL    HW114417   4.032   1.683   5.147
 4506SOL    HW214418   3.919   1.567   5.134
 4507SOL     OW14419   4.966   4.803   1.249
 4507SOL    HW114420   4.890   4.744   1.219
 4507SOL    HW214421   5.035   4.806   1.177
 4508SOL     OW14422   1.877   3.732   0.107
 4508SOL    HW114423   1.935   3.761   0.183
 4508SOL    HW214424   1.933   3.691   0.035
 4509SOL     OW14425   4.316   1.970   4.729
 4509SOL    HW114426   4.414   1.981   4.714
 4509SOL    HW214427   4.266   1.989   4.645
 4510SOL     OW14428   5.707   0.707   5.147
 4510SOL    HW114429   5.640   0.634   5.142
 4510SOL    HW214430   5.668   0.792   5.111
 4511SOL     OW14431   6.966   3.009   0.445
 4511SOL    HW114432   6.926   2.918   0.449
 4511SOL    HW214433   6.985   3.041   0.538
 4512SOL     OW14434   2.692   6.795   0.074
 4512SOL    HW114435   2.646   6.743   0.145
 4512SOL    HW214436   2.791   6.796   0.091
 4513SOL     OW14437   4.469   6.427   1.509
 4513SOL    HW114438   4.522   6.495   1.559
 4513SOL    HW214439   4.424   6.470   1.431
 4514SOL     OW14440   3.682   0.888   4.220
 4514SOL    HW114441   3.623   0.946   4.164
 4514SOL    HW214442   3.661   0.901   4.317
 4515SOL     OW14443   6.804   4.847   0.119
 4515SOL    HW114444   6.740   4.835   0.195
 4515SOL    HW214445   6.791   4.773   0.053
 4516SOL     OW14446   1.467   1.641   5.508
 4516SOL    HW114447   1.370   1.650   5.486
 4516SOL    HW214448   1.501   1.555   5.470
 4517SOL     OW14449   3.721   6.956   6.842
 4517SOL    HW114450   3.690   0.015   6.892
 4517SOL    HW214451   3.810   6.975   6.800
 4518SOL     OW14452   1.133   2.008   3.945
 4518SOL    HW114453   1.169   1.920   3.978
 4518SOL    HW214454   1.163   2.081   4.005
 4519SOL     OW14455   0.279   2.227   3.522
 4519SOL    HW114456   0.345   2.229   3.597
 4519SOL    HW214457   0.212   2.300   3.534
 4520SOL     OW14458   6.026   4.664   2.412
 4520SOL    HW114459   6.054   4.620   2.498
 4520SOL    HW214460   6.046   4.602   2.335
 4521SOL     OW14461   5.102   2.393   6.223
 4521SOL    HW114462   5.055   2.365   6.139
 4521SOL    HW214463   5.134   2.312   6.272
 4522SOL     OW14464   5.588   6.764   3.847
 4522SOL    HW114465   5.579   6.694   3.777
 4522SOL    HW214466   5.684   6.784   3.863
 4523SOL     OW14467   2.875   5.117   0.539
 4523SOL    HW114468   2.852   5.023   0.513
 4523SOL    HW214469   2.878   5.175   0.457
 4524SOL     OW14470   5.578   1.511   5.540
 4524SOL    HW114471   5.545   1.432   5.489
 4524SOL    HW214472   5.674   1.528   5.518
 4525SOL     OW14473   6.366   1.791   4.392
 4525SOL    HW114474   6.401   1.881   4.417
 4525SOL    HW214475   6.428   1.750   4.325
 4526SOL     OW14476   4.585   6.744   1.110
 4526SOL    HW114477   4.529   6.710   1.035
 4526SOL    HW214478   4.530   6.749   1.193
 4527SOL     OW14479   4.647   0.938   3.091
 4527SOL    HW114480   4.666   0.943   2.993
 4527SOL    HW214481   4.677   0.850   3.127
 4528SOL     OW14482   5.524   0.368   0.464
 4528SOL    HW114483   5.454   0.308   0.425
 4528SOL    HW214484   5.515   0.370   0.563
 4529SOL     OW14485   2.451   0.702   2.666
 4529SOL    HW114486   2.364   0.692   2.617
 4529SOL    HW214487   2.500   0.615   2.667
 4530SOL     OW14488   0.747   2.977   5.770
 4530SOL    HW114489   0.732   2.917   5.691
 4530SOL    HW214490   0.691   3.059   5.760
 4531SOL     OW14491   1.068   3.346   3.405
 4531SOL    HW114492   1.091   3.308   3.315
 4531SOL    HW214493   1.024   3.435   3.393
 4532SOL     OW14494   6.348   1.786   1.140
 4532SOL    HW114495   6.312   1.702   1.101
 4532SOL    HW214496   6.403   1.765   1.221
 4533SOL     OW14497   1.837   6.130   3.105
 4533SOL    HW114498   1.897   6.074   3.048
 4533SOL    HW214499   1.885   6.212   3.135
 4534SOL     OW14500   5.268   3.907   5.216
 4534SOL    HW114501   5.341   3.844   5.243
 4534SOL    HW214502   5.215   3.933   5.297
 4535SOL     OW14503   4.966   2.945   1.962
 4535SOL    HW114504   5.037   3.011   1.987
 4535SOL    HW214505   4.881   2.967   2.009
 4536SOL     OW14506   5.396   0.798   4.643
 4536SOL    HW114507   5.424   0.840   4.729
 4536SOL    HW214508   5.409   0.862   4.568
 4537SOL     OW14509   3.862   3.115   6.522
 4537SOL    HW114510   3.869   3.120   6.622
 4537SOL    HW214511   3.915   3.038   6.489
 4538SOL     OW14512   3.608   1.777   3.476
 4538SOL    HW114513   3.667   1.696   3.474
 4538SOL    HW214514   3.588   1.801   3.571
 4539SOL     OW14515   2.498   2.211   3.675
 4539SOL    HW114516   2.521   2.119   3.644
 4539SOL    HW214517   2.398   2.221   3.680
 4540SOL     OW14518   3.768   3.433   4.840
 4540SOL    HW114519   3.811   3.479   4.762
 4540SOL    HW214520   3.704   3.363   4.806
 4541SOL     OW14521   5.043   1.342   0.152
 4541SOL    HW114522   4.981   1.332   0.230
 4541SOL    HW214523   5.016   1.277   0.080
 4542SOL     OW14524   5.970   6.093   1.746
 4542SOL    HW114525   5.899   6.118   1.681
 4542SOL    HW214526   5.994   5.996   1.734
 4543SOL     OW14527   4.891   1.914   0.827
 4543SOL    HW114528   4.808   1.861   0.843
 4543SOL    HW214529   4.891   1.950   0.734
 4544SOL     OW14530   2.507   5.985   6.740
 4544SOL    HW114531   2.602   5.995   6.769
 4544SOL    HW214532   2.463   5.913   6.794
 4545SOL     OW14533   4.328   2.128   5.356
 4545SOL    HW114534   4.397   2.155   5.424
 4545SOL    HW214535   4.255   2.077   5.401
 4546SOL     OW14536   1.161   6.168   6.176
 4546SOL    HW114537   1.258   6.182   6.192
 4546SOL    HW214538   1.132   6.081   6.216
 4547SOL     OW14539   5.489   2.761   1.273
 4547SOL    HW114540   5.496   2.662   1.272
 4547SOL    HW214541   5.457   2.793   1.184
 4548SOL     OW14542   0.308   4.822   3.852
 4548SOL    HW114543   0.357   4.779   3.928
 4548SOL    HW214544   0.265   4.751   3.796
 4549SOL     OW14545   6.890   3.341   2.819
 4549SOL    HW114546   6.842   3.403   2.881
 4549SOL    HW214547   6.983   3.375   2.804
 4550SOL     OW14548   1.177   6.162   3.644
 4550SOL    HW114549   1.083   6.195   3.634
 4550SOL    HW214550   1.191   6.085   3.582
 4551SOL     OW14551   0.570   2.320   5.049
 4551SOL    HW114552   0.544   2.395   4.989
 4551SOL    HW214553   0.669   2.308   5.046
 4552SOL     OW14554   0.603   3.099   5.033
 4552SOL    HW114555   0.595   3.181   4.976
 4552SOL    HW214556   0.573   3.019   4.982
 4553SOL     OW14557   4.802   5.105   0.396
 4553SOL    HW114558   4.875   5.144   0.452
 4553SOL    HW214559   4.828   5.107   0.300
 4554SOL     OW14560   4.278   6.962   2.616
 4554SOL    HW114561   4.297   6.912   2.700
 4554SOL    HW214562   4.364   6.992   2.575
 4555SOL     OW14563   4.424   2.005   6.802
 4555SOL    HW114564   4.406   1.957   6.888
 4555SOL    HW214565   4.522   2.006   6.784
 4556SOL     OW14566   4.016   0.678   3.924
 4556SOL    HW114567   4.045   0.635   3.838
 4556SOL    HW214568   4.084   0.745   3.953
 4557SOL     OW14569   5.258   7.003   5.327
 4557SOL    HW114570   5.354   0.007   5.333
 4557SOL    HW214571   5.200   0.058   5.353
 4558SOL     OW14572   5.871   3.315   6.383
 4558SOL    HW114573   5.953   3.303   6.440
 4558SOL    HW214574   5.802   3.248   6.410
 4559SOL     OW14575   1.104   6.236   1.195
 4559SOL    HW114576   1.051   6.153   1.172
 4559SOL    HW214577   1.177   6.248   1.128
 4560SOL     OW14578   4.898   3.033   3.075
 4560SOL    HW114579   4.937   2.944   3.056
 4560SOL    HW214580   4.857   3.070   2.991
 4561SOL     OW14581   3.048   1.638   0.188
 4561SOL    HW114582   3.064   1.559   0.248
 4561SOL    HW214583   3.042   1.721   0.244
 4562SOL     OW14584   3.664   5.754   6.098
 4562SOL    HW114585   3.658   5.688   6.173
 4562SOL    HW214586   3.578   5.753   6.047
 4563SOL     OW14587   5.737   2.225   0.276
 4563SOL    HW114588   5.641   2.244   0.257
 4563SOL    HW214589   5.773   2.164   0.205
 4564SOL     OW14590   0.897   5.128   0.619
 4564SOL    HW114591   0.977   5.118   0.559
 4564SOL    HW214592   0.835   5.052   0.604
 4565SOL     OW14593   0.643   1.442   5.139
 4565SOL    HW114594   0.581   1.454   5.216
 4565SOL    HW214595   0.631   1.518   5.074
 4566SOL     OW14596   0.315   6.892   6.987
 4566SOL    HW114597   0.347   6.939   6.905
 4566SOL    HW214598   0.247   6.948   0.011
 4567SOL     OW14599   6.950   1.021   0.685
 4567SOL    HW114600   7.021   1.091   0.680
 4567SOL    HW214601   6.972   0.946   0.623
 4568SOL     OW14602   3.091   4.762   5.526
 4568SOL    HW114603   3.094   4.846   5.581
 4568SOL    HW214604   3.000   4.721   5.533
 4569SOL     OW14605   0.871   1.553   4.344
 4569SOL    HW114606   0.812   1.483   4.305
 4569SOL    HW214607   0.871   1.634   4.285
 4570SOL     OW14608   0.063   5.690   3.286
 4570SOL    HW114609   0.159   5.716   3.280
 4570SOL    HW214610   0.012   5.760   3.336
 4571SOL     OW14611   2.959   3.591   4.877
 4571SOL    HW114612   2.999   3.577   4.787
 4571SOL    HW214613   2.962   3.689   4.900
 4572SOL     OW14614   0.283   0.050   1.278
 4572SOL    HW114615   0.201   0.020   1.325
 4572SOL    HW214616   0.364   0.028   1.333
 4573SOL     OW14617   6.062   6.171   1.423
 4573SOL    HW114618   5.999   6.221   1.364
 4573SOL    HW214619   6.029   6.175   1.517
 4574SOL     OW14620   0.067   4.869   1.203
 4574SOL    HW114621   0.117   4.787   1.232
 4574SOL    HW214622   7.006   4.842   1.156
 4575SOL     OW14623   6.333   1.828   0.601
 4575SOL    HW114624   6.295   1.859   0.688
 4575SOL    HW214625   6.273   1.759   0.561
 4576SOL     OW14626   2.757   5.557   6.836
 4576SOL    HW114627   2.763   5.593   6.930
 4576SOL    HW214628   2.816   5.477   6.827
 4577SOL     OW14629   0.694   3.400   3.169
 4577SOL    HW114630   0.658   3.323   3.118
 4577SOL    HW214631   0.713   3.373   3.264
 4578SOL     OW14632   0.455   3.875   3.903
 4578SOL    HW114633   0.443   3.889   4.002
 4578SOL    HW214634   0.410   3.791   3.875
 4579SOL     OW14635   4.717   1.645   2.793
 4579SOL    HW114636   4.758   1.566   2.749
 4579SOL    HW214637   4.696   1.715   2.725
 4580SOL     OW14638   5.878   5.194   0.750
 4580SOL    HW114639   5.936   5.273   0.766
 4580SOL    HW214640   5.887   5.130   0.827
 4581SOL     OW14641   3.408   5.019   2.955
 4581SOL    HW114642   3.451   5.010   3.045
 4581SOL    HW214643   3.400   5.115   2.931
 4582SOL     OW14644   4.884   6.948   3.895
 4582SOL    HW114645   4.922   6.956   3.987
 4582SOL    HW214646   4.818   7.022   3.879
 4583SOL     OW14647   2.886   1.865   5.192
 4583SOL    HW114648   2.898   1.832   5.285
 4583SOL    HW214649   2.799   1.831   5.156
 4584SOL     OW14650   0.023   6.105   6.064
 4584SOL    HW114651   6.968   6.049   6.035
 4584SOL    HW214652   0.042   6.089   6.161
 4585SOL     OW14653   3.269   6.637   2.970
 4585SOL    HW114654   3.228   6.706   3.029
 4585SOL    HW214655   3.255   6.546   3.011
 4586SOL     OW14656   3.329   5.329   1.628
 4586SOL    HW114657   3.375   5.324   1.717
 4586SOL    HW214658   3.397   5.338   1.556
 4587SOL     OW14659   4.198   3.474   1.554
 4587SOL    HW114660   4.147   3.495   1.637
 4587SOL    HW214661   4.183   3.379   1.528
 4588SOL     OW14662   3.965   3.902   4.954
 4588SOL    HW114663   3.887   3.889   4.892
 4588SOL    HW214664   4.033   3.830   4.938
 4589SOL     OW14665   6.206   2.171   2.896
 4589SOL    HW114666   6.125   2.215   2.858
 4589SOL    HW214667   6.269   2.241   2.930
 4590SOL     OW14668   4.328   5.534   2.755
 4590SOL    HW114669   4.301   5.461   2.692
 4590SOL    HW214670   4.296   5.622   2.721
 4591SOL     OW14671   6.392   5.810   5.846
 4591SOL    HW114672   6.305   5.771   5.815
 4591SOL    HW214673   6.387   5.831   5.943
 4592SOL     OW14674   4.223   3.067   0.596
 4592SOL    HW114675   4.124   3.060   0.581
 4592SOL    HW214676   4.270   3.075   0.508
 4593SOL     OW14677   4.544   5.384   2.852
 4593SOL    HW114678   4.453   5.426   2.844
 4593SOL    HW214679   4.568   5.377   2.949
 4594SOL     OW14680   3.476   1.653   2.177
 4594SOL    HW114681   3.514   1.594   2.105
 4594SOL    HW214682   3.381   1.628   2.194
 4595SOL     OW14683   3.688   2.783   6.357
 4595SOL    HW114684   3.738   2.796   6.442
 4595SOL    HW214685   3.752   2.788   6.280
 4596SOL     OW14686   5.908   6.291   2.645
 4596SOL    HW114687   6.003   6.259   2.640
 4596SOL    HW214688   5.906   6.390   2.629
 4597SOL     OW14689   5.116   4.888   6.425
 4597SOL    HW114690   5.168   4.806   6.450
 4597SOL    HW214691   5.175   4.968   6.433
 4598SOL     OW14692   1.929   5.177   6.508
 4598SOL    HW114693   2.004   5.113   6.525
 4598SOL    HW214694   1.889   5.204   6.596
 4599SOL     OW14695   1.437   4.071   1.334
 4599SOL    HW114696   1.537   4.063   1.341
 4599SOL    HW214697   1.407   4.032   1.247
 4600SOL     OW14698   3.259   5.147   6.549
 4600SOL    HW114699   3.267   5.239   6.586
 4600SOL    HW214700   3.350   5.113   6.523
 4601SOL     OW14701   1.806   1.128   5.018
 4601SOL    HW114702   1.765   1.199   5.076
 4601SOL    HW214703   1.846   1.057   5.075
 4602SOL     OW14704   1.454   6.917   1.671
 4602SOL    HW114705   1.518   6.941   1.743
 4602SOL    HW214706   1.498   6.925   1.582
 4603SOL     OW14707   3.478   6.456   1.994
 4603SOL    HW114708   3.467   6.456   1.894
 4603SOL    HW214709   3.389   6.447   2.037
 4604SOL     OW14710   3.659   0.314   1.869
 4604SOL    HW114711   3.578   0.259   1.851
 4604SOL    HW214712   3.737   0.276   1.819
 4605SOL     OW14713   4.703   0.821   4.253
 4605SOL    HW114714   4.700   0.748   4.321
 4605SOL    HW214715   4.765   0.795   4.179
 4606SOL     OW14716   0.018   6.376   4.093
 4606SOL    HW114717   0.086   6.425   4.039
 4606SOL    HW214718   0.051   6.366   4.187
 4607SOL     OW14719   2.560   2.076   1.470
 4607SOL    HW114720   2.472   2.028   1.463
 4607SOL    HW214721   2.587   2.081   1.566
 4608SOL     OW14722   1.456   4.943   4.998
 4608SOL    HW114723   1.442   4.867   4.934
 4608SOL    HW214724   1.552   4.971   4.996
 4609SOL     OW14725   4.417   5.854   6.851
 4609SOL    HW114726   4.500   5.841   6.905
 4609SOL    HW214727   4.440   5.856   6.754
 4610SOL     OW14728   6.722   2.669   6.977
 4610SOL    HW114729   6.760   2.737   6.914
 4610SOL    HW214730   6.797   2.618   7.019
 4611SOL     OW14731   0.062   3.950   6.994
 4611SOL    HW114732   0.084   3.972   0.066
 4611SOL    HW214733   0.034   3.854   6.988
 4612SOL     OW14734   1.860   6.108   6.810
 4612SOL    HW114735   1.900   6.138   6.897
 4612SOL    HW214736   1.933   6.080   6.748
 4613SOL     OW14737   2.768   5.151   2.775
 4613SOL    HW114738   2.852   5.120   2.730
 4613SOL    HW214739   2.790   5.191   2.863
 4614SOL     OW14740   1.937   5.748   6.956
 4614SOL    HW114741   1.843   5.777   6.975
 4614SOL    HW214742   1.952   5.657   6.996
 4615SOL     OW14743   1.303   1.693   6.978
 4615SOL    HW114744   1.277   1.780   7.021
 4615SOL    HW214745   1.222   1.650   6.937
 4616SOL     OW14746   6.178   0.347   6.513
 4616SOL    HW114747   6.113   0.288   6.561
 4616SOL    HW214748   6.161   0.341   6.414
 4617SOL     OW14749   1.023   2.402   2.894
 4617SOL    HW114750   1.045   2.484   2.841
 4617SOL    HW214751   0.944   2.419   2.953
 4618SOL     OW14752   0.956   2.695   5.771
 4618SOL    HW114753   0.871   2.650   5.799
 4618SOL    HW214754   1.033   2.635   5.790
 4619SOL     OW14755   4.118   0.332   3.585
 4619SOL    HW114756   4.131   0.352   3.682
 4619SOL    HW214757   4.027   0.292   3.571
 4620SOL     OW14758   3.555   4.682   6.980
 4620SOL    HW114759   3.623   4.658   0.028
 4620SOL    HW214760   3.592   4.754   6.922
 4621SOL     OW14761   6.533   1.640   4.732
 4621SOL    HW114762   6.539   1.563   4.668
 4621SOL    HW214763   6.450   1.692   4.713
 4622SOL     OW14764   1.558   2.866   0.917
 4622SOL    HW114765   1.621   2.862   0.995
 4622SOL    HW214766   1.465   2.846   0.947
 4623SOL     OW14767   0.173   4.888   0.651
 4623SOL    HW114768   0.181   4.987   0.653
 4623SOL    HW214769   0.092   4.862   0.599
 4624SOL     OW14770   4.538   0.992   3.768
 4624SOL    HW114771   4.502   1.069   3.821
 4624SOL    HW214772   4.572   0.922   3.831
 4625SOL     OW14773   1.395   4.453   0.014
 4625SOL    HW114774   1.481   4.500   7.016
 4625SOL    HW214775   1.343   4.442   6.952
 4626SOL     OW14776   6.644   4.963   2.094
 4626SOL    HW114777   6.580   4.947   2.019
 4626SOL    HW214778   6.628   5.055   2.132
 4627SOL     OW14779   3.909   6.313   5.630
 4627SOL    HW114780   3.980   6.260   5.676
 4627SOL    HW214781   3.845   6.349   5.698
 4628SOL     OW14782   5.978   4.912   2.314
 4628SOL    HW114783   5.981   4.816   2.341
 4628SOL    HW214784   6.061   4.957   2.345
 4629SOL     OW14785   2.001   4.866   5.880
 4629SOL    HW114786   2.055   4.908   5.953
 4629SOL    HW214787   2.052   4.791   5.839
 4630SOL     OW14788   2.721   5.841   3.414
 4630SOL    HW114789   2.648   5.780   3.444
 4630SOL    HW214790   2.800   5.831   3.474
 4631SOL     OW14791   2.059   6.239   3.596
 4631SOL    HW114792   2.067   6.339   3.598
 4631SOL    HW214793   2.125   6.202   3.531
 4632SOL     OW14794   4.297   5.343   4.395
 4632SOL    HW114795   4.345   5.307   4.315
 4632SOL    HW214796   4.308   5.442   4.399
 4633SOL     OW14797   6.433   1.886   5.230
 4633SOL    HW114798   6.508   1.952   5.243
 4633SOL    HW214799   6.402   1.890   5.135
 4634SOL     OW14800   2.912   4.667   0.326
 4634SOL    HW114801   2.937   4.616   0.408
 4634SOL    HW214802   2.889   4.603   0.252
 4635SOL     OW14803   5.877   3.140   2.801
 4635SOL    HW114804   5.879   3.143   2.701
 4635SOL    HW214805   5.861   3.232   2.837
 4636SOL     OW14806   2.992   5.204   0.212
 4636SOL    HW114807   3.015   5.210   0.115
 4636SOL    HW214808   2.910   5.260   0.229
 4637SOL     OW14809   1.190   0.396   5.989
 4637SOL    HW114810   1.237   0.481   6.013
 4637SOL    HW214811   1.198   0.330   6.064
 4638SOL     OW14812   3.981   3.103   6.236
 4638SOL    HW114813   3.965   3.121   6.139
 4638SOL    HW214814   3.934   3.018   6.263
 4639SOL     OW14815   0.628   4.030   5.807
 4639SOL    HW114816   0.709   3.996   5.855
 4639SOL    HW214817   0.549   3.976   5.833
 4640SOL     OW14818   4.886   4.494   4.131
 4640SOL    HW114819   4.894   4.406   4.178
 4640SOL    HW214820   4.791   4.525   4.134
 4641SOL     OW14821   2.570   4.937   4.317
 4641SOL    HW114822   2.584   4.839   4.330
 4641SOL    HW214823   2.488   4.951   4.260
 4642SOL     OW14824   6.594   5.282   4.550
 4642SOL    HW114825   6.555   5.367   4.515
 4642SOL    HW214826   6.521   5.215   4.565
 4643SOL     OW14827   4.049   2.317   0.999
 4643SOL    HW114828   3.988   2.392   1.021
 4643SOL    HW214829   4.134   2.353   0.960
 4644SOL     OW14830   1.516   5.750   4.668
 4644SOL    HW114831   1.589   5.804   4.710
 4644SOL    HW214832   1.431   5.802   4.668
 4645SOL     OW14833   2.078   6.443   4.554
 4645SOL    HW114834   2.004   6.494   4.510
 4645SOL    HW214835   2.161   6.498   4.555
 4646SOL     OW14836   2.871   0.223   2.224
 4646SOL    HW114837   2.895   0.320   2.223
 4646SOL    HW214838   2.902   0.180   2.139
 4647SOL     OW14839   0.634   7.020   3.500
 4647SOL    HW114840   0.579   0.080   3.499
 4647SOL    HW214841   0.731   0.021   3.494
 4648SOL     OW14842   3.115   6.748   2.650
 4648SOL    HW114843   3.026   6.771   2.689
 4648SOL    HW214844   3.178   6.722   2.723
 4649SOL     OW14845   5.153   0.820   5.670
 4649SOL    HW114846   5.066   0.772   5.667
 4649SOL    HW214847   5.167   0.860   5.761
 4650SOL     OW14848   4.189   6.431   3.424
 4650SOL    HW114849   4.218   6.455   3.331
 4650SOL    HW214850   4.262   6.454   3.488
 4651SOL     OW14851   0.043   2.121   1.990
 4651SOL    HW114852   0.119   2.145   1.928
 4651SOL    HW214853   6.998   2.067   1.940
 4652SOL     OW14854   0.502   0.508   3.801
 4652SOL    HW114855   0.548   0.489   3.888
 4652SOL    HW214856   0.407   0.534   3.818
 4653SOL     OW14857   6.650   6.400   0.213
 4653SOL    HW114858   6.552   6.386   0.228
 4653SOL    HW214859   6.672   6.497   0.224
 4654SOL     OW14860   0.824   6.987   0.239
 4654SOL    HW114861   0.828   6.897   0.195
 4654SOL    HW214862   0.731   0.001   0.234
 4655SOL     OW14863   0.595   4.681   2.970
 4655SOL    HW114864   0.502   4.709   2.995
 4655SOL    HW214865   0.616   4.593   3.014
 4656SOL     OW14866   0.844   0.644   3.122
 4656SOL    HW114867   0.806   0.736   3.111
 4656SOL    HW214868   0.935   0.641   3.079
 4657SOL     OW14869   4.849   6.918   1.232
 4657SOL    HW114870   4.829   6.896   1.327
 4657SOL    HW214871   4.791   6.862   1.172
 4658SOL     OW14872   4.223   0.287   3.206
 4658SOL    HW114873   4.239   0.193   3.235
 4658SOL    HW214874   4.146   0.291   3.142
 4659SOL     OW14875   1.428   3.235   5.033
 4659SOL    HW114876   1.427   3.310   4.966
 4659SOL    HW214877   1.501   3.171   5.010
 4660SOL     OW14878   0.473   1.472   5.352
 4660SOL    HW114879   0.405   1.411   5.393
 4660SOL    HW214880   0.548   1.486   5.416
 4661SOL     OW14881   3.563   4.147   4.535
 4661SOL    HW114882   3.652   4.136   4.581
 4661SOL    HW214883   3.490   4.138   4.602
 4662SOL     OW14884   5.205   0.363   5.406
 4662SOL    HW114885   5.171   0.456   5.392
 4662SOL    HW214886   5.128   0.302   5.427
 4663SOL     OW14887   6.932   1.852   1.945
 4663SOL    HW114888   6.840   1.838   1.909
 4663SOL    HW214889   6.929   1.851   2.045
 4664SOL     OW14890   2.180   2.847   6.404
 4664SOL    HW114891   2.175   2.804   6.495
 4664SOL    HW214892   2.210   2.942   6.414
 4665SOL     OW14893   5.224   6.972   6.054
 4665SOL    HW114894   5.296   0.015   6.075
 4665SOL    HW214895   5.229   6.947   5.957
 4666SOL     OW14896   2.355   2.073   6.864
 4666SOL    HW114897   2.304   2.138   6.920
 4666SOL    HW214898   2.434   2.038   6.915
 4667SOL     OW14899   6.758   5.304   6.498
 4667SOL    HW114900   6.716   5.268   6.581
 4667SOL    HW214901   6.844   5.350   6.521
 4668SOL     OW14902   6.790   1.694   4.390
 4668SOL    HW114903   6.842   1.677   4.473
 4668SOL    HW214904   6.765   1.791   4.385
 4669SOL     OW14905   1.773   6.121   0.408
 4669SOL    HW114906   1.781   6.028   0.371
 4669SOL    HW214907   1.678   6.141   0.428
 4670SOL     OW14908   2.960   1.028   4.803
 4670SOL    HW114909   2.949   1.028   4.704
 4670SOL    HW214910   3.025   1.100   4.828
 4671SOL     OW14911   6.218   3.250   1.599
 4671SOL    HW114912   6.164   3.208   1.526
 4671SOL    HW214913   6.315   3.234   1.581
 4672SOL     OW14914   1.976   4.293   6.363
 4672SOL    HW114915   2.002   4.215   6.421
 4672SOL    HW214916   1.998   4.271   6.268
 4673SOL     OW14917   3.580   0.275   1.502
 4673SOL    HW114918   3.497   0.331   1.506
 4673SOL    HW214919   3.556   0.182   1.474
 4674SOL     OW14920   5.025   5.402   5.240
 4674SOL    HW114921   5.034   5.497   5.212
 4674SOL    HW214922   4.991   5.398   5.334
 4675SOL     OW14923   1.263   3.959   1.155
 4675SOL    HW114924   1.280   3.914   1.068
 4675SOL    HW214925   1.183   3.918   1.199
 4676SOL     OW14926   1.890   6.051   3.700
 4676SOL    HW114927   1.897   6.096   3.789
 4676SOL    HW214928   1.927   6.111   3.629
 4677SOL     OW14929   1.540   1.815   0.245
 4677SOL    HW114930   1.577   1.793   0.155
 4677SOL    HW214931   1.492   1.735   0.282
 4678SOL     OW14932   2.196   3.946   2.576
 4678SOL    HW114933   2.100   3.955   2.604
 4678SOL    HW214934   2.220   3.850   2.568
 4679SOL     OW14935   5.298   6.445   1.783
 4679SOL    HW114936   5.375   6.495   1.744
 4679SOL    HW214937   5.280   6.478   1.876
 4680SOL     OW14938   3.108   1.666   1.916
 4680SOL    HW114939   3.096   1.655   1.818
 4680SOL    HW214940   3.190   1.720   1.935
 4681SOL     OW14941   5.094   4.418   0.451
 4681SOL    HW114942   5.048   4.486   0.394
 4681SOL    HW214943   5.027   4.374   0.510
 4682SOL     OW14944   4.498   3.455   6.429
 4682SOL    HW114945   4.446   3.407   6.359
 4682SOL    HW214946   4.571   3.509   6.386
 4683SOL     OW14947   5.976   4.258   3.495
 4683SOL    HW114948   5.977   4.355   3.471
 4683SOL    HW214949   6.068   4.221   3.491
 4684SOL     OW14950   4.095   6.129   0.360
 4684SOL    HW114951   4.019   6.098   0.418
 4684SOL    HW214952   4.118   6.224   0.383
 4685SOL     OW14953   2.581   3.986   5.997
 4685SOL    HW114954   2.565   3.896   5.955
 4685SOL    HW214955   2.542   4.057   5.939
 4686SOL     OW14956   2.933   6.112   0.720
 4686SOL    HW114957   2.862   6.102   0.651
 4686SOL    HW214958   2.993   6.188   0.696
 4687SOL     OW14959   3.504   1.864   3.224
 4687SOL    HW114960   3.580   1.827   3.171
 4687SOL    HW214961   3.529   1.865   3.321
 4688SOL     OW14962   5.706   2.354   5.818
 4688SOL    HW114963   5.755   2.273   5.786
 4688SOL    HW214964   5.743   2.382   5.907
 4689SOL     OW14965   5.397   0.579   0.977
 4689SOL    HW114966   5.460   0.554   0.904
 4689SOL    HW214967   5.437   0.553   1.065
 4690SOL     OW14968   2.022   1.520   0.693
 4690SOL    HW114969   2.118   1.547   0.691
 4690SOL    HW214970   2.009   1.447   0.761
 4691SOL     OW14971   5.252   4.601   0.131
 4691SOL    HW114972   5.259   4.502   0.115
 4691SOL    HW214973   5.300   4.650   0.059
 4692SOL     OW14974   6.733   4.461   2.665
 4692SOL    HW114975   6.731   4.361   2.658
 4692SOL    HW214976   6.656   4.492   2.720
 4693SOL     OW14977   1.670   0.833   3.977
 4693SOL    HW114978   1.746   0.816   3.914
 4693SOL    HW214979   1.586   0.846   3.925
 4694SOL     OW14980   2.030   1.322   0.517
 4694SOL    HW114981   2.021   1.386   0.594
 4694SOL    HW214982   2.085   1.364   0.445
 4695SOL     OW14983   1.479   6.083   0.976
 4695SOL    HW114984   1.475   6.032   0.890
 4695SOL    HW214985   1.392   6.131   0.990
 4696SOL     OW14986   1.180   5.276   6.004
 4696SOL    HW114987   1.123   5.321   6.073
 4696SOL    HW214988   1.130   5.272   5.918
 4697SOL     OW14989   1.631   4.015   1.645
 4697SOL    HW114990   1.590   3.949   1.707
 4697SOL    HW214991   1.731   4.013   1.655
 4698SOL     OW14992   4.648   0.227   3.354
 4698SOL    HW114993   4.733   0.245   3.404
 4698SOL    HW214994   4.598   0.153   3.398
 4699SOL     OW14995   0.387   0.576   1.920
 4699SOL    HW114996   0.444   0.599   1.999
 4699SOL    HW214997   0.372   0.477   1.917
 4700SOL     OW14998   6.649   2.114   2.710
 4700SOL    HW114999   6.691   2.032   2.671
 4700SOL    HW215000   6.655   2.189   2.644
 4701SOL     OW15001   3.213   1.598   2.228
 4701SOL    HW115002   3.176   1.610   2.136
 4701SOL    HW215003   3.172   1.666   2.289
 4702SOL     OW15004   5.006   4.953   6.708
 4702SOL    HW115005   4.930   5.016   6.726
 4702SOL    HW215006   5.031   4.958   6.611
 4703SOL     OW15007   0.884   5.087   2.431
 4703SOL    HW115008   0.943   5.018   2.389
 4703SOL    HW215009   0.861   5.157   2.364
 4704SOL     OW15010   0.279   6.171   5.937
 4704SOL    HW115011   0.196   6.149   5.988
 4704SOL    HW215012   0.255   6.190   5.841
 4705SOL     OW15013   2.841   2.741   0.891
 4705SOL    HW115014   2.887   2.801   0.957
 4705SOL    HW215015   2.888   2.746   0.803
 4706SOL     OW15016   0.947   6.972   0.998
 4706SOL    HW115017   0.891   6.890   0.998
 4706SOL    HW215018   1.042   6.948   0.978
 4707SOL     OW15019   1.638   6.688   1.427
 4707SOL    HW115020   1.641   6.667   1.329
 4707SOL    HW215021   1.600   6.779   1.440
 4708SOL     OW15022   1.620   1.760   5.127
 4708SOL    HW115023   1.541   1.769   5.067
 4708SOL    HW215024   1.599   1.798   5.217
 4709SOL     OW15025   5.012   5.164   4.949
 4709SOL    HW115026   4.960   5.166   5.034
 4709SOL    HW215027   5.110   5.171   4.970
 4710SOL     OW15028   5.639   6.681   4.440
 4710SOL    HW115029   5.709   6.695   4.370
 4710SOL    HW215030   5.549   6.671   4.397
 4711SOL     OW15031   6.239   2.657   3.301
 4711SOL    HW115032   6.142   2.682   3.296
 4711SOL    HW215033   6.271   2.627   3.212
 4712SOL     OW15034   4.550   4.585   5.606
 4712SOL    HW115035   4.641   4.556   5.633
 4712SOL    HW215036   4.481   4.531   5.656
 4713SOL     OW15037   5.125   4.540   1.260
 4713SOL    HW115038   5.039   4.490   1.258
 4713SOL    HW215039   5.151   4.565   1.166
 4714SOL     OW15040   6.481   1.816   6.581
 4714SOL    HW115041   6.399   1.847   6.533
 4714SOL    HW215042   6.462   1.812   6.679
 4715SOL     OW15043   6.264   1.835   1.837
 4715SOL    HW115044   6.237   1.846   1.742
 4715SOL    HW215045   6.317   1.751   1.848
 4716SOL     OW15046   4.209   5.426   5.414
 4716SOL    HW115047   4.150   5.391   5.341
 4716SOL    HW215048   4.250   5.513   5.386
 4717SOL     OW15049   2.884   5.780   5.492
 4717SOL    HW115050   2.808   5.739   5.543
 4717SOL    HW215051   2.968   5.775   5.547
 4718SOL     OW15052   5.319   3.066   0.989
 4718SOL    HW115053   5.417   3.079   1.004
 4718SOL    HW215054   5.299   3.075   0.891
 4719SOL     OW15055   5.611   3.303   3.390
 4719SOL    HW115056   5.580   3.338   3.479
 4719SOL    HW215057   5.644   3.210   3.401
 4720SOL     OW15058   3.166   5.067   0.381
 4720SOL    HW115059   3.114   5.127   0.320
 4720SOL    HW215060   3.196   4.987   0.330
 4721SOL     OW15061   6.301   3.497   1.841
 4721SOL    HW115062   6.208   3.480   1.810
 4721SOL    HW215063   6.315   3.596   1.850
 4722SOL     OW15064   1.031   4.737   6.740
 4722SOL    HW115065   1.025   4.648   6.785
 4722SOL    HW215066   1.055   4.724   6.644
 4723SOL     OW15067   3.568   4.797   5.786
 4723SOL    HW115068   3.594   4.845   5.702
 4723SOL    HW215069   3.639   4.731   5.810
 4724SOL     OW15070   0.290   6.753   3.982
 4724SOL    HW115071   0.255   6.832   4.031
 4724SOL    HW215072   0.256   6.669   4.026
 4725SOL     OW15073   5.618   5.232   0.684
 4725SOL    HW115074   5.560   5.169   0.736
 4725SOL    HW215075   5.714   5.206   0.695
 4726SOL     OW15076   1.764   2.919   5.472
 4726SOL    HW115077   1.686   2.943   5.530
 4726SOL    HW215078   1.847   2.963   5.506
 4727SOL     OW15079   0.872   5.465   0.387
 4727SOL    HW115080   0.805   5.539   0.375
 4727SOL    HW215081   0.938   5.491   0.457
 4728SOL     OW15082   6.348   1.252   3.079
 4728SOL    HW115083   6.293   1.235   3.160
 4728SOL    HW215084   6.426   1.189   3.078
 4729SOL     OW15085   4.978   0.577   0.253
 4729SOL    HW115086   5.075   0.553   0.257
 4729SOL    HW215087   4.951   0.621   0.339
 4730SOL     OW15088   3.741   0.369   4.804
 4730SOL    HW115089   3.735   0.431   4.725
 4730SOL    HW215090   3.808   0.404   4.869
 4731SOL     OW15091   2.683   0.535   0.646
 4731SOL    HW115092   2.700   0.485   0.560
 4731SOL    HW215093   2.753   0.510   0.713
 4732SOL     OW15094   0.563   3.395   5.221
 4732SOL    HW115095   0.654   3.373   5.257
 4732SOL    HW215096   0.501   3.320   5.239
 4733SOL     OW15097   2.313   4.186   3.137
 4733SOL    HW115098   2.217   4.179   3.166
 4733SOL    HW215099   2.325   4.138   3.050
 4734SOL     OW15100   4.956   2.858   6.177
 4734SOL    HW115101   5.027   2.789   6.191
 4734SOL    HW215102   4.986   2.922   6.106
 4735SOL     OW15103   0.468   6.187   4.083
 4735SOL    HW115104   0.525   6.155   4.158
 4735SOL    HW215105   0.441   6.110   4.026
 4736SOL     OW15106   6.777   2.153   3.541
 4736SOL    HW115107   6.725   2.127   3.623
 4736SOL    HW215108   6.838   2.078   3.516
 4737SOL     OW15109   1.981   4.613   0.805
 4737SOL    HW115110   1.970   4.701   0.852
 4737SOL    HW215111   1.900   4.557   0.822
 4738SOL     OW15112   2.907   0.185   3.868
 4738SOL    HW115113   3.004   0.203   3.887
 4738SOL    HW215114   2.852   0.214   3.946
 4739SOL     OW15115   6.383   2.656   5.167
 4739SOL    HW115116   6.384   2.694   5.259
 4739SOL    HW215117   6.472   2.672   5.124
 4740SOL     OW15118   0.792   0.980   1.097
 4740SOL    HW115119   0.771   0.895   1.049
 4740SOL    HW215120   0.737   1.054   1.058
 4741SOL     OW15121   4.102   4.512   0.857
 4741SOL    HW115122   4.179   4.473   0.907
 4741SOL    HW215123   4.072   4.596   0.903
 4742SOL     OW15124   2.617   6.049   1.504
 4742SOL    HW115125   2.563   6.008   1.578
 4742SOL    HW215126   2.702   6.086   1.541
 4743SOL     OW15127   2.636   1.267   5.762
 4743SOL    HW115128   2.722   1.215   5.764
 4743SOL    HW215129   2.559   1.205   5.781
 4744SOL     OW15130   1.872   3.194   5.189
 4744SOL    HW115131   1.936   3.129   5.147
 4744SOL    HW215132   1.854   3.269   5.125
 4745SOL     OW15133   3.106   5.499   5.675
 4745SOL    HW115134   3.196   5.541   5.675
 4745SOL    HW215135   3.063   5.513   5.764
 4746SOL     OW15136   5.990   5.779   0.575
 4746SOL    HW115137   5.931   5.853   0.543
 4746SOL    HW215138   6.082   5.815   0.592
 4747SOL     OW15139   0.208   2.826   0.109
 4747SOL    HW115140   0.121   2.868   0.136
 4747SOL    HW215141   0.283   2.888   0.133
 4748SOL     OW15142   1.093   0.886   1.291
 4748SOL    HW115143   1.041   0.810   1.329
 4748SOL    HW215144   1.170   0.851   1.237
 4749SOL     OW15145   2.206   6.612   6.873
 4749SOL    HW115146   2.275   6.556   6.918
 4749SOL    HW215147   2.250   6.678   6.813
 4750SOL     OW15148   0.283   1.805   4.169
 4750SOL    HW115149   0.229   1.835   4.090
 4750SOL    HW215150   0.233   1.825   4.253
 4751SOL     OW15151   1.734   4.427   0.088
 4751SOL    HW115152   1.824   4.423   0.045
 4751SOL    HW215153   1.679   4.496   0.042
 4752SOL     OW15154   2.354   6.493   1.121
 4752SOL    HW115155   2.314   6.578   1.085
 4752SOL    HW215156   2.286   6.420   1.114
 4753SOL     OW15157   5.240   0.139   4.844
 4753SOL    HW115158   5.154   0.137   4.895
 4753SOL    HW215159   5.235   0.075   4.768
 4754SOL     OW15160   6.277   0.055   6.503
 4754SOL    HW115161   6.278   0.101   6.414
 4754SOL    HW215162   6.318   6.986   6.494
 4755SOL     OW15163   2.287   1.323   6.228
 4755SOL    HW115164   2.236   1.299   6.310
 4755SOL    HW215165   2.368   1.265   6.222
 4756SOL     OW15166   5.359   2.158   1.828
 4756SOL    HW115167   5.420   2.169   1.750
 4756SOL    HW215168   5.273   2.206   1.810
 4757SOL     OW15169   2.467   2.489   2.169
 4757SOL    HW115170   2.543   2.426   2.157
 4757SOL    HW215171   2.496   2.582   2.149
 4758SOL     OW15172   4.348   5.633   5.608
 4758SOL    HW115173   4.257   5.674   5.608
 4758SOL    HW215174   4.399   5.662   5.527
 4759SOL     OW15175   5.505   5.849   5.007
 4759SOL    HW115176   5.602   5.856   5.027
 4759SOL    HW215177   5.470   5.937   4.976
 4760SOL     OW15178   2.182   1.125   1.616
 4760SOL    HW115179   2.238   1.208   1.626
 4760SOL    HW215180   2.197   1.066   1.695
 4761SOL     OW15181   6.273   0.230   6.953
 4761SOL    HW115182   6.356   0.211   6.899
 4761SOL    HW215183   6.261   0.328   6.962
 4762SOL     OW15184   2.386   4.663   2.456
 4762SOL    HW115185   2.368   4.565   2.451
 4762SOL    HW215186   2.476   4.682   2.416
 4763SOL     OW15187   6.292   6.133   2.882
 4763SOL    HW115188   6.335   6.052   2.924
 4763SOL    HW215189   6.233   6.178   2.949
 4764SOL     OW15190   4.641   3.795   5.330
 4764SOL    HW115191   4.663   3.708   5.285
 4764SOL    HW215192   4.694   3.868   5.288
 4765SOL     OW15193   4.586   6.248   5.153
 4765SOL    HW115194   4.664   6.288   5.104
 4765SOL    HW215195   4.580   6.289   5.244
 4766SOL     OW15196   3.050   0.990   3.411
 4766SOL    HW115197   3.025   1.087   3.414
 4766SOL    HW215198   3.022   0.946   3.496
 4767SOL     OW15199   4.046   0.014   1.125
 4767SOL    HW115200   4.028   0.053   1.215
 4767SOL    HW215201   4.144   7.018   1.116
 4768SOL     OW15202   4.773   1.499   4.730
 4768SOL    HW115203   4.849   1.553   4.693
 4768SOL    HW215204   4.792   1.402   4.718
 4769SOL     OW15205   3.941   5.595   1.555
 4769SOL    HW115206   3.852   5.634   1.532
 4769SOL    HW215207   4.011   5.638   1.497
 4770SOL     OW15208   2.291   0.569   2.932
 4770SOL    HW115209   2.278   0.579   3.030
 4770SOL    HW215210   2.382   0.530   2.915
 4771SOL     OW15211   3.377   5.157   5.847
 4771SOL    HW115212   3.289   5.132   5.889
 4771SOL    HW215213   3.366   5.242   5.795
 4772SOL     OW15214   2.861   6.959   0.907
 4772SOL    HW115215   2.782   6.903   0.932
 4772SOL    HW215216   2.942   6.901   0.900
 4773SOL     OW15217   0.137   5.233   4.097
 4773SOL    HW115218   0.166   5.313   4.150
 4773SOL    HW215219   0.059   5.190   4.142
 4774SOL     OW15220   0.748   3.230   2.068
 4774SOL    HW115221   0.712   3.317   2.034
 4774SOL    HW215222   0.795   3.244   2.155
 4775SOL     OW15223   5.131   0.277   2.751
 4775SOL    HW115224   5.051   0.274   2.811
 4775SOL    HW215225   5.213   0.299   2.804
 4776SOL     OW15226   2.336   6.208   2.903
 4776SOL    HW115227   2.311   6.284   2.844
 4776SOL    HW215228   2.418   6.233   2.955
 4777SOL     OW15229   2.499   4.304   1.132
 4777SOL    HW115230   2.447   4.226   1.097
 4777SOL    HW215231   2.470   4.324   1.225
 4778SOL     OW15232   5.476   3.151   1.737
 4778SOL    HW115233   5.503   3.057   1.760
 4778SOL    HW215234   5.537   3.215   1.784
 4779SOL     OW15235   6.606   6.980   2.927
 4779SOL    HW115236   6.679   6.951   2.988
 4779SOL    HW215237   6.522   6.994   2.980
 4780SOL     OW15238   0.870   0.879   5.829
 4780SOL    HW115239   0.938   0.848   5.895
 4780SOL    HW215240   0.785   0.902   5.876
 4781SOL     OW15241   2.347   6.140   1.412
 4781SOL    HW115242   2.429   6.085   1.427
 4781SOL    HW215243   2.286   6.093   1.348
 4782SOL     OW15244   5.105   0.092   0.167
 4782SOL    HW115245   5.041   0.063   0.095
 4782SOL    HW215246   5.119   0.018   0.232
 4783SOL     OW15247   4.592   4.455   0.527
 4783SOL    HW115248   4.545   4.376   0.567
 4783SOL    HW215249   4.550   4.540   0.560
 4784SOL     OW15250   6.078   4.937   5.745
 4784SOL    HW115251   6.142   4.989   5.802
 4784SOL    HW215252   6.121   4.917   5.657
 4785SOL     OW15253   6.849   6.595   0.973
 4785SOL    HW115254   6.856   6.539   0.890
 4785SOL    HW215255   6.941   6.616   1.006
 4786SOL     OW15256   2.006   2.632   2.570
 4786SOL    HW115257   1.988   2.597   2.662
 4786SOL    HW215258   2.105   2.628   2.553
 4787SOL     OW15259   2.915   2.277   3.525
 4787SOL    HW115260   2.876   2.235   3.443
 4787SOL    HW215261   3.012   2.295   3.510
 4788SOL     OW15262   1.345   5.776   6.065
 4788SOL    HW115263   1.419   5.740   6.008
 4788SOL    HW215264   1.381   5.803   6.154
 4789SOL     OW15265   4.753   0.871   0.221
 4789SOL    HW115266   4.733   0.776   0.241
 4789SOL    HW215267   4.849   0.890   0.244
 4790SOL     OW15268   5.630   3.083   6.617
 4790SOL    HW115269   5.555   3.016   6.612
 4790SOL    HW215270   5.600   3.169   6.576
 4791SOL     OW15271   5.991   0.513   2.217
 4791SOL    HW115272   6.026   0.420   2.209
 4791SOL    HW215273   5.974   0.550   2.126
 4792SOL     OW15274   2.183   3.150   2.763
 4792SOL    HW115275   2.138   3.073   2.808
 4792SOL    HW215276   2.223   3.118   2.677
 4793SOL     OW15277   1.730   0.470   6.006
 4793SOL    HW115278   1.813   0.426   6.041
 4793SOL    HW215279   1.672   0.401   5.963
 4794SOL     OW15280   3.761   6.972   2.708
 4794SOL    HW115281   3.807   0.038   2.717
 4794SOL    HW215282   3.714   6.968   2.619
 4795SOL     OW15283   6.874   3.059   4.621
 4795SOL    HW115284   6.778   3.077   4.598
 4795SOL    HW215285   6.933   3.100   4.551
 4796SOL     OW15286   5.087   2.508   0.146
 4796SOL    HW115287   5.078   2.491   0.244
 4796SOL    HW215288   5.046   2.597   0.123
 4797SOL     OW15289   1.786   5.616   6.208
 4797SOL    HW115290   1.875   5.625   6.251
 4797SOL    HW215291   1.719   5.585   6.276
 4798SOL     OW15292   0.457   4.375   5.404
 4798SOL    HW115293   0.460   4.417   5.313
 4798SOL    HW215294   0.487   4.442   5.472
 4799SOL     OW15295   5.649   1.494   5.014
 4799SOL    HW115296   5.602   1.511   4.927
 4799SOL    HW215297   5.621   1.561   5.082
 4800SOL     OW15298   3.022   3.129   6.363
 4800SOL    HW115299   2.943   3.184   6.338
 4800SOL    HW215300   2.991   3.045   6.408
 4801SOL     OW15301   1.927   2.183   0.124
 4801SOL    HW115302   1.875   2.130   0.191
 4801SOL    HW215303   1.887   2.274   0.115
 4802SOL     OW15304   1.693   6.582   2.471
 4802SOL    HW115305   1.606   6.630   2.482
 4802SOL    HW215306   1.762   6.647   2.438
 4803SOL     OW15307   0.582   6.954   1.128
 4803SOL    HW115308   0.574   6.941   1.227
 4803SOL    HW215309   0.542   0.019   1.102
 4804SOL     OW15310   4.189   5.726   6.755
 4804SOL    HW115311   4.261   5.746   6.822
 4804SOL    HW215312   4.111   5.683   6.801
 4805SOL     OW15313   6.762   0.011   0.617
 4805SOL    HW115314   6.814   0.004   0.702
 4805SOL    HW215315   6.717   0.101   0.613
 4806SOL     OW15316   6.816   3.918   3.331
 4806SOL    HW115317   6.901   3.867   3.318
 4806SOL    HW215318   6.745   3.883   3.270
 4807SOL     OW15319   0.864   5.798   1.548
 4807SOL    HW115320   0.766   5.785   1.560
 4807SOL    HW215321   0.894   5.878   1.599
 4808SOL     OW15322   5.688   3.433   0.920
 4808SOL    HW115323   5.622   3.437   0.996
 4808SOL    HW215324   5.780   3.451   0.955
 4809SOL     OW15325   3.372   4.325   0.026
 4809SOL    HW115326   3.313   4.400   7.020
 4809SOL    HW215327   3.455   4.325   6.993
 4810SOL     OW15328   0.835   5.096   1.173
 4810SOL    HW115329   0.905   5.120   1.240
 4810SOL    HW215330   0.806   5.178   1.124
 4811SOL     OW15331   2.510   5.245   1.984
 4811SOL    HW115332   2.563   5.265   2.066
 4811SOL    HW215333   2.458   5.326   1.957
 4812SOL     OW15334   6.684   5.371   4.823
 4812SOL    HW115335   6.644   5.333   4.740
 4812SOL    HW215336   6.753   5.309   4.859
 4813SOL     OW15337   5.216   1.447   3.035
 4813SOL    HW115338   5.180   1.534   3.068
 4813SOL    HW215339   5.160   1.372   3.070
 4814SOL     OW15340   6.521   4.981   0.984
 4814SOL    HW115341   6.493   4.906   0.925
 4814SOL    HW215342   6.445   5.044   0.999
 4815SOL     OW15343   4.887   4.868   2.687
 4815SOL    HW115344   4.935   4.783   2.708
 4815SOL    HW215345   4.862   4.914   2.773
 4816SOL     OW15346   5.618   5.335   3.172
 4816SOL    HW115347   5.576   5.311   3.085
 4816SOL    HW215348   5.547   5.355   3.239
 4817SOL     OW15349   0.914   2.006   5.702
 4817SOL    HW115350   1.007   2.019   5.667
 4817SOL    HW215351   0.918   1.950   5.785
 4818SOL     OW15352   0.605   6.781   3.616
 4818SOL    HW115353   0.510   6.762   3.638
 4818SOL    HW215354   0.611   6.869   3.568
 4819SOL     OW15355   1.498   3.191   0.352
 4819SOL    HW115356   1.446   3.167   0.434
 4819SOL    HW215357   1.446   3.163   0.270
 4820SOL     OW15358   6.699   2.973   1.380
 4820SOL    HW115359   6.716   2.975   1.479
 4820SOL    HW215360   6.727   3.059   1.339
 4821SOL     OW15361   0.305   6.218   1.795
 4821SOL    HW115362   0.248   6.298   1.813
 4821SOL    HW215363   0.275   6.142   1.853
 4822SOL     OW15364   1.301   3.804   4.288
 4822SOL    HW115365   1.256   3.785   4.375
 4822SOL    HW215366   1.245   3.768   4.213
 4823SOL     OW15367   1.028   2.467   2.523
 4823SOL    HW115368   1.030   2.524   2.441
 4823SOL    HW215369   0.988   2.518   2.599
 4824SOL     OW15370   5.237   1.274   5.246
 4824SOL    HW115371   5.167   1.258   5.176
 4824SOL    HW215372   5.325   1.238   5.215
 4825SOL     OW15373   0.986   0.610   4.464
 4825SOL    HW115374   0.921   0.646   4.531
 4825SOL    HW215375   1.067   0.575   4.511
 4826SOL     OW15376   4.560   0.429   1.328
 4826SOL    HW115377   4.596   0.403   1.418
 4826SOL    HW215378   4.618   0.501   1.289
 4827SOL     OW15379   6.701   1.840   0.105
 4827SOL    HW115380   6.751   1.921   0.135
 4827SOL    HW215381   6.609   1.841   0.145
 4828SOL     OW15382   4.739   0.213   1.793
 4828SOL    HW115383   4.651   0.255   1.770
 4828SOL    HW215384   4.731   0.113   1.784
 4829SOL     OW15385   4.408   0.215   6.323
 4829SOL    HW115386   4.371   0.154   6.253
 4829SOL    HW215387   4.494   0.179   6.357
 4830SOL     OW15388   4.346   5.772   3.798
 4830SOL    HW115389   4.358   5.812   3.889
 4830SOL    HW215390   4.307   5.841   3.737
 4831SOL     OW15391   3.445   5.759   5.969
 4831SOL    HW115392   3.379   5.720   6.033
 4831SOL    HW215393   3.397   5.802   5.893
 4832SOL     OW15394   3.272   3.585   4.996
 4832SOL    HW115395   3.257   3.502   4.942
 4832SOL    HW215396   3.370   3.599   5.010
 4833SOL     OW15397   6.002   2.340   4.380
 4833SOL    HW115398   5.910   2.374   4.359
 4833SOL    HW215399   6.040   2.293   4.300
 4834SOL     OW15400   2.558   5.480   2.194
 4834SOL    HW115401   2.617   5.522   2.262
 4834SOL    HW215402   2.466   5.469   2.232
 4835SOL     OW15403   6.784   3.716   6.020
 4835SOL    HW115404   6.873   3.754   6.045
 4835SOL    HW215405   6.786   3.616   6.029
 4836SOL     OW15406   4.810   0.883   5.147
 4836SOL    HW115407   4.740   0.876   5.076
 4836SOL    HW215408   4.900   0.883   5.104
 4837SOL     OW15409   6.678   3.185   3.989
 4837SOL    HW115410   6.588   3.149   3.965
 4837SOL    HW215411   6.729   3.115   4.039
 4838SOL     OW15412   1.263   4.706   6.060
 4838SOL    HW115413   1.286   4.619   6.016
 4838SOL    HW215414   1.272   4.781   5.995
 4839SOL     OW15415   1.504   2.789   6.971
 4839SOL    HW115416   1.479   2.886   6.976
 4839SOL    HW215417   1.582   2.772   0.008
 4840SOL     OW15418   4.998   3.929   5.396
 4840SOL    HW115419   4.926   3.998   5.389
 4840SOL    HW215420   4.977   3.852   5.336
 4841SOL     OW15421   2.938   5.387   3.620
 4841SOL    HW115422   2.874   5.310   3.610
 4841SOL    HW215423   3.013   5.376   3.555
 4842SOL     OW15424   2.246   5.153   2.874
 4842SOL    HW115425   2.254   5.117   2.781
 4842SOL    HW215426   2.338   5.163   2.913
 4843SOL     OW15427   0.187   2.725   2.187
 4843SOL    HW115428   0.160   2.813   2.227
 4843SOL    HW215429   0.187   2.655   2.257
 4844SOL     OW15430   1.322   4.899   5.231
 4844SOL    HW115431   1.360   4.910   5.140
 4844SOL    HW215432   1.391   4.920   5.300
 4845SOL     OW15433   4.473   4.346   5.255
 4845SOL    HW115434   4.557   4.363   5.203
 4845SOL    HW215435   4.404   4.413   5.228
 4846SOL     OW15436   0.525   2.719   4.055
 4846SOL    HW115437   0.550   2.630   4.092
 4846SOL    HW215438   0.426   2.731   4.060
 4847SOL     OW15439   2.950   6.895   5.881
 4847SOL    HW115440   2.977   6.965   5.948
 4847SOL    HW215441   2.902   6.821   5.927
 4848SOL     OW15442   2.268   1.355   3.922
 4848SOL    HW115443   2.315   1.272   3.952
 4848SOL    HW215444   2.264   1.421   3.997
 4849SOL     OW15445   2.315   0.665   0.429
 4849SOL    HW115446   2.316   0.589   0.493
 4849SOL    HW215447   2.227   0.713   0.435
 4850SOL     OW15448   4.576   0.884   1.215
 4850SOL    HW115449   4.496   0.944   1.215
 4850SOL    HW215450   4.659   0.940   1.209
 4851SOL     OW15451   3.456   5.959   0.129
 4851SOL    HW115452   3.417   6.041   0.089
 4851SOL    HW215453   3.555   5.968   0.135
 4852SOL     OW15454   3.841   5.749   5.071
 4852SOL    HW115455   3.783   5.814   5.023
 4852SOL    HW215456   3.928   5.792   5.094
 4853SOL     OW15457   3.380   0.857   3.109
 4853SOL    HW115458   3.424   0.865   3.019
 4853SOL    HW215459   3.439   0.802   3.169
 4854SOL     OW15460   5.775   6.172   1.570
 4854SOL    HW115461   5.732   6.183   1.480
 4854SOL    HW215462   5.720   6.110   1.626
 4855SOL     OW15463   6.789   4.455   5.297
 4855SOL    HW115464   6.714   4.394   5.273
 4855SOL    HW215465   6.847   4.411   5.365
 4856SOL     OW15466   0.484   3.621   2.591
 4856SOL    HW115467   0.490   3.720   2.579
 4856SOL    HW215468   0.556   3.577   2.538
 4857SOL     OW15469   3.064   2.160   4.409
 4857SOL    HW115470   3.109   2.157   4.498
 4857SOL    HW215471   2.993   2.231   4.410
 4858SOL     OW15472   0.661   0.060   5.315
 4858SOL    HW115473   0.700   7.004   5.266
 4858SOL    HW215474   0.565   0.040   5.338
 4859SOL     OW15475   0.767   5.814   1.961
 4859SOL    HW115476   0.864   5.796   1.946
 4859SOL    HW215477   0.716   5.728   1.961
 4860SOL     OW15478   5.032   5.210   0.444
 4860SOL    HW115479   5.115   5.229   0.496
 4860SOL    HW215480   5.040   5.249   0.352
 4861SOL     OW15481   6.465   4.925   5.804
 4861SOL    HW115482   6.389   4.884   5.854
 4861SOL    HW215483   6.549   4.874   5.824
 4862SOL     OW15484   2.804   4.762   4.774
 4862SOL    HW115485   2.861   4.844   4.776
 4862SOL    HW215486   2.798   4.724   4.867
 4863SOL     OW15487   4.685   2.749   2.738
 4863SOL    HW115488   4.655   2.713   2.650
 4863SOL    HW215489   4.750   2.824   2.723
 4864SOL     OW15490   3.058   1.053   1.908
 4864SOL    HW115491   3.056   1.007   1.819
 4864SOL    HW215492   3.046   1.151   1.894
 4865SOL     OW15493   3.699   5.260   5.794
 4865SOL    HW115494   3.676   5.165   5.813
 4865SOL    HW215495   3.616   5.315   5.798
 4866SOL     OW15496   6.012   5.210   1.751
 4866SOL    HW115497   6.039   5.174   1.840
 4866SOL    HW215498   5.913   5.200   1.739
 4867SOL     OW15499   5.248   5.004   2.722
 4867SOL    HW115500   5.174   5.003   2.789
 4867SOL    HW215501   5.215   5.045   2.636
 4868SOL     OW15502   0.566   5.296   1.149
 4868SOL    HW115503   0.642   5.348   1.111
 4868SOL    HW215504   0.481   5.318   1.100
 4869SOL     OW15505   6.707   1.540   0.178
 4869SOL    HW115506   6.750   1.456   0.146
 4869SOL    HW215507   6.746   1.618   0.130
 4870SOL     OW15508   4.325   6.270   1.904
 4870SOL    HW115509   4.307   6.270   1.805
 4870SOL    HW215510   4.320   6.364   1.938
 4871SOL     OW15511   1.265   2.294   3.429
 4871SOL    HW115512   1.175   2.334   3.409
 4871SOL    HW215513   1.259   2.195   3.422
 4872SOL     OW15514   1.116   0.219   2.914
 4872SOL    HW115515   1.182   0.151   2.882
 4872SOL    HW215516   1.077   0.189   3.001
 4873SOL     OW15517   0.277   5.247   4.414
 4873SOL    HW115518   0.294   5.255   4.513
 4873SOL    HW215519   0.318   5.325   4.367
 4874SOL     OW15520   5.169   3.750   3.709
 4874SOL    HW115521   5.211   3.841   3.709
 4874SOL    HW215522   5.188   3.704   3.622
 4875SOL     OW15523   5.360   1.849   0.656
 4875SOL    HW115524   5.384   1.815   0.564
 4875SOL    HW215525   5.340   1.771   0.715
 4876SOL     OW15526   6.291   0.813   6.284
 4876SOL    HW115527   6.204   0.766   6.299
 4876SOL    HW215528   6.274   0.905   6.250
 4877SOL     OW15529   6.001   1.692   0.987
 4877SOL    HW115530   5.948   1.744   0.920
 4877SOL    HW215531   6.004   1.740   1.074
 4878SOL     OW15532   0.097   1.385   1.792
 4878SOL    HW115533   0.149   1.393   1.877
 4878SOL    HW215534   0.075   1.476   1.758
 4879SOL     OW15535   4.153   4.917   3.584
 4879SOL    HW115536   4.197   4.829   3.566
 4879SOL    HW215537   4.215   4.975   3.635
 4880SOL     OW15538   5.894   0.990   0.406
 4880SOL    HW115539   5.815   1.043   0.438
 4880SOL    HW215540   5.898   0.904   0.456
 4881SOL     OW15541   3.296   6.728   6.281
 4881SOL    HW115542   3.201   6.749   6.306
 4881SOL    HW215543   3.300   6.709   6.183
 4882SOL     OW15544   5.719   1.200   5.402
 4882SOL    HW115545   5.764   1.116   5.371
 4882SOL    HW215546   5.658   1.179   5.478
 4883SOL     OW15547   6.001   4.575   2.132
 4883SOL    HW115548   5.919   4.565   2.075
 4883SOL    HW215549   6.079   4.597   2.075
 4884SOL     OW15550   3.771   6.436   1.736
 4884SOL    HW115551   3.759   6.416   1.834
 4884SOL    HW215552   3.863   6.410   1.708
 4885SOL     OW15553   1.823   6.897   1.258
 4885SOL    HW115554   1.748   6.893   1.324
 4885SOL    HW215555   1.910   6.898   1.307
 4886SOL     OW15556   6.438   0.553   0.396
 4886SOL    HW115557   6.377   0.600   0.459
 4886SOL    HW215558   6.389   0.479   0.351
 4887SOL     OW15559   0.463   2.230   3.740
 4887SOL    HW115560   0.533   2.234   3.670
 4887SOL    HW215561   0.488   2.289   3.817
 4888SOL     OW15562   1.637   5.831   2.883
 4888SOL    HW115563   1.709   5.774   2.844
 4888SOL    HW215564   1.634   5.919   2.837
 4889SOL     OW15565   1.066   1.932   7.011
 4889SOL    HW115566   1.043   1.883   0.073
 4889SOL    HW215567   1.147   1.989   0.003
 4890SOL     OW15568   0.810   0.763   4.602
 4890SOL    HW115569   0.797   0.762   4.701
 4890SOL    HW215570   0.721   0.773   4.557
 4891SOL     OW15571   0.947   4.756   0.864
 4891SOL    HW115572   0.893   4.826   0.911
 4891SOL    HW215573   0.907   4.738   0.774
 4892SOL     OW15574   1.093   5.607   1.558
 4892SOL    HW115575   1.021   5.673   1.578
 4892SOL    HW215576   1.141   5.635   1.474
 4893SOL     OW15577   7.021   3.769   6.381
 4893SOL    HW115578   0.053   3.821   6.447
 4893SOL    HW215579   6.935   3.816   6.365
 4894SOL     OW15580   1.664   0.741   3.012
 4894SOL    HW115581   1.655   0.658   2.957
 4894SOL    HW215582   1.574   0.766   3.048
 4895SOL     OW15583   0.794   3.134   0.516
 4895SOL    HW115584   0.862   3.167   0.450
 4895SOL    HW215585   0.729   3.074   0.469
 4896SOL     OW15586   3.608   5.123   4.642
 4896SOL    HW115587   3.537   5.055   4.654
 4896SOL    HW215588   3.698   5.081   4.654
 4897SOL     OW15589   3.491   5.650   0.114
 4897SOL    HW115590   3.500   5.748   0.133
 4897SOL    HW215591   3.576   5.604   0.137
 4898SOL     OW15592   5.549   2.002   5.624
 4898SOL    HW115593   5.538   2.100   5.606
 4898SOL    HW215594   5.471   1.969   5.677
 4899SOL     OW15595   6.041   4.493   3.374
 4899SOL    HW115596   6.117   4.512   3.313
 4899SOL    HW215597   6.062   4.529   3.465
 4900SOL     OW15598   0.552   6.543   5.829
 4900SOL    HW115599   0.629   6.560   5.891
 4900SOL    HW215600   0.466   6.557   5.878
 4901SOL     OW15601   0.676   6.303   3.952
 4901SOL    HW115602   0.592   6.262   3.988
 4901SOL    HW215603   0.660   6.400   3.934
 4902SOL     OW15604   2.602   5.036   1.855
 4902SOL    HW115605   2.647   4.980   1.924
 4902SOL    HW215606   2.549   5.108   1.899
 4903SOL     OW15607   4.393   0.178   6.878
 4903SOL    HW115608   4.336   0.102   6.847
 4903SOL    HW215609   4.396   0.248   6.808
 4904SOL     OW15610   1.936   6.047   4.343
 4904SOL    HW115611   1.852   6.100   4.352
 4904SOL    HW215612   2.009   6.090   4.396
 4905SOL     OW15613   5.007   2.786   1.654
 4905SOL    HW115614   4.971   2.785   1.747
 4905SOL    HW215615   4.934   2.813   1.591
 4906SOL     OW15616   4.795   0.152   0.496
 4906SOL    HW115617   4.848   0.153   0.411
 4906SOL    HW215618   4.764   0.058   0.514
 4907SOL     OW15619   4.138   0.051   3.806
 4907SOL    HW115620   4.048   0.044   3.848
 4907SOL    HW215621   4.178   0.140   3.826
 4908SOL     OW15622   3.381   6.053   6.824
 4908SOL    HW115623   3.296   6.102   6.844
 4908SOL    HW215624   3.375   6.010   6.734
 4909SOL     OW15625   6.455   6.603   5.447
 4909SOL    HW115626   6.550   6.583   5.422
 4909SOL    HW215627   6.396   6.530   5.412
 4910SOL     OW15628   5.135   0.582   5.141
 4910SOL    HW115629   5.103   0.569   5.047
 4910SOL    HW215630   5.204   0.653   5.143
 4911SOL     OW15631   0.159   2.403   5.779
 4911SOL    HW115632   0.254   2.374   5.767
 4911SOL    HW215633   0.130   2.455   5.699
 4912SOL     OW15634   3.815   1.992   2.405
 4912SOL    HW115635   3.822   2.064   2.474
 4912SOL    HW215636   3.727   2.000   2.357
 4913SOL     OW15637   3.427   3.657   3.393
 4913SOL    HW115638   3.436   3.576   3.451
 4913SOL    HW215639   3.368   3.637   3.315
 4914SOL     OW15640   2.169   6.974   3.393
 4914SOL    HW115641   2.266   6.963   3.370
 4914SOL    HW215642   2.122   7.018   3.316
 4915SOL     OW15643   3.880   6.566   4.046
 4915SOL    HW115644   3.978   6.544   4.041
 4915SOL    HW215645   3.827   6.493   4.003
 4916SOL     OW15646   2.819   2.199   3.287
 4916SOL    HW115647   2.773   2.246   3.212
 4916SOL    HW215648   2.910   2.170   3.258
 4917SOL     OW15649   1.983   4.245   0.761
 4917SOL    HW115650   1.912   4.184   0.795
 4917SOL    HW215651   1.941   4.327   0.723
 4918SOL     OW15652   2.581   0.264   2.219
 4918SOL    HW115653   2.678   0.245   2.204
 4918SOL    HW215654   2.544   0.314   2.140
 4919SOL     OW15655   1.845   2.428   2.474
 4919SOL    HW115656   1.778   2.432   2.548
 4919SOL    HW215657   1.914   2.498   2.488
 4920SOL     OW15658   4.158   1.032   0.506
 4920SOL    HW115659   4.149   0.996   0.598
 4920SOL    HW215660   4.247   1.077   0.496
 4921SOL     OW15661   2.264   3.966   1.617
 4921SOL    HW115662   2.351   3.938   1.578
 4921SOL    HW215663   2.270   3.963   1.717
 4922SOL     OW15664   1.487   3.292   5.518
 4922SOL    HW115665   1.580   3.281   5.483
 4922SOL    HW215666   1.424   3.306   5.441
 4923SOL     OW15667   5.387   0.643   1.690
 4923SOL    HW115668   5.360   0.738   1.676
 4923SOL    HW215669   5.305   0.588   1.707
 4924SOL     OW15670   0.815   3.788   4.115
 4924SOL    HW115671   0.883   3.845   4.068
 4924SOL    HW215672   0.848   3.766   4.207
 4925SOL     OW15673   4.774   6.531   0.770
 4925SOL    HW115674   4.785   6.455   0.835
 4925SOL    HW215675   4.796   6.617   0.815
 4926SOL     OW15676   5.106   2.392   2.066
 4926SOL    HW115677   5.187   2.333   2.068
 4926SOL    HW215678   5.131   2.483   2.099
 4927SOL     OW15679   3.312   3.067   3.161
 4927SOL    HW115680   3.243   3.034   3.097
 4927SOL    HW215681   3.292   3.161   3.186
 4928SOL     OW15682   0.668   6.593   7.001
 4928SOL    HW115683   0.612   6.641   6.934
 4928SOL    HW215684   0.749   6.555   6.956
 4929SOL     OW15685   1.385   4.944   4.632
 4929SOL    HW115686   1.312   4.883   4.661
 4929SOL    HW215687   1.411   4.923   4.537
 4930SOL     OW15688   0.465   1.898   0.345
 4930SOL    HW115689   0.375   1.937   0.326
 4930SOL    HW215690   0.477   1.813   0.295
 4931SOL     OW15691   0.513   0.185   0.633
 4931SOL    HW115692   0.576   0.172   0.556
 4931SOL    HW215693   0.561   0.232   0.707
 4932SOL     OW15694   2.452   2.398   1.549
 4932SOL    HW115695   2.437   2.306   1.512
 4932SOL    HW215696   2.458   2.463   1.473
 4933SOL     OW15697   2.605   1.369   4.049
 4933SOL    HW115698   2.646   1.285   4.087
 4933SOL    HW215699   2.677   1.435   4.028
 4934SOL     OW15700   0.328   5.037   4.029
 4934SOL    HW115701   0.294   4.970   3.963
 4934SOL    HW215702   0.266   5.115   4.032
 4935SOL     OW15703   2.299   1.629   6.945
 4935SOL    HW115704   2.228   1.697   6.932
 4935SOL    HW215705   2.263   1.538   6.921
 4936SOL     OW15706   3.627   5.936   1.624
 4936SOL    HW115707   3.575   6.014   1.588
 4936SOL    HW215708   3.615   5.932   1.724
 4937SOL     OW15709   1.154   3.115   5.938
 4937SOL    HW115710   1.109   3.026   5.946
 4937SOL    HW215711   1.147   3.164   6.025
 4938SOL     OW15712   3.213   4.709   1.174
 4938SOL    HW115713   3.212   4.784   1.241
 4938SOL    HW215714   3.194   4.623   1.220
 4939SOL     OW15715   1.162   1.542   1.687
 4939SOL    HW115716   1.089   1.569   1.750
 4939SOL    HW215717   1.162   1.442   1.678
 4940SOL     OW15718   6.980   2.681   4.033
 4940SOL    HW115719   6.925   2.764   4.033
 4940SOL    HW215720   6.966   2.630   3.948
 4941SOL     OW15721   4.120   2.335   5.290
 4941SOL    HW115722   4.081   2.319   5.380
 4941SOL    HW215723   4.126   2.433   5.273
 4942SOL     OW15724   5.416   2.767   3.587
 4942SOL    HW115725   5.320   2.756   3.562
 4942SOL    HW215726   5.472   2.770   3.504
 4943SOL     OW15727   5.309   3.299   6.449
 4943SOL    HW115728   5.256   3.234   6.395
 4943SOL    HW215729   5.290   3.284   6.546
 4944SOL     OW15730   1.755   4.577   1.207
 4944SOL    HW115731   1.671   4.538   1.244
 4944SOL    HW215732   1.810   4.616   1.281
 4945SOL     OW15733   1.890   0.808   4.882
 4945SOL    HW115734   1.812   0.760   4.843
 4945SOL    HW215735   1.873   0.827   4.978
 4946SOL     OW15736   1.467   4.558   0.723
 4946SOL    HW115737   1.385   4.570   0.667
 4946SOL    HW215738   1.492   4.645   0.765
 4947SOL     OW15739   1.664   1.043   1.724
 4947SOL    HW115740   1.687   1.077   1.634
 4947SOL    HW215741   1.709   0.955   1.739
 4948SOL     OW15742   1.744   2.316   1.435
 4948SOL    HW115743   1.654   2.356   1.414
 4948SOL    HW215744   1.758   2.318   1.534
 4949SOL     OW15745   6.322   2.943   6.179
 4949SOL    HW115746   6.382   2.978   6.251
 4949SOL    HW215747   6.365   2.866   6.133
 4950SOL     OW15748   2.552   4.451   5.513
 4950SOL    HW115749   2.625   4.452   5.446
 4950SOL    HW215750   2.531   4.545   5.542
 4951SOL     OW15751   5.575   6.396   3.796
 4951SOL    HW115752   5.490   6.400   3.849
 4951SOL    HW215753   5.553   6.379   3.700
 4952SOL     OW15754   0.029   0.266   6.045
 4952SOL    HW115755   0.103   0.253   5.979
 4952SOL    HW215756   7.011   0.356   6.033
 4953SOL     OW15757   1.461   2.044   5.229
 4953SOL    HW115758   1.369   2.041   5.269
 4953SOL    HW215759   1.520   1.980   5.278
 4954SOL     OW15760   2.829   4.131   5.388
 4954SOL    HW115761   2.852   4.066   5.316
 4954SOL    HW215762   2.732   4.155   5.382
 4955SOL     OW15763   3.179   5.887   0.183
 4955SOL    HW115764   3.275   5.912   0.174
 4955SOL    HW215765   3.166   5.829   0.263
 4956SOL     OW15766   2.179   0.377   4.676
 4956SOL    HW115767   2.121   0.332   4.745
 4956SOL    HW215768   2.200   0.312   4.603
 4957SOL     OW15769   6.442   4.095   6.584
 4957SOL    HW115770   6.454   4.119   6.488
 4957SOL    HW215771   6.528   4.063   6.622
 4958SOL     OW15772   2.907   0.344   6.134
 4958SOL    HW115773   2.813   0.323   6.109
 4958SOL    HW215774   2.918   0.337   6.233
 4959SOL     OW15775   6.945   2.556   1.569
 4959SOL    HW115776   6.861   2.571   1.621
 4959SOL    HW215777   7.009   2.503   1.625
 4960SOL     OW15778   3.865   4.860   3.652
 4960SOL    HW115779   3.963   4.877   3.647
 4960SOL    HW215780   3.832   4.830   3.562
 4961SOL     OW15781   2.908   1.052   6.767
 4961SOL    HW115782   2.919   0.959   6.803
 4961SOL    HW215783   2.944   1.057   6.674
 4962SOL     OW15784   6.533   3.676   1.184
 4962SOL    HW115785   6.580   3.608   1.128
 4962SOL    HW215786   6.435   3.659   1.181
 4963SOL     OW15787   0.645   4.298   0.366
 4963SOL    HW115788   0.741   4.277   0.346
 4963SOL    HW215789   0.627   4.394   0.343
 4964SOL     OW15790   2.776   6.540   4.602
 4964SOL    HW115791   2.829   6.622   4.580
 4964SOL    HW215792   2.679   6.563   4.603
 4965SOL     OW15793   1.332   6.610   2.852
 4965SOL    HW115794   1.362   6.594   2.946
 4965SOL    HW215795   1.268   6.686   2.850
 4966SOL     OW15796   2.951   6.477   4.330
 4966SOL    HW115797   2.962   6.561   4.383
 4966SOL    HW215798   3.012   6.406   4.367
 4967SOL     OW15799   4.053   4.600   5.378
 4967SOL    HW115800   4.102   4.520   5.413
 4967SOL    HW215801   3.955   4.583   5.382
 4968SOL     OW15802   0.442   1.167   3.768
 4968SOL    HW115803   0.466   1.264   3.775
 4968SOL    HW215804   0.518   1.112   3.803
 4969SOL     OW15805   0.816   6.429   1.939
 4969SOL    HW115806   0.733   6.440   1.885
 4969SOL    HW215807   0.793   6.423   2.036
 4970SOL     OW15808   1.766   1.162   1.518
 4970SOL    HW115809   1.682   1.173   1.466
 4970SOL    HW215810   1.779   1.242   1.577
 4971SOL     OW15811   6.827   5.921   2.931
 4971SOL    HW115812   6.733   5.943   2.905
 4971SOL    HW215813   6.847   5.962   3.020
 4972SOL     OW15814   1.803   4.082   1.319
 4972SOL    HW115815   1.871   4.013   1.295
 4972SOL    HW215816   1.740   4.096   1.243
 4973SOL     OW15817   0.120   0.785   1.029
 4973SOL    HW115818   0.154   0.863   1.082
 4973SOL    HW215819   0.194   0.720   1.014
 4974SOL     OW15820   3.877   4.207   6.313
 4974SOL    HW115821   3.798   4.210   6.375
 4974SOL    HW215822   3.874   4.123   6.260
 4975SOL     OW15823   5.840   3.459   0.310
 4975SOL    HW115824   5.923   3.403   0.307
 4975SOL    HW215825   5.766   3.406   0.352
 4976SOL     OW15826   1.026   0.132   4.375
 4976SOL    HW115827   1.049   0.186   4.294
 4976SOL    HW215828   1.079   0.047   4.374
 4977SOL     OW15829   2.906   5.178   6.028
 4977SOL    HW115830   2.976   5.152   5.962
 4977SOL    HW215831   2.829   5.114   6.023
 4978SOL     OW15832   4.974   4.434   5.485
 4978SOL    HW115833   5.073   4.439   5.476
 4978SOL    HW215834   4.932   4.444   5.394
 4979SOL     OW15835   1.957   0.243   6.662
 4979SOL    HW115836   1.883   0.196   6.708
 4979SOL    HW215837   2.011   0.177   6.609
 4980SOL     OW15838   6.437   4.213   3.245
 4980SOL    HW115839   6.407   4.297   3.290
 4980SOL    HW215840   6.363   4.177   3.188
 4981SOL     OW15841   3.327   4.884   1.934
 4981SOL    HW115842   3.239   4.844   1.910
 4981SOL    HW215843   3.396   4.811   1.935
 4982SOL     OW15844   4.578   1.272   6.685
 4982SOL    HW115845   4.480   1.264   6.704
 4982SOL    HW215846   4.593   1.350   6.624
 4983SOL     OW15847   6.464   5.082   4.047
 4983SOL    HW115848   6.460   5.004   4.109
 4983SOL    HW215849   6.510   5.055   3.963
 4984SOL     OW15850   4.574   4.579   3.412
 4984SOL    HW115851   4.547   4.514   3.483
 4984SOL    HW215852   4.615   4.659   3.455
 4985SOL     OW15853   5.851   5.828   2.602
 4985SOL    HW115854   5.872   5.846   2.698
 4985SOL    HW215855   5.909   5.885   2.544
 4986SOL     OW15856   0.361   4.679   1.933
 4986SOL    HW115857   0.443   4.720   1.971
 4986SOL    HW215858   0.304   4.750   1.892
 4987SOL     OW15859   0.978   6.997   2.570
 4987SOL    HW115860   0.937   0.022   2.492
 4987SOL    HW215861   0.911   6.988   2.643
 4988SOL     OW15862   5.986   0.462   3.755
 4988SOL    HW115863   5.993   0.405   3.837
 4988SOL    HW215864   6.016   0.555   3.776
 4989SOL     OW15865   5.309   1.054   2.175
 4989SOL    HW115866   5.282   1.141   2.133
 4989SOL    HW215867   5.252   1.036   2.254
 4990SOL     OW15868   4.239   1.469   6.566
 4990SOL    HW115869   4.239   1.377   6.604
 4990SOL    HW215870   4.296   1.529   6.623
 4991SOL     OW15871   0.587   6.101   4.642
 4991SOL    HW115872   0.621   6.118   4.734
 4991SOL    HW215873   0.616   6.010   4.611
 4992SOL     OW15874   6.862   0.593   3.522
 4992SOL    HW115875   6.786   0.636   3.473
 4992SOL    HW215876   6.880   0.503   3.482
 4993SOL     OW15877   4.551   6.423   5.365
 4993SOL    HW115878   4.636   6.464   5.401
 4993SOL    HW215879   4.491   6.400   5.441
 4994SOL     OW15880   2.713   5.409   5.506
 4994SOL    HW115881   2.798   5.423   5.455
 4994SOL    HW215882   2.735   5.378   5.599
 4995SOL     OW15883   0.658   0.451   4.538
 4995SOL    HW115884   0.724   0.389   4.494
 4995SOL    HW215885   0.606   0.400   4.607
 4996SOL     OW15886   6.977   2.156   4.186
 4996SOL    HW115887   0.024   2.166   4.115
 4996SOL    HW215888   7.013   2.098   4.259
 4997SOL     OW15889   3.488   2.263   1.466
 4997SOL    HW115890   3.485   2.359   1.496
 4997SOL    HW215891   3.465   2.259   1.369
 4998SOL     OW15892   1.498   3.107   3.355
 4998SOL    HW115893   1.428   3.040   3.379
 4998SOL    HW215894   1.554   3.127   3.435
 4999SOL     OW15895   0.938   3.280   4.965
 4999SOL    HW115896   0.979   3.238   5.046
 4999SOL    HW215897   0.873   3.351   4.993
 5000SOL     OW15898   3.113   6.024   3.357
 5000SOL    HW115899   3.114   6.111   3.307
 5000SOL    HW215900   3.062   6.036   3.442
 5001SOL     OW15901   0.676   5.329   2.625
 5001SOL    HW115902   0.721   5.285   2.703
 5001SOL    HW215903   0.594   5.278   2.600
 5002SOL     OW15904   0.654   4.846   2.366
 5002SOL    HW115905   0.649   4.798   2.453
 5002SOL    HW215906   0.645   4.945   2.382
 5003SOL     OW15907   4.060   5.808   3.108
 5003SOL    HW115908   4.071   5.787   3.206
 5003SOL    HW215909   4.147   5.843   3.072
 5004SOL     OW15910   3.494   5.913   6.348
 5004SOL    HW115911   3.410   5.918   6.294
 5004SOL    HW215912   3.572   5.901   6.286
 5005SOL     OW15913   2.631   3.151   6.600
 5005SOL    HW115914   2.681   3.065   6.591
 5005SOL    HW215915   2.677   3.222   6.547
 5006SOL     OW15916   5.476   1.544   2.165
 5006SOL    HW115917   5.567   1.580   2.186
 5006SOL    HW215918   5.409   1.588   2.224
 5007SOL     OW15919   6.388   0.497   0.925
 5007SOL    HW115920   6.288   0.500   0.917
 5007SOL    HW215921   6.428   0.571   0.871
 5008SOL     OW15922   6.576   6.595   1.711
 5008SOL    HW115923   6.644   6.648   1.659
 5008SOL    HW215924   6.602   6.499   1.711
 5009SOL     OW15925   0.780   2.738   0.686
 5009SOL    HW115926   0.861   2.737   0.745
 5009SOL    HW215927   0.703   2.776   0.737
 5010SOL     OW15928   3.505   2.554   0.599
 5010SOL    HW115929   3.507   2.616   0.678
 5010SOL    HW215930   3.589   2.500   0.598
 5011SOL     OW15931   1.673   3.559   0.216
 5011SOL    HW115932   1.654   3.618   0.294
 5011SOL    HW215933   1.759   3.587   0.173
 5012SOL     OW15934   5.572   2.427   5.265
 5012SOL    HW115935   5.556   2.328   5.261
 5012SOL    HW215936   5.492   2.472   5.305
 5013SOL     OW15937   6.173   0.428   5.671
 5013SOL    HW115938   6.106   0.472   5.611
 5013SOL    HW215939   6.262   0.472   5.658
 5014SOL     OW15940   6.717   4.546   0.149
 5014SOL    HW115941   6.729   4.599   0.065
 5014SOL    HW215942   6.776   4.584   0.221
 5015SOL     OW15943   5.519   0.545   4.729
 5015SOL    HW115944   5.442   0.508   4.781
 5015SOL    HW215945   5.490   0.627   4.681
 5016SOL     OW15946   0.908   3.177   4.677
 5016SOL    HW115947   1.000   3.155   4.644
 5016SOL    HW215948   0.913   3.207   4.773
 5017SOL     OW15949   0.699   2.740   1.052
 5017SOL    HW115950   0.780   2.784   1.092
 5017SOL    HW215951   0.640   2.706   1.126
 5018SOL     OW15952   0.556   5.208   1.934
 5018SOL    HW115953   0.531   5.132   1.993
 5018SOL    HW215954   0.651   5.199   1.905
 5019SOL     OW15955   1.844   5.618   5.318
 5019SOL    HW115956   1.872   5.597   5.412
 5019SOL    HW215957   1.865   5.714   5.298
 5020SOL     OW15958   0.390   6.915   5.067
 5020SOL    HW115959   0.433   6.946   4.982
 5020SOL    HW215960   0.399   6.815   5.075
 5021SOL     OW15961   1.443   0.278   1.303
 5021SOL    HW115962   1.406   0.204   1.359
 5021SOL    HW215963   1.515   0.242   1.243
 5022SOL     OW15964   0.222   2.523   1.469
 5022SOL    HW115965   0.139   2.546   1.418
 5022SOL    HW215966   0.219   2.566   1.559
 5023SOL     OW15967   0.316   3.907   1.678
 5023SOL    HW115968   0.373   3.928   1.599
 5023SOL    HW215969   0.298   3.808   1.681
 5024SOL     OW15970   5.164   4.412   0.788
 5024SOL    HW115971   5.087   4.361   0.748
 5024SOL    HW215972   5.235   4.424   0.720
 5025SOL     OW15973   4.049   1.441   4.235
 5025SOL    HW115974   4.045   1.341   4.226
 5025SOL    HW215975   4.143   1.469   4.254
 5026SOL     OW15976   6.434   5.175   4.865
 5026SOL    HW115977   6.441   5.081   4.831
 5026SOL    HW215978   6.343   5.211   4.845
 5027SOL     OW15979   5.582   0.504   1.179
 5027SOL    HW115980   5.681   0.504   1.193
 5027SOL    HW215981   5.537   0.545   1.258
 5028SOL     OW15982   0.236   1.672   3.107
 5028SOL    HW115983   0.259   1.577   3.128
 5028SOL    HW215984   0.302   1.733   3.150
 5029SOL     OW15985   6.836   3.141   2.395
 5029SOL    HW115986   6.790   3.186   2.472
 5029SOL    HW215987   6.875   3.211   2.335
 5030SOL     OW15988   6.737   5.644   6.009
 5030SOL    HW115989   6.809   5.713   6.018
 5030SOL    HW215990   6.649   5.683   6.037
 5031SOL     OW15991   0.074   1.269   5.163
 5031SOL    HW115992   0.124   1.184   5.178
 5031SOL    HW215993   0.139   1.344   5.153
 5032SOL     OW15994   3.229   2.301   6.392
 5032SOL    HW115995   3.132   2.278   6.391
 5032SOL    HW215996   3.248   2.367   6.319
 5033SOL     OW15997   1.930   1.346   0.159
 5033SOL    HW115998   1.952   1.444   0.153
 5033SOL    HW215999   2.010   1.293   0.134
 5034SOL     OW16000   4.731   0.022   4.207
 5034SOL    HW116001   4.709   0.012   4.304
 5034SOL    HW216002   4.683   6.974   4.155
 5035SOL     OW16003   0.257   4.259   5.563
 5035SOL    HW116004   0.342   4.293   5.524
 5035SOL    HW216005   0.272   4.232   5.658
 5036SOL     OW16006   6.781   4.556   5.891
 5036SOL    HW116007   6.755   4.612   5.970
 5036SOL    HW216008   6.868   4.511   5.910
 5037SOL     OW16009   4.545   4.321   1.415
 5037SOL    HW116010   4.625   4.266   1.389
 5037SOL    HW216011   4.463   4.265   1.405
 5038SOL     OW16012   3.743   3.730   4.401
 5038SOL    HW116013   3.793   3.703   4.319
 5038SOL    HW216014   3.645   3.713   4.388
 5039SOL     OW16015   2.086   3.561   5.918
 5039SOL    HW116016   2.177   3.601   5.919
 5039SOL    HW216017   2.093   3.462   5.902
 5040SOL     OW16018   1.320   5.598   5.734
 5040SOL    HW116019   1.370   5.684   5.740
 5040SOL    HW216020   1.298   5.579   5.638
 5041SOL     OW16021   1.053   2.835   2.181
 5041SOL    HW116022   0.980   2.799   2.122
 5041SOL    HW216023   1.037   2.932   2.199
 5042SOL     OW16024   6.749   3.775   6.897
 5042SOL    HW116025   6.731   3.686   6.854
 5042SOL    HW216026   6.828   3.767   6.957
 5043SOL     OW16027   4.273   1.111   0.188
 5043SOL    HW116028   4.333   1.045   0.234
 5043SOL    HW216029   4.226   1.066   0.112
 5044SOL     OW16030   0.230   6.043   1.535
 5044SOL    HW116031   0.271   6.130   1.561
 5044SOL    HW216032   0.167   6.013   1.607
 5045SOL     OW16033   6.261   5.089   5.859
 5045SOL    HW116034   6.276   5.184   5.886
 5045SOL    HW216035   6.347   5.049   5.826
 5046SOL     OW16036   4.018   3.910   3.616
 5046SOL    HW116037   4.040   3.899   3.713
 5046SOL    HW216038   4.051   3.830   3.565
 5047SOL     OW16039   2.135   3.601   2.836
 5047SOL    HW116040   2.215   3.659   2.848
 5047SOL    HW216041   2.060   3.635   2.892
 5048SOL     OW16042   1.378   0.908   5.174
 5048SOL    HW116043   1.319   0.834   5.207
 5048SOL    HW216044   1.406   0.889   5.080
 5049SOL     OW16045   5.776   1.120   6.282
 5049SOL    HW116046   5.692   1.159   6.321
 5049SOL    HW216047   5.855   1.149   6.335
 5050SOL     OW16048   1.472   1.639   6.771
 5050SOL    HW116049   1.390   1.612   6.820
 5050SOL    HW216050   1.535   1.685   6.833
 5051SOL     OW16051   4.324   4.459   1.030
 5051SOL    HW116052   4.364   4.549   1.012
 5051SOL    HW216053   4.263   4.465   1.109
 5052SOL     OW16054   3.660   2.119   6.257
 5052SOL    HW116055   3.630   2.128   6.352
 5052SOL    HW216056   3.760   2.117   6.255
 5053SOL     OW16057   0.977   5.142   3.217
 5053SOL    HW116058   0.970   5.241   3.199
 5053SOL    HW216059   0.899   5.113   3.272
 5054SOL     OW16060   3.772   4.656   5.911
 5054SOL    HW116061   3.806   4.586   5.849
 5054SOL    HW216062   3.838   4.731   5.917
 5055SOL     OW16063   0.981   2.520   6.027
 5055SOL    HW116064   1.046   2.589   5.996
 5055SOL    HW216065   0.968   2.452   5.955
 5056SOL     OW16066   5.240   3.993   5.486
 5056SOL    HW116067   5.149   3.967   5.452
 5056SOL    HW216068   5.236   4.084   5.527
 5057SOL     OW16069   0.534   6.884   2.344
 5057SOL    HW116070   0.574   6.924   2.427
 5057SOL    HW216071   0.450   6.835   2.367
 5058SOL     OW16072   3.480   4.900   6.568
 5058SOL    HW116073   3.465   4.882   6.471
 5058SOL    HW216074   3.507   4.816   6.614
 5059SOL     OW16075   0.161   0.363   3.607
 5059SOL    HW116076   0.212   0.281   3.579
 5059SOL    HW216077   0.175   0.436   3.540
 5060SOL     OW16078   6.760   1.965   6.552
 5060SOL    HW116079   6.803   1.911   6.480
 5060SOL    HW216080   6.734   1.904   6.627
 5061SOL     OW16081   4.536   2.191   0.053
 5061SOL    HW116082   4.485   2.107   0.070
 5061SOL    HW216083   4.629   2.170   0.025
 5062SOL     OW16084   0.139   0.138   2.266
 5062SOL    HW116085   0.156   0.047   2.229
 5062SOL    HW216086   0.126   0.132   2.365
 5063SOL     OW16087   0.277   6.601   1.587
 5063SOL    HW116088   0.331   6.651   1.654
 5063SOL    HW216089   0.185   6.586   1.622
 5064SOL     OW16090   5.024   3.009   0.242
 5064SOL    HW116091   5.070   3.093   0.272
 5064SOL    HW216092   4.953   3.031   0.175
 5065SOL     OW16093   3.133   0.168   5.547
 5065SOL    HW116094   3.192   0.247   5.530
 5065SOL    HW216095   3.165   0.120   5.629
 5066SOL     OW16096   5.271   3.778   2.030
 5066SOL    HW116097   5.362   3.762   1.992
 5066SOL    HW216098   5.216   3.695   2.022
 5067SOL     OW16099   5.446   1.305   0.320
 5067SOL    HW116100   5.541   1.292   0.350
 5067SOL    HW216101   5.401   1.370   0.381
 5068SOL     OW16102   2.736   4.272   1.242
 5068SOL    HW116103   2.793   4.226   1.173
 5068SOL    HW216104   2.657   4.314   1.197
 5069SOL     OW16105   1.086   4.384   2.649
 5069SOL    HW116106   1.037   4.469   2.634
 5069SOL    HW216107   1.073   4.355   2.744
 5070SOL     OW16108   5.028   3.559   4.039
 5070SOL    HW116109   4.997   3.468   4.069
 5070SOL    HW216110   5.092   3.548   3.962
 5071SOL     OW16111   4.163   2.262   4.730
 5071SOL    HW116112   4.244   2.203   4.734
 5071SOL    HW216113   4.158   2.318   4.812
 5072SOL     OW16114   0.704   5.316   0.572
 5072SOL    HW116115   0.740   5.377   0.502
 5072SOL    HW216116   0.777   5.254   0.602
 5073SOL     OW16117   6.615   6.235   2.757
 5073SOL    HW116118   6.565   6.158   2.717
 5073SOL    HW216119   6.701   6.248   2.707
 5074SOL     OW16120   3.101   4.147   0.017
 5074SOL    HW116121   3.165   4.088   0.065
 5074SOL    HW216122   3.126   4.243   0.031
 5075SOL     OW16123   0.256   1.031   5.696
 5075SOL    HW116124   0.174   0.990   5.735
 5075SOL    HW216125   0.330   1.028   5.764
 5076SOL     OW16126   3.630   0.854   1.111
 5076SOL    HW116127   3.664   0.943   1.082
 5076SOL    HW216128   3.530   0.857   1.115
 5077SOL     OW16129   1.564   2.170   3.594
 5077SOL    HW116130   1.567   2.257   3.543
 5077SOL    HW216131   1.657   2.144   3.620
 5078SOL     OW16132   1.217   2.009   3.384
 5078SOL    HW116133   1.280   1.967   3.449
 5078SOL    HW216134   1.238   1.975   3.292
 5079SOL     OW16135   2.780   5.433   6.033
 5079SOL    HW116136   2.807   5.337   6.035
 5079SOL    HW216137   2.847   5.485   5.980
 5080SOL     OW16138   5.830   6.503   5.021
 5080SOL    HW116139   5.880   6.530   5.103
 5080SOL    HW216140   5.809   6.584   4.967
 5081SOL     OW16141   3.190   3.683   2.860
 5081SOL    HW116142   3.285   3.665   2.885
 5081SOL    HW216143   3.164   3.775   2.890
 5082SOL     OW16144   6.029   6.732   5.537
 5082SOL    HW116145   6.069   6.821   5.518
 5082SOL    HW216146   6.060   6.700   5.627
 5083SOL     OW16147   1.496   6.732   2.135
 5083SOL    HW116148   1.456   6.823   2.141
 5083SOL    HW216149   1.424   6.663   2.151
 5084SOL     OW16150   1.147   4.363   4.245
 5084SOL    HW116151   1.232   4.411   4.226
 5084SOL    HW216152   1.150   4.272   4.205
 5085SOL     OW16153   5.507   1.347   6.822
 5085SOL    HW116154   5.555   1.263   6.850
 5085SOL    HW216155   5.430   1.363   6.883
 5086SOL     OW16156   6.133   4.831   4.266
 5086SOL    HW116157   6.227   4.862   4.252
 5086SOL    HW216158   6.071   4.910   4.260
 5087SOL     OW16159   6.832   6.172   4.147
 5087SOL    HW116160   6.914   6.223   4.119
 5087SOL    HW216161   6.765   6.236   4.184
 5088SOL     OW16162   6.295   1.043   6.133
 5088SOL    HW116163   6.209   1.056   6.084
 5088SOL    HW216164   6.321   1.129   6.178
 5089SOL     OW16165   6.410   3.954   3.081
 5089SOL    HW116166   6.472   4.031   3.063
 5089SOL    HW216167   6.385   3.911   2.994
 5090SOL     OW16168   2.184   4.711   1.271
 5090SOL    HW116169   2.267   4.709   1.325
 5090SOL    HW216170   2.164   4.620   1.236
 5091SOL     OW16171   1.236   6.150   2.698
 5091SOL    HW116172   1.310   6.126   2.636
 5091SOL    HW216173   1.180   6.069   2.715
 5092SOL     OW16174   3.576   2.480   1.722
 5092SOL    HW116175   3.481   2.449   1.716
 5092SOL    HW216176   3.634   2.405   1.754
 5093SOL     OW16177   0.921   2.555   1.769
 5093SOL    HW116178   0.954   2.467   1.733
 5093SOL    HW216179   0.997   2.603   1.814
 5094SOL     OW16180   0.921   0.077   6.174
 5094SOL    HW116181   0.894   7.016   6.222
 5094SOL    HW216182   0.911   0.064   6.076
 5095SOL     OW16183   1.383   0.673   4.541
 5095SOL    HW116184   1.363   0.607   4.468
 5095SOL    HW216185   1.476   0.708   4.529
 5096SOL     OW16186   4.701   3.272   1.120
 5096SOL    HW116187   4.729   3.225   1.037
 5096SOL    HW216188   4.714   3.371   1.109
 5097SOL     OW16189   1.647   0.906   6.140
 5097SOL    HW116190   1.676   0.914   6.235
 5097SOL    HW216191   1.727   0.903   6.081
 5098SOL     OW16192   0.924   0.810   1.707
 5098SOL    HW116193   0.859   0.883   1.689
 5098SOL    HW216194   1.011   0.849   1.737
 5099SOL     OW16195   1.241   0.581   5.501
 5099SOL    HW116196   1.152   0.536   5.496
 5099SOL    HW216197   1.263   0.603   5.596
 5100SOL     OW16198   4.917   0.041   6.012
 5100SOL    HW116199   5.016   0.040   6.031
 5100SOL    HW216200   4.895   0.119   5.954
 5101SOL     OW16201   4.750   6.540   0.118
 5101SOL    HW116202   4.782   6.634   0.129
 5101SOL    HW216203   4.791   6.482   0.188
 5102SOL     OW16204   5.423   0.772   5.843
 5102SOL    HW116205   5.471   0.829   5.776
 5102SOL    HW216206   5.342   0.821   5.875
 5103SOL     OW16207   0.236   0.844   4.061
 5103SOL    HW116208   0.144   0.807   4.049
 5103SOL    HW216209   0.262   0.897   3.981
 5104SOL     OW16210   1.702   0.525   1.465
 5104SOL    HW116211   1.687   0.592   1.393
 5104SOL    HW216212   1.630   0.533   1.534
 5105SOL     OW16213   4.371   4.249   6.659
 5105SOL    HW116214   4.448   4.216   6.605
 5105SOL    HW216215   4.320   4.318   6.608
 5106SOL     OW16216   3.679   0.239   2.485
 5106SOL    HW116217   3.741   0.244   2.563
 5106SOL    HW216218   3.632   0.151   2.486
 5107SOL     OW16219   2.777   0.696   6.929
 5107SOL    HW116220   2.808   0.768   6.992
 5107SOL    HW216221   2.679   0.680   6.943
 5108SOL     OW16222   2.933   3.485   3.737
 5108SOL    HW116223   2.908   3.449   3.647
 5108SOL    HW216224   2.956   3.582   3.730
 5109SOL     OW16225   0.529   1.501   1.252
 5109SOL    HW116226   0.573   1.484   1.339
 5109SOL    HW216227   0.598   1.517   1.181
 5110SOL     OW16228   2.004   6.569   5.987
 5110SOL    HW116229   1.947   6.604   5.913
 5110SOL    HW216230   2.095   6.548   5.951
 5111SOL     OW16231   0.940   0.925   6.233
 5111SOL    HW116232   0.965   1.021   6.220
 5111SOL    HW216233   0.937   0.904   6.330
 5112SOL     OW16234   0.228   6.525   3.535
 5112SOL    HW116235   0.224   6.509   3.633
 5112SOL    HW216236   0.309   6.479   3.497
 5113SOL     OW16237   0.767   0.648   0.616
 5113SOL    HW116238   0.847   0.701   0.591
 5113SOL    HW216239   0.714   0.626   0.534
 5114SOL     OW16240   3.331   4.412   0.446
 5114SOL    HW116241   3.397   4.430   0.373
 5114SOL    HW216242   3.302   4.499   0.485
 5115SOL     OW16243   1.607   4.102   6.190
 5115SOL    HW116244   1.622   4.065   6.098
 5115SOL    HW216245   1.525   4.160   6.189
 5116SOL     OW16246   4.844   4.831   6.480
 5116SOL    HW116247   4.861   4.735   6.501
 5116SOL    HW216248   4.930   4.876   6.455
 5117SOL     OW16249   2.531   4.840   3.955
 5117SOL    HW116250   2.509   4.816   3.861
 5117SOL    HW216251   2.604   4.781   3.988
 5118SOL     OW16252   4.688   6.368   0.540
 5118SOL    HW116253   4.704   6.449   0.597
 5118SOL    HW216254   4.591   6.343   0.545
 5119SOL     OW16255   5.433   0.986   1.711
 5119SOL    HW116256   5.497   1.015   1.783
 5119SOL    HW216257   5.482   0.979   1.624
 5120SOL     OW16258   6.049   1.063   3.042
 5120SOL    HW116259   5.990   1.105   2.974
 5120SOL    HW216260   6.145   1.081   3.018
 5121SOL     OW16261   0.375   3.366   5.888
 5121SOL    HW116262   0.381   3.432   5.813
 5121SOL    HW216263   0.334   3.409   5.968
 5122SOL     OW16264   2.521   0.613   3.141
 5122SOL    HW116265   2.423   0.636   3.137
 5122SOL    HW216266   2.574   0.693   3.112
 5123SOL     OW16267   5.305   4.016   3.666
 5123SOL    HW116268   5.261   4.034   3.578
 5123SOL    HW216269   5.403   4.006   3.652
 5124SOL     OW16270   2.830   6.503   6.669
 5124SOL    HW116271   2.761   6.439   6.636
 5124SOL    HW216272   2.803   6.596   6.645
 5125SOL     OW16273   0.151   3.994   3.920
 5125SOL    HW116274   0.220   4.038   3.978
 5125SOL    HW216275   0.150   4.037   3.830
 5126SOL     OW16276   6.110   5.076   6.503
 5126SOL    HW116277   6.183   5.145   6.503
 5126SOL    HW216278   6.070   5.070   6.412
 5127SOL     OW16279   5.688   3.896   0.064
 5127SOL    HW116280   5.772   3.938   0.030
 5127SOL    HW216281   5.704   3.855   0.154
 5128SOL     OW16282   1.519   0.700   6.661
 5128SOL    HW116283   1.612   0.706   6.697
 5128SOL    HW216284   1.515   0.630   6.590
 5129SOL     OW16285   5.352   0.094   2.259
 5129SOL    HW116286   5.306   0.182   2.267
 5129SOL    HW216287   5.343   0.059   2.166
 5130SOL     OW16288   0.906   5.345   4.785
 5130SOL    HW116289   0.944   5.372   4.696
 5130SOL    HW216290   0.963   5.272   4.824
 5131SOL     OW16291   3.212   4.955   3.318
 5131SOL    HW116292   3.147   5.011   3.267
 5131SOL    HW216293   3.303   4.963   3.276
 5132SOL     OW16294   3.312   1.565   6.439
 5132SOL    HW116295   3.298   1.534   6.533
 5132SOL    HW216296   3.223   1.581   6.396
 5133SOL     OW16297   3.610   5.772   6.554
 5133SOL    HW116298   3.604   5.813   6.645
 5133SOL    HW216299   3.539   5.811   6.495
 5134SOL     OW16300   6.499   6.794   1.378
 5134SOL    HW116301   6.413   6.795   1.326
 5134SOL    HW216302   6.480   6.816   1.474
 5135SOL     OW16303   6.464   3.368   2.488
 5135SOL    HW116304   6.541   3.306   2.474
 5135SOL    HW216305   6.474   3.448   2.429
 5136SOL     OW16306   0.557   0.553   6.245
 5136SOL    HW116307   0.524   0.469   6.202
 5136SOL    HW216308   0.643   0.535   6.292
 5137SOL     OW16309   5.244   2.322   5.309
 5137SOL    HW116310   5.206   2.247   5.256
 5137SOL    HW216311   5.253   2.295   5.405
 5138SOL     OW16312   3.730   4.048   4.304
 5138SOL    HW116313   3.813   4.024   4.354
 5138SOL    HW216314   3.661   4.085   4.368
 5139SOL     OW16315   1.589   0.062   5.171
 5139SOL    HW116316   1.529   0.100   5.242
 5139SOL    HW216317   1.587   0.122   5.091
 5140SOL     OW16318   4.384   1.784   5.848
 5140SOL    HW116319   4.352   1.693   5.820
 5140SOL    HW216320   4.404   1.838   5.766
 5141SOL     OW16321   6.885   2.827   2.005
 5141SOL    HW116322   6.804   2.873   1.968
 5141SOL    HW216323   6.868   2.800   2.100
 5142SOL     OW16324   7.017   6.658   3.480
 5142SOL    HW116325   0.084   6.614   3.477
 5142SOL    HW216326   0.003   6.749   3.520
 5143SOL     OW16327   0.815   4.730   4.285
 5143SOL    HW116328   0.896   4.766   4.330
 5143SOL    HW216329   0.821   4.630   4.281
 5144SOL     OW16330   1.906   3.368   6.691
 5144SOL    HW116331   1.950   3.292   6.643
 5144SOL    HW216332   1.965   3.401   6.764
 5145SOL     OW16333   3.070   6.544   6.549
 5145SOL    HW116334   2.991   6.526   6.607
 5145SOL    HW216335   3.153   6.510   6.593
 5146SOL     OW16336   4.296   4.476   5.434
 5146SOL    HW116337   4.286   4.480   5.533
 5146SOL    HW216338   4.358   4.402   5.409
 5147SOL     OW16339   5.057   3.221   3.163
 5147SOL    HW116340   5.079   3.205   3.259
 5147SOL    HW216341   4.980   3.163   3.136
 5148SOL     OW16342   0.758   1.007   1.631
 5148SOL    HW116343   0.696   1.002   1.710
 5148SOL    HW216344   0.705   1.003   1.547
 5149SOL     OW16345   5.824   4.512   3.718
 5149SOL    HW116346   5.831   4.610   3.702
 5149SOL    HW216347   5.879   4.487   3.798
 5150SOL     OW16348   1.241   4.469   3.901
 5150SOL    HW116349   1.288   4.470   3.989
 5150SOL    HW216350   1.174   4.543   3.898
 5151SOL     OW16351   5.655   4.873   1.998
 5151SOL    HW116352   5.715   4.948   2.025
 5151SOL    HW216353   5.672   4.793   2.056
 5152SOL     OW16354   1.528   0.540   6.390
 5152SOL    HW116355   1.516   0.585   6.302
 5152SOL    HW216356   1.625   0.538   6.415
 5153SOL     OW16357   1.510   1.626   0.652
 5153SOL    HW116358   1.580   1.697   0.660
 5153SOL    HW216359   1.538   1.545   0.702
 5154SOL     OW16360   1.143   2.877   6.473
 5154SOL    HW116361   1.210   2.919   6.411
 5154SOL    HW216362   1.133   2.780   6.451
 5155SOL     OW16363   2.062   1.914   0.358
 5155SOL    HW116364   2.095   1.916   0.263
 5155SOL    HW216365   1.963   1.900   0.358
 5156SOL     OW16366   5.560   5.374   5.387
 5156SOL    HW116367   5.655   5.355   5.410
 5156SOL    HW216368   5.508   5.390   5.471
 5157SOL     OW16369   3.718   1.125   2.170
 5157SOL    HW116370   3.766   1.113   2.083
 5157SOL    HW216371   3.673   1.215   2.170
 5158SOL     OW16372   3.886   0.894   2.624
 5158SOL    HW116373   3.862   0.966   2.559
 5158SOL    HW216374   3.803   0.856   2.665
 5159SOL     OW16375   5.755   3.908   6.390
 5159SOL    HW116376   5.824   3.972   6.423
 5159SOL    HW216377   5.752   3.911   6.290
 5160SOL     OW16378   0.219   5.976   3.272
 5160SOL    HW116379   0.161   6.004   3.196
 5160SOL    HW216380   0.198   6.032   3.353
 5161SOL     OW16381   0.637   2.947   0.316
 5161SOL    HW116382   0.681   2.857   0.320
 5161SOL    HW216383   0.679   3.001   0.242
 5162SOL     OW16384   0.160   6.273   2.726
 5162SOL    HW116385   0.091   6.242   2.791
 5162SOL    HW216386   0.190   6.365   2.751
 5163SOL     OW16387   3.417   6.118   1.564
 5163SOL    HW116388   3.322   6.117   1.597
 5163SOL    HW216389   3.424   6.174   1.482
 5164SOL     OW16390   2.964   3.529   1.263
 5164SOL    HW116391   2.864   3.534   1.257
 5164SOL    HW216392   3.003   3.529   1.171
 5165SOL     OW16393   1.616   4.862   6.933
 5165SOL    HW116394   1.568   4.917   6.865
 5165SOL    HW216395   1.714   4.865   6.914
 5166SOL     OW16396   2.035   5.498   1.543
 5166SOL    HW116397   1.984   5.412   1.547
 5166SOL    HW216398   2.132   5.479   1.529
 5167SOL     OW16399   5.337   3.157   5.468
 5167SOL    HW116400   5.286   3.241   5.487
 5167SOL    HW216401   5.292   3.106   5.396
 5168SOL     OW16402   4.381   2.078   2.037
 5168SOL    HW116403   4.348   1.988   2.009
 5168SOL    HW216404   4.305   2.131   2.074
 5169SOL     OW16405   3.993   0.461   4.121
 5169SOL    HW116406   4.076   0.410   4.099
 5169SOL    HW216407   3.990   0.544   4.065
 5170SOL     OW16408   1.361   3.730   6.358
 5170SOL    HW116409   1.409   3.687   6.282
 5170SOL    HW216410   1.419   3.729   6.440
 5171SOL     OW16411   1.906   5.852   5.539
 5171SOL    HW116412   1.884   5.857   5.637
 5171SOL    HW216413   1.946   5.763   5.518
 5172SOL     OW16414   0.760   5.070   3.855
 5172SOL    HW116415   0.839   5.009   3.858
 5172SOL    HW216416   0.712   5.068   3.943
 5173SOL     OW16417   4.590   3.716   5.902
 5173SOL    HW116418   4.554   3.787   5.841
 5173SOL    HW216419   4.527   3.702   5.978
 5174SOL     OW16420   2.063   6.721   3.424
 5174SOL    HW116421   1.976   6.692   3.385
 5174SOL    HW216422   2.076   6.819   3.408
 5175SOL     OW16423   2.706   4.174   0.124
 5175SOL    HW116424   2.711   4.233   0.044
 5175SOL    HW216425   2.798   4.151   0.155
 5176SOL     OW16426   5.686   5.460   6.858
 5176SOL    HW116427   5.718   5.452   6.953
 5176SOL    HW216428   5.702   5.373   6.811
 5177SOL     OW16429   4.805   0.720   0.933
 5177SOL    HW116430   4.739   0.793   0.953
 5177SOL    HW216431   4.833   0.678   1.019
 5178SOL     OW16432   0.969   3.407   1.720
 5178SOL    HW116433   0.978   3.462   1.637
 5178SOL    HW216434   1.015   3.453   1.796
 5179SOL     OW16435   5.842   4.669   3.314
 5179SOL    HW116436   5.910   4.597   3.330
 5179SOL    HW216437   5.832   4.683   3.216
 5180SOL     OW16438   2.567   0.017   1.337
 5180SOL    HW116439   2.626   0.096   1.319
 5180SOL    HW216440   2.615   6.973   1.393
 5181SOL     OW16441   0.348   0.672   6.759
 5181SOL    HW116442   0.327   0.702   6.665
 5181SOL    HW216443   0.445   0.651   6.766
 5182SOL     OW16444   4.259   4.941   3.126
 5182SOL    HW116445   4.336   4.939   3.062
 5182SOL    HW216446   4.289   4.979   3.213
 5183SOL     OW16447   4.148   1.893   3.622
 5183SOL    HW116448   4.151   1.993   3.630
 5183SOL    HW216449   4.205   1.864   3.545
 5184SOL     OW16450   1.947   1.701   4.163
 5184SOL    HW116451   1.879   1.628   4.160
 5184SOL    HW216452   2.022   1.680   4.100
 5185SOL     OW16453   5.601   0.688   1.895
 5185SOL    HW116454   5.616   0.787   1.897
 5185SOL    HW216455   5.534   0.665   1.824
 5186SOL     OW16456   6.888   3.137   6.041
 5186SOL    HW116457   6.975   3.127   5.992
 5186SOL    HW216458   6.814   3.103   5.983
 5187SOL     OW16459   2.306   4.782   4.889
 5187SOL    HW116460   2.244   4.705   4.894
 5187SOL    HW216461   2.394   4.758   4.930
 5188SOL     OW16462   6.804   6.705   1.556
 5188SOL    HW116463   6.878   6.659   1.606
 5188SOL    HW216464   6.811   6.804   1.571
 5189SOL     OW16465   5.954   0.484   6.145
 5189SOL    HW116466   5.959   0.439   6.056
 5189SOL    HW216467   5.860   0.510   6.165
 5190SOL     OW16468   1.799   3.056   1.690
 5190SOL    HW116469   1.740   3.048   1.771
 5190SOL    HW216470   1.866   2.982   1.691
 5191SOL     OW16471   2.988   5.808   2.199
 5191SOL    HW116472   3.005   5.764   2.288
 5191SOL    HW216473   2.892   5.799   2.175
 5192SOL     OW16474   2.292   5.364   1.418
 5192SOL    HW116475   2.333   5.341   1.330
 5192SOL    HW216476   2.354   5.336   1.492
 5193SOL     OW16477   5.297   0.469   6.779
 5193SOL    HW116478   5.243   0.406   6.835
 5193SOL    HW216479   5.385   0.485   6.823
 5194SOL     OW16480   4.266   1.693   0.142
 5194SOL    HW116481   4.245   1.653   0.231
 5194SOL    HW216482   4.305   1.624   0.082
 5195SOL     OW16483   0.421   0.862   4.260
 5195SOL    HW116484   0.338   0.857   4.204
 5195SOL    HW216485   0.479   0.783   4.240
 5196SOL     OW16486   4.561   6.950   3.417
 5196SOL    HW116487   4.535   6.940   3.513
 5196SOL    HW216488   4.479   6.971   3.363
 5197SOL     OW16489   1.411   4.223   5.905
 5197SOL    HW116490   1.471   4.178   5.839
 5197SOL    HW216491   1.379   4.155   5.972
 5198SOL     OW16492   5.390   5.919   3.025
 5198SOL    HW116493   5.415   5.823   3.034
 5198SOL    HW216494   5.427   5.971   3.102
 5199SOL     OW16495   6.885   5.440   1.415
 5199SOL    HW116496   6.818   5.514   1.411
 5199SOL    HW216497   6.863   5.379   1.492
 5200SOL     OW16498   0.040   3.967   5.736
 5200SOL    HW116499   7.022   4.020   5.810
 5200SOL    HW216500   0.096   3.894   5.775
 5201SOL     OW16501   1.771   5.852   3.839
 5201SOL    HW116502   1.805   5.929   3.785
 5201SOL    HW216503   1.772   5.877   3.936
 5202SOL     OW16504   6.716   3.516   6.812
 5202SOL    HW116505   6.689   3.515   6.716
 5202SOL    HW216506   6.663   3.448   6.863
 5203SOL     OW16507   0.445   2.817   6.774
 5203SOL    HW116508   0.542   2.813   6.799
 5203SOL    HW216509   0.392   2.758   6.835
 5204SOL     OW16510   4.615   4.925   0.441
 5204SOL    HW116511   4.540   4.991   0.440
 5204SOL    HW216512   4.701   4.971   0.419
 5205SOL     OW16513   1.652   0.802   2.055
 5205SOL    HW116514   1.710   0.827   1.977
 5205SOL    HW216515   1.578   0.743   2.023
 5206SOL     OW16516   0.105   4.319   6.782
 5206SOL    HW116517   0.146   4.399   6.825
 5206SOL    HW216518   0.101   4.332   6.683
 5207SOL     OW16519   2.201   5.383   4.183
 5207SOL    HW116520   2.154   5.418   4.264
 5207SOL    HW216521   2.294   5.421   4.181
 5208SOL     OW16522   4.126   0.832   0.324
 5208SOL    HW116523   4.033   0.856   0.297
 5208SOL    HW216524   4.158   0.895   0.395
 5209SOL     OW16525   5.962   6.000   3.574
 5209SOL    HW116526   5.964   6.075   3.509
 5209SOL    HW216527   6.054   5.965   3.590
 5210SOL     OW16528   4.892   3.694   4.252
 5210SOL    HW116529   4.798   3.668   4.229
 5210SOL    HW216530   4.955   3.647   4.190
 5211SOL     OW16531   3.232   3.585   3.787
 5211SOL    HW116532   3.331   3.588   3.771
 5211SOL    HW216533   3.185   3.605   3.701
 5212SOL     OW16534   0.585   2.284   0.099
 5212SOL    HW116535   0.627   2.369   0.131
 5212SOL    HW216536   0.507   2.261   0.158
 5213SOL     OW16537   5.118   2.495   5.683
 5213SOL    HW116538   5.198   2.546   5.650
 5213SOL    HW216539   5.147   2.430   5.754
 5214SOL     OW16540   5.625   1.709   5.231
 5214SOL    HW116541   5.578   1.776   5.289
 5214SOL    HW216542   5.720   1.736   5.219
 5215SOL     OW16543   5.505   4.803   3.588
 5215SOL    HW116544   5.520   4.889   3.538
 5215SOL    HW216545   5.529   4.726   3.530
 5216SOL     OW16546   5.101   4.632   1.602
 5216SOL    HW116547   5.008   4.598   1.604
 5216SOL    HW216548   5.165   4.560   1.629
 5217SOL     OW16549   3.291   5.265   3.865
 5217SOL    HW116550   3.291   5.361   3.837
 5217SOL    HW216551   3.226   5.252   3.940
 5218SOL     OW16552   1.776   6.715   4.019
 5218SOL    HW116553   1.854   6.654   4.030
 5218SOL    HW216554   1.799   6.805   4.056
 5219SOL     OW16555   3.460   0.244   6.584
 5219SOL    HW116556   3.362   0.244   6.603
 5219SOL    HW216557   3.511   0.262   6.668
 5220SOL     OW16558   1.039   5.755   1.953
 5220SOL    HW116559   1.078   5.667   1.928
 5220SOL    HW216560   1.112   5.824   1.956
 5221SOL     OW16561   5.389   1.585   4.399
 5221SOL    HW116562   5.435   1.500   4.426
 5221SOL    HW216563   5.400   1.599   4.301
 5222SOL     OW16564   2.423   0.535   3.932
 5222SOL    HW116565   2.420   0.436   3.916
 5222SOL    HW216566   2.401   0.554   4.028
 5223SOL     OW16567   4.711   0.155   1.179
 5223SOL    HW116568   4.757   0.066   1.177
 5223SOL    HW216569   4.780   0.228   1.173
 5224SOL     OW16570   6.706   2.343   2.545
 5224SOL    HW116571   6.744   2.410   2.609
 5224SOL    HW216572   6.781   2.295   2.499
 5225SOL     OW16573   6.975   0.250   3.443
 5225SOL    HW116574   6.918   0.177   3.480
 5225SOL    HW216575   0.000   0.296   3.518
 5226SOL     OW16576   0.933   6.361   4.384
 5226SOL    HW116577   0.952   6.408   4.298
 5226SOL    HW216578   0.835   6.340   4.389
 5227SOL     OW16579   6.719   5.100   3.604
 5227SOL    HW116580   6.750   5.013   3.566
 5227SOL    HW216581   6.724   5.171   3.534
 5228SOL     OW16582   5.612   1.968   0.748
 5228SOL    HW116583   5.546   1.950   0.675
 5228SOL    HW216584   5.565   1.964   0.837
 5229SOL     OW16585   0.883   4.442   6.586
 5229SOL    HW116586   0.808   4.389   6.626
 5229SOL    HW216587   0.970   4.415   6.628
 5230SOL     OW16588   0.213   0.956   1.226
 5230SOL    HW116589   0.312   0.944   1.228
 5230SOL    HW216590   0.174   0.925   1.312
 5231SOL     OW16591   3.722   2.872   4.386
 5231SOL    HW116592   3.691   2.806   4.455
 5231SOL    HW216593   3.792   2.931   4.426
 5232SOL     OW16594   4.319   1.962   6.565
 5232SOL    HW116595   4.387   1.974   6.493
 5232SOL    HW216596   4.360   1.985   6.654
 5233SOL     OW16597   6.271   6.559   1.675
 5233SOL    HW116598   6.359   6.565   1.722
 5233SOL    HW216599   6.282   6.507   1.590
 5234SOL     OW16600   3.598   0.816   0.697
 5234SOL    HW116601   3.674   0.753   0.677
 5234SOL    HW216602   3.524   0.765   0.742
 5235SOL     OW16603   1.154   2.892   0.628
 5235SOL    HW116604   1.075   2.859   0.575
 5235SOL    HW216605   1.135   2.881   0.726
 5236SOL     OW16606   5.641   3.004   1.314
 5236SOL    HW116607   5.604   2.919   1.275
 5236SOL    HW216608   5.566   3.065   1.339
 5237SOL     OW16609   2.720   2.178   5.613
 5237SOL    HW116610   2.732   2.156   5.516
 5237SOL    HW216611   2.688   2.272   5.622
 5238SOL     OW16612   1.122   5.186   0.365
 5238SOL    HW116613   1.197   5.245   0.397
 5238SOL    HW216614   1.148   5.144   0.278
 5239SOL     OW16615   2.917   3.529   4.231
 5239SOL    HW116616   2.916   3.618   4.185
 5239SOL    HW216617   2.897   3.457   4.164
 5240SOL     OW16618   2.976   2.395   5.358
 5240SOL    HW116619   2.891   2.376   5.310
 5240SOL    HW216620   3.053   2.387   5.294
 5241SOL     OW16621   0.608   5.924   6.776
 5241SOL    HW116622   0.608   6.024   6.784
 5241SOL    HW216623   0.679   5.896   6.712
 5242SOL     OW16624   6.224   1.536   5.569
 5242SOL    HW116625   6.145   1.480   5.593
 5242SOL    HW216626   6.308   1.491   5.599
 5243SOL     OW16627   0.969   6.032   0.795
 5243SOL    HW116628   1.028   5.960   0.759
 5243SOL    HW216629   0.996   6.120   0.755
 5244SOL     OW16630   3.825   3.916   5.783
 5244SOL    HW116631   3.767   3.990   5.817
 5244SOL    HW216632   3.921   3.946   5.786
 5245SOL     OW16633   4.092   4.039   5.788
 5245SOL    HW116634   4.046   4.117   5.830
 5245SOL    HW216635   4.155   4.072   5.718
 5246SOL     OW16636   0.157   3.857   2.852
 5246SOL    HW116637   0.100   3.774   2.853
 5246SOL    HW216638   0.250   3.833   2.879
 5247SOL     OW16639   0.257   5.820   0.184
 5247SOL    HW116640   0.340   5.842   0.134
 5247SOL    HW216641   0.251   5.877   0.266
 5248SOL     OW16642   5.328   0.549   5.628
 5248SOL    HW116643   5.413   0.584   5.669
 5248SOL    HW216644   5.250   0.601   5.664
 5249SOL     OW16645   0.996   5.295   4.319
 5249SOL    HW116646   1.093   5.276   4.335
 5249SOL    HW216647   0.949   5.210   4.296
 5250SOL     OW16648   0.328   1.694   6.121
 5250SOL    HW116649   0.254   1.631   6.098
 5250SOL    HW216650   0.338   1.761   6.048
 5251SOL     OW16651   6.921   3.331   0.993
 5251SOL    HW116652   6.960   3.387   1.066
 5251SOL    HW216653   6.987   3.324   0.918
 5252SOL     OW16654   2.445   5.827   1.114
 5252SOL    HW116655   2.379   5.799   1.183
 5252SOL    HW216656   2.405   5.819   1.023
 5253SOL     OW16657   5.972   3.367   4.604
 5253SOL    HW116658   5.984   3.380   4.506
 5253SOL    HW216659   6.050   3.407   4.653
 5254SOL     OW16660   4.815   1.148   3.843
 5254SOL    HW116661   4.852   1.186   3.928
 5254SOL    HW216662   4.719   1.121   3.858
 5255SOL     OW16663   3.708   0.539   4.584
 5255SOL    HW116664   3.629   0.500   4.535
 5255SOL    HW216665   3.788   0.538   4.524
 5256SOL     OW16666   4.823   1.619   3.313
 5256SOL    HW116667   4.796   1.634   3.218
 5256SOL    HW216668   4.867   1.530   3.322
 5257SOL     OW16669   4.110   6.776   1.308
 5257SOL    HW116670   4.085   6.710   1.379
 5257SOL    HW216671   4.053   6.858   1.317
 5258SOL     OW16672   4.832   3.807   1.898
 5258SOL    HW116673   4.745   3.757   1.888
 5258SOL    HW216674   4.869   3.789   1.989
 5259SOL     OW16675   4.876   6.227   2.087
 5259SOL    HW116676   4.848   6.153   2.148
 5259SOL    HW216677   4.799   6.253   2.027
 5260SOL     OW16678   5.346   3.610   0.850
 5260SOL    HW116679   5.389   3.543   0.910
 5260SOL    HW216680   5.335   3.697   0.898
 5261SOL     OW16681   0.558   1.890   5.104
 5261SOL    HW116682   0.646   1.849   5.129
 5261SOL    HW216683   0.484   1.840   5.149
 5262SOL     OW16684   2.745   0.043   2.528
 5262SOL    HW116685   2.653   0.010   2.549
 5262SOL    HW216686   2.740   0.137   2.494
 5263SOL     OW16687   1.890   0.443   6.313
 5263SOL    HW116688   1.819   0.392   6.264
 5263SOL    HW216689   1.850   0.487   6.393
 5264SOL     OW16690   6.523   1.644   1.313
 5264SOL    HW116691   6.553   1.598   1.229
 5264SOL    HW216692   6.582   1.617   1.389
 5265SOL     OW16693   5.496   4.009   2.300
 5265SOL    HW116694   5.499   4.102   2.263
 5265SOL    HW216695   5.402   3.978   2.307
 5266SOL     OW16696   2.413   6.527   1.736
 5266SOL    HW116697   2.343   6.536   1.807
 5266SOL    HW216698   2.464   6.442   1.749
 5267SOL     OW16699   4.739   4.874   6.044
 5267SOL    HW116700   4.718   4.881   5.947
 5267SOL    HW216701   4.665   4.915   6.097
 5268SOL     OW16702   6.622   5.801   5.241
 5268SOL    HW116703   6.554   5.874   5.233
 5268SOL    HW216704   6.671   5.792   5.154
 5269SOL     OW16705   2.351   5.475   3.899
 5269SOL    HW116706   2.279   5.533   3.861
 5269SOL    HW216707   2.412   5.445   3.826
 5270SOL     OW16708   5.279   2.281   1.193
 5270SOL    HW116709   5.209   2.326   1.248
 5270SOL    HW216710   5.261   2.182   1.190
 5271SOL     OW16711   3.973   5.023   5.268
 5271SOL    HW116712   3.939   5.067   5.352
 5271SOL    HW216713   3.915   4.944   5.246
 5272SOL     OW16714   0.991   5.707   4.742
 5272SOL    HW116715   1.033   5.709   4.833
 5272SOL    HW216716   1.012   5.620   4.697
 5273SOL     OW16717   0.781   2.228   3.876
 5273SOL    HW116718   0.808   2.131   3.884
 5273SOL    HW216719   0.774   2.252   3.779
 5274SOL     OW16720   6.481   5.025   3.771
 5274SOL    HW116721   6.563   5.054   3.721
 5274SOL    HW216722   6.479   4.925   3.775
 5275SOL     OW16723   3.612   0.132   6.404
 5275SOL    HW116724   3.543   0.162   6.469
 5275SOL    HW216725   3.602   0.033   6.388
 5276SOL     OW16726   0.048   6.885   0.913
 5276SOL    HW116727   7.018   6.964   0.879
 5276SOL    HW216728   0.129   6.918   0.961
 5277SOL     OW16729   1.817   1.729   3.441
 5277SOL    HW116730   1.899   1.677   3.466
 5277SOL    HW216731   1.736   1.672   3.455
 5278SOL     OW16732   6.017   6.407   6.305
 5278SOL    HW116733   6.068   6.341   6.249
 5278SOL    HW216734   5.993   6.486   6.250
 5279SOL     OW16735   1.333   5.575   6.279
 5279SOL    HW116736   1.326   5.557   6.181
 5279SOL    HW216737   1.382   5.660   6.294
 5280SOL     OW16738   3.860   6.167   5.052
 5280SOL    HW116739   3.943   6.185   4.999
 5280SOL    HW216740   3.781   6.166   4.991
 5281SOL     OW16741   1.150   0.473   4.714
 5281SOL    HW116742   1.184   0.445   4.625
 5281SOL    HW216743   1.162   0.399   4.780
 5282SOL     OW16744   2.273   0.276   2.549
 5282SOL    HW116745   2.234   0.221   2.475
 5282SOL    HW216746   2.199   0.311   2.607
 5283SOL     OW16747   1.344   0.649   3.922
 5283SOL    HW116748   1.351   0.642   4.022
 5283SOL    HW216749   1.385   0.734   3.891
 5284SOL     OW16750   4.924   2.365   2.633
 5284SOL    HW116751   4.833   2.328   2.611
 5284SOL    HW216752   4.986   2.348   2.557
 5285SOL     OW16753   0.710   3.300   3.413
 5285SOL    HW116754   0.611   3.300   3.429
 5285SOL    HW216755   0.757   3.318   3.500
 5286SOL     OW16756   6.209   3.958   0.801
 5286SOL    HW116757   6.289   3.899   0.808
 5286SOL    HW216758   6.233   4.041   0.750
 5287SOL     OW16759   3.032   5.498   2.092
 5287SOL    HW116760   2.988   5.575   2.138
 5287SOL    HW216761   3.067   5.528   2.003
 5288SOL     OW16762   4.796   0.197   2.098
 5288SOL    HW116763   4.739   0.116   2.085
 5288SOL    HW216764   4.772   0.266   2.030
 5289SOL     OW16765   2.096   5.052   6.959
 5289SOL    HW116766   2.101   4.952   6.968
 5289SOL    HW216767   2.133   5.079   6.870
 5290SOL     OW16768   1.751   4.220   5.430
 5290SOL    HW116769   1.657   4.208   5.460
 5290SOL    HW216770   1.757   4.296   5.366
 5291SOL     OW16771   2.555   4.682   5.738
 5291SOL    HW116772   2.645   4.721   5.755
 5291SOL    HW216773   2.539   4.607   5.802
 5292SOL     OW16774   6.306   4.075   6.064
 5292SOL    HW116775   6.221   4.127   6.066
 5292SOL    HW216776   6.286   3.979   6.048
 5293SOL     OW16777   2.093   5.812   4.771
 5293SOL    HW116778   2.168   5.877   4.761
 5293SOL    HW216779   2.090   5.751   4.692
 5294SOL     OW16780   4.294   1.157   5.670
 5294SOL    HW116781   4.334   1.144   5.580
 5294SOL    HW216782   4.195   1.148   5.664
 5295SOL     OW16783   4.016   0.933   3.361
 5295SOL    HW116784   4.113   0.947   3.343
 5295SOL    HW216785   3.982   0.859   3.303
 5296SOL     OW16786   3.866   3.956   0.350
 5296SOL    HW116787   3.784   4.000   0.386
 5296SOL    HW216788   3.943   4.020   0.356
 5297SOL     OW16789   2.264   3.192   0.867
 5297SOL    HW116790   2.220   3.223   0.782
 5297SOL    HW216791   2.271   3.268   0.931
 5298SOL     OW16792   2.330   6.194   6.733
 5298SOL    HW116793   2.344   6.259   6.807
 5298SOL    HW216794   2.388   6.113   6.748
 5299SOL     OW16795   3.461   2.404   0.851
 5299SOL    HW116796   3.409   2.465   0.911
 5299SOL    HW216797   3.405   2.323   0.831
 5300SOL     OW16798   0.787   5.005   0.909
 5300SOL    HW116799   0.800   5.041   1.001
 5300SOL    HW216800   0.849   5.052   0.846
 5301SOL     OW16801   4.389   0.436   6.744
 5301SOL    HW116802   4.334   0.484   6.675
 5301SOL    HW216803   4.385   0.486   6.830
 5302SOL     OW16804   5.374   6.384   4.089
 5302SOL    HW116805   5.369   6.288   4.117
 5302SOL    HW216806   5.416   6.437   4.163
 5303SOL     OW16807   0.303   5.182   5.315
 5303SOL    HW116808   0.402   5.192   5.310
 5303SOL    HW216809   0.269   5.224   5.399
 5304SOL     OW16810   6.125   0.885   0.773
 5304SOL    HW116811   6.029   0.909   0.787
 5304SOL    HW216812   6.169   0.955   0.716
 5305SOL     OW16813   1.340   5.356   2.546
 5305SOL    HW116814   1.371   5.286   2.482
 5305SOL    HW216815   1.419   5.393   2.597
 5306SOL     OW16816   0.215   4.511   5.794
 5306SOL    HW116817   0.199   4.418   5.763
 5306SOL    HW216818   0.310   4.537   5.776
 5307SOL     OW16819   4.741   1.970   0.290
 5307SOL    HW116820   4.707   2.059   0.320
 5307SOL    HW216821   4.696   1.897   0.342
 5308SOL     OW16822   1.233   4.690   2.183
 5308SOL    HW116823   1.184   4.654   2.263
 5308SOL    HW216824   1.327   4.654   2.184
 5309SOL     OW16825   3.264   5.741   2.197
 5309SOL    HW116826   3.173   5.783   2.198
 5309SOL    HW216827   3.279   5.692   2.283
 5310SOL     OW16828   6.499   3.796   2.583
 5310SOL    HW116829   6.550   3.741   2.517
 5310SOL    HW216830   6.558   3.870   2.616
 5311SOL     OW16831   5.564   0.016   6.867
 5311SOL    HW116832   5.645   0.049   6.916
 5311SOL    HW216833   5.562   6.939   6.869
 5312SOL     OW16834   0.326   5.946   1.972
 5312SOL    HW116835   0.376   5.887   1.908
 5312SOL    HW216836   0.390   6.001   2.024
 5313SOL     OW16837   0.566   4.274   5.727
 5313SOL    HW116838   0.584   4.183   5.764
 5313SOL    HW216839   0.622   4.290   5.647
 5314SOL     OW16840   4.222   0.077   0.533
 5314SOL    HW116841   4.154   0.129   0.481
 5314SOL    HW216842   4.208   0.094   0.631
 5315SOL     OW16843   4.630   2.696   3.011
 5315SOL    HW116844   4.696   2.709   3.085
 5315SOL    HW216845   4.663   2.742   2.928
 5316SOL     OW16846   1.280   3.940   5.752
 5316SOL    HW116847   1.191   3.983   5.737
 5316SOL    HW216848   1.304   3.948   5.849
 5317SOL     OW16849   6.233   1.673   5.983
 5317SOL    HW116850   6.192   1.739   6.046
 5317SOL    HW216851   6.303   1.718   5.928
 5318SOL     OW16852   0.399   2.775   0.416
 5318SOL    HW116853   0.345   2.836   0.473
 5318SOL    HW216854   0.442   2.826   0.342
 5319SOL     OW16855   4.366   6.052   1.277
 5319SOL    HW116856   4.386   5.955   1.294
 5319SOL    HW216857   4.406   6.080   1.190
 5320SOL     OW16858   4.248   5.252   1.205
 5320SOL    HW116859   4.264   5.347   1.231
 5320SOL    HW216860   4.202   5.204   1.280
 5321SOL     OW16861   2.443   4.484   4.745
 5321SOL    HW116862   2.403   4.420   4.811
 5321SOL    HW216863   2.410   4.462   4.653
 5322SOL     OW16864   5.324   6.721   0.129
 5322SOL    HW116865   5.277   6.685   0.048
 5322SOL    HW216866   5.401   6.663   0.152
 5323SOL     OW16867   3.974   1.356   5.676
 5323SOL    HW116868   3.972   1.262   5.641
 5323SOL    HW216869   3.904   1.410   5.631
 5324SOL     OW16870   3.297   2.422   0.249
 5324SOL    HW116871   3.373   2.486   0.238
 5324SOL    HW216872   3.333   2.332   0.273
 5325SOL     OW16873   3.249   1.129   4.767
 5325SOL    HW116874   3.187   1.205   4.786
 5325SOL    HW216875   3.287   1.138   4.675
 5326SOL     OW16876   6.950   5.490   3.396
 5326SOL    HW116877   6.977   5.421   3.329
 5326SOL    HW216878   7.003   5.574   3.381
 5327SOL     OW16879   5.950   2.246   4.990
 5327SOL    HW116880   5.967   2.234   4.893
 5327SOL    HW216881   5.911   2.337   5.006
 5328SOL     OW16882   3.195   3.662   6.074
 5328SOL    HW116883   3.140   3.746   6.082
 5328SOL    HW216884   3.260   3.672   5.998
 5329SOL     OW16885   0.662   5.315   6.601
 5329SOL    HW116886   0.737   5.332   6.666
 5329SOL    HW216887   0.583   5.370   6.628
 5330SOL     OW16888   3.598   4.300   6.894
 5330SOL    HW116889   3.619   4.202   6.892
 5330SOL    HW216890   3.652   4.347   6.825
 5331SOL     OW16891   5.942   2.183   6.447
 5331SOL    HW116892   5.896   2.110   6.498
 5331SOL    HW216893   6.014   2.224   6.503
 5332SOL     OW16894   1.233   3.348   1.606
 5332SOL    HW116895   1.289   3.277   1.649
 5332SOL    HW216896   1.150   3.307   1.570
 5333SOL     OW16897   0.941   1.023   2.958
 5333SOL    HW116898   1.024   1.033   2.902
 5333SOL    HW216899   0.967   1.013   3.054
 5334SOL     OW16900   2.974   0.825   4.563
 5334SOL    HW116901   2.909   0.776   4.621
 5334SOL    HW216902   3.028   0.760   4.510
 5335SOL     OW16903   0.159   5.991   0.831
 5335SOL    HW116904   0.176   6.037   0.744
 5335SOL    HW216905   0.098   6.047   0.887
 5336SOL     OW16906   2.128   3.449   2.411
 5336SOL    HW116907   2.192   3.391   2.361
 5336SOL    HW216908   2.083   3.394   2.483
 5337SOL     OW16909   5.054   4.272   1.084
 5337SOL    HW116910   5.025   4.179   1.060
 5337SOL    HW216911   5.064   4.279   1.183
 5338SOL     OW16912   5.900   1.332   0.086
 5338SOL    HW116913   5.991   1.363   0.112
 5338SOL    HW216914   5.907   1.247   0.033
 5339SOL     OW16915   6.877   1.309   3.683
 5339SOL    HW116916   6.907   1.370   3.757
 5339SOL    HW216917   6.825   1.233   3.721
 5340SOL     OW16918   5.336   4.139   0.834
 5340SOL    HW116919   5.307   4.207   0.902
 5340SOL    HW216920   5.411   4.177   0.780
 5341SOL     OW16921   3.639   2.518   6.774
 5341SOL    HW116922   3.667   2.482   6.685
 5341SOL    HW216923   3.714   2.508   6.839
 5342SOL     OW16924   3.834   0.867   4.613
 5342SOL    HW116925   3.746   0.838   4.574
 5342SOL    HW216926   3.828   0.962   4.641
 5343SOL     OW16927   3.338   3.740   4.066
 5343SOL    HW116928   3.274   3.666   4.083
 5343SOL    HW216929   3.301   3.826   4.101
 5344SOL     OW16930   2.072   2.246   2.425
 5344SOL    HW116931   2.136   2.321   2.410
 5344SOL    HW216932   1.979   2.279   2.410
 5345SOL     OW16933   4.240   6.664   1.611
 5345SOL    HW116934   4.186   6.638   1.531
 5345SOL    HW216935   4.300   6.741   1.587
 5346SOL     OW16936   3.089   6.440   3.789
 5346SOL    HW116937   3.055   6.422   3.881
 5346SOL    HW216938   3.123   6.355   3.748
 5347SOL     OW16939   0.062   2.382   1.774
 5347SOL    HW116940   0.074   2.462   1.833
 5347SOL    HW216941   0.114   2.305   1.811
 5348SOL     OW16942   0.796   1.312   0.463
 5348SOL    HW116943   0.891   1.286   0.447
 5348SOL    HW216944   0.784   1.408   0.437
 5349SOL     OW16945   1.154   2.405   0.117
 5349SOL    HW116946   1.079   2.373   0.059
 5349SOL    HW216947   1.195   2.487   0.077
 5350SOL     OW16948   2.043   0.460   5.928
 5350SOL    HW116949   2.085   0.411   6.004
 5350SOL    HW216950   2.064   0.558   5.936
 5351SOL     OW16951   5.144   5.550   1.897
 5351SOL    HW116952   5.097   5.534   1.983
 5351SOL    HW216953   5.116   5.481   1.830
 5352SOL     OW16954   1.896   5.606   4.585
 5352SOL    HW116955   1.966   5.669   4.550
 5352SOL    HW216956   1.812   5.616   4.532
 5353SOL     OW16957   3.331   5.975   4.653
 5353SOL    HW116958   3.265   5.943   4.722
 5353SOL    HW216959   3.344   5.903   4.584
 5354SOL     OW16960   1.502   5.003   1.949
 5354SOL    HW116961   1.472   5.069   2.017
 5354SOL    HW216962   1.506   5.047   1.859
 5355SOL     OW16963   4.920   2.366   3.795
 5355SOL    HW116964   5.013   2.366   3.831
 5355SOL    HW216965   4.911   2.437   3.725
 5356SOL     OW16966   5.921   4.360   1.800
 5356SOL    HW116967   5.996   4.342   1.736
 5356SOL    HW216968   5.954   4.352   1.894
 5357SOL     OW16969   3.265   0.531   0.696
 5357SOL    HW116970   3.332   0.523   0.621
 5357SOL    HW216971   3.302   0.591   0.767
 5358SOL     OW16972   3.852   1.763   0.819
 5358SOL    HW116973   3.929   1.825   0.836
 5358SOL    HW216974   3.795   1.758   0.901
 5359SOL     OW16975   1.870   1.966   6.938
 5359SOL    HW116976   1.867   2.023   7.020
 5359SOL    HW216977   1.837   2.019   6.860
 5360SOL     OW16978   4.012   6.807   4.717
 5360SOL    HW116979   3.932   6.786   4.773
 5360SOL    HW216980   4.095   6.785   4.768
 5361SOL     OW16981   2.186   0.025   4.344
 5361SOL    HW116982   2.193   6.985   4.422
 5361SOL    HW216983   2.115   0.093   4.363
 5362SOL     OW16984   5.241   4.457   3.840
 5362SOL    HW116985   5.211   4.524   3.908
 5362SOL    HW216986   5.332   4.482   3.807
 5363SOL     OW16987   0.826   6.018   6.325
 5363SOL    HW116988   0.813   5.948   6.396
 5363SOL    HW216989   0.829   5.974   6.236
 5364SOL     OW16990   6.856   5.738   1.346
 5364SOL    HW116991   6.813   5.690   1.269
 5364SOL    HW216992   6.789   5.798   1.389
 5365SOL     OW16993   3.881   3.143   6.797
 5365SOL    HW116994   3.925   3.073   6.854
 5365SOL    HW216995   3.912   3.234   6.825
 5366SOL     OW16996   5.189   5.072   1.909
 5366SOL    HW116997   5.259   5.021   1.959
 5366SOL    HW216998   5.137   5.010   1.850
 5367SOL     OW16999   0.241   5.555   0.807
 5367SOL    HW117000   0.162   5.555   0.869
 5367SOL    HW217001   0.240   5.472   0.751
 5368SOL     OW17002   5.116   1.110   3.260
 5368SOL    HW117003   5.150   1.189   3.312
 5368SOL    HW217004   5.042   1.140   3.200
 5369SOL     OW17005   2.797   6.258   3.509
 5369SOL    HW117006   2.697   6.261   3.503
 5369SOL    HW217007   2.832   6.350   3.529
 5370SOL     OW17008   4.132   3.188   1.467
 5370SOL    HW117009   4.037   3.185   1.436
 5370SOL    HW217010   4.143   3.125   1.545
 5371SOL     OW17011   1.809   3.452   3.881
 5371SOL    HW117012   1.809   3.370   3.825
 5371SOL    HW217013   1.784   3.429   3.975
 5372SOL     OW17014   2.051   5.584   2.910
 5372SOL    HW117015   2.042   5.604   3.008
 5372SOL    HW217016   2.135   5.627   2.876
 5373SOL     OW17017   3.157   4.908   3.954
 5373SOL    HW117018   3.096   4.955   3.891
 5373SOL    HW217019   3.104   4.873   4.032
 5374SOL     OW17020   0.891   3.938   6.674
 5374SOL    HW117021   0.896   3.844   6.641
 5374SOL    HW217022   0.983   3.975   6.684
 5375SOL     OW17023   1.604   4.558   4.986
 5375SOL    HW117024   1.624   4.501   4.906
 5375SOL    HW217025   1.512   4.536   5.019
 5376SOL     OW17026   1.699   2.944   1.145
 5376SOL    HW117027   1.711   2.982   1.237
 5376SOL    HW217028   1.735   2.850   1.144
 5377SOL     OW17029   6.856   7.016   1.535
 5377SOL    HW117030   6.763   0.018   1.508
 5377SOL    HW217031   6.856   6.988   1.631
 5378SOL     OW17032   6.799   0.363   1.255
 5378SOL    HW117033   6.851   0.445   1.233
 5378SOL    HW217034   6.756   0.374   1.345
 5379SOL     OW17035   0.696   5.428   4.952
 5379SOL    HW117036   0.771   5.428   4.887
 5379SOL    HW217037   0.650   5.339   4.950
 5380SOL     OW17038   2.110   1.225   3.365
 5380SOL    HW117039   2.165   1.240   3.446
 5380SOL    HW217040   2.166   1.184   3.293
 5381SOL     OW17041   6.609   4.170   0.633
 5381SOL    HW117042   6.604   4.259   0.587
 5381SOL    HW217043   6.657   4.105   0.574
 5382SOL     OW17044   3.082   0.194   1.908
 5382SOL    HW117045   3.119   0.218   1.998
 5382SOL    HW217046   3.045   0.275   1.864
 5383SOL     OW17047   2.647   2.518   5.119
 5383SOL    HW117048   2.715   2.462   5.167
 5383SOL    HW217049   2.624   2.597   5.176
 5384SOL     OW17050   6.225   0.575   4.063
 5384SOL    HW117051   6.167   0.579   4.145
 5384SOL    HW217052   6.175   0.612   3.985
 5385SOL     OW17053   2.902   3.518   3.136
 5385SOL    HW117054   2.898   3.618   3.131
 5385SOL    HW217055   2.880   3.480   3.046
 5386SOL     OW17056   4.422   0.096   4.393
 5386SOL    HW117057   4.374   0.032   4.333
 5386SOL    HW217058   4.508   0.055   4.424
 5387SOL     OW17059   2.538   5.645   3.421
 5387SOL    HW117060   2.555   5.548   3.441
 5387SOL    HW217061   2.442   5.657   3.395
 5388SOL     OW17062   5.174   6.938   3.268
 5388SOL    HW117063   5.122   6.998   3.207
 5388SOL    HW217064   5.127   6.932   3.356
 5389SOL     OW17065   5.187   0.879   1.749
 5389SOL    HW117066   5.278   0.919   1.735
 5389SOL    HW217067   5.128   0.946   1.793
 5390SOL     OW17068   4.361   4.662   3.821
 5390SOL    HW117069   4.365   4.754   3.859
 5390SOL    HW217070   4.331   4.667   3.726
 5391SOL     OW17071   1.864   2.272   0.603
 5391SOL    HW117072   1.939   2.327   0.565
 5391SOL    HW217073   1.901   2.191   0.647
 5392SOL     OW17074   5.971   3.514   1.006
 5392SOL    HW117075   5.972   3.486   0.910
 5392SOL    HW217076   5.944   3.610   1.012
 5393SOL     OW17077   6.098   6.522   6.668
 5393SOL    HW117078   6.030   6.529   6.741
 5393SOL    HW217079   6.058   6.474   6.590
 5394SOL     OW17080   6.786   3.916   6.418
 5394SOL    HW117081   6.767   3.968   6.501
 5394SOL    HW217082   6.708   3.857   6.397
 5395SOL     OW17083   4.930   0.993   1.869
 5395SOL    HW117084   4.851   0.998   1.808
 5395SOL    HW217085   4.975   1.082   1.874
 5396SOL     OW17086   5.357   3.758   2.775
 5396SOL    HW117087   5.288   3.824   2.744
 5396SOL    HW217088   5.338   3.734   2.871
 5397SOL     OW17089   6.491   2.855   1.727
 5397SOL    HW117090   6.422   2.848   1.655
 5397SOL    HW217091   6.452   2.825   1.814
 5398SOL     OW17092   3.423   1.737   2.420
 5398SOL    HW117093   3.448   1.719   2.325
 5398SOL    HW217094   3.504   1.729   2.478
 5399SOL     OW17095   2.368   6.519   0.313
 5399SOL    HW117096   2.287   6.509   0.371
 5399SOL    HW217097   2.392   6.430   0.274
 5400SOL     OW17098   2.747   3.887   0.669
 5400SOL    HW117099   2.658   3.875   0.713
 5400SOL    HW217100   2.734   3.916   0.574
 5401SOL     OW17101   5.716   3.354   1.457
 5401SOL    HW117102   5.708   3.454   1.462
 5401SOL    HW217103   5.632   3.315   1.418
 5402SOL     OW17104   2.474   5.586   1.673
 5402SOL    HW117105   2.449   5.534   1.755
 5402SOL    HW217106   2.561   5.632   1.688
 5403SOL     OW17107   5.818   3.237   6.096
 5403SOL    HW117108   5.889   3.198   6.038
 5403SOL    HW217109   5.861   3.292   6.168
 5404SOL     OW17110   0.854   1.486   3.438
 5404SOL    HW117111   0.859   1.585   3.454
 5404SOL    HW217112   0.850   1.439   3.525
 5405SOL     OW17113   6.097   5.287   0.388
 5405SOL    HW117114   6.179   5.324   0.344
 5405SOL    HW217115   6.057   5.356   0.447
 5406SOL     OW17116   2.081   1.778   6.469
 5406SOL    HW117117   2.121   1.838   6.538
 5406SOL    HW217118   2.133   1.692   6.466
 5407SOL     OW17119   4.437   3.246   1.045
 5407SOL    HW117120   4.522   3.255   1.096
 5407SOL    HW217121   4.455   3.201   0.957
 5408SOL     OW17122   2.956   1.370   6.227
 5408SOL    HW117123   2.887   1.423   6.176
 5408SOL    HW217124   2.952   1.274   6.198
 5409SOL     OW17125   5.053   0.701   3.715
 5409SOL    HW117126   4.974   0.761   3.731
 5409SOL    HW217127   5.124   0.753   3.668
 5410SOL     OW17128   2.829   2.346   1.656
 5410SOL    HW117129   2.852   2.364   1.751
 5410SOL    HW217130   2.748   2.288   1.651
 5411SOL     OW17131   6.484   5.437   5.520
 5411SOL    HW117132   6.437   5.490   5.590
 5411SOL    HW217133   6.445   5.346   5.514
 5412SOL     OW17134   5.086   1.757   0.504
 5412SOL    HW117135   5.163   1.753   0.440
 5412SOL    HW217136   5.114   1.720   0.592
 5413SOL     OW17137   3.136   1.983   1.228
 5413SOL    HW117138   3.051   1.967   1.177
 5413SOL    HW217139   3.128   2.068   1.280
 5414SOL     OW17140   5.089   2.171   4.707
 5414SOL    HW117141   5.078   2.072   4.719
 5414SOL    HW217142   5.162   2.204   4.765
 5415SOL     OW17143   0.943   5.765   1.273
 5415SOL    HW117144   0.910   5.754   1.367
 5415SOL    HW217145   0.872   5.734   1.209
 5416SOL     OW17146   4.912   5.270   5.929
 5416SOL    HW117147   4.946   5.196   5.988
 5416SOL    HW217148   4.850   5.328   5.981
 5417SOL     OW17149   3.925   6.824   5.302
 5417SOL    HW117150   3.837   6.788   5.268
 5417SOL    HW217151   3.907   6.897   5.368
 5418SOL     OW17152   3.412   6.832   3.798
 5418SOL    HW117153   3.313   6.817   3.797
 5418SOL    HW217154   3.451   6.802   3.711
 5419SOL     OW17155   4.091   5.321   0.450
 5419SOL    HW117156   4.133   5.262   0.381
 5419SOL    HW217157   4.159   5.387   0.483
 5420SOL     OW17158   1.750   2.844   2.495
 5420SOL    HW117159   1.690   2.766   2.508
 5420SOL    HW217160   1.843   2.812   2.477
 5421SOL     OW17161   2.123   3.019   2.001
 5421SOL    HW117162   2.031   2.980   2.003
 5421SOL    HW217163   2.138   3.074   2.083
 5422SOL     OW17164   0.378   5.080   0.585
 5422SOL    HW117165   0.442   5.042   0.652
 5422SOL    HW217166   0.304   5.127   0.633
 5423SOL     OW17167   6.551   3.323   0.412
 5423SOL    HW117168   6.535   3.302   0.508
 5423SOL    HW217169   6.565   3.239   0.360
 5424SOL     OW17170   5.845   2.852   3.548
 5424SOL    HW117171   5.862   2.794   3.628
 5424SOL    HW217172   5.748   2.847   3.523
 5425SOL     OW17173   4.517   0.877   4.511
 5425SOL    HW117174   4.591   0.942   4.494
 5425SOL    HW217175   4.434   0.908   4.466
 5426SOL     OW17176   6.433   5.911   4.127
 5426SOL    HW117177   6.378   5.831   4.102
 5426SOL    HW217178   6.444   5.914   4.226
 5427SOL     OW17179   4.862   5.184   6.756
 5427SOL    HW117180   4.923   5.263   6.760
 5427SOL    HW217181   4.772   5.210   6.789
 5428SOL     OW17182   6.873   6.577   1.296
 5428SOL    HW117183   6.923   6.654   1.257
 5428SOL    HW217184   6.842   6.600   1.388
 5429SOL     OW17185   2.232   2.192   6.513
 5429SOL    HW117186   2.305   2.230   6.570
 5429SOL    HW217187   2.175   2.267   6.479
 5430SOL     OW17188   0.424   2.948   5.999
 5430SOL    HW117189   0.491   3.013   5.963
 5430SOL    HW217190   0.352   2.997   6.048
 5431SOL     OW17191   2.877   6.191   0.448
 5431SOL    HW117192   2.879   6.147   0.359
 5431SOL    HW217193   2.790   6.239   0.460
 5432SOL     OW17194   5.316   0.182   6.813
 5432SOL    HW117195   5.251   0.122   6.767
 5432SOL    HW217196   5.403   0.135   6.825
 5433SOL     OW17197   0.333   1.756   4.804
 5433SOL    HW117198   0.368   1.846   4.777
 5433SOL    HW217199   0.303   1.759   4.900
 5434SOL     OW17200   3.279   0.512   5.461
 5434SOL    HW117201   3.183   0.531   5.482
 5434SOL    HW217202   3.337   0.578   5.510
 5435SOL     OW17203   6.036   0.246   2.130
 5435SOL    HW117204   6.000   0.226   2.039
 5435SOL    HW217205   6.125   0.202   2.142
 5436SOL     OW17206   5.333   3.464   4.058
 5436SOL    HW117207   5.273   3.492   4.133
 5436SOL    HW217208   5.279   3.452   3.975
 5437SOL     OW17209   2.535   4.196   0.328
 5437SOL    HW117210   2.446   4.196   0.282
 5437SOL    HW217211   2.607   4.187   0.260
 5438SOL     OW17212   6.729   2.850   2.681
 5438SOL    HW117213   6.702   2.920   2.747
 5438SOL    HW217214   6.652   2.832   2.619
 5439SOL     OW17215   0.679   2.337   0.527
 5439SOL    HW117216   0.614   2.269   0.561
 5439SOL    HW217217   0.734   2.298   0.453
 5440SOL     OW17218   1.099   1.360   1.228
 5440SOL    HW117219   1.098   1.261   1.214
 5440SOL    HW217220   1.188   1.388   1.264
 5441SOL     OW17221   4.658   1.990   2.908
 5441SOL    HW117222   4.667   1.936   2.991
 5441SOL    HW217223   4.633   1.930   2.832
 5442SOL     OW17224   3.126   6.127   4.070
 5442SOL    HW117225   3.146   6.029   4.067
 5442SOL    HW217226   3.176   6.169   4.146
 5443SOL     OW17227   3.127   0.579   3.944
 5443SOL    HW117228   3.192   0.559   4.017
 5443SOL    HW217229   3.168   0.642   3.878
 5444SOL     OW17230   1.375   0.255   4.098
 5444SOL    HW117231   1.398   0.337   4.150
 5444SOL    HW217232   1.334   0.281   4.010
 5445SOL     OW17233   6.138   3.977   3.175
 5445SOL    HW117234   6.225   3.969   3.126
 5445SOL    HW217235   6.150   4.036   3.255
 5446SOL     OW17236   6.509   4.899   4.975
 5446SOL    HW117237   6.528   4.801   4.985
 5446SOL    HW217238   6.557   4.949   5.046
 5447SOL     OW17239   3.222   2.691   6.881
 5447SOL    HW117240   3.260   2.653   6.796
 5447SOL    HW217241   3.288   2.680   6.955
 5448SOL     OW17242   4.466   2.941   5.286
 5448SOL    HW117243   4.400   3.010   5.257
 5448SOL    HW217244   4.418   2.863   5.325
 5449SOL     OW17245   1.582   3.336   6.054
 5449SOL    HW117246   1.592   3.329   5.955
 5449SOL    HW217247   1.671   3.327   6.097
 5450SOL     OW17248   1.757   0.444   1.810
 5450SOL    HW117249   1.665   0.419   1.778
 5450SOL    HW217250   1.767   0.543   1.806
 5451SOL     OW17251   1.895   6.327   3.353
 5451SOL    HW117252   1.958   6.271   3.406
 5451SOL    HW217253   1.805   6.326   3.397
 5452SOL     OW17254   2.291   4.785   0.055
 5452SOL    HW117255   2.387   4.802   0.033
 5452SOL    HW217256   2.276   4.801   0.153
 5453SOL     OW17257   5.841   4.115   1.085
 5453SOL    HW117258   5.797   4.115   1.175
 5453SOL    HW217259   5.799   4.045   1.028
 5454SOL     OW17260   0.223   4.076   6.781
 5454SOL    HW117261   0.182   4.017   6.851
 5454SOL    HW217262   0.184   4.168   6.789
 5455SOL     OW17263   6.387   3.744   0.139
 5455SOL    HW117264   6.339   3.771   0.223
 5455SOL    HW217265   6.378   3.646   0.126
 5456SOL     OW17266   3.598   6.582   6.995
 5456SOL    HW117267   3.614   6.613   6.901
 5456SOL    HW217268   3.510   6.618   0.005
 5457SOL     OW17269   5.482   2.302   0.283
 5457SOL    HW117270   5.495   2.401   0.284
 5457SOL    HW217271   5.423   2.275   0.359
 5458SOL     OW17272   0.274   4.564   6.831
 5458SOL    HW117273   0.269   4.659   6.859
 5458SOL    HW217274   0.362   4.525   6.858
 5459SOL     OW17275   2.171   4.539   0.077
 5459SOL    HW117276   2.227   4.620   0.060
 5459SOL    HW217277   2.098   4.561   0.141
 5460SOL     OW17278   2.806   6.795   2.500
 5460SOL    HW117279   2.866   6.772   2.578
 5460SOL    HW217280   2.785   6.893   2.503
 5461SOL     OW17281   6.200   6.669   5.173
 5461SOL    HW117282   6.251   6.746   5.211
 5461SOL    HW217283   6.102   6.682   5.188
 5462SOL     OW17284   0.943   0.643   0.188
 5462SOL    HW117285   1.041   0.656   0.171
 5462SOL    HW217286   0.891   0.691   0.118
 5463SOL     OW17287   6.464   2.435   0.201
 5463SOL    HW117288   6.400   2.510   0.181
 5463SOL    HW217289   6.436   2.389   0.285
 5464SOL     OW17290   1.491   0.895   4.161
 5464SOL    HW117291   1.524   0.970   4.219
 5464SOL    HW217292   1.561   0.870   4.095
 5465SOL     OW17293   3.752   6.461   3.397
 5465SOL    HW117294   3.835   6.409   3.420
 5465SOL    HW217295   3.678   6.434   3.459
 5466SOL     OW17296   5.672   4.189   5.358
 5466SOL    HW117297   5.633   4.102   5.388
 5466SOL    HW217298   5.600   4.256   5.347
 5467SOL     OW17299   5.190   2.459   2.931
 5467SOL    HW117300   5.174   2.372   2.884
 5467SOL    HW217301   5.130   2.465   3.011
 5468SOL     OW17302   5.261   2.002   4.521
 5468SOL    HW117303   5.202   2.076   4.555
 5468SOL    HW217304   5.288   2.021   4.426
 5469SOL     OW17305   4.002   5.203   0.199
 5469SOL    HW117306   4.074   5.195   0.130
 5469SOL    HW217307   3.913   5.209   0.154
 5470SOL     OW17308   2.591   5.372   3.453
 5470SOL    HW117309   2.680   5.392   3.411
 5470SOL    HW217310   2.564   5.278   3.432
 5471SOL     OW17311   5.371   0.039   1.936
 5471SOL    HW117312   5.452   7.013   1.967
 5471SOL    HW217313   5.317   7.003   1.875
 5472SOL     OW17314   3.654   3.444   6.124
 5472SOL    HW117315   3.692   3.456   6.215
 5472SOL    HW217316   3.715   3.387   6.069
 5473SOL     OW17317   0.653   3.687   3.237
 5473SOL    HW117318   0.647   3.593   3.203
 5473SOL    HW217319   0.569   3.709   3.287
 5474SOL     OW17320   1.198   4.228   3.776
 5474SOL    HW117321   1.261   4.156   3.806
 5474SOL    HW217322   1.201   4.303   3.841
 5475SOL     OW17323   2.234   2.584   0.151
 5475SOL    HW117324   2.139   2.612   0.162
 5475SOL    HW217325   2.258   2.580   0.054
 5476SOL     OW17326   2.549   3.926   6.313
 5476SOL    HW117327   2.522   3.960   6.223
 5476SOL    HW217328   2.468   3.892   6.361
 5477SOL     OW17329   1.870   3.384   3.325
 5477SOL    HW117330   1.918   3.445   3.262
 5477SOL    HW217331   1.912   3.391   3.416
 5478SOL     OW17332   4.570   5.038   5.356
 5478SOL    HW117333   4.471   5.054   5.357
 5478SOL    HW217334   4.596   4.993   5.271
 5479SOL     OW17335   4.983   1.096   5.904
 5479SOL    HW117336   4.907   1.076   5.843
 5479SOL    HW217337   5.012   1.191   5.891
 5480SOL     OW17338   0.287   3.481   3.615
 5480SOL    HW117339   0.296   3.401   3.556
 5480SOL    HW217340   0.219   3.543   3.577
 5481SOL     OW17341   3.758   0.667   4.022
 5481SOL    HW117342   3.761   0.751   4.077
 5481SOL    HW217343   3.845   0.653   3.976
 5482SOL     OW17344   3.709   4.287   1.692
 5482SOL    HW117345   3.701   4.269   1.594
 5482SOL    HW217346   3.621   4.321   1.727
 5483SOL     OW17347   0.460   2.891   5.617
 5483SOL    HW117348   0.559   2.881   5.620
 5483SOL    HW217349   0.417   2.804   5.643
 5484SOL     OW17350   4.928   0.511   4.875
 5484SOL    HW117351   5.019   0.545   4.850
 5484SOL    HW217352   4.937   0.436   4.940
 5485SOL     OW17353   3.749   0.217   5.557
 5485SOL    HW117354   3.727   0.315   5.556
 5485SOL    HW217355   3.671   0.166   5.520
 5486SOL     OW17356   2.685   6.186   5.226
 5486SOL    HW117357   2.722   6.180   5.319
 5486SOL    HW217358   2.586   6.172   5.228
 5487SOL     OW17359   2.997   4.409   6.497
 5487SOL    HW117360   3.089   4.443   6.479
 5487SOL    HW217361   2.932   4.452   6.435
 5488SOL     OW17362   6.815   1.312   0.400
 5488SOL    HW117363   6.858   1.338   0.314
 5488SOL    HW217364   6.871   1.342   0.477
 5489SOL     OW17365   6.528   3.515   2.093
 5489SOL    HW117366   6.573   3.490   2.007
 5489SOL    HW217367   6.431   3.491   2.088
 5490SOL     OW17368   1.482   0.171   2.549
 5490SOL    HW117369   1.545   0.097   2.526
 5490SOL    HW217370   1.388   0.139   2.540
 5491SOL     OW17371   0.297   3.028   0.925
 5491SOL    HW117372   0.272   2.972   0.847
 5491SOL    HW217373   0.268   2.983   1.010
 5492SOL     OW17374   1.276   3.562   5.441
 5492SOL    HW117375   1.340   3.523   5.374
 5492SOL    HW217376   1.327   3.587   5.524
 5493SOL     OW17377   4.117   3.688   2.095
 5493SOL    HW117378   4.072   3.682   2.184
 5493SOL    HW217379   4.196   3.749   2.101
 5494SOL     OW17380   6.492   4.275   4.970
 5494SOL    HW117381   6.536   4.272   5.060
 5494SOL    HW217382   6.550   4.229   4.903
 5495SOL     OW17383   5.900   0.991   0.886
 5495SOL    HW117384   5.865   0.909   0.842
 5495SOL    HW217385   5.823   1.044   0.923
 5496SOL     OW17386   4.277   0.556   3.804
 5496SOL    HW117387   4.244   0.621   3.736
 5496SOL    HW217388   4.272   0.598   3.895
 5497SOL     OW17389   0.497   0.915   5.868
 5497SOL    HW117390   0.494   0.816   5.885
 5497SOL    HW217391   0.511   0.963   5.955
 5498SOL     OW17392   6.924   5.465   1.933
 5498SOL    HW117393   6.883   5.502   2.017
 5498SOL    HW217394   6.892   5.371   1.919
 5499SOL     OW17395   0.240   0.604   3.878
 5499SOL    HW117396   0.156   0.553   3.858
 5499SOL    HW217397   0.231   0.697   3.843
 5500SOL     OW17398   1.425   0.723   6.931
 5500SOL    HW117399   1.516   0.753   6.962
 5500SOL    HW217400   1.427   0.709   6.832
 5501SOL     OW17401   4.232   2.375   0.567
 5501SOL    HW117402   4.167   2.437   0.612
 5501SOL    HW217403   4.302   2.430   0.520
 5502SOL     OW17404   5.095   3.869   6.540
 5502SOL    HW117405   5.080   3.915   6.453
 5502SOL    HW217406   5.055   3.777   6.536
 5503SOL     OW17407   0.526   3.899   0.608
 5503SOL    HW117408   0.499   3.989   0.573
 5503SOL    HW217409   0.615   3.908   0.655
 5504SOL     OW17410   4.810   1.338   6.165
 5504SOL    HW117411   4.783   1.243   6.151
 5504SOL    HW217412   4.821   1.356   6.263
 5505SOL     OW17413   2.187   4.044   3.749
 5505SOL    HW117414   2.276   4.070   3.786
 5505SOL    HW217415   2.120   4.040   3.823
 5506SOL     OW17416   6.644   3.600   6.545
 5506SOL    HW117417   6.657   3.644   6.457
 5506SOL    HW217418   6.563   3.541   6.541
 5507SOL     OW17419   3.667   0.572   5.777
 5507SOL    HW117420   3.716   0.505   5.832
 5507SOL    HW217421   3.711   0.580   5.687
 5508SOL     OW17422   1.407   0.745   0.253
 5508SOL    HW117423   1.344   0.771   0.327
 5508SOL    HW217424   1.354   0.727   0.170
 5509SOL     OW17425   0.928   5.315   0.834
 5509SOL    HW117426   0.926   5.252   0.756
 5509SOL    HW217427   0.915   5.408   0.801
 5510SOL     OW17428   5.281   5.496   6.791
 5510SOL    HW117429   5.378   5.513   6.809
 5510SOL    HW217430   5.267   5.486   6.692
 5511SOL     OW17431   0.874   1.324   5.202
 5511SOL    HW117432   0.792   1.379   5.186
 5511SOL    HW217433   0.938   1.338   5.126
 5512SOL     OW17434   3.554   0.688   1.396
 5512SOL    HW117435   3.649   0.674   1.368
 5512SOL    HW217436   3.551   0.708   1.494
 5513SOL     OW17437   3.462   5.381   6.109
 5513SOL    HW117438   3.453   5.355   6.013
 5513SOL    HW217439   3.538   5.445   6.119
 5514SOL     OW17440   3.702   6.694   4.895
 5514SOL    HW117441   3.676   6.597   4.893
 5514SOL    HW217442   3.630   6.749   4.855
 5515SOL     OW17443   1.934   5.556   2.015
 5515SOL    HW117444   1.930   5.565   1.915
 5515SOL    HW217445   1.888   5.635   2.057
 5516SOL     OW17446   2.313   2.704   4.966
 5516SOL    HW117447   2.298   2.667   4.875
 5516SOL    HW217448   2.342   2.800   4.958
 5517SOL     OW17449   1.837   3.982   2.357
 5517SOL    HW117450   1.851   3.891   2.397
 5517SOL    HW217451   1.793   3.972   2.268
 5518SOL     OW17452   5.973   4.676   6.088
 5518SOL    HW117453   6.007   4.650   6.179
 5518SOL    HW217454   5.894   4.738   6.098
 5519SOL     OW17455   5.021   2.961   3.662
 5519SOL    HW117456   4.955   2.936   3.733
 5519SOL    HW217457   5.086   2.885   3.649
 5520SOL     OW17458   5.799   6.156   2.422
 5520SOL    HW117459   5.834   6.221   2.489
 5520SOL    HW217460   5.820   6.063   2.452
 5521SOL     OW17461   5.341   5.392   2.034
 5521SOL    HW117462   5.274   5.453   1.990
 5521SOL    HW217463   5.328   5.394   2.133
 5522SOL     OW17464   5.905   5.635   1.615
 5522SOL    HW117465   5.962   5.612   1.536
 5522SOL    HW217466   5.823   5.578   1.614
 5523SOL     OW17467   5.541   0.951   3.129
 5523SOL    HW117468   5.442   0.938   3.123
 5523SOL    HW217469   5.582   0.937   3.038
 5524SOL     OW17470   3.592   0.463   5.511
 5524SOL    HW117471   3.539   0.547   5.514
 5524SOL    HW217472   3.620   0.444   5.417
 5525SOL     OW17473   6.774   2.809   0.591
 5525SOL    HW117474   6.681   2.845   0.589
 5525SOL    HW217475   6.812   2.819   0.683
 5526SOL     OW17476   5.044   3.784   3.269
 5526SOL    HW117477   4.992   3.703   3.296
 5526SOL    HW217478   5.028   3.857   3.336
 5527SOL     OW17479   4.832   3.055   4.243
 5527SOL    HW117480   4.808   2.958   4.249
 5527SOL    HW217481   4.905   3.067   4.176
 5528SOL     OW17482   0.827   2.187   1.830
 5528SOL    HW117483   0.888   2.160   1.904
 5528SOL    HW217484   0.733   2.194   1.865
 5529SOL     OW17485   2.265   0.638   3.182
 5529SOL    HW117486   2.230   0.728   3.156
 5529SOL    HW217487   2.254   0.624   3.280
 5530SOL     OW17488   6.880   2.425   2.144
 5530SOL    HW117489   6.783   2.423   2.119
 5530SOL    HW217490   6.929   2.485   2.081
 5531SOL     OW17491   3.746   4.142   1.189
 5531SOL    HW117492   3.756   4.044   1.205
 5531SOL    HW217493   3.806   4.170   1.115
 5532SOL     OW17494   1.665   2.438   0.512
 5532SOL    HW117495   1.646   2.464   0.607
 5532SOL    HW217496   1.728   2.361   0.510
 5533SOL     OW17497   4.772   1.318   4.291
 5533SOL    HW117498   4.766   1.403   4.239
 5533SOL    HW217499   4.690   1.263   4.275
 5534SOL     OW17500   1.155   1.323   5.458
 5534SOL    HW117501   1.180   1.276   5.372
 5534SOL    HW217502   1.089   1.267   5.508
 5535SOL     OW17503   0.597   1.146   2.613
 5535SOL    HW117504   0.622   1.109   2.702
 5535SOL    HW217505   0.596   1.246   2.618
 5536SOL     OW17506   3.500   0.793   4.515
 5536SOL    HW117507   3.468   0.805   4.609
 5536SOL    HW217508   3.428   0.749   4.461
 5537SOL     OW17509   3.730   1.358   2.921
 5537SOL    HW117510   3.651   1.360   2.983
 5537SOL    HW217511   3.731   1.270   2.872
 5538SOL     OW17512   4.213   5.615   4.844
 5538SOL    HW117513   4.214   5.706   4.885
 5538SOL    HW217514   4.292   5.563   4.876
 5539SOL     OW17515   2.053   2.666   0.871
 5539SOL    HW117516   2.117   2.700   0.940
 5539SOL    HW217517   1.992   2.740   0.842
 5540SOL     OW17518   5.114   4.722   3.519
 5540SOL    HW117519   5.184   4.656   3.490
 5540SOL    HW217520   5.097   4.711   3.617
 5541SOL     OW17521   4.495   1.978   6.354
 5541SOL    HW117522   4.563   1.924   6.305
 5541SOL    HW217523   4.537   2.063   6.387
 5542SOL     OW17524   3.645   4.158   5.834
 5542SOL    HW117525   3.694   4.224   5.890
 5542SOL    HW217526   3.548   4.159   5.860
 5543SOL     OW17527   6.423   3.752   6.746
 5543SOL    HW117528   6.498   3.716   6.691
 5543SOL    HW217529   6.460   3.802   6.824
 5544SOL     OW17530   5.736   1.277   5.787
 5544SOL    HW117531   5.663   1.338   5.817
 5544SOL    HW217532   5.706   1.182   5.798
 5545SOL     OW17533   4.459   2.073   2.455
 5545SOL    HW117534   4.429   2.160   2.417
 5545SOL    HW217535   4.409   1.998   2.411
 5546SOL     OW17536   2.125   4.997   6.090
 5546SOL    HW117537   2.194   5.012   6.020
 5546SOL    HW217538   2.098   5.085   6.129
 5547SOL     OW17539   3.256   5.129   5.319
 5547SOL    HW117540   3.304   5.048   5.284
 5547SOL    HW217541   3.157   5.112   5.318
 5548SOL     OW17542   5.994   3.545   5.232
 5548SOL    HW117543   5.954   3.558   5.142
 5548SOL    HW217544   5.991   3.632   5.283
 5549SOL     OW17545   2.971   4.712   6.969
 5549SOL    HW117546   3.021   4.716   6.882
 5549SOL    HW217547   3.024   4.758   0.017
 5550SOL     OW17548   2.422   6.731   1.275
 5550SOL    HW117549   2.445   6.706   1.368
 5550SOL    HW217550   2.398   6.649   1.223
 5551SOL     OW17551   1.356   1.679   3.257
 5551SOL    HW117552   1.356   1.778   3.242
 5551SOL    HW217553   1.418   1.656   3.331
 5552SOL     OW17554   6.935   1.997   1.303
 5552SOL    HW117555   6.985   1.911   1.309
 5552SOL    HW217556   6.839   1.983   1.325
 5553SOL     OW17557   4.419   6.067   0.406
 5553SOL    HW117558   4.355   5.996   0.376
 5553SOL    HW217559   4.443   6.052   0.502
 5554SOL     OW17560   2.962   2.137   5.218
 5554SOL    HW117561   3.032   2.196   5.177
 5554SOL    HW217562   2.958   2.051   5.168
 5555SOL     OW17563   0.427   4.854   3.435
 5555SOL    HW117564   0.334   4.828   3.462
 5555SOL    HW217565   0.451   4.941   3.478
 5556SOL     OW17566   0.388   1.741   5.268
 5556SOL    HW117567   0.409   1.648   5.299
 5556SOL    HW217568   0.360   1.797   5.346
 5557SOL     OW17569   2.372   6.334   3.827
 5557SOL    HW117570   2.418   6.255   3.868
 5557SOL    HW217571   2.410   6.418   3.865
 5558SOL     OW17572   5.295   3.143   4.921
 5558SOL    HW117573   5.274   3.111   4.829
 5558SOL    HW217574   5.325   3.066   4.977
 5559SOL     OW17575   1.478   0.509   1.180
 5559SOL    HW117576   1.466   0.434   1.245
 5559SOL    HW217577   1.414   0.498   1.104
 5560SOL     OW17578   0.303   1.427   3.633
 5560SOL    HW117579   0.254   1.365   3.572
 5560SOL    HW217580   0.246   1.506   3.654
 5561SOL     OW17581   1.705   3.170   3.205
 5561SOL    HW117582   1.757   3.247   3.242
 5561SOL    HW217583   1.622   3.158   3.259
 5562SOL     OW17584   2.238   3.385   6.168
 5562SOL    HW117585   2.318   3.355   6.117
 5562SOL    HW217586   2.264   3.458   6.231
 5563SOL     OW17587   4.619   6.192   2.308
 5563SOL    HW117588   4.520   6.189   2.304
 5563SOL    HW217589   4.655   6.098   2.302
 5564SOL     OW17590   4.992   3.641   1.744
 5564SOL    HW117591   4.963   3.564   1.688
 5564SOL    HW217592   4.912   3.695   1.771
 5565SOL     OW17593   3.771   2.373   5.493
 5565SOL    HW117594   3.855   2.384   5.546
 5565SOL    HW217595   3.692   2.379   5.554
 5566SOL     OW17596   2.163   5.002   1.481
 5566SOL    HW117597   2.251   5.014   1.436
 5566SOL    HW217598   2.091   4.996   1.412
 5567SOL     OW17599   1.684   5.446   1.437
 5567SOL    HW117600   1.752   5.373   1.438
 5567SOL    HW217601   1.647   5.460   1.529
 5568SOL     OW17602   3.859   1.244   1.356
 5568SOL    HW117603   3.799   1.296   1.416
 5568SOL    HW217604   3.831   1.258   1.261
 5569SOL     OW17605   3.911   1.471   0.405
 5569SOL    HW117606   3.931   1.569   0.414
 5569SOL    HW217607   3.943   1.438   0.317
 5570SOL     OW17608   6.336   4.319   5.609
 5570SOL    HW117609   6.248   4.288   5.573
 5570SOL    HW217610   6.367   4.256   5.681
 5571SOL     OW17611   6.602   5.679   0.249
 5571SOL    HW117612   6.625   5.703   0.344
 5571SOL    HW217613   6.673   5.619   0.212
 5572SOL     OW17614   4.725   2.659   6.435
 5572SOL    HW117615   4.652   2.712   6.392
 5572SOL    HW217616   4.740   2.574   6.385
 5573SOL     OW17617   0.983   3.881   1.158
 5573SOL    HW117618   1.013   3.836   1.074
 5573SOL    HW217619   0.885   3.899   1.154
 5574SOL     OW17620   0.838   5.860   5.314
 5574SOL    HW117621   0.920   5.849   5.369
 5574SOL    HW217622   0.860   5.848   5.217
 5575SOL     OW17623   1.159   1.560   1.038
 5575SOL    HW117624   1.139   1.486   1.103
 5575SOL    HW217625   1.182   1.520   0.949
 5576SOL     OW17626   5.983   6.246   0.885
 5576SOL    HW117627   6.016   6.338   0.908
 5576SOL    HW217628   6.046   6.178   0.922
 5577SOL     OW17629   1.720   3.946   5.240
 5577SOL    HW117630   1.765   4.022   5.194
 5577SOL    HW217631   1.769   3.861   5.218
 5578SOL     OW17632   4.239   2.566   0.031
 5578SOL    HW117633   4.205   2.618   0.110
 5578SOL    HW217634   4.261   2.628   6.979
 5579SOL     OW17635   4.963   3.988   6.769
 5579SOL    HW117636   5.025   3.943   6.705
 5579SOL    HW217637   4.982   3.955   6.862
 5580SOL     OW17638   5.724   1.333   0.337
 5580SOL    HW117639   5.770   1.420   0.356
 5580SOL    HW217640   5.753   1.300   0.247
 5581SOL     OW17641   2.258   1.560   6.556
 5581SOL    HW117642   2.345   1.567   6.605
 5581SOL    HW217643   2.182   1.565   6.621
 5582SOL     OW17644   3.795   3.421   3.731
 5582SOL    HW117645   3.836   3.512   3.738
 5582SOL    HW217646   3.753   3.397   3.818
 5583SOL     OW17647   3.716   0.167   1.208
 5583SOL    HW117648   3.722   0.163   1.108
 5583SOL    HW217649   3.639   0.224   1.235
 5584SOL     OW17650   6.384   3.343   3.352
 5584SOL    HW117651   6.361   3.247   3.336
 5584SOL    HW217652   6.365   3.396   3.269
 5585SOL     OW17653   5.854   0.445   4.472
 5585SOL    HW117654   5.903   0.359   4.477
 5585SOL    HW217655   5.827   0.474   4.564
 5586SOL     OW17656   1.899   1.291   5.767
 5586SOL    HW117657   1.933   1.318   5.677
 5586SOL    HW217658   1.878   1.373   5.821
 5587SOL     OW17659   3.354   0.450   4.091
 5587SOL    HW117660   3.409   0.389   4.034
 5587SOL    HW217661   3.413   0.495   4.158
 5588SOL     OW17662   2.711   0.118   5.827
 5588SOL    HW117663   2.677   0.128   5.733
 5588SOL    HW217664   2.799   0.070   5.824
 5589SOL     OW17665   4.500   2.760   6.343
 5589SOL    HW117666   4.463   2.696   6.276
 5589SOL    HW217667   4.495   2.853   6.307
 5590SOL     OW17668   0.445   5.831   4.111
 5590SOL    HW117669   0.415   5.903   4.174
 5590SOL    HW217670   0.387   5.750   4.124
 5591SOL     OW17671   5.608   0.670   0.492
 5591SOL    HW117672   5.560   0.742   0.441
 5591SOL    HW217673   5.579   0.580   0.459
 5592SOL     OW17674   1.821   3.463   2.844
 5592SOL    HW117675   1.883   3.438   2.769
 5592SOL    HW217676   1.770   3.383   2.874
 5593SOL     OW17677   1.423   2.827   5.933
 5593SOL    HW117678   1.444   2.881   6.014
 5593SOL    HW217679   1.418   2.888   5.853
 5594SOL     OW17680   2.072   0.530   0.169
 5594SOL    HW117681   2.081   0.470   0.248
 5594SOL    HW217682   2.115   0.618   0.189
 5595SOL     OW17683   6.988   2.424   6.121
 5595SOL    HW117684   7.012   2.521   6.123
 5595SOL    HW217685   6.902   2.410   6.170
 5596SOL     OW17686   4.854   0.266   2.864
 5596SOL    HW117687   4.856   0.291   2.961
 5596SOL    HW217688   4.821   0.343   2.810
 5597SOL     OW17689   6.792   0.667   6.327
 5597SOL    HW117690   6.710   0.706   6.287
 5597SOL    HW217691   6.789   0.567   6.319
 5598SOL     OW17692   6.762   1.596   3.953
 5598SOL    HW117693   6.715   1.667   4.006
 5598SOL    HW217694   6.731   1.506   3.982
 5599SOL     OW17695   5.167   3.277   2.907
 5599SOL    HW117696   5.262   3.304   2.919
 5599SOL    HW217697   5.135   3.231   2.990
 5600SOL     OW17698   2.117   1.293   2.288
 5600SOL    HW117699   2.125   1.387   2.256
 5600SOL    HW217700   2.113   1.292   2.388
 5601SOL     OW17701   5.768   2.781   5.395
 5601SOL    HW117702   5.787   2.707   5.459
 5601SOL    HW217703   5.676   2.816   5.410
 5602SOL     OW17704   0.151   2.052   3.100
 5602SOL    HW117705   0.193   2.123   3.156
 5602SOL    HW217706   0.066   2.088   3.061
 5603SOL     OW17707   4.217   1.998   4.474
 5603SOL    HW117708   4.131   1.987   4.524
 5603SOL    HW217709   4.205   2.068   4.403
 5604SOL     OW17710   0.542   0.428   4.055
 5604SOL    HW117711   0.451   0.452   4.090
 5604SOL    HW217712   0.556   0.329   4.066
 5605SOL     OW17713   3.012   5.837   4.386
 5605SOL    HW117714   2.967   5.821   4.298
 5605SOL    HW217715   3.110   5.816   4.377
 5606SOL     OW17716   4.590   2.342   0.731
 5606SOL    HW117717   4.551   2.252   0.711
 5606SOL    HW217718   4.677   2.331   0.778
 5607SOL     OW17719   6.292   3.012   2.428
 5607SOL    HW117720   6.312   2.943   2.359
 5607SOL    HW217721   6.222   3.074   2.394
 5608SOL     OW17722   4.364   0.968   3.464
 5608SOL    HW117723   4.394   1.060   3.490
 5608SOL    HW217724   4.369   0.958   3.365
 5609SOL     OW17725   6.756   6.884   0.971
 5609SOL    HW117726   6.711   6.904   1.058
 5609SOL    HW217727   6.783   6.788   0.969
 5610SOL     OW17728   5.143   4.640   6.895
 5610SOL    HW117729   5.124   4.545   6.873
 5610SOL    HW217730   5.090   4.667   6.976
 5611SOL     OW17731   6.927   4.972   1.001
 5611SOL    HW117732   6.964   5.043   1.061
 5611SOL    HW217733   7.003   4.921   0.960
 5612SOL     OW17734   2.539   1.410   0.789
 5612SOL    HW117735   2.594   1.330   0.764
 5612SOL    HW217736   2.445   1.381   0.807
 5613SOL     OW17737   6.893   5.685   5.596
 5613SOL    HW117738   6.824   5.737   5.546
 5613SOL    HW217739   6.944   5.746   5.657
 5614SOL     OW17740   5.963   2.320   3.890
 5614SOL    HW117741   6.002   2.410   3.871
 5614SOL    HW217742   5.948   2.272   3.803
 5615SOL     OW17743   0.404   3.416   3.244
 5615SOL    HW117744   0.487   3.414   3.188
 5615SOL    HW217745   0.324   3.420   3.185
 5616SOL     OW17746   1.910   3.190   2.523
 5616SOL    HW117747   1.952   3.241   2.598
 5616SOL    HW217748   1.939   3.095   2.527
 5617SOL     OW17749   2.041   5.662   6.307
 5617SOL    HW117750   2.120   5.701   6.260
 5617SOL    HW217751   2.052   5.563   6.316
 5618SOL     OW17752   6.920   5.933   3.491
 5618SOL    HW117753   6.865   5.879   3.554
 5618SOL    HW217754   6.989   5.984   3.541
 5619SOL     OW17755   3.665   2.895   4.112
 5619SOL    HW117756   3.692   2.846   4.194
 5619SOL    HW217757   3.674   2.835   4.032
 5620SOL     OW17758   4.930   4.649   5.802
 5620SOL    HW117759   4.879   4.576   5.757
 5620SOL    HW217760   4.951   4.721   5.735
 5621SOL     OW17761   1.338   2.396   5.687
 5621SOL    HW117762   1.391   2.330   5.741
 5621SOL    HW217763   1.386   2.484   5.684
 5622SOL     OW17764   4.898   5.934   4.611
 5622SOL    HW117765   4.980   5.906   4.562
 5622SOL    HW217766   4.862   5.856   4.663
 5623SOL     OW17767   5.178   6.181   3.789
 5623SOL    HW117768   5.196   6.175   3.887
 5623SOL    HW217769   5.081   6.202   3.775
 5624SOL     OW17770   6.747   4.552   4.560
 5624SOL    HW117771   6.839   4.518   4.537
 5624SOL    HW217772   6.748   4.590   4.652
 5625SOL     OW17773   1.126   5.805   5.452
 5625SOL    HW117774   1.156   5.713   5.478
 5625SOL    HW217775   1.187   5.842   5.383
 5626SOL     OW17776   1.640   4.141   4.926
 5626SOL    HW117777   1.552   4.144   4.973
 5626SOL    HW217778   1.710   4.186   4.981
 5627SOL     OW17779   1.185   5.744   6.795
 5627SOL    HW117780   1.139   5.658   6.815
 5627SOL    HW217781   1.283   5.734   6.813
 5628SOL     OW17782   2.741   2.544   1.068
 5628SOL    HW117783   2.718   2.601   1.147
 5628SOL    HW217784   2.772   2.603   0.993
 5629SOL     OW17785   5.233   3.736   1.675
 5629SOL    HW117786   5.252   3.818   1.729
 5629SOL    HW217787   5.141   3.704   1.695
 5630SOL     OW17788   2.240   4.281   7.018
 5630SOL    HW117789   2.244   4.379   0.014
 5630SOL    HW217790   2.144   4.253   7.009
 5631SOL     OW17791   4.307   1.323   1.344
 5631SOL    HW117792   4.373   1.333   1.418
 5631SOL    HW217793   4.216   1.307   1.383
 5632SOL     OW17794   5.779   0.334   5.800
 5632SOL    HW117795   5.784   0.236   5.780
 5632SOL    HW217796   5.684   0.358   5.821
 5633SOL     OW17797   0.954   5.585   5.603
 5633SOL    HW117798   0.978   5.493   5.634
 5633SOL    HW217799   1.032   5.646   5.615
 5634SOL     OW17800   2.763   0.034   0.258
 5634SOL    HW117801   2.666   0.028   0.235
 5634SOL    HW217802   2.805   6.965   0.253
 5635SOL     OW17803   2.155   0.769   6.763
 5635SOL    HW117804   2.207   0.816   6.691
 5635SOL    HW217805   2.210   0.694   6.799
 5636SOL     OW17806   6.291   1.872   5.448
 5636SOL    HW117807   6.346   1.894   5.367
 5636SOL    HW217808   6.288   1.773   5.460
 5637SOL     OW17809   4.978   6.811   4.861
 5637SOL    HW117810   4.953   6.897   4.905
 5637SOL    HW217811   4.895   6.762   4.834
 5638SOL     OW17812   5.374   5.185   0.901
 5638SOL    HW117813   5.410   5.095   0.926
 5638SOL    HW217814   5.347   5.234   0.984
 5639SOL     OW17815   0.715   0.861   1.334
 5639SOL    HW117816   0.746   0.920   1.260
 5639SOL    HW217817   0.616   0.845   1.325
 5640SOL     OW17818   2.556   5.203   2.950
 5640SOL    HW117819   2.622   5.174   2.880
 5640SOL    HW217820   2.571   5.150   3.034
 5641SOL     OW17821   0.756   4.216   3.745
 5641SOL    HW117822   0.736   4.183   3.837
 5641SOL    HW217823   0.854   4.211   3.728
 5642SOL     OW17824   1.485   4.940   0.351
 5642SOL    HW117825   1.545   4.867   0.383
 5642SOL    HW217826   1.413   4.957   0.419
 5643SOL     OW17827   4.584   2.027   4.664
 5643SOL    HW117828   4.603   1.962   4.591
 5643SOL    HW217829   4.572   2.119   4.625
 5644SOL     OW17830   4.473   1.079   5.110
 5644SOL    HW117831   4.509   0.986   5.105
 5644SOL    HW217832   4.538   1.143   5.069
 5645SOL     OW17833   5.734   5.639   3.709
 5645SOL    HW117834   5.666   5.574   3.741
 5645SOL    HW217835   5.731   5.722   3.765
 5646SOL     OW17836   0.624   6.560   3.899
 5646SOL    HW117837   0.705   6.618   3.908
 5646SOL    HW217838   0.543   6.618   3.887
 5647SOL     OW17839   5.599   5.542   5.956
 5647SOL    HW117840   5.531   5.472   5.934
 5647SOL    HW217841   5.567   5.597   6.033
 5648SOL     OW17842   1.744   1.654   3.867
 5648SOL    HW117843   1.844   1.654   3.866
 5648SOL    HW217844   1.712   1.681   3.958
 5649SOL     OW17845   0.771   1.103   5.317
 5649SOL    HW117846   0.820   1.185   5.286
 5649SOL    HW217847   0.812   1.022   5.275
 5650SOL     OW17848   6.738   4.673   6.933
 5650SOL    HW117849   6.679   4.734   6.881
 5650SOL    HW217850   6.818   4.649   6.879
 5651SOL     OW17851   6.736   0.917   2.042
 5651SOL    HW117852   6.828   0.923   2.080
 5651SOL    HW217853   6.675   0.875   2.109
 5652SOL     OW17854   4.772   5.119   1.358
 5652SOL    HW117855   4.844   5.173   1.402
 5652SOL    HW217856   4.813   5.043   1.307
 5653SOL     OW17857   0.608   5.936   5.671
 5653SOL    HW117858   0.630   6.033   5.665
 5653SOL    HW217859   0.676   5.890   5.728
 5654SOL     OW17860   6.815   0.079   5.532
 5654SOL    HW117861   6.884   0.144   5.501
 5654SOL    HW217862   6.728   0.098   5.485
 5655SOL     OW17863   0.161   3.640   4.407
 5655SOL    HW117864   0.114   3.652   4.320
 5655SOL    HW217865   0.140   3.717   4.467
 5656SOL     OW17866   3.502   4.054   0.195
 5656SOL    HW117867   3.502   4.144   0.152
 5656SOL    HW217868   3.545   3.987   0.134
 5657SOL     OW17869   3.503   7.016   1.501
 5657SOL    HW117870   3.410   6.985   1.522
 5657SOL    HW217871   3.563   6.996   1.579
 5658SOL     OW17872   3.696   6.925   5.732
 5658SOL    HW117873   3.792   6.953   5.732
 5658SOL    HW217874   3.682   6.855   5.662
 5659SOL     OW17875   2.913   3.733   2.784
 5659SOL    HW117876   3.006   3.696   2.779
 5659SOL    HW217877   2.911   3.823   2.740
 5660SOL     OW17878   4.657   0.073   6.355
 5660SOL    HW117879   4.701   0.147   6.406
 5660SOL    HW217880   4.661   7.011   6.408
 5661SOL     OW17881   6.731   5.623   4.272
 5661SOL    HW117882   6.649   5.655   4.223
 5661SOL    HW217883   6.791   5.701   4.290
 5662SOL     OW17884   2.049   4.501   4.014
 5662SOL    HW117885   1.974   4.505   3.947
 5662SOL    HW217886   2.130   4.546   3.976
 5663SOL     OW17887   1.247   3.854   0.881
 5663SOL    HW117888   1.244   3.755   0.872
 5663SOL    HW217889   1.179   3.895   0.821
 5664SOL     OW17890   6.938   4.529   2.223
 5664SOL    HW117891   7.018   4.550   2.167
 5664SOL    HW217892   6.863   4.591   2.199
 5665SOL     OW17893   2.230   3.478   5.454
 5665SOL    HW117894   2.324   3.454   5.479
 5665SOL    HW217895   2.218   3.468   5.356
 5666SOL     OW17896   5.369   4.663   1.037
 5666SOL    HW117897   5.417   4.724   1.100
 5666SOL    HW217898   5.428   4.642   0.959
 5667SOL     OW17899   6.412   5.169   3.025
 5667SOL    HW117900   6.497   5.206   2.988
 5667SOL    HW217901   6.392   5.212   3.113
 5668SOL     OW17902   5.391   2.306   6.360
 5668SOL    HW117903   5.380   2.390   6.414
 5668SOL    HW217904   5.468   2.317   6.296
 5669SOL     OW17905   0.791   4.855   6.241
 5669SOL    HW117906   0.794   4.833   6.143
 5669SOL    HW217907   0.696   4.864   6.270
 5670SOL     OW17908   0.126   3.375   4.482
 5670SOL    HW117909   0.178   3.454   4.449
 5670SOL    HW217910   0.176   3.332   4.557
 5671SOL     OW17911   1.886   0.847   6.415
 5671SOL    HW117912   1.828   0.923   6.445
 5671SOL    HW217913   1.975   0.882   6.387
 5672SOL     OW17914   4.996   4.329   5.965
 5672SOL    HW117915   4.932   4.360   5.894
 5672SOL    HW217916   5.081   4.381   5.959
 5673SOL     OW17917   0.318   0.307   1.942
 5673SOL    HW117918   0.332   0.308   2.041
 5673SOL    HW217919   0.384   0.245   1.899
 5674SOL     OW17920   6.974   3.672   1.340
 5674SOL    HW117921   7.000   3.723   1.423
 5674SOL    HW217922   6.884   3.701   1.310
 5675SOL     OW17923   4.466   2.459   5.320
 5675SOL    HW117924   4.543   2.504   5.276
 5675SOL    HW217925   4.406   2.528   5.361
 5676SOL     OW17926   1.996   0.339   1.718
 5676SOL    HW117927   2.002   0.320   1.620
 5676SOL    HW217928   1.916   0.395   1.737
 5677SOL     OW17929   6.082   0.707   3.848
 5677SOL    HW117930   6.173   0.729   3.815
 5677SOL    HW217931   6.016   0.774   3.813
 5678SOL     OW17932   3.071   6.852   3.072
 5678SOL    HW117933   3.115   6.928   3.024
 5678SOL    HW217934   3.088   6.861   3.170
 5679SOL     OW17935   2.024   6.640   5.224
 5679SOL    HW117936   2.010   6.570   5.294
 5679SOL    HW217937   1.999   6.729   5.261
 5680SOL     OW17938   2.084   6.080   6.655
 5680SOL    HW117939   2.061   6.110   6.562
 5680SOL    HW217940   2.154   6.140   6.693
 5681SOL     OW17941   1.153   2.920   6.905
 5681SOL    HW117942   1.144   2.825   6.876
 5681SOL    HW217943   1.235   2.960   6.863
 5682SOL     OW17944   1.144   2.923   5.699
 5682SOL    HW117945   1.090   2.840   5.686
 5682SOL    HW217946   1.086   2.996   5.735
 5683SOL     OW17947   3.180   2.706   6.337
 5683SOL    HW117948   3.091   2.707   6.382
 5683SOL    HW217949   3.245   2.653   6.391
 5684SOL     OW17950   3.697   3.906   4.068
 5684SOL    HW117951   3.722   3.971   4.140
 5684SOL    HW217952   3.746   3.929   3.984
 5685SOL     OW17953   0.082   4.686   2.417
 5685SOL    HW117954   0.001   4.683   2.358
 5685SOL    HW217955   0.061   4.739   2.499
 5686SOL     OW17956   3.945   0.071   0.695
 5686SOL    HW117957   3.914   0.146   0.753
 5686SOL    HW217958   3.880   7.018   0.701
 5687SOL     OW17959   5.377   5.056   5.499
 5687SOL    HW117960   5.314   5.025   5.428
 5687SOL    HW217961   5.470   5.057   5.464
 5688SOL     OW17962   5.534   2.505   1.371
 5688SOL    HW117963   5.592   2.430   1.401
 5688SOL    HW217964   5.439   2.487   1.395
 5689SOL     OW17965   4.327   1.752   0.894
 5689SOL    HW117966   4.366   1.709   0.813
 5689SOL    HW217967   4.232   1.779   0.876
 5690SOL     OW17968   4.426   5.879   0.896
 5690SOL    HW117969   4.419   5.783   0.867
 5690SOL    HW217970   4.343   5.906   0.945
 5691SOL     OW17971   2.426   6.980   1.827
 5691SOL    HW117972   2.462   6.948   1.915
 5691SOL    HW217973   2.473   0.042   1.801
 5692SOL     OW17974   6.259   3.234   5.938
 5692SOL    HW117975   6.234   3.173   5.863
 5692SOL    HW217976   6.359   3.235   5.948
 5693SOL     OW17977   4.625   2.649   2.493
 5693SOL    HW117978   4.593   2.583   2.425
 5693SOL    HW217979   4.673   2.724   2.446
 5694SOL     OW17980   0.111   0.859   3.489
 5694SOL    HW117981   0.193   0.808   3.462
 5694SOL    HW217982   0.137   0.950   3.520
 5695SOL     OW17983   1.630   2.775   3.270
 5695SOL    HW117984   1.535   2.787   3.241
 5695SOL    HW217985   1.684   2.741   3.194
 5696SOL     OW17986   2.566   1.251   5.087
 5696SOL    HW117987   2.638   1.193   5.048
 5696SOL    HW217988   2.602   1.343   5.101
 5697SOL     OW17989   0.075   2.426   0.385
 5697SOL    HW117990   7.016   2.478   0.409
 5697SOL    HW217991   0.120   2.468   0.306
 5698SOL     OW17992   1.073   2.998   1.600
 5698SOL    HW117993   1.025   2.911   1.595
 5698SOL    HW217994   1.099   3.016   1.695
 5699SOL     OW17995   6.344   1.016   4.852
 5699SOL    HW117996   6.310   1.011   4.758
 5699SOL    HW217997   6.266   1.026   4.915
 5700SOL     OW17998   1.378   6.042   5.498
 5700SOL    HW117999   1.396   5.974   5.427
 5700SOL    HW218000   1.289   6.084   5.482
 5701SOL     OW18001   0.075   6.002   2.044
 5701SOL    HW118002   0.037   5.913   2.070
 5701SOL    HW218003   0.174   5.994   2.033
 5702SOL     OW18004   2.254   6.516   6.513
 5702SOL    HW118005   2.280   6.457   6.589
 5702SOL    HW218006   2.249   6.611   6.546
 5703SOL     OW18007   4.709   4.684   0.160
 5703SOL    HW118008   4.706   4.585   0.166
 5703SOL    HW218009   4.673   4.724   0.245
 5704SOL     OW18010   4.730   5.372   3.591
 5704SOL    HW118011   4.821   5.336   3.607
 5704SOL    HW218012   4.730   5.428   3.508
 5705SOL     OW18013   5.936   0.101   1.291
 5705SOL    HW118014   5.954   0.140   1.201
 5705SOL    HW218015   5.922   0.002   1.283
 5706SOL     OW18016   1.248   1.410   6.755
 5706SOL    HW118017   1.266   1.401   6.657
 5706SOL    HW218018   1.321   1.366   6.806
 5707SOL     OW18019   1.788   1.182   6.121
 5707SOL    HW118020   1.850   1.258   6.144
 5707SOL    HW218021   1.842   1.104   6.088
 5708SOL     OW18022   5.059   0.149   2.062
 5708SOL    HW118023   4.961   0.172   2.066
 5708SOL    HW218024   5.107   0.196   2.136
 5709SOL     OW18025   0.904   6.113   3.512
 5709SOL    HW118026   0.906   6.108   3.412
 5709SOL    HW218027   0.911   6.021   3.550
 5710SOL     OW18028   3.016   3.273   6.043
 5710SOL    HW118029   3.016   3.364   6.084
 5710SOL    HW218030   3.092   3.266   5.978
 5711SOL     OW18031   5.061   1.028   3.817
 5711SOL    HW118032   4.976   1.079   3.809
 5711SOL    HW218033   5.049   0.937   3.777
 5712SOL     OW18034   6.941   6.513   5.629
 5712SOL    HW118035   6.950   6.470   5.719
 5712SOL    HW218036   6.877   6.461   5.573
 5713SOL     OW18037   0.081   2.963   2.290
 5713SOL    HW118038   0.082   3.016   2.206
 5713SOL    HW218039   7.011   2.964   2.329
 5714SOL     OW18040   1.545   0.649   6.144
 5714SOL    HW118041   1.616   0.587   6.109
 5714SOL    HW218042   1.574   0.744   6.130
 5715SOL     OW18043   1.580   6.346   2.547
 5715SOL    HW118044   1.489   6.382   2.569
 5715SOL    HW218045   1.644   6.421   2.539
 5716SOL     OW18046   1.723   3.863   6.366
 5716SOL    HW118047   1.696   3.955   6.336
 5716SOL    HW218048   1.732   3.803   6.287
 5717SOL     OW18049   1.297   4.466   1.362
 5717SOL    HW118050   1.259   4.376   1.339
 5717SOL    HW218051   1.327   4.466   1.457
 5718SOL     OW18052   1.946   4.878   6.556
 5718SOL    HW118053   2.007   4.910   6.484
 5718SOL    HW218054   1.931   4.779   6.546
 5719SOL     OW18055   3.374   0.611   6.404
 5719SOL    HW118056   3.421   0.559   6.476
 5719SOL    HW218057   3.418   0.594   6.316
 5720SOL     OW18058   1.205   5.428   5.075
 5720SOL    HW118059   1.134   5.423   5.145
 5720SOL    HW218060   1.242   5.336   5.058
 5721SOL     OW18061   0.555   3.115   0.688
 5721SOL    HW118062   0.643   3.121   0.640
 5721SOL    HW218063   0.569   3.077   0.779
 5722SOL     OW18064   5.508   0.542   5.076
 5722SOL    HW118065   5.531   0.594   4.993
 5722SOL    HW218066   5.450   0.465   5.052
 5723SOL     OW18067   3.941   5.474   0.223
 5723SOL    HW118068   4.006   5.542   0.190
 5723SOL    HW218069   3.969   5.383   0.193
 5724SOL     OW18070   5.498   2.212   5.975
 5724SOL    HW118071   5.500   2.244   6.070
 5724SOL    HW218072   5.544   2.280   5.917
 5725SOL     OW18073   4.998   5.386   4.509
 5725SOL    HW118074   4.977   5.294   4.477
 5725SOL    HW218075   4.996   5.387   4.609
 5726SOL     OW18076   5.383   3.487   5.930
 5726SOL    HW118077   5.330   3.403   5.929
 5726SOL    HW218078   5.477   3.467   5.958
 5727SOL     OW18079   5.652   2.156   3.305
 5727SOL    HW118080   5.710   2.138   3.225
 5727SOL    HW218081   5.704   2.137   3.389
 5728SOL     OW18082   6.325   1.030   5.482
 5728SOL    HW118083   6.272   1.070   5.556
 5728SOL    HW218084   6.412   1.079   5.474
 5729SOL     OW18085   6.965   1.355   6.430
 5729SOL    HW118086   6.893   1.312   6.376
 5729SOL    HW218087   6.991   1.294   6.505
 5730SOL     OW18088   4.106   5.812   5.736
 5730SOL    HW118089   4.083   5.907   5.713
 5730SOL    HW218090   4.145   5.809   5.827
 5731SOL     OW18091   2.032   0.513   3.815
 5731SOL    HW118092   2.013   0.430   3.866
 5731SOL    HW218093   2.122   0.507   3.772
 5732SOL     OW18094   6.142   5.119   4.716
 5732SOL    HW118095   6.139   5.197   4.654
 5732SOL    HW218096   6.098   5.144   4.803
 5733SOL     OW18097   3.264   0.895   0.067
 5733SOL    HW118098   3.191   0.946   0.022
 5733SOL    HW218099   3.231   0.859   0.154
 5734SOL     OW18100   1.698   6.937   5.608
 5734SOL    HW118101   1.644   7.021   5.594
 5734SOL    HW218102   1.767   6.954   5.678
 5735SOL     OW18103   4.262   0.870   2.250
 5735SOL    HW118104   4.261   0.960   2.208
 5735SOL    HW218105   4.210   0.872   2.336
 5736SOL     OW18106   4.678   4.595   6.632
 5736SOL    HW118107   4.727   4.537   6.567
 5736SOL    HW218108   4.740   4.620   6.707
 5737SOL     OW18109   4.920   5.476   1.583
 5737SOL    HW118110   4.888   5.538   1.512
 5737SOL    HW218111   4.946   5.388   1.542
 5738SOL     OW18112   3.445   1.161   6.576
 5738SOL    HW118113   3.529   1.207   6.549
 5738SOL    HW218114   3.462   1.103   6.656
 5739SOL     OW18115   2.564   0.361   5.803
 5739SOL    HW118116   2.488   0.345   5.740
 5739SOL    HW218117   2.617   0.277   5.815
 5740SOL     OW18118   5.480   3.479   1.077
 5740SOL    HW118119   5.510   3.536   1.153
 5740SOL    HW218120   5.410   3.415   1.108
 5741SOL     OW18121   0.903   4.048   4.299
 5741SOL    HW118122   0.812   4.085   4.281
 5741SOL    HW218123   0.897   3.950   4.317
 5742SOL     OW18124   3.932   0.151   3.275
 5742SOL    HW118125   4.010   0.109   3.229
 5742SOL    HW218126   3.893   0.222   3.216
 5743SOL     OW18127   3.590   4.518   5.582
 5743SOL    HW118128   3.522   4.580   5.621
 5743SOL    HW218129   3.544   4.450   5.525
 5744SOL     OW18130   5.728   0.197   2.782
 5744SOL    HW118131   5.680   0.261   2.722
 5744SOL    HW218132   5.664   0.158   2.848
 5745SOL     OW18133   2.431   2.681   4.019
 5745SOL    HW118134   2.347   2.648   4.063
 5745SOL    HW218135   2.450   2.626   3.939
 5746SOL     OW18136   3.452   0.173   3.026
 5746SOL    HW118137   3.517   0.183   3.102
 5746SOL    HW218138   3.360   0.192   3.059
 5747SOL     OW18139   1.219   6.030   1.931
 5747SOL    HW118140   1.129   6.066   1.905
 5747SOL    HW218141   1.217   6.003   2.028
 5748SOL     OW18142   0.189   5.956   0.438
 5748SOL    HW118143   0.178   6.036   0.498
 5748SOL    HW218144   0.185   5.873   0.492
 5749SOL     OW18145   1.930   6.502   5.471
 5749SOL    HW118146   1.954   6.454   5.556
 5749SOL    HW218147   1.861   6.450   5.422
 5750SOL     OW18148   0.314   4.022   4.361
 5750SOL    HW118149   0.347   3.944   4.415
 5750SOL    HW218150   0.217   4.009   4.342
 5751SOL     OW18151   2.152   3.784   4.244
 5751SOL    HW118152   2.160   3.749   4.150
 5751SOL    HW218153   2.159   3.708   4.308
 5752SOL     OW18154   5.438   0.083   0.598
 5752SOL    HW118155   5.340   0.087   0.615
 5752SOL    HW218156   5.454   0.052   0.504
 5753SOL     OW18157   3.083   4.084   4.904
 5753SOL    HW118158   3.117   4.125   4.989
 5753SOL    HW218159   3.045   4.156   4.846
 5754SOL     OW18160   1.092   6.350   1.672
 5754SOL    HW118161   1.063   6.354   1.577
 5754SOL    HW218162   1.023   6.300   1.725
 5755SOL     OW18163   2.214   2.486   6.879
 5755SOL    HW118164   2.226   2.548   6.801
 5755SOL    HW218165   2.117   2.478   6.901
 5756SOL     OW18166   6.403   6.330   1.851
 5756SOL    HW118167   6.333   6.314   1.782
 5756SOL    HW218168   6.493   6.328   1.808
 5757SOL     OW18169   7.022   6.356   3.654
 5757SOL    HW118170   6.970   6.291   3.709
 5757SOL    HW218171   6.984   6.358   3.561
 5758SOL     OW18172   1.636   6.495   2.896
 5758SOL    HW118173   1.726   6.473   2.860
 5758SOL    HW218174   1.588   6.411   2.920
 5759SOL     OW18175   4.621   7.005   1.384
 5759SOL    HW118176   4.698   7.008   1.448
 5759SOL    HW218177   4.633   0.052   1.314
 5760SOL     OW18178   6.819   3.257   2.061
 5760SOL    HW118179   6.735   3.248   2.113
 5760SOL    HW218180   6.884   3.314   2.112
 5761SOL     OW18181   5.464   5.988   4.699
 5761SOL    HW118182   5.402   6.005   4.622
 5761SOL    HW218183   5.462   5.891   4.723
 5762SOL     OW18184   5.497   4.214   0.200
 5762SOL    HW118185   5.527   4.176   0.288
 5762SOL    HW218186   5.493   4.142   0.131
 5763SOL     OW18187   5.188   0.396   0.501
 5763SOL    HW118188   5.235   0.463   0.558
 5763SOL    HW218189   5.195   0.424   0.405
 5764SOL     OW18190   4.318   5.365   3.687
 5764SOL    HW118191   4.238   5.311   3.660
 5764SOL    HW218192   4.313   5.455   3.645
 5765SOL     OW18193   6.527   5.270   0.801
 5765SOL    HW118194   6.446   5.262   0.742
 5765SOL    HW218195   6.589   5.193   0.781
 5766SOL     OW18196   1.311   1.902   4.506
 5766SOL    HW118197   1.212   1.889   4.508
 5766SOL    HW218198   1.350   1.848   4.431
 5767SOL     OW18199   1.683   0.524   0.880
 5767SOL    HW118200   1.776   0.514   0.845
 5767SOL    HW218201   1.635   0.437   0.871
 5768SOL     OW18202   6.949   6.751   3.803
 5768SOL    HW118203   6.933   6.787   3.896
 5768SOL    HW218204   6.918   6.656   3.798
 5769SOL     OW18205   2.232   5.647   6.582
 5769SOL    HW118206   2.167   5.692   6.643
 5769SOL    HW218207   2.183   5.606   6.505
 5770SOL     OW18208   0.734   6.057   0.570
 5770SOL    HW118209   0.701   6.081   0.479
 5770SOL    HW218210   0.828   6.023   0.563
 5771SOL     OW18211   1.977   5.709   4.156
 5771SOL    HW118212   1.909   5.659   4.102
 5771SOL    HW218213   2.011   5.651   4.230
 5772SOL     OW18214   4.687   0.940   1.732
 5772SOL    HW118215   4.681   0.862   1.670
 5772SOL    HW218216   4.674   1.025   1.681
 5773SOL     OW18217   4.597   2.052   2.189
 5773SOL    HW118218   4.519   2.059   2.127
 5773SOL    HW218219   4.564   2.030   2.281
 5774SOL     OW18220   1.577   6.640   4.207
 5774SOL    HW118221   1.555   6.544   4.227
 5774SOL    HW218222   1.645   6.644   4.133
 5775SOL     OW18223   0.556   5.578   3.041
 5775SOL    HW118224   0.624   5.519   3.086
 5775SOL    HW218225   0.548   5.663   3.092
 5776SOL     OW18226   1.890   0.611   3.104
 5776SOL    HW118227   1.804   0.656   3.079
 5776SOL    HW218228   1.914   0.544   3.034
 5777SOL     OW18229   1.458   0.334   3.178
 5777SOL    HW118230   1.410   0.395   3.114
 5777SOL    HW218231   1.475   0.382   3.264
 5778SOL     OW18232   1.312   1.099   6.810
 5778SOL    HW118233   1.284   1.093   6.715
 5778SOL    HW218234   1.265   1.029   6.864
 5779SOL     OW18235   5.000   2.327   6.701
 5779SOL    HW118236   4.902   2.319   6.718
 5779SOL    HW218237   5.017   2.396   6.631
 5780SOL     OW18238   5.890   5.415   4.355
 5780SOL    HW118239   5.794   5.428   4.329
 5780SOL    HW218240   5.942   5.385   4.275
 5781SOL     OW18241   6.693   4.772   5.390
 5781SOL    HW118242   6.714   4.725   5.305
 5781SOL    HW218243   6.635   4.713   5.447
 5782SOL     OW18244   0.828   1.240   0.081
 5782SOL    HW118245   0.755   1.192   0.034
 5782SOL    HW218246   0.914   1.192   0.068
 5783SOL     OW18247   1.275   1.639   1.978
 5783SOL    HW118248   1.278   1.628   1.879
 5783SOL    HW218249   1.249   1.553   2.021
 5784SOL     OW18250   0.574   6.199   6.820
 5784SOL    HW118251   0.488   6.244   6.795
 5784SOL    HW218252   0.651   6.255   6.788
 5785SOL     OW18253   2.665   2.108   0.278
 5785SOL    HW118254   2.589   2.149   0.329
 5785SOL    HW218255   2.740   2.173   0.272
 5786SOL     OW18256   6.646   4.340   0.306
 5786SOL    HW118257   6.664   4.413   0.240
 5786SOL    HW218258   6.671   4.252   0.265
 5787SOL     OW18259   1.961   2.063   5.576
 5787SOL    HW118260   1.976   1.992   5.507
 5787SOL    HW218261   2.029   2.135   5.565
 5788SOL     OW18262   2.611   1.434   2.530
 5788SOL    HW118263   2.637   1.528   2.552
 5788SOL    HW218264   2.620   1.420   2.431
 5789SOL     OW18265   3.486   4.940   6.281
 5789SOL    HW118266   3.387   4.951   6.272
 5789SOL    HW218267   3.511   4.846   6.256
 5790SOL     OW18268   0.149   3.295   4.195
 5790SOL    HW118269   0.120   3.365   4.260
 5790SOL    HW218270   0.219   3.333   4.134
 5791SOL     OW18271   3.135   0.338   2.250
 5791SOL    HW118272   3.191   0.263   2.214
 5791SOL    HW218273   3.117   0.321   2.347
 5792SOL     OW18274   0.752   2.383   3.051
 5792SOL    HW118275   0.685   2.350   2.985
 5792SOL    HW218276   0.707   2.400   3.139
 5793SOL     OW18277   6.201   1.170   3.351
 5793SOL    HW118278   6.228   1.106   3.423
 5793SOL    HW218279   6.119   1.136   3.305
 5794SOL     OW18280   3.866   2.325   0.125
 5794SOL    HW118281   3.896   2.232   0.105
 5794SOL    HW218282   3.923   2.364   0.197
 5795SOL     OW18283   5.791   5.369   5.530
 5795SOL    HW118284   5.745   5.403   5.612
 5795SOL    HW218285   5.854   5.295   5.556
 5796SOL     OW18286   3.548   0.916   0.214
 5796SOL    HW118287   3.465   0.947   0.167
 5796SOL    HW218288   3.528   0.901   0.311
 5797SOL     OW18289   4.186   1.550   4.717
 5797SOL    HW118290   4.234   1.462   4.714
 5797SOL    HW218291   4.218   1.603   4.795
 5798SOL     OW18292   0.665   3.530   5.796
 5798SOL    HW118293   0.567   3.539   5.782
 5798SOL    HW218294   0.713   3.589   5.731
 5799SOL     OW18295   5.323   0.777   4.039
 5799SOL    HW118296   5.414   0.804   4.071
 5799SOL    HW218297   5.330   0.742   3.946
 5800SOL     OW18298   5.294   6.018   0.956
 5800SOL    HW118299   5.232   5.956   0.909
 5800SOL    HW218300   5.263   6.031   1.050
 5801SOL     OW18301   0.712   2.096   4.441
 5801SOL    HW118302   0.725   2.078   4.343
 5801SOL    HW218303   0.616   2.080   4.465
 5802SOL     OW18304   0.709   4.600   6.853
 5802SOL    HW118305   0.804   4.572   6.864
 5802SOL    HW218306   0.649   4.528   6.886
 5803SOL     OW18307   1.422   5.117   1.442
 5803SOL    HW118308   1.343   5.057   1.426
 5803SOL    HW218309   1.417   5.195   1.380
 5804SOL     OW18310   6.232   4.452   3.820
 5804SOL    HW118311   6.232   4.522   3.891
 5804SOL    HW218312   6.202   4.365   3.859
 5805SOL     OW18313   3.661   4.012   6.778
 5805SOL    HW118314   3.710   4.091   6.741
 5805SOL    HW218315   3.626   3.956   6.702
 5806SOL     OW18316   0.322   6.537   6.639
 5806SOL    HW118317   0.339   6.447   6.681
 5806SOL    HW218318   0.224   6.557   6.643
 5807SOL     OW18319   1.137   3.902   1.905
 5807SOL    HW118320   1.216   3.840   1.903
 5807SOL    HW218321   1.164   3.988   1.949
 5808SOL     OW18322   5.620   3.692   2.761
 5808SOL    HW118323   5.520   3.692   2.761
 5808SOL    HW218324   5.653   3.764   2.822
 5809SOL     OW18325   6.662   2.541   4.325
 5809SOL    HW118326   6.760   2.550   4.342
 5809SOL    HW218327   6.645   2.549   4.227
 5810SOL     OW18328   3.035   0.891   4.116
 5810SOL    HW118329   3.075   0.809   4.075
 5810SOL    HW218330   2.953   0.917   4.066
 5811SOL     OW18331   2.961   0.772   4.865
 5811SOL    HW118332   2.986   0.862   4.828
 5811SOL    HW218333   3.043   0.727   4.900
 5812SOL     OW18334   5.347   0.186   4.244
 5812SOL    HW118335   5.378   0.276   4.276
 5812SOL    HW218336   5.278   0.198   4.174
 5813SOL     OW18337   1.216   1.141   6.324
 5813SOL    HW118338   1.273   1.223   6.320
 5813SOL    HW218339   1.205   1.113   6.419
 5814SOL     OW18340   6.667   4.564   0.701
 5814SOL    HW118341   6.731   4.496   0.738
 5814SOL    HW218342   6.585   4.518   0.667
 5815SOL     OW18343   4.481   2.542   3.674
 5815SOL    HW118344   4.441   2.466   3.725
 5815SOL    HW218345   4.486   2.518   3.577
 5816SOL     OW18346   5.472   6.531   0.592
 5816SOL    HW118347   5.392   6.511   0.649
 5816SOL    HW218348   5.478   6.464   0.518
 5817SOL     OW18349   5.638   2.921   5.804
 5817SOL    HW118350   5.680   2.989   5.744
 5817SOL    HW218351   5.555   2.960   5.845
 5818SOL     OW18352   0.120   6.107   4.557
 5818SOL    HW118353   0.056   6.098   4.481
 5818SOL    HW218354   0.071   6.096   4.643
 5819SOL     OW18355   4.149   0.533   0.361
 5819SOL    HW118356   4.152   0.632   0.353
 5819SOL    HW218357   4.150   0.492   0.270
 5820SOL     OW18358   4.327   6.883   3.860
 5820SOL    HW118359   4.256   6.954   3.856
 5820SOL    HW218360   4.283   6.794   3.869
 5821SOL     OW18361   1.712   0.267   2.641
 5821SOL    HW118362   1.754   0.185   2.679
 5821SOL    HW218363   1.616   0.249   2.620
 5822SOL     OW18364   0.434   2.008   2.200
 5822SOL    HW118365   0.356   1.954   2.230
 5822SOL    HW218366   0.498   1.949   2.152
 5823SOL     OW18367   1.134   1.021   5.472
 5823SOL    HW118368   1.227   1.001   5.502
 5823SOL    HW218369   1.109   0.957   5.399
 5824SOL     OW18370   0.027   6.302   3.003
 5824SOL    HW118371   6.955   6.292   3.032
 5824SOL    HW218372   0.056   6.398   3.013
 5825SOL     OW18373   2.206   2.419   5.606
 5825SOL    HW118374   2.136   2.450   5.542
 5825SOL    HW218375   2.292   2.404   5.557
 5826SOL     OW18376   0.013   5.898   5.720
 5826SOL    HW118377   0.093   5.872   5.774
 5826SOL    HW218378   0.037   5.971   5.657
 5827SOL     OW18379   1.743   5.270   4.411
 5827SOL    HW118380   1.761   5.199   4.342
 5827SOL    HW218381   1.806   5.257   4.488
 5828SOL     OW18382   0.069   3.091   2.064
 5828SOL    HW118383   0.139   3.140   2.012
 5828SOL    HW218384   7.019   3.060   2.002
 5829SOL     OW18385   2.732   1.409   2.821
 5829SOL    HW118386   2.790   1.390   2.900
 5829SOL    HW218387   2.789   1.427   2.740
 5830SOL     OW18388   3.953   0.688   5.282
 5830SOL    HW118389   3.974   0.664   5.188
 5830SOL    HW218390   3.969   0.609   5.341
 5831SOL     OW18391   6.517   6.992   4.269
 5831SOL    HW118392   6.498   0.008   4.179
 5831SOL    HW218393   6.431   6.982   4.320
 5832SOL     OW18394   4.002   3.572   5.568
 5832SOL    HW118395   3.918   3.594   5.617
 5832SOL    HW218396   4.078   3.625   5.605
 5833SOL     OW18397   3.619   3.407   4.471
 5833SOL    HW118398   3.612   3.347   4.552
 5833SOL    HW218399   3.689   3.477   4.488
 5834SOL     OW18400   5.746   2.037   0.516
 5834SOL    HW118401   5.685   2.037   0.596
 5834SOL    HW218402   5.715   2.105   0.450
 5835SOL     OW18403   4.979   2.597   3.063
 5835SOL    HW118404   5.036   2.677   3.081
 5835SOL    HW218405   4.952   2.596   2.967
 5836SOL     OW18406   2.546   6.414   3.588
 5836SOL    HW118407   2.516   6.337   3.645
 5836SOL    HW218408   2.490   6.494   3.609
 5837SOL     OW18409   3.960   4.660   6.252
 5837SOL    HW118410   4.011   4.706   6.324
 5837SOL    HW218411   3.955   4.719   6.172
 5838SOL     OW18412   2.232   1.366   5.964
 5838SOL    HW118413   2.188   1.454   5.945
 5838SOL    HW218414   2.257   1.362   6.061
 5839SOL     OW18415   0.402   2.484   2.298
 5839SOL    HW118416   0.336   2.487   2.223
 5839SOL    HW218417   0.387   2.562   2.359
 5840SOL     OW18418   1.446   5.277   0.011
 5840SOL    HW118419   1.457   5.360   0.067
 5840SOL    HW218420   1.509   5.207   0.042
 5841SOL     OW18421   5.847   3.013   2.176
 5841SOL    HW118422   5.836   3.071   2.257
 5841SOL    HW218423   5.774   2.945   2.174
 5842SOL     OW18424   4.092   3.613   1.093
 5842SOL    HW118425   4.034   3.592   1.172
 5842SOL    HW218426   4.092   3.712   1.076
 5843SOL     OW18427   2.282   4.091   2.364
 5843SOL    HW118428   2.280   4.037   2.448
 5843SOL    HW218429   2.262   4.032   2.286
 5844SOL     OW18430   0.205   6.846   6.006
 5844SOL    HW118431   0.113   6.808   6.005
 5844SOL    HW218432   0.227   6.882   5.915
 5845SOL     OW18433   0.748   0.898   3.123
 5845SOL    HW118434   0.790   0.941   3.043
 5845SOL    HW218435   0.650   0.917   3.123
 5846SOL     OW18436   6.493   3.280   4.801
 5846SOL    HW118437   6.501   3.380   4.795
 5846SOL    HW218438   6.526   3.249   4.889
 5847SOL     OW18439   2.213   1.835   2.076
 5847SOL    HW118440   2.181   1.851   1.983
 5847SOL    HW218441   2.179   1.908   2.136
 5848SOL     OW18442   2.538   4.857   3.506
 5848SOL    HW118443   2.465   4.790   3.494
 5848SOL    HW218444   2.599   4.827   3.579
 5849SOL     OW18445   0.127   0.543   6.230
 5849SOL    HW118446   0.150   0.536   6.133
 5849SOL    HW218447   0.170   0.468   6.280
 5850SOL     OW18448   1.191   3.001   1.837
 5850SOL    HW118449   1.218   2.963   1.926
 5850SOL    HW218450   1.269   3.044   1.794
 5851SOL     OW18451   5.115   2.830   3.071
 5851SOL    HW118452   5.192   2.865   3.124
 5851SOL    HW218453   5.127   2.854   2.975
 5852SOL     OW18454   4.640   6.883   2.731
 5852SOL    HW118455   4.725   6.862   2.683
 5852SOL    HW218456   4.612   6.976   2.710
 5853SOL     OW18457   3.467   5.991   5.731
 5853SOL    HW118458   3.553   6.033   5.761
 5853SOL    HW218459   3.466   5.987   5.631
 5854SOL     OW18460   6.500   3.238   6.044
 5854SOL    HW118461   6.576   3.299   6.019
 5854SOL    HW218462   6.533   3.144   6.049
 5855SOL     OW18463   0.677   0.634   4.954
 5855SOL    HW118464   0.610   0.691   5.002
 5855SOL    HW218465   0.684   0.665   4.859
 5856SOL     OW18466   2.214   5.277   3.754
 5856SOL    HW118467   2.227   5.338   3.676
 5856SOL    HW218468   2.292   5.285   3.816
 5857SOL     OW18469   5.464   2.817   4.833
 5857SOL    HW118470   5.542   2.760   4.807
 5857SOL    HW218471   5.455   2.892   4.767
 5858SOL     OW18472   2.640   2.479   1.876
 5858SOL    HW118473   2.649   2.545   1.802
 5858SOL    HW218474   2.730   2.442   1.899
 5859SOL     OW18475   5.515   6.363   0.931
 5859SOL    HW118476   5.437   6.402   0.980
 5859SOL    HW218477   5.585   6.335   0.997
 5860SOL     OW18478   2.243   3.735   1.803
 5860SOL    HW118479   2.227   3.682   1.886
 5860SOL    HW218480   2.282   3.824   1.826
 5861SOL     OW18481   5.553   1.581   3.853
 5861SOL    HW118482   5.533   1.611   3.946
 5861SOL    HW218483   5.485   1.513   3.824
 5862SOL     OW18484   4.444   5.174   3.177
 5862SOL    HW118485   4.359   5.203   3.221
 5862SOL    HW218486   4.497   5.255   3.152
 5863SOL     OW18487   2.844   0.875   5.142
 5863SOL    HW118488   2.835   0.830   5.053
 5863SOL    HW218489   2.770   0.942   5.152
 5864SOL     OW18490   3.896   3.975   1.622
 5864SOL    HW118491   3.800   3.998   1.636
 5864SOL    HW218492   3.911   3.952   1.526
 5865SOL     OW18493   5.037   0.487   4.163
 5865SOL    HW118494   4.957   0.481   4.222
 5865SOL    HW218495   5.007   0.500   4.068
 5866SOL     OW18496   4.008   6.266   6.595
 5866SOL    HW118497   3.950   6.314   6.662
 5866SOL    HW218498   3.952   6.206   6.539
 5867SOL     OW18499   0.493   3.387   0.695
 5867SOL    HW118500   0.497   3.289   0.677
 5867SOL    HW218501   0.576   3.431   0.659
 5868SOL     OW18502   0.075   0.418   4.734
 5868SOL    HW118503   7.020   0.356   4.724
 5868SOL    HW218504   0.052   0.489   4.801
 5869SOL     OW18505   1.947   4.881   3.728
 5869SOL    HW118506   1.962   4.966   3.678
 5869SOL    HW218507   1.952   4.803   3.665
 5870SOL     OW18508   4.872   5.561   4.979
 5870SOL    HW118509   4.920   5.627   5.038
 5870SOL    HW218510   4.825   5.494   5.036
 5871SOL     OW18511   4.320   3.996   0.253
 5871SOL    HW118512   4.419   3.986   0.238
 5871SOL    HW218513   4.294   3.945   0.335
 5872SOL     OW18514   4.032   5.594   6.928
 5872SOL    HW118515   3.932   5.588   6.927
 5872SOL    HW218516   4.062   5.636   7.014
 5873SOL     OW18517   1.838   2.656   0.557
 5873SOL    HW118518   1.787   2.586   0.507
 5873SOL    HW218519   1.775   2.713   0.609
 5874SOL     OW18520   2.758   2.967   1.432
 5874SOL    HW118521   2.744   2.921   1.520
 5874SOL    HW218522   2.794   3.059   1.449
 5875SOL     OW18523   3.943   1.368   0.142
 5875SOL    HW118524   3.969   1.410   0.054
 5875SOL    HW218525   3.959   1.269   0.137
 5876SOL     OW18526   3.463   2.887   6.490
 5876SOL    HW118527   3.544   2.857   6.438
 5876SOL    HW218528   3.460   2.838   6.577
 5877SOL     OW18529   6.203   6.537   1.318
 5877SOL    HW118530   6.239   6.538   1.225
 5877SOL    HW218531   6.249   6.467   1.372
 5878SOL     OW18532   5.728   6.046   3.132
 5878SOL    HW118533   5.756   6.127   3.080
 5878SOL    HW218534   5.662   6.073   3.202
 5879SOL     OW18535   3.711   2.794   5.932
 5879SOL    HW118536   3.685   2.889   5.913
 5879SOL    HW218537   3.730   2.747   5.846
 5880SOL     OW18538   4.452   3.942   5.796
 5880SOL    HW118539   4.389   3.952   5.719
 5880SOL    HW218540   4.403   3.958   5.882
 5881SOL     OW18541   1.155   6.832   2.779
 5881SOL    HW118542   1.206   6.901   2.830
 5881SOL    HW218543   1.148   6.859   2.683
 5882SOL     OW18544   1.611   6.523   5.982
 5882SOL    HW118545   1.561   6.567   6.056
 5882SOL    HW218546   1.660   6.443   6.018
 5883SOL     OW18547   0.235   2.595   0.230
 5883SOL    HW118548   0.210   2.677   0.178
 5883SOL    HW218549   0.316   2.614   0.284
 5884SOL     OW18550   6.658   0.879   4.386
 5884SOL    HW118551   6.591   0.821   4.340
 5884SOL    HW218552   6.643   0.876   4.485
 5885SOL     OW18553   0.693   5.649   0.372
 5885SOL    HW118554   0.726   5.743   0.376
 5885SOL    HW218555   0.632   5.633   0.450
 5886SOL     OW18556   1.338   2.878   2.989
 5886SOL    HW118557   1.395   2.907   2.912
 5886SOL    HW218558   1.289   2.956   3.027
 5887SOL     OW18559   2.282   1.779   1.774
 5887SOL    HW118560   2.325   1.720   1.842
 5887SOL    HW218561   2.183   1.781   1.788
 5888SOL     OW18562   2.850   0.476   0.848
 5888SOL    HW118563   2.779   0.430   0.901
 5888SOL    HW218564   2.908   0.529   0.909
 5889SOL     OW18565   6.857   1.547   1.388
 5889SOL    HW118566   6.868   1.565   1.290
 5889SOL    HW218567   6.845   1.633   1.437
 5890SOL     OW18568   2.020   6.457   2.261
 5890SOL    HW118569   2.026   6.407   2.348
 5890SOL    HW218570   1.952   6.413   2.202
 5891SOL     OW18571   2.634   3.589   0.237
 5891SOL    HW118572   2.597   3.496   0.245
 5891SOL    HW218573   2.734   3.585   0.230
 5892SOL     OW18574   0.420   4.197   0.757
 5892SOL    HW118575   0.373   4.109   0.747
 5892SOL    HW218576   0.445   4.232   0.667
 5893SOL     OW18577   1.064   5.102   1.328
 5893SOL    HW118578   1.056   5.194   1.366
 5893SOL    HW218579   1.110   5.042   1.394
 5894SOL     OW18580   0.903   5.528   5.898
 5894SOL    HW118581   0.953   5.607   5.863
 5894SOL    HW218582   0.804   5.546   5.894
 5895SOL     OW18583   6.267   3.306   4.563
 5895SOL    HW118584   6.291   3.217   4.524
 5895SOL    HW218585   6.326   3.325   4.641
 5896SOL     OW18586   5.562   1.500   1.733
 5896SOL    HW118587   5.479   1.536   1.776
 5896SOL    HW218588   5.643   1.539   1.778
 5897SOL     OW18589   3.785   1.751   1.737
 5897SOL    HW118590   3.735   1.829   1.699
 5897SOL    HW218591   3.858   1.723   1.675
 5898SOL     OW18592   2.232   2.006   5.632
 5898SOL    HW118593   2.331   1.997   5.633
 5898SOL    HW218594   2.193   1.943   5.564
 5899SOL     OW18595   6.816   5.383   6.085
 5899SOL    HW118596   6.824   5.480   6.065
 5899SOL    HW218597   6.866   5.330   6.016
 5900SOL     OW18598   0.344   5.425   2.903
 5900SOL    HW118599   0.361   5.327   2.889
 5900SOL    HW218600   0.421   5.466   2.951
 5901SOL     OW18601   1.101   0.526   6.973
 5901SOL    HW118602   1.067   0.468   6.899
 5901SOL    HW218603   1.164   0.474   0.007
 5902SOL     OW18604   5.525   3.401   4.746
 5902SOL    HW118605   5.573   3.429   4.828
 5902SOL    HW218606   5.468   3.476   4.713
 5903SOL     OW18607   5.464   3.037   6.979
 5903SOL    HW118608   5.491   2.941   6.970
 5903SOL    HW218609   5.539   3.095   6.946
 5904SOL     OW18610   1.219   4.883   1.402
 5904SOL    HW118611   1.300   4.855   1.351
 5904SOL    HW218612   1.177   4.803   1.445
 5905SOL     OW18613   5.209   0.899   3.592
 5905SOL    HW118614   5.147   0.894   3.514
 5905SOL    HW218615   5.234   0.995   3.609
 5906SOL     OW18616   5.821   1.491   5.408
 5906SOL    HW118617   5.797   1.394   5.408
 5906SOL    HW218618   5.918   1.501   5.430
 5907SOL     OW18619   1.795   1.014   0.182
 5907SOL    HW118620   1.888   1.002   0.218
 5907SOL    HW218621   1.751   1.091   0.228
 5908SOL     OW18622   4.811   3.330   0.280
 5908SOL    HW118623   4.877   3.357   0.210
 5908SOL    HW218624   4.787   3.234   0.268
 5909SOL     OW18625   0.811   4.283   5.549
 5909SOL    HW118626   0.907   4.308   5.564
 5909SOL    HW218627   0.787   4.297   5.453
 5910SOL     OW18628   1.359   4.076   1.637
 5910SOL    HW118629   1.452   4.049   1.611
 5910SOL    HW218630   1.335   4.161   1.590
 5911SOL     OW18631   0.267   5.486   6.113
 5911SOL    HW118632   0.176   5.459   6.145
 5911SOL    HW218633   0.336   5.451   6.176
 5912SOL     OW18634   5.916   3.309   7.022
 5912SOL    HW118635   5.992   3.337   0.058
 5912SOL    HW218636   5.833   3.356   0.027
 5913SOL     OW18637   2.322   2.680   5.692
 5913SOL    HW118638   2.275   2.600   5.656
 5913SOL    HW218639   2.255   2.746   5.727
 5914SOL     OW18640   2.643   6.303   0.155
 5914SOL    HW118641   2.629   6.287   0.253
 5914SOL    HW218642   2.718   6.367   0.142
 5915SOL     OW18643   5.612   2.648   2.886
 5915SOL    HW118644   5.512   2.648   2.889
 5915SOL    HW218645   5.644   2.734   2.844
 5916SOL     OW18646   4.508   0.297   5.967
 5916SOL    HW118647   4.434   0.260   6.024
 5916SOL    HW218648   4.469   0.347   5.890
 5917SOL     OW18649   3.872   2.978   3.503
 5917SOL    HW118650   3.901   3.059   3.553
 5917SOL    HW218651   3.943   2.952   3.437
 5918SOL     OW18652   1.443   3.586   4.250
 5918SOL    HW118653   1.405   3.678   4.257
 5918SOL    HW218654   1.538   3.591   4.221
 5919SOL     OW18655   3.039   2.292   0.743
 5919SOL    HW118656   2.945   2.275   0.712
 5919SOL    HW218657   3.104   2.259   0.674
 5920SOL     OW18658   3.314   6.550   7.014
 5920SOL    HW118659   3.347   6.510   6.929
 5920SOL    HW218660   3.286   6.645   6.998
 5921SOL     OW18661   4.074   5.329   5.638
 5921SOL    HW118662   4.143   5.320   5.711
 5921SOL    HW218663   4.105   5.396   5.571
 5922SOL     OW18664   6.533   4.541   2.837
 5922SOL    HW118665   6.447   4.511   2.876
 5922SOL    HW218666   6.601   4.554   2.909
 5923SOL     OW18667   6.311   0.313   3.832
 5923SOL    HW118668   6.292   0.221   3.799
 5923SOL    HW218669   6.337   0.310   3.929
 5924SOL     OW18670   5.381   2.514   4.660
 5924SOL    HW118671   5.323   2.498   4.740
 5924SOL    HW218672   5.464   2.562   4.688
 5925SOL     OW18673   4.727   6.063   2.855
 5925SOL    HW118674   4.634   6.046   2.824
 5925SOL    HW218675   4.760   6.150   2.818
 5926SOL     OW18676   3.475   5.695   2.036
 5926SOL    HW118677   3.402   5.726   2.097
 5926SOL    HW218678   3.450   5.607   1.996
 5927SOL     OW18679   2.616   6.025   1.190
 5927SOL    HW118680   2.640   6.031   1.287
 5927SOL    HW218681   2.533   5.971   1.179
 5928SOL     OW18682   2.091   0.624   2.053
 5928SOL    HW118683   2.081   0.559   2.128
 5928SOL    HW218684   2.187   0.631   2.027
 5929SOL     OW18685   1.062   6.595   5.890
 5929SOL    HW118686   1.036   6.541   5.969
 5929SOL    HW218687   1.075   6.690   5.917
 5930SOL     OW18688   6.336   1.529   4.035
 5930SOL    HW118689   6.255   1.587   4.033
 5930SOL    HW218690   6.368   1.513   3.942
 5931SOL     OW18691   5.922   5.504   1.967
 5931SOL    HW118692   5.915   5.483   1.870
 5931SOL    HW218693   5.904   5.421   2.020
 5932SOL     OW18694   2.211   6.600   0.823
 5932SOL    HW118695   2.225   6.515   0.772
 5932SOL    HW218696   2.120   6.599   0.865
 5933SOL     OW18697   0.200   4.125   2.300
 5933SOL    HW118698   0.127   4.175   2.345
 5933SOL    HW218699   0.226   4.046   2.357
 5934SOL     OW18700   3.943   3.500   2.971
 5934SOL    HW118701   3.935   3.432   2.898
 5934SOL    HW218702   3.999   3.462   3.045
 5935SOL     OW18703   3.801   4.054   4.659
 5935SOL    HW118704   3.882   4.000   4.638
 5935SOL    HW218705   3.796   4.069   4.758
 5936SOL     OW18706   4.529   4.488   6.821
 5936SOL    HW118707   4.558   4.516   6.729
 5936SOL    HW218708   4.509   4.390   6.821
 5937SOL     OW18709   0.854   3.562   1.454
 5937SOL    HW118710   0.946   3.599   1.437
 5937SOL    HW218711   0.792   3.637   1.479
 5938SOL     OW18712   1.698   4.826   3.543
 5938SOL    HW118713   1.615   4.849   3.594
 5938SOL    HW218714   1.747   4.753   3.591
 5939SOL     OW18715   3.262   0.603   3.003
 5939SOL    HW118716   3.182   0.606   2.944
 5939SOL    HW218717   3.299   0.695   3.014
 5940SOL     OW18718   3.861   6.669   2.125
 5940SOL    HW118719   3.830   6.712   2.040
 5940SOL    HW218720   3.876   6.739   2.195
 5941SOL     OW18721   5.856   5.043   2.096
 5941SOL    HW118722   5.926   5.098   2.049
 5941SOL    HW218723   5.893   5.006   2.181
 5942SOL     OW18724   4.252   3.030   6.607
 5942SOL    HW118725   4.319   2.956   6.616
 5942SOL    HW218726   4.276   3.104   6.670
 5943SOL     OW18727   2.271   6.190   0.842
 5943SOL    HW118728   2.296   6.267   0.784
 5943SOL    HW218729   2.249   6.223   0.934
 5944SOL     OW18730   5.261   1.537   1.766
 5944SOL    HW118731   5.280   1.554   1.669
 5944SOL    HW218732   5.188   1.469   1.775
 5945SOL     OW18733   6.849   5.057   5.351
 5945SOL    HW118734   6.848   4.986   5.422
 5945SOL    HW218735   6.771   5.045   5.290
 5946SOL     OW18736   3.355   4.102   5.908
 5946SOL    HW118737   3.323   4.032   5.972
 5946SOL    HW218738   3.311   4.089   5.819
 5947SOL     OW18739   4.271   3.272   1.826
 5947SOL    HW118740   4.244   3.206   1.756
 5947SOL    HW218741   4.228   3.247   1.913
 5948SOL     OW18742   3.746   5.080   2.859
 5948SOL    HW118743   3.830   5.028   2.870
 5948SOL    HW218744   3.764   5.177   2.875
 5949SOL     OW18745   3.738   4.670   0.836
 5949SOL    HW118746   3.750   4.638   0.742
 5949SOL    HW218747   3.828   4.686   0.878
 5950SOL     OW18748   5.477   1.776   4.611
 5950SOL    HW118749   5.477   1.859   4.555
 5950SOL    HW218750   5.469   1.696   4.552
 5951SOL     OW18751   1.672   6.558   4.646
 5951SOL    HW118752   1.626   6.572   4.558
 5951SOL    HW218753   1.771   6.559   4.632
 5952SOL     OW18754   6.557   5.791   3.849
 5952SOL    HW118755   6.460   5.809   3.835
 5952SOL    HW218756   6.596   5.862   3.907
 5953SOL     OW18757   6.891   3.100   5.134
 5953SOL    HW118758   6.972   3.123   5.188
 5953SOL    HW218759   6.919   3.077   5.041
 5954SOL     OW18760   6.742   4.827   5.853
 5954SOL    HW118761   6.816   4.863   5.910
 5954SOL    HW218762   6.745   4.727   5.855
 5955SOL     OW18763   5.649   5.660   2.035
 5955SOL    HW118764   5.733   5.619   1.999
 5955SOL    HW218765   5.628   5.743   1.984
 5956SOL     OW18766   4.057   1.789   6.995
 5956SOL    HW118767   3.971   1.796   0.023
 5956SOL    HW218768   4.127   1.746   0.030
 5957SOL     OW18769   4.866   6.311   6.338
 5957SOL    HW118770   4.932   6.340   6.269
 5957SOL    HW218771   4.902   6.231   6.386
 5958SOL     OW18772   6.388   6.168   2.178
 5958SOL    HW118773   6.382   6.173   2.278
 5958SOL    HW218774   6.400   6.260   2.141
 5959SOL     OW18775   3.262   1.873   5.649
 5959SOL    HW118776   3.176   1.852   5.695
 5959SOL    HW218777   3.246   1.935   5.573
 5960SOL     OW18778   3.320   0.028   4.031
 5960SOL    HW118779   3.402   6.999   4.004
 5960SOL    HW218780   3.244   6.987   4.044
 5961SOL     OW18781   3.981   0.902   4.255
 5961SOL    HW118782   4.016   0.861   4.339
 5961SOL    HW218783   3.882   0.918   4.263
 5962SOL     OW18784   5.352   5.496   2.779
 5962SOL    HW118785   5.372   5.442   2.697
 5962SOL    HW218786   5.273   5.555   2.761
 5963SOL     OW18787   3.401   3.828   3.613
 5963SOL    HW118788   3.435   3.770   3.687
 5963SOL    HW218789   3.401   3.777   3.527
 5964SOL     OW18790   6.629   5.247   6.750
 5964SOL    HW118791   6.667   5.192   6.825
 5964SOL    HW218792   6.555   5.305   6.785
 5965SOL     OW18793   1.882   2.167   6.476
 5965SOL    HW118794   1.928   2.253   6.451
 5965SOL    HW218795   1.857   2.170   6.572
 5966SOL     OW18796   3.190   5.860   4.924
 5966SOL    HW118797   3.119   5.802   4.963
 5966SOL    HW218798   3.277   5.810   4.923
 5967SOL     OW18799   4.634   6.275   2.563
 5967SOL    HW118800   4.665   6.369   2.555
 5967SOL    HW218801   4.628   6.233   2.473
 5968SOL     OW18802   6.247   1.967   3.072
 5968SOL    HW118803   6.221   2.026   2.996
 5968SOL    HW218804   6.336   1.926   3.053
 5969SOL     OW18805   6.280   3.062   4.800
 5969SOL    HW118806   6.334   3.143   4.826
 5969SOL    HW218807   6.184   3.088   4.790
 5970SOL     OW18808   1.014   3.819   2.339
 5970SOL    HW118809   1.100   3.769   2.352
 5970SOL    HW218810   0.946   3.758   2.299
 5971SOL     OW18811   1.965   0.384   2.934
 5971SOL    HW118812   1.930   0.415   2.846
 5971SOL    HW218813   1.891   0.344   2.988
 5972SOL     OW18814   5.019   6.444   0.541
 5972SOL    HW118815   4.959   6.522   0.525
 5972SOL    HW218816   4.969   6.373   0.591
 5973SOL     OW18817   1.914   5.132   2.280
 5973SOL    HW118818   1.906   5.199   2.206
 5973SOL    HW218819   1.830   5.079   2.287
 5974SOL     OW18820   6.507   3.919   6.207
 5974SOL    HW118821   6.600   3.956   6.207
 5974SOL    HW218822   6.442   3.993   6.190
 5975SOL     OW18823   3.826   2.556   0.753
 5975SOL    HW118824   3.799   2.461   0.741
 5975SOL    HW218825   3.800   2.587   0.844
 5976SOL     OW18826   3.217   2.967   4.421
 5976SOL    HW118827   3.242   2.885   4.369
 5976SOL    HW218828   3.145   3.016   4.372
 5977SOL     OW18829   1.501   4.779   1.524
 5977SOL    HW118830   1.595   4.746   1.534
 5977SOL    HW218831   1.469   4.761   1.431
 5978SOL     OW18832   5.121   3.928   2.679
 5978SOL    HW118833   5.027   3.910   2.650
 5978SOL    HW218834   5.138   4.027   2.675
 5979SOL     OW18835   6.207   6.846   3.517
 5979SOL    HW118836   6.287   6.905   3.529
 5979SOL    HW218837   6.215   6.766   3.576
 5980SOL     OW18838   4.121   4.275   6.948
 5980SOL    HW118839   4.179   4.210   6.900
 5980SOL    HW218840   4.108   4.357   6.892
 5981SOL     OW18841   6.697   1.697   1.796
 5981SOL    HW118842   6.676   1.708   1.893
 5981SOL    HW218843   6.683   1.601   1.770
 5982SOL     OW18844   6.310   2.263   6.540
 5982SOL    HW118845   6.381   2.201   6.572
 5982SOL    HW218846   6.244   2.279   6.615
 5983SOL     OW18847   2.465   2.002   4.123
 5983SOL    HW118848   2.554   1.990   4.167
 5983SOL    HW218849   2.394   1.959   4.179
 5984SOL     OW18850   0.385   6.237   4.493
 5984SOL    HW118851   0.449   6.170   4.531
 5984SOL    HW218852   0.296   6.225   4.536
 5985SOL     OW18853   5.377   2.011   3.464
 5985SOL    HW118854   5.295   2.059   3.432
 5985SOL    HW218855   5.403   1.942   3.397
 5986SOL     OW18856   3.322   3.183   3.661
 5986SOL    HW118857   3.340   3.131   3.578
 5986SOL    HW218858   3.224   3.186   3.677
 5987SOL     OW18859   4.521   0.466   5.238
 5987SOL    HW118860   4.493   0.373   5.264
 5987SOL    HW218861   4.476   0.532   5.298
 5988SOL     OW18862   4.036   0.131   4.885
 5988SOL    HW118863   4.103   0.110   4.814
 5988SOL    HW218864   4.068   0.097   4.973
 5989SOL     OW18865   2.533   6.540   6.422
 5989SOL    HW118866   2.443   6.502   6.401
 5989SOL    HW218867   2.526   6.639   6.432
 5990SOL     OW18868   3.609   4.714   0.348
 5990SOL    HW118869   3.569   4.629   0.313
 5990SOL    HW218870   3.630   4.774   0.271
 5991SOL     OW18871   3.847   4.775   5.222
 5991SOL    HW118872   3.844   4.700   5.288
 5991SOL    HW218873   3.877   4.741   5.133
 5992SOL     OW18874   3.505   1.077   4.053
 5992SOL    HW118875   3.447   1.145   4.008
 5992SOL    HW218876   3.588   1.063   3.998
 5993SOL     OW18877   3.394   6.629   5.187
 5993SOL    HW118878   3.300   6.641   5.221
 5993SOL    HW218879   3.422   6.534   5.201
 5994SOL     OW18880   6.390   2.370   1.796
 5994SOL    HW118881   6.362   2.318   1.877
 5994SOL    HW218882   6.483   2.344   1.770
 5995SOL     OW18883   0.309   5.308   1.058
 5995SOL    HW118884   0.228   5.367   1.062
 5995SOL    HW218885   0.280   5.212   1.054
 5996SOL     OW18886   0.723   5.668   6.868
 5996SOL    HW118887   0.639   5.687   6.817
 5996SOL    HW218888   0.704   5.673   6.966
 5997SOL     OW18889   0.471   0.016   1.831
 5997SOL    HW118890   0.489   0.033   1.928
 5997SOL    HW218891   0.513   0.088   1.776
 5998SOL     OW18892   5.294   2.063   2.426
 5998SOL    HW118893   5.340   2.146   2.393
 5998SOL    HW218894   5.278   2.071   2.524
 5999SOL     OW18895   1.011   1.988   3.562
 5999SOL    HW118896   1.038   2.051   3.634
 5999SOL    HW218897   1.083   1.982   3.493
 6000SOL     OW18898   4.073   5.178   2.361
 6000SOL    HW118899   4.035   5.269   2.376
 6000SOL    HW218900   4.001   5.109   2.375
 6001SOL     OW18901   6.863   3.313   6.490
 6001SOL    HW118902   6.938   3.255   6.523
 6001SOL    HW218903   6.885   3.409   6.509
 6002SOL     OW18904   0.248   6.665   1.136
 6002SOL    HW118905   0.197   6.675   1.222
 6002SOL    HW218906   0.297   6.578   1.137
 6003SOL     OW18907   5.208   3.690   4.439
 6003SOL    HW118908   5.229   3.777   4.394
 6003SOL    HW218909   5.141   3.705   4.511
 6004SOL     OW18910   0.378   4.049   3.365
 6004SOL    HW118911   0.476   4.034   3.373
 6004SOL    HW218912   0.332   4.020   3.449
 6005SOL     OW18913   3.951   5.310   4.066
 6005SOL    HW118914   3.865   5.304   4.116
 6005SOL    HW218915   3.970   5.406   4.045
 6006SOL     OW18916   3.091   0.302   6.749
 6006SOL    HW118917   3.075   0.215   6.794
 6006SOL    HW218918   3.103   0.374   6.818
 6007SOL     OW18919   5.511   3.020   3.693
 6007SOL    HW118920   5.481   3.021   3.788
 6007SOL    HW218921   5.466   2.945   3.644
 6008SOL     OW18922   3.441   5.665   5.368
 6008SOL    HW118923   3.497   5.730   5.317
 6008SOL    HW218924   3.464   5.572   5.341
 6009SOL     OW18925   2.737   1.790   4.771
 6009SOL    HW118926   2.781   1.800   4.681
 6009SOL    HW218927   2.763   1.867   4.829
 6010SOL     OW18928   2.005   4.487   2.338
 6010SOL    HW118929   2.005   4.544   2.256
 6010SOL    HW218930   1.981   4.393   2.313
 6011SOL     OW18931   5.294   2.693   1.704
 6011SOL    HW118932   5.219   2.718   1.765
 6011SOL    HW218933   5.302   2.760   1.631
 6012SOL     OW18934   6.552   2.153   6.766
 6012SOL    HW118935   6.530   2.056   6.765
 6012SOL    HW218936   6.601   2.175   6.851
 6013SOL     OW18937   6.417   1.356   1.942
 6013SOL    HW118938   6.496   1.298   1.960
 6013SOL    HW218939   6.412   1.378   1.845
 6014SOL     OW18940   5.769   1.753   0.839
 6014SOL    HW118941   5.722   1.725   0.923
 6014SOL    HW218942   5.720   1.829   0.797
 6015SOL     OW18943   5.839   2.079   5.194
 6015SOL    HW118944   5.910   2.051   5.258
 6015SOL    HW218945   5.874   2.153   5.136
 6016SOL     OW18946   0.708   0.999   6.052
 6016SOL    HW118947   0.686   1.093   6.026
 6016SOL    HW218948   0.782   1.000   6.120
 6017SOL     OW18949   6.009   5.592   3.498
 6017SOL    HW118950   6.067   5.632   3.569
 6017SOL    HW218951   6.008   5.492   3.508
 6018SOL     OW18952   3.110   3.211   0.061
 6018SOL    HW118953   3.198   3.168   0.083
 6018SOL    HW218954   3.076   3.260   0.141
 6019SOL     OW18955   4.727   1.326   3.105
 6019SOL    HW118956   4.685   1.278   3.028
 6019SOL    HW218957   4.715   1.425   3.093
 6020SOL     OW18958   3.344   6.793   2.256
 6020SOL    HW118959   3.332   6.875   2.312
 6020SOL    HW218960   3.441   6.783   2.233
 6021SOL     OW18961   4.696   0.713   2.506
 6021SOL    HW118962   4.607   0.750   2.479
 6021SOL    HW218963   4.686   0.615   2.523
 6022SOL     OW18964   4.773   1.072   3.282
 6022SOL    HW118965   4.724   1.019   3.213
 6022SOL    HW218966   4.734   1.053   3.372
 6023SOL     OW18967   6.258   1.010   3.580
 6023SOL    HW118968   6.322   1.079   3.614
 6023SOL    HW218969   6.291   0.919   3.605
 6024SOL     OW18970   0.511   4.741   2.157
 6024SOL    HW118971   0.496   4.643   2.171
 6024SOL    HW218972   0.543   4.782   2.243
 6025SOL     OW18973   4.405   0.712   1.682
 6025SOL    HW118974   4.453   0.732   1.768
 6025SOL    HW218975   4.402   0.794   1.626
 6026SOL     OW18976   0.381   4.934   4.671
 6026SOL    HW118977   0.353   5.024   4.704
 6026SOL    HW218978   0.400   4.939   4.572
 6027SOL     OW18979   2.286   4.463   6.203
 6027SOL    HW118980   2.347   4.387   6.182
 6027SOL    HW218981   2.201   4.453   6.152
 6028SOL     OW18982   1.326   4.140   0.410
 6028SOL    HW118983   1.268   4.064   0.440
 6028SOL    HW218984   1.342   4.201   0.488
 6029SOL     OW18985   2.141   6.432   0.454
 6029SOL    HW118986   2.080   6.511   0.450
 6029SOL    HW218987   2.089   6.351   0.481
 6030SOL     OW18988   2.405   0.996   2.923
 6030SOL    HW118989   2.413   1.041   2.834
 6030SOL    HW218990   2.468   0.918   2.927
 6031SOL     OW18991   5.018   5.965   5.402
 6031SOL    HW118992   4.954   6.042   5.401
 6031SOL    HW218993   5.100   5.989   5.349
 6032SOL     OW18994   1.775   3.727   2.821
 6032SOL    HW118995   1.775   3.629   2.798
 6032SOL    HW218996   1.688   3.767   2.794
 6033SOL     OW18997   2.401   2.236   3.061
 6033SOL    HW118998   2.389   2.149   3.110
 6033SOL    HW218999   2.419   2.309   3.127
 6034SOL     OW19000   2.664   4.633   4.337
 6034SOL    HW119001   2.660   4.533   4.331
 6034SOL    HW219002   2.652   4.661   4.432
 6035SOL     OW19003   5.068   1.025   4.487
 6035SOL    HW119004   5.131   1.044   4.563
 6035SOL    HW219005   5.034   1.111   4.449
 6036SOL     OW19006   0.087   6.662   5.138
 6036SOL    HW119007   0.102   6.748   5.187
 6036SOL    HW219008   0.063   6.590   5.203
 6037SOL     OW19009   4.858   4.650   6.084
 6037SOL    HW119010   4.815   4.738   6.104
 6037SOL    HW219011   4.898   4.652   5.992
 6038SOL     OW19012   0.732   3.210   6.441
 6038SOL    HW119013   0.681   3.182   6.522
 6038SOL    HW219014   0.701   3.300   6.412
 6039SOL     OW19015   3.215   3.395   2.459
 6039SOL    HW119016   3.169   3.348   2.383
 6039SOL    HW219017   3.311   3.407   2.436
 6040SOL     OW19018   0.605   1.649   6.520
 6040SOL    HW119019   0.648   1.715   6.581
 6040SOL    HW219020   0.639   1.557   6.542
 6041SOL     OW19021   1.240   2.207   6.819
 6041SOL    HW119022   1.307   2.281   6.821
 6041SOL    HW219023   1.261   2.140   6.890
 6042SOL     OW19024   5.550   5.117   2.561
 6042SOL    HW119025   5.550   5.027   2.604
 6042SOL    HW219026   5.599   5.113   2.474
 6043SOL     OW19027   1.423   5.157   4.766
 6043SOL    HW119028   1.408   5.071   4.717
 6043SOL    HW219029   1.442   5.230   4.699
 6044SOL     OW19030   0.084   1.796   1.389
 6044SOL    HW119031   0.096   1.856   1.468
 6044SOL    HW219032   0.155   1.725   1.390
 6045SOL     OW19033   5.361   5.602   0.889
 6045SOL    HW119034   5.421   5.566   0.817
 6045SOL    HW219035   5.271   5.620   0.852
 6046SOL     OW19036   2.735   2.545   0.317
 6046SOL    HW119037   2.787   2.464   0.342
 6046SOL    HW219038   2.644   2.540   0.359
 6047SOL     OW19039   6.219   0.911   4.249
 6047SOL    HW119040   6.182   0.917   4.342
 6047SOL    HW219041   6.149   0.876   4.188
 6048SOL     OW19042   3.825   0.830   3.699
 6048SOL    HW119043   3.808   0.736   3.671
 6048SOL    HW219044   3.916   0.837   3.741
 6049SOL     OW19045   4.402   3.009   6.218
 6049SOL    HW119046   4.367   3.100   6.244
 6049SOL    HW219047   4.326   2.949   6.196
 6050SOL     OW19048   3.882   4.471   5.742
 6050SOL    HW119049   3.956   4.436   5.684
 6050SOL    HW219050   3.797   4.472   5.690
 6051SOL     OW19051   2.104   2.524   2.840
 6051SOL    HW119052   2.049   2.500   2.920
 6051SOL    HW219053   2.103   2.447   2.776
 6052SOL     OW19054   6.626   0.533   0.610
 6052SOL    HW119055   6.715   0.530   0.565
 6052SOL    HW219056   6.554   0.533   0.540
 6053SOL     OW19057   3.302   0.470   0.162
 6053SOL    HW119058   3.319   0.561   0.199
 6053SOL    HW219059   3.384   0.437   0.116
 6054SOL     OW19060   2.132   4.279   1.022
 6054SOL    HW119061   2.108   4.290   0.925
 6054SOL    HW219062   2.191   4.199   1.032
 6055SOL     OW19063   5.451   0.993   5.386
 6055SOL    HW119064   5.354   0.970   5.383
 6055SOL    HW219065   5.504   0.912   5.408
 6056SOL     OW19066   4.163   1.487   5.823
 6056SOL    HW119067   4.117   1.532   5.899
 6056SOL    HW219068   4.099   1.426   5.776
 6057SOL     OW19069   4.650   0.960   4.891
 6057SOL    HW119070   4.719   0.898   4.853
 6057SOL    HW219071   4.562   0.913   4.896
 6058SOL     OW19072   5.870   3.082   3.821
 6058SOL    HW119073   5.891   3.070   3.724
 6058SOL    HW219074   5.776   3.051   3.838
 6059SOL     OW19075   4.723   5.696   6.213
 6059SOL    HW119076   4.644   5.734   6.261
 6059SOL    HW219077   4.757   5.764   6.148
 6060SOL     OW19078   4.025   4.277   5.895
 6060SOL    HW119079   4.041   4.322   5.983
 6060SOL    HW219080   3.988   4.343   5.830
 6061SOL     OW19081   3.316   2.203   6.622
 6061SOL    HW119082   3.228   2.181   6.662
 6061SOL    HW219083   3.303   2.241   6.530
 6062SOL     OW19084   2.111   1.186   4.489
 6062SOL    HW119085   2.012   1.201   4.494
 6062SOL    HW219086   2.138   1.174   4.394
 6063SOL     OW19087   4.218   1.079   6.197
 6063SOL    HW119088   4.276   1.000   6.179
 6063SOL    HW219089   4.275   1.161   6.205
 6064SOL     OW19090   1.571   5.837   3.138
 6064SOL    HW119091   1.604   5.925   3.173
 6064SOL    HW219092   1.582   5.835   3.039
 6065SOL     OW19093   6.551   6.612   0.961
 6065SOL    HW119094   6.603   6.597   1.044
 6065SOL    HW219095   6.613   6.620   0.883
 6066SOL     OW19096   4.572   1.615   1.255
 6066SOL    HW119097   4.622   1.687   1.304
 6066SOL    HW219098   4.483   1.651   1.227
 6067SOL     OW19099   6.416   2.084   6.360
 6067SOL    HW119100   6.510   2.077   6.328
 6067SOL    HW219101   6.398   2.177   6.392
 6068SOL     OW19102   4.947   3.104   5.095
 6068SOL    HW119103   4.903   3.188   5.127
 6068SOL    HW219104   4.889   3.025   5.117
 6069SOL     OW19105   6.951   3.705   5.657
 6069SOL    HW119106   6.871   3.661   5.697
 6069SOL    HW219107   6.944   3.804   5.668
 6070SOL     OW19108   3.884   1.806   6.557
 6070SOL    HW119109   3.895   1.787   6.460
 6070SOL    HW219110   3.859   1.902   6.570
 6071SOL     OW19111   4.387   6.019   5.903
 6071SOL    HW119112   4.441   6.091   5.858
 6071SOL    HW219113   4.291   6.049   5.909
 6072SOL     OW19114   0.778   1.813   1.786
 6072SOL    HW119115   0.829   1.844   1.705
 6072SOL    HW219116   0.840   1.806   1.864
 6073SOL     OW19117   6.323   3.443   0.317
 6073SOL    HW119118   6.295   3.480   0.405
 6073SOL    HW219119   6.406   3.388   0.329
 6074SOL     OW19120   0.850   6.900   4.857
 6074SOL    HW119121   0.868   6.884   4.954
 6074SOL    HW219122   0.752   6.906   4.841
 6075SOL     OW19123   6.558   3.376   6.999
 6075SOL    HW119124   6.616   3.371   0.059
 6075SOL    HW219125   6.473   3.327   7.016
 6076SOL     OW19126   2.637   6.657   4.857
 6076SOL    HW119127   2.600   6.718   4.928
 6076SOL    HW219128   2.699   6.591   4.900
 6077SOL     OW19129   5.410   5.911   2.726
 6077SOL    HW119130   5.367   5.993   2.691
 6077SOL    HW219131   5.435   5.924   2.822
 6078SOL     OW19132   3.380   5.337   3.549
 6078SOL    HW119133   3.479   5.332   3.534
 6078SOL    HW219134   3.361   5.319   3.646
 6079SOL     OW19135   2.364   3.529   6.691
 6079SOL    HW119136   2.370   3.620   6.649
 6079SOL    HW219137   2.276   3.519   6.736
 6080SOL     OW19138   6.430   2.115   0.802
 6080SOL    HW119139   6.337   2.087   0.780
 6080SOL    HW219140   6.429   2.175   0.882
 6081SOL     OW19141   6.311   3.581   4.197
 6081SOL    HW119142   6.350   3.527   4.271
 6081SOL    HW219143   6.308   3.677   4.223
 6082SOL     OW19144   3.731   0.061   2.993
 6082SOL    HW119145   3.736   0.003   2.911
 6082SOL    HW219146   3.724   0.003   3.074
 6083SOL     OW19147   1.390   5.322   6.424
 6083SOL    HW119148   1.397   5.245   6.360
 6083SOL    HW219149   1.345   5.399   6.378
 6084SOL     OW19150   6.682   4.955   4.727
 6084SOL    HW119151   6.674   4.865   4.770
 6084SOL    HW219152   6.627   5.021   4.778
 6085SOL     OW19153   0.132   4.027   0.245
 6085SOL    HW119154   0.148   4.011   0.343
 6085SOL    HW219155   0.079   4.111   0.234
 6086SOL     OW19156   3.705   1.256   4.424
 6086SOL    HW119157   3.793   1.218   4.396
 6086SOL    HW219158   3.637   1.183   4.428
 6087SOL     OW19159   5.785   6.811   0.120
 6087SOL    HW119160   5.721   6.734   0.113
 6087SOL    HW219161   5.766   6.877   0.048
 6088SOL     OW19162   0.032   6.378   4.372
 6088SOL    HW119163   0.064   6.317   4.444
 6088SOL    HW219164   7.022   6.463   4.412
 6089SOL     OW19165   0.474   3.452   1.298
 6089SOL    HW119166   0.410   3.395   1.246
 6089SOL    HW219167   0.425   3.499   1.371
 6090SOL     OW19168   0.756   6.267   5.977
 6090SOL    HW119169   0.759   6.241   5.881
 6090SOL    HW219170   0.662   6.263   6.010
 6091SOL     OW19171   0.298   1.799   1.841
 6091SOL    HW119172   0.206   1.758   1.847
 6091SOL    HW219173   0.345   1.787   1.929
 6092SOL     OW19174   2.741   0.910   2.623
 6092SOL    HW119175   2.717   1.001   2.656
 6092SOL    HW219176   2.824   0.915   2.567
 6093SOL     OW19177   1.803   3.443   1.955
 6093SOL    HW119178   1.770   3.537   1.949
 6093SOL    HW219179   1.849   3.419   1.869
 6094SOL     OW19180   2.047   1.457   1.469
 6094SOL    HW119181   1.963   1.486   1.424
 6094SOL    HW219182   2.097   1.394   1.409
 6095SOL     OW19183   5.251   2.852   7.006
 6095SOL    HW119184   5.301   2.931   6.971
 6095SOL    HW219185   5.203   2.877   0.067
 6096SOL     OW19186   5.279   1.220   4.268
 6096SOL    HW119187   5.193   1.214   4.318
 6096SOL    HW219188   5.287   1.142   4.206
 6097SOL     OW19189   2.279   0.498   2.247
 6097SOL    HW119190   2.308   0.421   2.304
 6097SOL    HW219191   2.281   0.582   2.301
 6098SOL     OW19192   1.935   2.205   6.072
 6098SOL    HW119193   2.002   2.136   6.100
 6098SOL    HW219194   1.982   2.280   6.026
 6099SOL     OW19195   5.824   5.262   5.137
 6099SOL    HW119196   5.878   5.231   5.216
 6099SOL    HW219197   5.822   5.362   5.137
 6100SOL     OW19198   6.480   3.538   6.080
 6100SOL    HW119199   6.410   3.531   6.151
 6100SOL    HW219200   6.464   3.622   6.028
 6101SOL     OW19201   6.690   2.343   5.681
 6101SOL    HW119202   6.752   2.269   5.705
 6101SOL    HW219203   6.633   2.314   5.604
 6102SOL     OW19204   2.640   0.793   4.487
 6102SOL    HW119205   2.694   0.777   4.404
 6102SOL    HW219206   2.633   0.707   4.538
 6103SOL     OW19207   0.345   0.854   3.729
 6103SOL    HW119208   0.360   0.825   3.635
 6103SOL    HW219209   0.303   0.945   3.729
 6104SOL     OW19210   5.553   1.927   6.645
 6104SOL    HW119211   5.581   1.860   6.714
 6104SOL    HW219212   5.551   2.018   6.686
 6105SOL     OW19213   3.766   5.998   5.649
 6105SOL    HW119214   3.856   6.005   5.605
 6105SOL    HW219215   3.720   5.915   5.616
 6106SOL     OW19216   3.181   5.013   6.222
 6106SOL    HW119217   3.150   4.991   6.314
 6106SOL    HW219218   3.154   4.940   6.159
 6107SOL     OW19219   2.364   4.895   4.645
 6107SOL    HW119220   2.321   4.865   4.730
 6107SOL    HW219221   2.416   4.820   4.606
 6108SOL     OW19222   0.672   1.541   3.943
 6108SOL    HW119223   0.650   1.631   3.981
 6108SOL    HW219224   0.599   1.512   3.882
 6109SOL     OW19225   5.131   2.443   0.416
 6109SOL    HW119226   5.056   2.488   0.464
 6109SOL    HW219227   5.208   2.506   0.407
 6110SOL     OW19228   3.018   2.485   6.038
 6110SOL    HW119229   3.009   2.427   6.119
 6110SOL    HW219230   3.071   2.437   5.969
 6111SOL     OW19231   1.008   4.938   2.977
 6111SOL    HW119232   1.099   4.911   3.009
 6111SOL    HW219233   0.973   5.012   3.034
 6112SOL     OW19234   1.723   1.725   3.167
 6112SOL    HW119235   1.759   1.633   3.154
 6112SOL    HW219236   1.699   1.738   3.264
 6113SOL     OW19237   1.177   0.202   6.183
 6113SOL    HW119238   1.084   0.164   6.182
 6113SOL    HW219239   1.195   0.244   6.272
 6114SOL     OW19240   5.403   5.704   0.100
 6114SOL    HW119241   5.448   5.688   0.012
 6114SOL    HW219242   5.412   5.622   0.157
 6115SOL     OW19243   5.067   5.065   2.929
 6115SOL    HW119244   5.090   5.124   3.008
 6115SOL    HW219245   4.983   5.098   2.887
 6116SOL     OW19246   2.562   1.073   1.674
 6116SOL    HW119247   2.595   0.986   1.636
 6116SOL    HW219248   2.549   1.139   1.600
 6117SOL     OW19249   6.059   6.910   4.294
 6117SOL    HW119250   5.986   6.850   4.261
 6117SOL    HW219251   6.087   6.972   4.220
 6118SOL     OW19252   6.506   1.798   2.484
 6118SOL    HW119253   6.479   1.759   2.572
 6118SOL    HW219254   6.469   1.742   2.410
 6119SOL     OW19255   0.594   4.547   4.852
 6119SOL    HW119256   0.639   4.592   4.930
 6119SOL    HW219257   0.502   4.583   4.841
 6120SOL     OW19258   2.950   6.817   3.625
 6120SOL    HW119259   2.881   6.881   3.659
 6120SOL    HW219260   2.966   6.834   3.528
 6121SOL     OW19261   0.446   2.915   3.790
 6121SOL    HW119262   0.435   2.964   3.876
 6121SOL    HW219263   0.542   2.913   3.764
 6122SOL     OW19264   4.020   6.011   2.903
 6122SOL    HW119265   3.972   5.996   2.817
 6122SOL    HW219266   4.029   5.925   2.952
 6123SOL     OW19267   6.886   1.014   1.346
 6123SOL    HW119268   6.791   0.985   1.334
 6123SOL    HW219269   6.900   1.043   1.441
 6124SOL     OW19270   3.788   0.085   5.101
 6124SOL    HW119271   3.847   0.160   5.128
 6124SOL    HW219272   3.839   0.020   5.045
 6125SOL     OW19273   2.286   6.437   1.459
 6125SOL    HW119274   2.363   6.485   1.501
 6125SOL    HW219275   2.318   6.353   1.417
 6126SOL     OW19276   5.012   5.533   4.289
 6126SOL    HW119277   4.998   5.478   4.370
 6126SOL    HW219278   4.928   5.536   4.235
 6127SOL     OW19279   2.333   6.998   1.467
 6127SOL    HW119280   2.418   6.999   1.414
 6127SOL    HW219281   2.342   6.932   1.542
 6128SOL     OW19282   0.169   3.501   0.468
 6128SOL    HW119283   0.208   3.588   0.500
 6128SOL    HW219284   0.242   3.444   0.430
 6129SOL     OW19285   6.313   3.674   3.116
 6129SOL    HW119286   6.299   3.703   3.211
 6129SOL    HW219287   6.288   3.749   3.054
 6130SOL     OW19288   5.829   2.695   3.752
 6130SOL    HW119289   5.742   2.706   3.800
 6130SOL    HW219290   5.901   2.674   3.818
 6131SOL     OW19291   6.741   0.917   5.894
 6131SOL    HW119292   6.723   0.982   5.968
 6131SOL    HW219293   6.824   0.945   5.846
 6132SOL     OW19294   3.966   2.060   0.111
 6132SOL    HW119295   3.910   1.978   0.102
 6132SOL    HW219296   4.025   2.069   0.031
 6133SOL     OW19297   0.622   3.417   1.755
 6133SOL    HW119298   0.596   3.327   1.720
 6133SOL    HW219299   0.718   3.434   1.733
 6134SOL     OW19300   3.580   3.089   6.801
 6134SOL    HW119301   3.566   3.132   6.891
 6134SOL    HW219302   3.674   3.105   6.771
 6135SOL     OW19303   6.660   6.933   1.202
 6135SOL    HW119304   6.601   7.008   1.170
 6135SOL    HW219305   6.619   6.891   1.283
 6136SOL     OW19306   0.878   1.398   2.533
 6136SOL    HW119307   0.882   1.498   2.536
 6136SOL    HW219308   0.783   1.369   2.545
 6137SOL     OW19309   3.444   0.197   5.635
 6137SOL    HW119310   3.471   0.289   5.607
 6137SOL    HW219311   3.444   0.137   5.555
 6138SOL     OW19312   3.873   6.473   2.683
 6138SOL    HW119313   3.881   6.390   2.739
 6138SOL    HW219314   3.799   6.462   2.617
 6139SOL     OW19315   1.743   3.641   4.996
 6139SOL    HW119316   1.659   3.593   5.021
 6139SOL    HW219317   1.777   3.692   5.075
 6140SOL     OW19318   0.779   0.063   1.605
 6140SOL    HW119319   0.765   0.067   1.704
 6140SOL    HW219320   0.834   7.004   1.583
 6141SOL     OW19321   6.798   5.761   5.031
 6141SOL    HW119322   6.842   5.710   4.958
 6141SOL    HW219323   6.852   5.753   5.115
 6142SOL     OW19324   6.741   4.293   0.844
 6142SOL    HW119325   6.840   4.305   0.836
 6142SOL    HW219326   6.706   4.256   0.758
 6143SOL     OW19327   6.309   4.942   6.228
 6143SOL    HW119328   6.358   5.029   6.230
 6143SOL    HW219329   6.243   4.943   6.152
 6144SOL     OW19330   6.938   4.133   3.136
 6144SOL    HW119331   6.949   4.047   3.086
 6144SOL    HW219332   6.900   4.114   3.226
 6145SOL     OW19333   5.219   5.129   3.608
 6145SOL    HW119334   5.282   5.160   3.680
 6145SOL    HW219335   5.167   5.051   3.642
 6146SOL     OW19336   4.710   1.054   3.552
 6146SOL    HW119337   4.643   1.008   3.610
 6146SOL    HW219338   4.748   1.133   3.601
 6147SOL     OW19339   2.079   4.424   2.992
 6147SOL    HW119340   2.068   4.348   3.056
 6147SOL    HW219341   2.159   4.477   3.018
 6148SOL     OW19342   6.954   6.073   4.364
 6148SOL    HW119343   6.924   6.117   4.279
 6148SOL    HW219344   6.886   6.005   4.392
 6149SOL     OW19345   3.490   5.003   3.267
 6149SOL    HW119346   3.578   4.993   3.221
 6149SOL    HW219347   3.497   4.969   3.361
 6150SOL     OW19348   4.853   5.880   6.604
 6150SOL    HW119349   4.860   5.911   6.509
 6150SOL    HW219350   4.934   5.910   6.654
 6151SOL     OW19351   5.476   2.763   5.261
 6151SOL    HW119352   5.461   2.665   5.272
 6151SOL    HW219353   5.501   2.803   5.349
 6152SOL     OW19354   5.295   4.708   6.467
 6152SOL    HW119355   5.370   4.716   6.533
 6152SOL    HW219356   5.329   4.670   6.381
 6153SOL     OW19357   4.618   4.043   1.714
 6153SOL    HW119358   4.538   4.068   1.767
 6153SOL    HW219359   4.695   4.102   1.740
 6154SOL     OW19360   6.112   1.547   1.939
 6154SOL    HW119361   6.064   1.522   1.855
 6154SOL    HW219362   6.194   1.600   1.915
 6155SOL     OW19363   0.440   3.508   4.437
 6155SOL    HW119364   0.407   3.602   4.443
 6155SOL    HW219365   0.412   3.458   4.519
 6156SOL     OW19366   5.307   6.475   2.720
 6156SOL    HW119367   5.278   6.501   2.812
 6156SOL    HW219368   5.237   6.501   2.654
 6157SOL     OW19369   2.278   2.369   3.900
 6157SOL    HW119370   2.275   2.440   3.830
 6157SOL    HW219371   2.240   2.284   3.862
 6158SOL     OW19372   4.402   0.967   6.459
 6158SOL    HW119373   4.483   1.012   6.421
 6158SOL    HW219374   4.417   0.949   6.556
 6159SOL     OW19375   5.263   1.394   6.932
 6159SOL    HW119376   5.215   1.352   6.855
 6159SOL    HW219377   5.206   1.390   7.014
 6160SOL     OW19378   5.321   5.389   1.076
 6160SOL    HW119379   5.337   5.463   1.011
 6160SOL    HW219380   5.408   5.347   1.101
 6161SOL     OW19381   5.903   0.924   5.714
 6161SOL    HW119382   5.845   0.959   5.787
 6161SOL    HW219383   5.945   0.838   5.743
 6162SOL     OW19384   1.554   5.404   4.269
 6162SOL    HW119385   1.476   5.346   4.247
 6162SOL    HW219386   1.618   5.354   4.326
 6163SOL     OW19387   5.560   4.234   1.153
 6163SOL    HW119388   5.555   4.137   1.180
 6163SOL    HW219389   5.485   4.254   1.089
 6164SOL     OW19390   2.105   2.143   1.217
 6164SOL    HW119391   2.086   2.241   1.208
 6164SOL    HW219392   2.021   2.096   1.242
 6165SOL     OW19393   3.982   6.005   0.563
 6165SOL    HW119394   4.062   5.951   0.588
 6165SOL    HW219395   3.902   5.972   0.614
 6166SOL     OW19396   3.265   1.481   5.853
 6166SOL    HW119397   3.274   1.407   5.787
 6166SOL    HW219398   3.260   1.443   5.945
 6167SOL     OW19399   0.452   4.544   2.690
 6167SOL    HW119400   0.405   4.629   2.713
 6167SOL    HW219401   0.486   4.501   2.774
 6168SOL     OW19402   0.413   3.604   1.766
 6168SOL    HW119403   0.452   3.513   1.751
 6168SOL    HW219404   0.481   3.662   1.810
 6169SOL     OW19405   2.339   3.997   1.886
 6169SOL    HW119406   2.314   3.984   1.982
 6169SOL    HW219407   2.339   4.094   1.864
 6170SOL     OW19408   0.106   3.401   5.529
 6170SOL    HW119409   0.136   3.380   5.436
 6170SOL    HW219410   0.105   3.500   5.542
 6171SOL     OW19411   0.897   0.469   0.782
 6171SOL    HW119412   0.850   0.534   0.722
 6171SOL    HW219413   0.952   0.518   0.849
 6172SOL     OW19414   0.609   2.919   3.217
 6172SOL    HW119415   0.617   2.820   3.208
 6172SOL    HW219416   0.552   2.941   3.297
 6173SOL     OW19417   0.075   6.574   3.047
 6173SOL    HW119418   7.000   6.597   3.055
 6173SOL    HW219419   0.130   6.649   3.083
 6174SOL     OW19420   5.335   4.616   2.949
 6174SOL    HW119421   5.316   4.645   2.855
 6174SOL    HW219422   5.306   4.687   3.012
 6175SOL     OW19423   3.405   0.866   4.765
 6175SOL    HW119424   3.419   0.839   4.860
 6175SOL    HW219425   3.375   0.961   4.761
 6176SOL     OW19426   4.365   4.094   5.335
 6176SOL    HW119427   4.431   4.165   5.308
 6176SOL    HW219428   4.273   4.134   5.339
 6177SOL     OW19429   5.255   1.500   2.030
 6177SOL    HW119430   5.347   1.508   2.068
 6177SOL    HW219431   5.256   1.527   1.934
 6178SOL     OW19432   4.980   3.641   2.414
 6178SOL    HW119433   5.080   3.645   2.412
 6178SOL    HW219434   4.950   3.546   2.406
 6179SOL     OW19435   6.475   5.038   1.845
 6179SOL    HW119436   6.555   5.094   1.869
 6179SOL    HW219437   6.495   4.986   1.762
 6180SOL     OW19438   2.769   5.071   0.788
 6180SOL    HW119439   2.792   5.056   0.692
 6180SOL    HW219440   2.839   5.127   0.831
 6181SOL     OW19441   4.551   5.022   6.193
 6181SOL    HW119442   4.488   4.957   6.235
 6181SOL    HW219443   4.547   5.110   6.240
 6182SOL     OW19444   3.630   2.996   0.142
 6182SOL    HW119445   3.608   2.909   0.098
 6182SOL    HW219446   3.575   3.069   0.102
 6183SOL     OW19447   1.459   2.218   0.834
 6183SOL    HW119448   1.389   2.209   0.763
 6183SOL    HW219449   1.497   2.310   0.832
 6184SOL     OW19450   2.561   1.218   6.216
 6184SOL    HW119451   2.558   1.282   6.139
 6184SOL    HW219452   2.522   1.130   6.188
 6185SOL     OW19453   3.543   2.829   4.853
 6185SOL    HW119454   3.523   2.784   4.940
 6185SOL    HW219455   3.458   2.856   4.808
 6186SOL     OW19456   5.860   1.978   2.163
 6186SOL    HW119457   5.828   1.887   2.189
 6186SOL    HW219458   5.959   1.978   2.154
 6187SOL     OW19459   4.947   2.592   5.248
 6187SOL    HW119460   5.008   2.569   5.173
 6187SOL    HW219461   4.964   2.529   5.325
 6188SOL     OW19462   2.489   2.157   5.235
 6188SOL    HW119463   2.524   2.065   5.252
 6188SOL    HW219464   2.394   2.151   5.205
 6189SOL     OW19465   4.617   5.656   2.204
 6189SOL    HW119466   4.684   5.681   2.134
 6189SOL    HW219467   4.659   5.661   2.295
 6190SOL     OW19468   6.197   3.043   5.740
 6190SOL    HW119469   6.253   2.968   5.705
 6190SOL    HW219470   6.107   3.009   5.766
 6191SOL     OW19471   2.530   3.646   6.233
 6191SOL    HW119472   2.556   3.624   6.327
 6191SOL    HW219473   2.608   3.687   6.186
 6192SOL     OW19474   2.203   2.238   0.051
 6192SOL    HW119475   2.104   2.224   0.059
 6192SOL    HW219476   2.221   2.335   0.032
 6193SOL     OW19477   5.304   5.442   0.298
 6193SOL    HW119478   5.318   5.363   0.358
 6193SOL    HW219479   5.369   5.438   0.222
 6194SOL     OW19480   6.765   0.570   6.648
 6194SOL    HW119481   6.765   0.653   6.704
 6194SOL    HW219482   6.777   0.595   6.552
 6195SOL     OW19483   6.018   0.586   5.524
 6195SOL    HW119484   5.979   0.534   5.448
 6195SOL    HW219485   6.077   0.658   5.488
 6196SOL     OW19486   5.175   4.183   3.049
 6196SOL    HW119487   5.170   4.086   3.028
 6196SOL    HW219488   5.104   4.206   3.115
 6197SOL     OW19489   2.368   5.475   1.889
 6197SOL    HW119490   2.294   5.503   1.828
 6197SOL    HW219491   2.355   5.519   1.978
 6198SOL     OW19492   6.274   6.287   6.651
 6198SOL    HW119493   6.217   6.367   6.671
 6198SOL    HW219494   6.223   6.223   6.593
 6199SOL     OW19495   0.675   0.295   0.834
 6199SOL    HW119496   0.708   0.212   0.790
 6199SOL    HW219497   0.745   0.366   0.830
 6200SOL     OW19498   1.710   1.473   1.935
 6200SOL    HW119499   1.708   1.567   1.969
 6200SOL    HW219500   1.773   1.419   1.989
 6201SOL     OW19501   6.735   3.912   3.882
 6201SOL    HW119502   6.762   4.007   3.899
 6201SOL    HW219503   6.647   3.894   3.926
 6202SOL     OW19504   6.479   1.619   3.063
 6202SOL    HW119505   6.468   1.697   3.124
 6202SOL    HW219506   6.543   1.553   3.103
 6203SOL     OW19507   6.175   5.433   1.794
 6203SOL    HW119508   6.110   5.357   1.792
 6203SOL    HW219509   6.244   5.421   1.723
 6204SOL     OW19510   1.284   6.512   5.303
 6204SOL    HW119511   1.244   6.436   5.251
 6204SOL    HW219512   1.211   6.575   5.330
 6205SOL     OW19513   4.870   3.897   2.590
 6205SOL    HW119514   4.885   3.834   2.513
 6205SOL    HW219515   4.824   3.979   2.557
 6206SOL     OW19516   5.206   1.965   3.714
 6206SOL    HW119517   5.285   1.990   3.657
 6206SOL    HW219518   5.170   1.877   3.684
 6207SOL     OW19519   1.651   5.674   4.437
 6207SOL    HW119520   1.622   5.588   4.396
 6207SOL    HW219521   1.603   5.687   4.524
 6208SOL     OW19522   3.847   2.949   5.534
 6208SOL    HW119523   3.915   3.022   5.547
 6208SOL    HW219524   3.882   2.882   5.469
 6209SOL     OW19525   3.653   4.475   1.176
 6209SOL    HW119526   3.753   4.481   1.185
 6209SOL    HW219527   3.611   4.483   1.266
 6210SOL     OW19528   4.859   3.009   3.366
 6210SOL    HW119529   4.873   3.031   3.269
 6210SOL    HW219530   4.817   2.918   3.374
 6211SOL     OW19531   4.800   5.744   4.798
 6211SOL    HW119532   4.820   5.697   4.884
 6211SOL    HW219533   4.782   5.677   4.726
 6212SOL     OW19534   3.209   5.350   6.028
 6212SOL    HW119535   3.278   5.362   6.100
 6212SOL    HW219536   3.169   5.259   6.035
 6213SOL     OW19537   4.507   6.118   1.009
 6213SOL    HW119538   4.462   6.185   0.951
 6213SOL    HW219539   4.470   6.027   0.989
 6214SOL     OW19540   5.929   6.312   5.247
 6214SOL    HW119541   5.986   6.373   5.302
 6214SOL    HW219542   5.973   6.222   5.243
 6215SOL     OW19543   5.266   2.796   5.991
 6215SOL    HW119544   5.268   2.726   6.063
 6215SOL    HW219545   5.188   2.857   6.006
 6216SOL     OW19546   5.133   3.109   3.403
 6216SOL    HW119547   5.210   3.057   3.367
 6216SOL    HW219548   5.084   3.054   3.470
 6217SOL     OW19549   0.934   4.584   2.527
 6217SOL    HW119550   0.980   4.671   2.506
 6217SOL    HW219551   0.855   4.573   2.467
 6218SOL     OW19552   4.853   6.376   0.314
 6218SOL    HW119553   4.932   6.412   0.364
 6218SOL    HW219554   4.775   6.368   0.375
 6219SOL     OW19555   1.033   0.910   5.248
 6219SOL    HW119556   0.955   0.913   5.186
 6219SOL    HW219557   1.094   0.835   5.222
 6220SOL     OW19558   3.591   1.104   0.961
 6220SOL    HW119559   3.493   1.112   0.982
 6220SOL    HW219560   3.603   1.092   0.863
 6221SOL     OW19561   6.708   5.956   6.934
 6221SOL    HW119562   6.632   5.898   6.904
 6221SOL    HW219563   6.678   6.051   6.938
 6222SOL     OW19564   5.851   1.284   2.424
 6222SOL    HW119565   5.950   1.276   2.411
 6222SOL    HW219566   5.814   1.195   2.452
 6223SOL     OW19567   0.071   4.910   3.580
 6223SOL    HW119568   0.104   4.819   3.554
 6223SOL    HW219569   0.148   4.968   3.604
 6224SOL     OW19570   4.688   2.000   6.694
 6224SOL    HW119571   4.714   2.032   6.785
 6224SOL    HW219572   4.745   2.046   6.626
 6225SOL     OW19573   3.771   0.350   6.741
 6225SOL    HW119574   3.800   0.283   6.672
 6225SOL    HW219575   3.761   0.440   6.697
 6226SOL     OW19576   1.334   1.216   3.882
 6226SOL    HW119577   1.268   1.142   3.866
 6226SOL    HW219578   1.362   1.254   3.794
 6227SOL     OW19579   2.525   3.964   5.571
 6227SOL    HW119580   2.430   3.934   5.563
 6227SOL    HW219581   2.575   3.902   5.631
 6228SOL     OW19582   2.107   2.390   3.570
 6228SOL    HW119583   2.061   2.359   3.653
 6228SOL    HW219584   2.040   2.401   3.496
 6229SOL     OW19585   0.037   3.535   4.922
 6229SOL    HW119586   0.078   3.542   5.013
 6229SOL    HW219587   0.035   3.625   4.879
 6230SOL     OW19588   0.286   1.098   1.996
 6230SOL    HW119589   0.317   1.006   1.971
 6230SOL    HW219590   0.363   1.162   1.990
 6231SOL     OW19591   6.072   4.812   0.226
 6231SOL    HW119592   6.170   4.806   0.244
 6231SOL    HW219593   6.025   4.737   0.272
 6232SOL     OW19594   5.777   0.602   0.200
 6232SOL    HW119595   5.724   0.574   0.120
 6232SOL    HW219596   5.751   0.694   0.227
 6233SOL     OW19597   0.110   3.108   1.622
 6233SOL    HW119598   0.066   3.037   1.677
 6233SOL    HW219599   0.090   3.198   1.662
 6234SOL     OW19600   6.537   6.617   4.359
 6234SOL    HW119601   6.598   6.695   4.370
 6234SOL    HW219602   6.450   6.636   4.404
 6235SOL     OW19603   6.714   0.726   2.652
 6235SOL    HW119604   6.771   0.791   2.603
 6235SOL    HW219605   6.686   0.653   2.590
 6236SOL     OW19606   0.576   4.503   0.805
 6236SOL    HW119607   0.554   4.475   0.898
 6236SOL    HW219608   0.499   4.555   0.767
 6237SOL     OW19609   4.071   0.366   1.038
 6237SOL    HW119610   4.059   0.329   1.130
 6237SOL    HW219611   4.152   0.424   1.035
 6238SOL     OW19612   2.587   6.357   4.417
 6238SOL    HW119613   2.663   6.413   4.450
 6238SOL    HW219614   2.611   6.316   4.330
 6239SOL     OW19615   5.074   0.811   2.300
 6239SOL    HW119616   5.145   0.773   2.359
 6239SOL    HW219617   5.013   0.870   2.354
 6240SOL     OW19618   3.869   3.003   4.580
 6240SOL    HW119619   3.911   2.933   4.638
 6240SOL    HW219620   3.782   3.031   4.621
 6241SOL     OW19621   2.353   6.894   3.807
 6241SOL    HW119622   2.415   6.917   3.731
 6241SOL    HW219623   2.263   6.869   3.770
 6242SOL     OW19624   2.645   2.041   3.443
 6242SOL    HW119625   2.719   2.098   3.407
 6242SOL    HW219626   2.672   2.004   3.532
 6243SOL     OW19627   6.014   1.958   6.273
 6243SOL    HW119628   5.992   2.055   6.281
 6243SOL    HW219629   5.988   1.925   6.182
 6244SOL     OW19630   4.139   4.760   2.680
 6244SOL    HW119631   4.200   4.703   2.626
 6244SOL    HW219632   4.193   4.814   2.745
 6245SOL     OW19633   0.543   4.460   2.155
 6245SOL    HW119634   0.517   4.389   2.221
 6245SOL    HW219635   0.527   4.427   2.062
 6246SOL     OW19636   1.047   6.455   4.616
 6246SOL    HW119637   1.099   6.537   4.595
 6246SOL    HW219638   1.001   6.422   4.533
 6247SOL     OW19639   0.079   5.239   3.766
 6247SOL    HW119640   0.114   5.269   3.855
 6247SOL    HW219641   0.156   5.212   3.707
 6248SOL     OW19642   3.601   2.795   6.921
 6248SOL    HW119643   3.578   2.883   6.879
 6248SOL    HW219644   3.533   2.772   6.990
 6249SOL     OW19645   6.865   2.536   0.522
 6249SOL    HW119646   6.918   2.494   0.595
 6249SOL    HW219647   6.828   2.624   0.553
 6250SOL     OW19648   0.054   0.335   0.659
 6250SOL    HW119649   0.017   0.247   0.627
 6250SOL    HW219650   7.001   0.397   0.680
 6251SOL     OW19651   2.829   6.826   4.069
 6251SOL    HW119652   2.816   6.754   4.138
 6251SOL    HW219653   2.765   6.811   3.993
 6252SOL     OW19654   2.621   5.123   6.724
 6252SOL    HW119655   2.602   5.026   6.712
 6252SOL    HW219656   2.720   5.137   6.733
 6253SOL     OW19657   3.276   4.989   4.427
 6253SOL    HW119658   3.273   5.015   4.331
 6253SOL    HW219659   3.242   5.065   4.483
 6254SOL     OW19660   0.588   5.901   0.722
 6254SOL    HW119661   0.629   5.968   0.660
 6254SOL    HW219662   0.650   5.885   0.799
 6255SOL     OW19663   0.576   1.868   0.633
 6255SOL    HW119664   0.507   1.800   0.659
 6255SOL    HW219665   0.533   1.945   0.588
 6256SOL     OW19666   5.042   5.782   3.187
 6256SOL    HW119667   5.089   5.694   3.177
 6256SOL    HW219668   4.943   5.767   3.188
 6257SOL     OW19669   4.096   4.264   1.417
 6257SOL    HW119670   4.051   4.290   1.503
 6257SOL    HW219671   4.125   4.169   1.422
 6258SOL     OW19672   4.259   6.980   5.976
 6258SOL    HW119673   4.356   6.953   5.979
 6258SOL    HW219674   4.203   6.899   5.958
 6259SOL     OW19675   2.330   0.153   5.125
 6259SOL    HW119676   2.267   0.226   5.151
 6259SOL    HW219677   2.277   0.072   5.099
 6260SOL     OW19678   2.083   0.976   0.238
 6260SOL    HW119679   2.148   1.011   0.306
 6260SOL    HW219680   2.110   1.007   0.147
 6261SOL     OW19681   3.989   6.610   1.505
 6261SOL    HW119682   3.905   6.655   1.473
 6261SOL    HW219683   3.981   6.511   1.489
 6262SOL     OW19684   6.359   6.431   2.108
 6262SOL    HW119685   6.416   6.512   2.125
 6262SOL    HW219686   6.366   6.404   2.012
 6263SOL     OW19687   7.016   5.804   4.635
 6263SOL    HW119688   6.922   5.796   4.669
 6263SOL    HW219689   0.045   5.865   4.694
 6264SOL     OW19690   0.811   0.151   1.116
 6264SOL    HW119691   0.879   0.080   1.096
 6264SOL    HW219692   0.773   0.185   1.030
 6265SOL     OW19693   4.341   1.917   0.342
 6265SOL    HW119694   4.331   1.885   0.248
 6265SOL    HW219695   4.326   2.016   0.345
 6266SOL     OW19696   3.113   5.391   3.413
 6266SOL    HW119697   3.208   5.419   3.430
 6266SOL    HW219698   3.067   5.460   3.356
 6267SOL     OW19699   1.313   6.797   5.151
 6267SOL    HW119700   1.219   6.789   5.185
 6267SOL    HW219701   1.329   6.727   5.081
 6268SOL     OW19702   3.143   0.494   1.923
 6268SOL    HW119703   3.240   0.489   1.899
 6268SOL    HW219704   3.133   0.526   2.017
 6269SOL     OW19705   5.591   6.422   1.293
 6269SOL    HW119706   5.616   6.329   1.320
 6269SOL    HW219707   5.497   6.422   1.256
 6270SOL     OW19708   1.818   6.400   0.314
 6270SOL    HW119709   1.818   6.417   0.216
 6270SOL    HW219710   1.795   6.304   0.332
 6271SOL     OW19711   5.991   3.162   6.812
 6271SOL    HW119712   5.987   3.223   6.733
 6271SOL    HW219713   5.979   3.216   6.896
 6272SOL     OW19714   5.826   0.042   7.010
 6272SOL    HW119715   5.822   0.060   0.086
 6272SOL    HW219716   5.921   0.048   6.980
 6273SOL     OW19717   0.101   0.089   1.663
 6273SOL    HW119718   0.138   0.172   1.621
 6273SOL    HW219719   0.010   0.071   1.626
 6274SOL     OW19720   3.658   5.927   4.943
 6274SOL    HW119721   3.652   5.967   4.851
 6274SOL    HW219722   3.603   5.982   5.006
 6275SOL     OW19723   2.004   6.186   0.550
 6275SOL    HW119724   2.018   6.181   0.649
 6275SOL    HW219725   1.907   6.173   0.529
 6276SOL     OW19726   1.729   5.398   3.127
 6276SOL    HW119727   1.813   5.442   3.097
 6276SOL    HW219728   1.725   5.305   3.091
 6277SOL     OW19729   5.063   2.439   1.290
 6277SOL    HW119730   5.142   2.450   1.351
 6277SOL    HW219731   5.001   2.516   1.301
 6278SOL     OW19732   3.067   0.035   5.330
 6278SOL    HW119733   3.097   6.964   5.349
 6278SOL    HW219734   3.103   0.096   5.401
 6279SOL     OW19735   3.483   6.369   1.697
 6279SOL    HW119736   3.460   6.312   1.618
 6279SOL    HW219737   3.583   6.376   1.705
 6280SOL     OW19738   7.008   1.592   6.848
 6280SOL    HW119739   0.050   1.533   6.897
 6280SOL    HW219740   0.032   1.634   6.770
 6281SOL     OW19741   6.190   4.196   5.156
 6281SOL    HW119742   6.240   4.251   5.090
 6281SOL    HW219743   6.094   4.188   5.128
 6282SOL     OW19744   0.969   3.686   6.551
 6282SOL    HW119745   1.031   3.697   6.628
 6282SOL    HW219746   1.019   3.647   6.473
 6283SOL     OW19747   1.278   6.265   5.764
 6283SOL    HW119748   1.355   6.328   5.773
 6283SOL    HW219749   1.290   6.189   5.828
 6284SOL     OW19750   2.496   4.061   6.997
 6284SOL    HW119751   2.440   4.143   6.990
 6284SOL    HW219752   2.579   4.082   0.027
 6285SOL     OW19753   1.401   3.435   3.043
 6285SOL    HW119754   1.442   3.408   3.130
 6285SOL    HW219755   1.430   3.527   3.019
 6286SOL     OW19756   0.848   2.848   4.688
 6286SOL    HW119757   0.860   2.947   4.699
 6286SOL    HW219758   0.931   2.801   4.717
 6287SOL     OW19759   4.201   4.881   5.288
 6287SOL    HW119760   4.132   4.949   5.314
 6287SOL    HW219761   4.249   4.912   5.206
 6288SOL     OW19762   3.618   3.209   6.442
 6288SOL    HW119763   3.626   3.263   6.359
 6288SOL    HW219764   3.708   3.178   6.471
 6289SOL     OW19765   2.466   4.960   6.397
 6289SOL    HW119766   2.547   5.014   6.374
 6289SOL    HW219767   2.475   4.925   6.491
 6290SOL     OW19768   5.865   5.514   5.302
 6290SOL    HW119769   5.836   5.488   5.394
 6290SOL    HW219770   5.799   5.580   5.264
 6291SOL     OW19771   3.478   3.335   2.813
 6291SOL    HW119772   3.505   3.239   2.817
 6291SOL    HW219773   3.392   3.348   2.862
 6292SOL     OW19774   2.083   3.284   4.711
 6292SOL    HW119775   1.983   3.284   4.712
 6292SOL    HW219776   2.117   3.220   4.780
 6293SOL     OW19777   4.915   1.137   7.010
 6293SOL    HW119778   4.842   1.087   0.032
 6293SOL    HW219779   4.975   1.073   6.961
 6294SOL     OW19780   2.335   1.323   3.532
 6294SOL    HW119781   2.376   1.254   3.591
 6294SOL    HW219782   2.401   1.352   3.463
 6295SOL     OW19783   5.753   4.599   5.666
 6295SOL    HW119784   5.755   4.692   5.704
 6295SOL    HW219785   5.771   4.603   5.568
 6296SOL     OW19786   0.224   2.963   6.600
 6296SOL    HW119787   0.275   2.907   6.666
 6296SOL    HW219788   0.288   3.005   6.536
 6297SOL     OW19789   5.959   0.558   4.230
 6297SOL    HW119790   5.887   0.593   4.171
 6297SOL    HW219791   5.922   0.542   4.322
 6298SOL     OW19792   5.956   4.404   0.390
 6298SOL    HW119793   5.892   4.456   0.446
 6298SOL    HW219794   5.905   4.352   0.322
 6299SOL     OW19795   4.656   2.279   2.572
 6299SOL    HW119796   4.633   2.322   2.659
 6299SOL    HW219797   4.598   2.200   2.557
 6300SOL     OW19798   3.513   0.555   6.154
 6300SOL    HW119799   3.447   0.504   6.099
 6300SOL    HW219800   3.565   0.617   6.094
 6301SOL     OW19801   3.327   6.876   0.803
 6301SOL    HW119802   3.355   6.941   0.732
 6301SOL    HW219803   3.393   6.800   0.806
 6302SOL     OW19804   3.210   1.018   5.494
 6302SOL    HW119805   3.170   0.984   5.409
 6302SOL    HW219806   3.309   1.024   5.484
 6303SOL     OW19807   1.429   5.852   6.319
 6303SOL    HW119808   1.487   5.875   6.396
 6303SOL    HW219809   1.348   5.911   6.319
 6304SOL     OW19810   4.151   0.836   2.500
 6304SOL    HW119811   4.074   0.848   2.562
 6304SOL    HW219812   4.222   0.781   2.544
 6305SOL     OW19813   0.719   5.568   5.498
 6305SOL    HW119814   0.681   5.656   5.468
 6305SOL    HW219815   0.800   5.585   5.554
 6306SOL     OW19816   6.580   4.637   4.055
 6306SOL    HW119817   6.676   4.665   4.054
 6306SOL    HW219818   6.574   4.540   4.031
 6307SOL     OW19819   4.097   3.735   3.194
 6307SOL    HW119820   4.049   3.746   3.281
 6307SOL    HW219821   4.133   3.643   3.187
 6308SOL     OW19822   0.279   2.684   6.908
 6308SOL    HW119823   0.239   2.724   6.991
 6308SOL    HW219824   0.254   2.588   6.902
 6309SOL     OW19825   1.356   6.609   4.973
 6309SOL    HW119826   1.401   6.652   4.894
 6309SOL    HW219827   1.265   6.579   4.946
 6310SOL     OW19828   1.904   6.932   2.981
 6310SOL    HW119829   1.863   6.999   2.919
 6310SOL    HW219830   1.832   6.882   3.030
 6311SOL     OW19831   5.322   1.243   5.883
 6311SOL    HW119832   5.396   1.302   5.851
 6311SOL    HW219833   5.344   1.210   5.975
 6312SOL     OW19834   3.486   6.955   6.669
 6312SOL    HW119835   3.489   6.953   6.569
 6312SOL    HW219836   3.580   6.959   6.705
 6313SOL     OW19837   5.408   6.098   3.242
 6313SOL    HW119838   5.469   6.177   3.238
 6313SOL    HW219839   5.324   6.124   3.290
 6314SOL     OW19840   2.248   0.435   1.482
 6314SOL    HW119841   2.227   0.488   1.564
 6314SOL    HW219842   2.282   0.344   1.508
 6315SOL     OW19843   2.312   2.927   3.879
 6315SOL    HW119844   2.343   2.857   3.943
 6315SOL    HW219845   2.386   2.991   3.861
 6316SOL     OW19846   5.538   1.998   4.848
 6316SOL    HW119847   5.636   1.984   4.855
 6316SOL    HW219848   5.493   1.972   4.934
 6317SOL     OW19849   5.039   4.248   1.873
 6317SOL    HW119850   4.939   4.249   1.882
 6317SOL    HW219851   5.073   4.342   1.871
 6318SOL     OW19852   6.542   0.328   6.183
 6318SOL    HW119853   6.534   0.229   6.174
 6318SOL    HW219854   6.548   0.352   6.280
 6319SOL     OW19855   5.505   2.279   4.273
 6319SOL    HW119856   5.491   2.202   4.210
 6319SOL    HW219857   5.423   2.291   4.329
 6320SOL     OW19858   0.120   1.191   4.065
 6320SOL    HW119859   0.116   1.131   3.985
 6320SOL    HW219860   0.056   1.267   4.054
 6321SOL     OW19861   5.496   2.345   0.756
 6321SOL    HW119862   5.466   2.271   0.696
 6321SOL    HW219863   5.419   2.377   0.812
 6322SOL     OW19864   1.536   1.020   1.189
 6322SOL    HW119865   1.561   1.094   1.252
 6322SOL    HW219866   1.454   1.047   1.138
 6323SOL     OW19867   2.567   3.049   1.265
 6323SOL    HW119868   2.588   3.039   1.168
 6323SOL    HW219869   2.637   3.001   1.319
 6324SOL     OW19870   4.384   1.479   0.898
 6324SOL    HW119871   4.378   1.512   0.804
 6324SOL    HW219872   4.476   1.494   0.932
 6325SOL     OW19873   1.460   2.371   2.799
 6325SOL    HW119874   1.400   2.343   2.873
 6325SOL    HW219875   1.411   2.432   2.737
 6326SOL     OW19876   5.276   5.187   5.714
 6326SOL    HW119877   5.320   5.167   5.626
 6326SOL    HW219878   5.220   5.269   5.705
 6327SOL     OW19879   0.184   0.938   3.183
 6327SOL    HW119880   0.123   0.899   3.252
 6327SOL    HW219881   0.260   0.876   3.166
 6328SOL     OW19882   4.341   3.165   5.927
 6328SOL    HW119883   4.434   3.183   5.895
 6328SOL    HW219884   4.338   3.172   6.027
 6329SOL     OW19885   1.538   3.007   5.604
 6329SOL    HW119886   1.510   3.103   5.605
 6329SOL    HW219887   1.465   2.951   5.563
 6330SOL     OW19888   5.640   0.671   3.652
 6330SOL    HW119889   5.643   0.591   3.592
 6330SOL    HW219890   5.733   0.692   3.683
 6331SOL     OW19891   6.649   3.727   3.545
 6331SOL    HW119892   6.709   3.669   3.489
 6331SOL    HW219893   6.637   3.686   3.635
 6332SOL     OW19894   2.005   2.038   0.653
 6332SOL    HW119895   2.049   1.992   0.576
 6332SOL    HW219896   1.978   1.970   0.721
 6333SOL     OW19897   5.251   0.582   0.687
 6333SOL    HW119898   5.334   0.549   0.731
 6333SOL    HW219899   5.209   0.653   0.743
 6334SOL     OW19900   2.787   1.153   2.067
 6334SOL    HW119901   2.775   1.144   1.968
 6334SOL    HW219902   2.829   1.241   2.088
 6335SOL     OW19903   5.761   1.167   0.570
 6335SOL    HW119904   5.834   1.202   0.628
 6335SOL    HW219905   5.720   1.242   0.519
 6336SOL     OW19906   0.632   3.432   6.338
 6336SOL    HW119907   0.656   3.501   6.406
 6336SOL    HW219908   0.684   3.448   6.254
 6337SOL     OW19909   4.724   5.520   5.313
 6337SOL    HW119910   4.790   5.488   5.380
 6337SOL    HW219911   4.730   5.465   5.230
 6338SOL     OW19912   3.049   1.758   3.842
 6338SOL    HW119913   2.963   1.719   3.809
 6338SOL    HW219914   3.125   1.712   3.798
 6339SOL     OW19915   0.910   4.221   3.257
 6339SOL    HW119916   0.848   4.161   3.206
 6339SOL    HW219917   0.990   4.169   3.285
 6340SOL     OW19918   2.617   4.105   1.394
 6340SOL    HW119919   2.547   4.054   1.344
 6340SOL    HW219920   2.668   4.162   1.330
 6341SOL     OW19921   1.035   4.599   3.717
 6341SOL    HW119922   0.985   4.596   3.804
 6341SOL    HW219923   0.988   4.542   3.650
 6342SOL     OW19924   1.959   1.375   2.021
 6342SOL    HW119925   1.989   1.448   2.082
 6342SOL    HW219926   1.965   1.406   1.926
 6343SOL     OW19927   2.602   5.990   0.167
 6343SOL    HW119928   2.620   6.082   0.202
 6343SOL    HW219929   2.543   5.997   0.087
 6344SOL     OW19930   6.779   1.765   3.710
 6344SOL    HW119931   6.860   1.748   3.653
 6344SOL    HW219932   6.784   1.708   3.792
 6345SOL     OW19933   5.961   3.652   1.650
 6345SOL    HW119934   5.994   3.617   1.563
 6345SOL    HW219935   6.010   3.736   1.673
 6346SOL     OW19936   0.105   4.626   5.549
 6346SOL    HW119937   0.160   4.621   5.632
 6346SOL    HW219938   0.066   4.536   5.528
 6347SOL     OW19939   2.596   2.117   2.667
 6347SOL    HW119940   2.553   2.070   2.590
 6347SOL    HW219941   2.695   2.118   2.654
 6348SOL     OW19942   0.491   2.049   5.592
 6348SOL    HW119943   0.457   2.083   5.680
 6348SOL    HW219944   0.423   1.987   5.552
 6349SOL     OW19945   0.075   0.662   0.170
 6349SOL    HW119946   0.079   0.584   0.232
 6349SOL    HW219947   0.037   0.633   0.082
 6350SOL     OW19948   0.920   4.261   1.865
 6350SOL    HW119949   0.999   4.290   1.919
 6350SOL    HW219950   0.866   4.340   1.838
 6351SOL     OW19951   5.836   3.449   2.917
 6351SOL    HW119952   5.836   3.439   3.017
 6351SOL    HW219953   5.815   3.543   2.893
 6352SOL     OW19954   2.365   0.412   4.428
 6352SOL    HW119955   2.336   0.488   4.369
 6352SOL    HW219956   2.342   0.433   4.523
 6353SOL     OW19957   2.980   5.774   6.514
 6353SOL    HW119958   3.058   5.765   6.577
 6353SOL    HW219959   2.960   5.684   6.474
 6354SOL     OW19960   4.778   4.101   3.041
 6354SOL    HW119961   4.791   4.081   3.138
 6354SOL    HW219962   4.829   4.035   2.986
 6355SOL     OW19963   2.620   4.586   0.882
 6355SOL    HW119964   2.572   4.579   0.794
 6355SOL    HW219965   2.554   4.602   0.955
 6356SOL     OW19966   5.315   4.859   6.908
 6356SOL    HW119967   5.263   4.776   6.892
 6356SOL    HW219968   5.259   4.939   6.886
 6357SOL     OW19969   5.842   1.810   1.777
 6357SOL    HW119970   5.819   1.779   1.870
 6357SOL    HW219971   5.908   1.748   1.736
 6358SOL     OW19972   1.819   2.625   6.544
 6358SOL    HW119973   1.727   2.593   6.522
 6358SOL    HW219974   1.878   2.615   6.464
 6359SOL     OW19975   5.480   6.322   0.421
 6359SOL    HW119976   5.521   6.235   0.448
 6359SOL    HW219977   5.381   6.312   0.415
 6360SOL     OW19978   0.570   2.240   2.879
 6360SOL    HW119979   0.477   2.266   2.853
 6360SOL    HW219980   0.626   2.229   2.797
 6361SOL     OW19981   0.578   0.204   6.788
 6361SOL    HW119982   0.659   0.149   6.767
 6361SOL    HW219983   0.574   0.219   6.887
 6362SOL     OW19984   1.166   5.547   6.519
 6362SOL    HW119985   1.195   5.561   6.424
 6362SOL    HW219986   1.111   5.626   6.548
 6363SOL     OW19987   2.868   5.338   3.947
 6363SOL    HW119988   2.935   5.322   3.875
 6363SOL    HW219989   2.818   5.253   3.966
 6364SOL     OW19990   2.396   2.370   5.044
 6364SOL    HW119991   2.451   2.290   5.067
 6364SOL    HW219992   2.442   2.452   5.077
 6365SOL     OW19993   5.674   5.516   3.458
 6365SOL    HW119994   5.728   5.570   3.522
 6365SOL    HW219995   5.713   5.524   3.366
 6366SOL     OW19996   6.250   6.733   4.751
 6366SOL    HW119997   6.313   6.810   4.737
 6366SOL    HW219998   6.247   6.677   4.668
 6367SOL     OW19999   3.169   2.149   2.730
 6367SOL    HW120000   3.224   2.158   2.647
 6367SOL    HW220001   3.135   2.056   2.738
 6368SOL     OW20002   4.914   3.427   4.640
 6368SOL    HW120003   4.865   3.453   4.723
 6368SOL    HW220004   4.998   3.480   4.632
 6369SOL     OW20005   3.244   6.011   5.883
 6369SOL    HW120006   3.163   6.045   5.834
 6369SOL    HW220007   3.316   5.989   5.817
 6370SOL     OW20008   5.595   3.989   3.647
 6370SOL    HW120009   5.655   4.065   3.671
 6370SOL    HW220010   5.594   3.922   3.721
 6371SOL     OW20011   5.670   3.609   1.542
 6371SOL    HW120012   5.578   3.600   1.580
 6371SOL    HW220013   5.736   3.618   1.617
 6372SOL     OW20014   0.065   0.741   2.950
 6372SOL    HW120015   0.040   0.835   2.971
 6372SOL    HW220016   0.150   0.718   2.998
 6373SOL     OW20017   4.937   3.748   1.248
 6373SOL    HW120018   4.880   3.693   1.309
 6373SOL    HW220019   5.022   3.698   1.228
 6374SOL     OW20020   4.811   2.938   0.420
 6374SOL    HW120021   4.890   2.953   0.360
 6374SOL    HW220022   4.809   3.008   0.491
 6375SOL     OW20023   6.777   2.740   2.280
 6375SOL    HW120024   6.721   2.668   2.321
 6375SOL    HW220025   6.726   2.826   2.280
 6376SOL     OW20026   3.541   0.895   5.816
 6376SOL    HW120027   3.607   0.966   5.840
 6376SOL    HW220028   3.573   0.807   5.850
 6377SOL     OW20029   6.901   0.261   0.256
 6377SOL    HW120030   6.825   0.203   0.227
 6377SOL    HW220031   6.953   0.215   0.329
 6378SOL     OW20032   5.787   5.530   3.177
 6378SOL    HW120033   5.725   5.452   3.172
 6378SOL    HW220034   5.735   5.615   3.169
 6379SOL     OW20035   3.177   5.775   6.738
 6379SOL    HW120036   3.125   5.840   6.793
 6379SOL    HW220037   3.207   5.700   6.796
 6380SOL     OW20038   1.316   3.367   5.253
 6380SOL    HW120039   1.331   3.299   5.181
 6380SOL    HW220040   1.218   3.374   5.271
 6381SOL     OW20041   4.666   3.102   0.239
 6381SOL    HW120042   4.566   3.100   0.228
 6381SOL    HW220043   4.695   3.026   0.297
 6382SOL     OW20044   2.525   1.310   1.395
 6382SOL    HW120045   2.503   1.391   1.341
 6382SOL    HW220046   2.465   1.306   1.475
 6383SOL     OW20047   2.106   1.988   2.530
 6383SOL    HW120048   2.101   2.083   2.501
 6383SOL    HW220049   2.162   1.981   2.613
 6384SOL     OW20050   6.611   2.353   2.102
 6384SOL    HW120051   6.521   2.387   2.073
 6384SOL    HW220052   6.634   2.271   2.050
 6385SOL     OW20053   0.006   3.073   1.334
 6385SOL    HW120054   6.940   3.028   1.340
 6385SOL    HW220055   0.039   3.094   1.426
 6386SOL     OW20056   2.342   3.474   0.522
 6386SOL    HW120057   2.265   3.495   0.462
 6386SOL    HW220058   2.308   3.455   0.615
 6387SOL     OW20059   6.395   0.688   6.921
 6387SOL    HW120060   6.360   0.752   6.853
 6387SOL    HW220061   6.323   0.666   6.987
 6388SOL     OW20062   6.210   5.120   2.842
 6388SOL    HW120063   6.288   5.138   2.902
 6388SOL    HW220064   6.188   5.202   2.790
 6389SOL     OW20065   1.789   0.581   6.793
 6389SOL    HW120066   1.844   0.641   6.851
 6389SOL    HW220067   1.815   0.486   6.808
 6390SOL     OW20068   6.495   1.212   6.681
 6390SOL    HW120069   6.552   1.274   6.626
 6390SOL    HW220070   6.489   1.246   6.775
 6391SOL     OW20071   1.800   1.549   5.119
 6391SOL    HW120072   1.849   1.539   5.032
 6391SOL    HW220073   1.741   1.630   5.115
 6392SOL     OW20074   3.392   6.004   3.700
 6392SOL    HW120075   3.486   5.970   3.708
 6392SOL    HW220076   3.358   5.984   3.608
 6393SOL     OW20077   6.322   6.111   1.656
 6393SOL    HW120078   6.276   6.104   1.744
 6393SOL    HW220079   6.353   6.021   1.626
 6394SOL     OW20080   1.175   5.195   0.914
 6394SOL    HW120081   1.078   5.217   0.908
 6394SOL    HW220082   1.189   5.128   0.988
 6395SOL     OW20083   1.546   3.970   3.260
 6395SOL    HW120084   1.586   4.024   3.186
 6395SOL    HW220085   1.587   3.879   3.262
 6396SOL     OW20086   6.965   4.236   0.226
 6396SOL    HW120087   6.899   4.160   0.229
 6396SOL    HW220088   6.963   4.278   0.135
 6397SOL     OW20089   5.733   2.505   3.499
 6397SOL    HW120090   5.730   2.505   3.599
 6397SOL    HW220091   5.819   2.464   3.469
 6398SOL     OW20092   0.786   6.763   1.103
 6398SOL    HW120093   0.755   6.686   1.049
 6398SOL    HW220094   0.708   6.819   1.130
 6399SOL     OW20095   2.546   0.518   6.039
 6399SOL    HW120096   2.553   0.446   5.971
 6399SOL    HW220097   2.540   0.478   6.130
 6400SOL     OW20098   1.458   5.624   3.250
 6400SOL    HW120099   1.509   5.706   3.221
 6400SOL    HW220100   1.517   5.568   3.309
 6401SOL     OW20101   3.888   5.279   3.334
 6401SOL    HW120102   3.905   5.224   3.252
 6401SOL    HW220103   3.849   5.367   3.307
 6402SOL     OW20104   2.159   4.539   4.888
 6402SOL    HW120105   2.207   4.451   4.891
 6402SOL    HW220106   2.114   4.550   4.800
 6403SOL     OW20107   5.048   6.253   5.066
 6403SOL    HW120108   5.036   6.158   5.094
 6403SOL    HW220109   5.133   6.288   5.105
 6404SOL     OW20110   3.677   0.455   2.291
 6404SOL    HW120111   3.652   0.383   2.355
 6404SOL    HW220112   3.776   0.461   2.283
 6405SOL     OW20113   5.511   1.618   2.531
 6405SOL    HW120114   5.429   1.630   2.475
 6405SOL    HW220115   5.560   1.706   2.536
 6406SOL     OW20116   0.985   2.759   2.519
 6406SOL    HW120117   0.895   2.753   2.476
 6406SOL    HW220118   1.008   2.855   2.535
 6407SOL     OW20119   2.251   5.677   3.149
 6407SOL    HW120120   2.254   5.768   3.108
 6407SOL    HW220121   2.162   5.663   3.193
 6408SOL     OW20122   6.597   0.241   0.649
 6408SOL    HW120123   6.634   0.332   0.632
 6408SOL    HW220124   6.558   0.237   0.741
 6409SOL     OW20125   6.087   5.078   3.939
 6409SOL    HW120126   6.178   5.114   3.959
 6409SOL    HW220127   6.018   5.133   3.987
 6410SOL     OW20128   3.408   1.686   5.797
 6410SOL    HW120129   3.349   1.749   5.746
 6410SOL    HW220130   3.354   1.607   5.827
 6411SOL     OW20131   0.312   2.328   2.858
 6411SOL    HW120132   0.261   2.351   2.941
 6411SOL    HW220133   0.255   2.271   2.799
 6412SOL     OW20134   3.017   0.815   6.866
 6412SOL    HW120135   2.961   0.735   6.842
 6412SOL    HW220136   3.000   0.839   6.961
 6413SOL     OW20137   4.416   4.895   3.975
 6413SOL    HW120138   4.507   4.932   3.997
 6413SOL    HW220139   4.353   4.913   4.050
 6414SOL     OW20140   1.032   6.822   6.976
 6414SOL    HW120141   1.054   6.795   0.047
 6414SOL    HW220142   1.052   6.919   6.963
 6415SOL     OW20143   1.039   2.427   3.357
 6415SOL    HW120144   0.993   2.467   3.436
 6415SOL    HW220145   1.048   2.496   3.285
 6416SOL     OW20146   2.920   0.727   6.486
 6416SOL    HW120147   2.983   0.662   6.529
 6416SOL    HW220148   2.895   0.694   6.395
 6417SOL     OW20149   4.732   1.380   0.793
 6417SOL    HW120150   4.716   1.433   0.709
 6417SOL    HW220151   4.700   1.433   0.872
 6418SOL     OW20152   4.187   4.698   1.235
 6418SOL    HW120153   4.261   4.691   1.169
 6418SOL    HW220154   4.213   4.654   1.321
 6419SOL     OW20155   0.704   6.460   6.422
 6419SOL    HW120156   0.786   6.403   6.408
 6419SOL    HW220157   0.732   6.553   6.443
 6420SOL     OW20158   1.797   3.299   4.116
 6420SOL    HW120159   1.804   3.315   4.215
 6420SOL    HW220160   1.703   3.314   4.086
 6421SOL     OW20161   5.008   0.140   1.408
 6421SOL    HW120162   4.998   0.221   1.350
 6421SOL    HW220163   5.076   0.158   1.479
 6422SOL     OW20164   6.375   2.581   4.757
 6422SOL    HW120165   6.296   2.550   4.809
 6422SOL    HW220166   6.446   2.613   4.820
 6423SOL     OW20167   2.445   4.390   4.267
 6423SOL    HW120168   2.402   4.390   4.358
 6423SOL    HW220169   2.409   4.315   4.213
 6424SOL     OW20170   0.391   4.146   5.269
 6424SOL    HW120171   0.377   4.187   5.179
 6424SOL    HW220172   0.407   4.219   5.337
 6425SOL     OW20173   0.434   6.536   3.032
 6425SOL    HW120174   0.463   6.581   3.116
 6425SOL    HW220175   0.395   6.447   3.053
 6426SOL     OW20176   4.409   4.705   4.687
 6426SOL    HW120177   4.376   4.616   4.718
 6426SOL    HW220178   4.500   4.694   4.645
 6427SOL     OW20179   2.931   3.462   3.459
 6427SOL    HW120180   2.944   3.388   3.393
 6427SOL    HW220181   3.020   3.492   3.493
 6428SOL     OW20182   4.799   2.385   0.084
 6428SOL    HW120183   4.751   2.443   0.149
 6428SOL    HW220184   4.896   2.407   0.084
 6429SOL     OW20185   2.154   0.671   5.186
 6429SOL    HW120186   2.248   0.682   5.153
 6429SOL    HW220187   2.144   0.719   5.274
 6430SOL     OW20188   6.553   0.446   5.184
 6430SOL    HW120189   6.559   0.545   5.173
 6430SOL    HW220190   6.492   0.408   5.114
 6431SOL     OW20191   4.135   4.976   2.175
 6431SOL    HW120192   4.107   5.051   2.234
 6431SOL    HW220193   4.085   4.893   2.200
 6432SOL     OW20194   4.328   4.451   5.962
 6432SOL    HW120195   4.406   4.495   6.006
 6432SOL    HW220196   4.255   4.438   6.029
 6433SOL     OW20197   2.786   5.900   6.812
 6433SOL    HW120198   2.805   5.965   6.738
 6433SOL    HW220199   2.784   5.807   6.774
 6434SOL     OW20200   3.395   5.682   5.648
 6434SOL    HW120201   3.419   5.779   5.652
 6434SOL    HW220202   3.364   5.659   5.555
 6435SOL     OW20203   5.062   0.726   0.830
 6435SOL    HW120204   4.971   0.708   0.868
 6435SOL    HW220205   5.104   0.802   0.878
 6436SOL     OW20206   6.996   3.765   3.853
 6436SOL    HW120207   6.901   3.786   3.876
 6436SOL    HW220208   0.031   3.843   3.877
 6437SOL     OW20209   0.582   1.125   5.656
 6437SOL    HW120210   0.563   1.051   5.719
 6437SOL    HW220211   0.681   1.138   5.650
 6438SOL     OW20212   0.611   5.667   0.102
 6438SOL    HW120213   0.547   5.740   0.081
 6438SOL    HW220214   0.621   5.659   0.201
 6439SOL     OW20215   5.783   0.338   3.629
 6439SOL    HW120216   5.713   0.389   3.579
 6439SOL    HW220217   5.860   0.398   3.650
 6440SOL     OW20218   2.414   1.166   5.853
 6440SOL    HW120219   2.384   1.145   5.760
 6440SOL    HW220220   2.399   1.263   5.873
 6441SOL     OW20221   0.059   0.737   2.399
 6441SOL    HW120222   0.122   0.799   2.353
 6441SOL    HW220223   0.072   0.743   2.498
 6442SOL     OW20224   3.159   2.633   5.597
 6442SOL    HW120225   3.149   2.534   5.583
 6442SOL    HW220226   3.136   2.655   5.692
 6443SOL     OW20227   4.517   2.258   1.057
 6443SOL    HW120228   4.612   2.254   1.027
 6443SOL    HW220229   4.467   2.322   0.999
 6444SOL     OW20230   0.105   3.146   5.269
 6444SOL    HW120231   0.190   3.160   5.219
 6444SOL    HW220232   0.101   3.051   5.301
 6445SOL     OW20233   2.965   3.867   3.108
 6445SOL    HW120234   2.870   3.851   3.080
 6445SOL    HW220235   3.022   3.875   3.027
 6446SOL     OW20236   2.049   1.601   0.109
 6446SOL    HW120237   2.135   1.648   0.089
 6446SOL    HW220238   1.973   1.651   0.069
 6447SOL     OW20239   5.943   4.557   1.516
 6447SOL    HW120240   5.862   4.498   1.517
 6447SOL    HW220241   5.915   4.652   1.505
 6448SOL     OW20242   5.029   5.402   2.104
 6448SOL    HW120243   5.095   5.332   2.130
 6448SOL    HW220244   4.952   5.360   2.056
 6449SOL     OW20245   2.291   5.774   1.328
 6449SOL    HW120246   2.196   5.790   1.302
 6449SOL    HW220247   2.300   5.782   1.428
 6450SOL     OW20248   0.553   3.840   1.068
 6450SOL    HW120249   0.563   3.773   1.142
 6450SOL    HW220250   0.483   3.907   1.093
 6451SOL     OW20251   3.338   2.651   1.271
 6451SOL    HW120252   3.267   2.657   1.341
 6451SOL    HW220253   3.422   2.615   1.311
 6452SOL     OW20254   5.225   2.664   3.321
 6452SOL    HW120255   5.273   2.612   3.251
 6452SOL    HW220256   5.250   2.760   3.315
 6453SOL     OW20257   3.457   0.012   0.604
 6453SOL    HW120258   3.515   0.065   0.665
 6453SOL    HW220259   3.513   6.971   0.552
 6454SOL     OW20260   5.859   2.790   2.720
 6454SOL    HW120261   5.918   2.823   2.646
 6454SOL    HW220262   5.773   2.842   2.718
 6455SOL     OW20263   6.197   4.133   3.429
 6455SOL    HW120264   6.229   4.051   3.476
 6455SOL    HW220265   6.272   4.199   3.420
 6456SOL     OW20266   6.511   1.019   3.042
 6456SOL    HW120267   6.447   0.960   3.091
 6456SOL    HW220268   6.539   0.975   2.957
 6457SOL     OW20269   4.676   0.434   1.584
 6457SOL    HW120270   4.767   0.419   1.623
 6457SOL    HW220271   4.607   0.428   1.656
 6458SOL     OW20272   1.297   4.685   3.656
 6458SOL    HW120273   1.201   4.699   3.681
 6458SOL    HW220274   1.317   4.588   3.655
 6459SOL     OW20275   6.582   3.074   2.803
 6459SOL    HW120276   6.498   3.033   2.766
 6459SOL    HW220277   6.560   3.120   2.889
 6460SOL     OW20278   0.232   5.769   6.167
 6460SOL    HW120279   0.260   5.672   6.167
 6460SOL    HW220280   0.133   5.775   6.172
 6461SOL     OW20281   2.975   4.851   1.150
 6461SOL    HW120282   3.060   4.811   1.117
 6461SOL    HW220283   2.902   4.783   1.148
 6462SOL     OW20284   1.383   4.084   5.108
 6462SOL    HW120285   1.449   4.045   5.173
 6462SOL    HW220286   1.300   4.109   5.157
 6463SOL     OW20287   4.117   1.308   1.083
 6463SOL    HW120288   4.211   1.317   1.114
 6463SOL    HW220289   4.076   1.399   1.075
 6464SOL     OW20290   0.972   5.675   4.341
 6464SOL    HW120291   1.058   5.662   4.292
 6464SOL    HW220292   0.949   5.772   4.345
 6465SOL     OW20293   4.676   2.125   3.250
 6465SOL    HW120294   4.684   2.197   3.181
 6465SOL    HW220295   4.598   2.143   3.309
 6466SOL     OW20296   0.570   3.411   0.133
 6466SOL    HW120297   0.662   3.373   0.122
 6466SOL    HW220298   0.542   3.456   0.048
 6467SOL     OW20299   3.349   1.248   0.739
 6467SOL    HW120300   3.408   1.319   0.700
 6467SOL    HW220301   3.309   1.194   0.664
 6468SOL     OW20302   3.034   0.397   0.663
 6468SOL    HW120303   3.123   0.437   0.687
 6468SOL    HW220304   2.980   0.385   0.746
 6469SOL     OW20305   3.910   1.796   3.249
 6469SOL    HW120306   3.943   1.891   3.242
 6469SOL    HW220307   3.908   1.770   3.346
 6470SOL     OW20308   6.309   2.478   6.908
 6470SOL    HW120309   6.334   2.545   6.978
 6470SOL    HW220310   6.373   2.485   6.831
 6471SOL     OW20311   0.360   6.350   4.857
 6471SOL    HW120312   0.267   6.381   4.835
 6471SOL    HW220313   0.363   6.250   4.854
 6472SOL     OW20314   6.838   5.709   2.537
 6472SOL    HW120315   6.842   5.797   2.585
 6472SOL    HW220316   6.925   5.691   2.491
 6473SOL     OW20317   1.966   1.258   3.837
 6473SOL    HW120318   1.996   1.351   3.857
 6473SOL    HW220319   2.037   1.193   3.864
 6474SOL     OW20320   4.226   6.506   4.764
 6474SOL    HW120321   4.182   6.442   4.700
 6474SOL    HW220322   4.160   6.535   4.833
 6475SOL     OW20323   5.697   4.843   2.869
 6475SOL    HW120324   5.733   4.884   2.952
 6475SOL    HW220325   5.604   4.876   2.852
 6476SOL     OW20326   4.046   1.496   6.367
 6476SOL    HW120327   4.082   1.480   6.459
 6476SOL    HW220328   4.009   1.589   6.362
 6477SOL     OW20329   6.592   6.026   1.490
 6477SOL    HW120330   6.690   6.020   1.512
 6477SOL    HW220331   6.571   6.118   1.457
 6478SOL     OW20332   3.556   5.927   1.893
 6478SOL    HW120333   3.511   5.845   1.928
 6478SOL    HW220334   3.498   6.007   1.909
 6479SOL     OW20335   3.497   6.246   3.838
 6479SOL    HW120336   3.539   6.212   3.921
 6479SOL    HW220337   3.452   6.171   3.790
 6480SOL     OW20338   3.265   1.446   6.689
 6480SOL    HW120339   3.346   1.420   6.742
 6480SOL    HW220340   3.208   1.365   6.675
 6481SOL     OW20341   3.313   2.473   1.647
 6481SOL    HW120342   3.224   2.517   1.640
 6481SOL    HW220343   3.301   2.378   1.676
 6482SOL     OW20344   6.679   3.355   5.616
 6482SOL    HW120345   6.727   3.368   5.529
 6482SOL    HW220346   6.602   3.292   5.603
 6483SOL     OW20347   1.375   5.840   5.280
 6483SOL    HW120348   1.385   5.839   5.180
 6483SOL    HW220349   1.426   5.763   5.319
 6484SOL     OW20350   2.507   0.901   3.977
 6484SOL    HW120351   2.462   0.868   3.894
 6484SOL    HW220352   2.490   0.837   4.052
 6485SOL     OW20353   2.115   6.742   4.256
 6485SOL    HW120354   2.208   6.722   4.284
 6485SOL    HW220355   2.063   6.775   4.335
 6486SOL     OW20356   1.625   5.392   3.386
 6486SOL    HW120357   1.673   5.419   3.303
 6486SOL    HW220358   1.606   5.294   3.383
 6487SOL     OW20359   0.205   4.679   4.282
 6487SOL    HW120360   0.292   4.641   4.312
 6487SOL    HW220361   0.192   4.770   4.321
 6488SOL     OW20362   4.468   5.612   4.664
 6488SOL    HW120363   4.421   5.588   4.579
 6488SOL    HW220364   4.487   5.710   4.666
 6489SOL     OW20365   4.190   2.882   6.156
 6489SOL    HW120366   4.178   2.826   6.073
 6489SOL    HW220367   4.102   2.920   6.183
 6490SOL     OW20368   1.669   1.921   6.439
 6490SOL    HW120369   1.703   1.980   6.513
 6490SOL    HW220370   1.745   1.897   6.378
 6491SOL     OW20371   1.363   0.354   0.704
 6491SOL    HW120372   1.326   0.286   0.641
 6491SOL    HW220373   1.312   0.439   0.695
 6492SOL     OW20374   3.628   3.816   5.004
 6492SOL    HW120375   3.707   3.773   4.960
 6492SOL    HW220376   3.626   3.791   5.101
 6493SOL     OW20377   0.915   4.350   6.335
 6493SOL    HW120378   0.987   4.282   6.326
 6493SOL    HW220379   0.899   4.370   6.431
 6494SOL     OW20380   6.091   6.612   1.987
 6494SOL    HW120381   6.115   6.689   2.047
 6494SOL    HW220382   6.087   6.644   1.892
 6495SOL     OW20383   0.286   0.158   3.485
 6495SOL    HW120384   0.304   0.101   3.566
 6495SOL    HW220385   0.365   0.154   3.423
 6496SOL     OW20386   4.874   0.497   2.042
 6496SOL    HW120387   4.900   0.554   1.964
 6496SOL    HW220388   4.948   0.497   2.109
 6497SOL     OW20389   0.288   1.651   0.840
 6497SOL    HW120390   0.316   1.573   0.784
 6497SOL    HW220391   0.192   1.641   0.866
 6498SOL     OW20392   1.013   4.383   3.478
 6498SOL    HW120393   0.920   4.413   3.458
 6498SOL    HW220394   1.011   4.289   3.513
 6499SOL     OW20395   5.865   4.022   4.506
 6499SOL    HW120396   5.894   4.010   4.411
 6499SOL    HW220397   5.895   3.943   4.560
 6500SOL     OW20398   1.521   3.824   2.726
 6500SOL    HW120399   1.439   3.793   2.679
 6500SOL    HW220400   1.561   3.902   2.678
 6501SOL     OW20401   6.380   2.047   1.220
 6501SOL    HW120402   6.307   2.071   1.284
 6501SOL    HW220403   6.362   1.957   1.181
 6502SOL     OW20404   6.028   3.626   1.972
 6502SOL    HW120405   6.029   3.530   1.946
 6502SOL    HW220406   6.116   3.668   1.952
 6503SOL     OW20407   6.686   3.076   5.848
 6503SOL    HW120408   6.717   3.120   5.764
 6503SOL    HW220409   6.606   3.019   5.829
 6504SOL     OW20410   4.458   6.405   6.364
 6504SOL    HW120411   4.498   6.497   6.362
 6504SOL    HW220412   4.519   6.344   6.414
 6505SOL     OW20413   5.816   5.966   0.018
 6505SOL    HW120414   5.733   6.020   0.002
 6505SOL    HW220415   5.896   6.021   7.018
 6506SOL     OW20416   0.227   2.864   2.733
 6506SOL    HW120417   0.196   2.774   2.765
 6506SOL    HW220418   0.218   2.869   2.633
 6507SOL     OW20419   3.795   4.492   6.700
 6507SOL    HW120420   3.831   4.578   6.737
 6507SOL    HW220421   3.815   4.488   6.602
 6508SOL     OW20422   1.164   6.607   1.877
 6508SOL    HW120423   1.146   6.517   1.838
 6508SOL    HW220424   1.239   6.601   1.943
 6509SOL     OW20425   3.918   1.723   5.765
 6509SOL    HW120426   3.993   1.734   5.830
 6509SOL    HW220427   3.852   1.657   5.802
 6510SOL     OW20428   4.389   6.338   5.576
 6510SOL    HW120429   4.430   6.312   5.663
 6510SOL    HW220430   4.332   6.419   5.589
 6511SOL     OW20431   3.630   1.271   6.908
 6511SOL    HW120432   3.607   1.215   6.988
 6511SOL    HW220433   3.580   1.357   6.912
 6512SOL     OW20434   3.353   0.886   1.076
 6512SOL    HW120435   3.297   0.829   1.136
 6512SOL    HW220436   3.313   0.977   1.069
 6513SOL     OW20437   2.916   5.525   4.665
 6513SOL    HW120438   2.890   5.448   4.723
 6513SOL    HW220439   2.836   5.558   4.614
 6514SOL     OW20440   5.883   0.521   5.304
 6514SOL    HW120441   5.823   0.584   5.255
 6514SOL    HW220442   5.827   0.463   5.364
 6515SOL     OW20443   1.990   4.860   1.894
 6515SOL    HW120444   2.036   4.865   1.983
 6515SOL    HW220445   1.931   4.779   1.892
 6516SOL     OW20446   0.201   2.940   1.159
 6516SOL    HW120447   0.140   2.973   1.230
 6516SOL    HW220448   0.240   2.852   1.186
 6517SOL     OW20449   0.059   3.080   0.101
 6517SOL    HW120450   7.002   3.026   0.073
 6517SOL    HW220451   0.110   3.107   0.020
 6518SOL     OW20452   1.077   1.449   2.891
 6518SOL    HW120453   1.080   1.374   2.824
 6518SOL    HW220454   1.049   1.413   2.980
 6519SOL     OW20455   0.833   1.778   3.330
 6519SOL    HW120456   0.752   1.720   3.325
 6519SOL    HW220457   0.810   1.864   3.377
 6520SOL     OW20458   0.081   5.649   6.832
 6520SOL    HW120459   0.155   5.711   6.808
 6520SOL    HW220460   7.018   5.701   6.840
 6521SOL     OW20461   1.490   3.009   4.361
 6521SOL    HW120462   1.580   3.038   4.328
 6521SOL    HW220463   1.444   3.087   4.404
 6522SOL     OW20464   2.560   4.151   5.384
 6522SOL    HW120465   2.503   4.117   5.309
 6522SOL    HW220466   2.537   4.100   5.467
 6523SOL     OW20467   5.836   0.120   0.249
 6523SOL    HW120468   5.931   0.098   0.269
 6523SOL    HW220469   5.817   0.215   0.275
 6524SOL     OW20470   2.244   2.434   1.219
 6524SOL    HW120471   2.151   2.452   1.252
 6524SOL    HW220472   2.307   2.498   1.262
 6525SOL     OW20473   1.446   4.905   3.662
 6525SOL    HW120474   1.379   4.831   3.648
 6525SOL    HW220475   1.409   4.972   3.726
 6526SOL     OW20476   6.989   0.098   0.453
 6526SOL    HW120477   0.046   0.050   0.489
 6526SOL    HW220478   6.912   0.034   0.446
 6527SOL     OW20479   0.750   2.598   0.427
 6527SOL    HW120480   0.732   2.652   0.509
 6527SOL    HW220481   0.739   2.501   0.448
 6528SOL     OW20482   6.131   1.061   5.671
 6528SOL    HW120483   6.047   1.009   5.658
 6528SOL    HW220484   6.188   1.016   5.740
 6529SOL     OW20485   6.665   1.227   2.034
 6529SOL    HW120486   6.674   1.128   2.026
 6529SOL    HW220487   6.662   1.252   2.131
 6530SOL     OW20488   0.635   2.273   2.204
 6530SOL    HW120489   0.575   2.344   2.242
 6530SOL    HW220490   0.730   2.299   2.218
 6531SOL     OW20491   4.168   2.981   5.827
 6531SOL    HW120492   4.227   3.059   5.846
 6531SOL    HW220493   4.075   3.001   5.859
 6532SOL     OW20494   1.229   0.850   0.808
 6532SOL    HW120495   1.203   0.944   0.787
 6532SOL    HW220496   1.325   0.835   0.786
 6533SOL     OW20497   4.345   3.897   6.514
 6533SOL    HW120498   4.286   3.968   6.475
 6533SOL    HW220499   4.417   3.940   6.569
 6534SOL     OW20500   5.738   4.724   2.249
 6534SOL    HW120501   5.787   4.642   2.220
 6534SOL    HW220502   5.786   4.766   2.326
 6535SOL     OW20503   6.157   3.384   4.856
 6535SOL    HW120504   6.093   3.328   4.908
 6535SOL    HW220505   6.218   3.433   4.919
 6536SOL     OW20506   0.360   2.899   5.304
 6536SOL    HW120507   0.261   2.910   5.309
 6536SOL    HW220508   0.401   2.913   5.394
 6537SOL     OW20509   6.219   4.841   4.669
 6537SOL    HW120510   6.205   4.903   4.746
 6537SOL    HW220511   6.292   4.776   4.690
 6538SOL     OW20512   2.187   3.745   5.336
 6538SOL    HW120513   2.285   3.765   5.332
 6538SOL    HW220514   2.170   3.655   5.295
 6539SOL     OW20515   6.446   0.687   6.480
 6539SOL    HW120516   6.524   0.747   6.498
 6539SOL    HW220517   6.389   0.727   6.408
 6540SOL     OW20518   4.388   2.651   6.108
 6540SOL    HW120519   4.474   2.679   6.066
 6540SOL    HW220520   4.314   2.711   6.077
 6541SOL     OW20521   6.173   1.391   4.885
 6541SOL    HW120522   6.237   1.330   4.933
 6541SOL    HW220523   6.153   1.353   4.794
 6542SOL     OW20524   1.787   3.276   4.751
 6542SOL    HW120525   1.809   3.341   4.823
 6542SOL    HW220526   1.748   3.193   4.791
 6543SOL     OW20527   3.891   2.056   4.837
 6543SOL    HW120528   3.938   2.080   4.922
 6543SOL    HW220529   3.923   1.967   4.805
 6544SOL     OW20530   0.879   0.245   1.411
 6544SOL    HW120531   0.875   0.169   1.476
 6544SOL    HW220532   0.852   0.213   1.320
 6545SOL     OW20533   4.111   0.054   1.623
 6545SOL    HW120534   4.046   0.101   1.683
 6545SOL    HW220535   4.149   0.119   1.557
 6546SOL     OW20536   5.489   4.182   6.481
 6546SOL    HW120537   5.566   4.199   6.418
 6546SOL    HW220538   5.465   4.268   6.527
 6547SOL     OW20539   5.485   6.267   0.076
 6547SOL    HW120540   5.407   6.312   0.118
 6547SOL    HW220541   5.476   6.168   0.086
 6548SOL     OW20542   0.688   2.557   5.789
 6548SOL    HW120543   0.667   2.636   5.847
 6548SOL    HW220544   0.656   2.575   5.696
 6549SOL     OW20545   4.881   7.012   1.791
 6549SOL    HW120546   4.960   0.048   1.804
 6549SOL    HW220547   4.877   6.945   1.865
 6550SOL     OW20548   6.444   6.661   3.278
 6550SOL    HW120549   6.362   6.714   3.255
 6550SOL    HW220550   6.525   6.717   3.263
 6551SOL     OW20551   3.183   3.371   1.336
 6551SOL    HW120552   3.263   3.431   1.340
 6551SOL    HW220553   3.101   3.427   1.321
 6552SOL     OW20554   2.025   0.071   0.684
 6552SOL    HW120555   2.053   0.049   0.777
 6552SOL    HW220556   2.105   0.089   0.628
 6553SOL     OW20557   6.960   0.996   2.706
 6553SOL    HW120558   6.930   1.080   2.659
 6553SOL    HW220559   6.984   1.017   2.800
 6554SOL     OW20560   3.084   1.002   4.375
 6554SOL    HW120561   3.073   0.998   4.276
 6554SOL    HW220562   3.097   0.910   4.411
 6555SOL     OW20563   6.447   2.049   4.452
 6555SOL    HW120564   6.479   2.071   4.360
 6555SOL    HW220565   6.521   2.065   4.517
 6556SOL     OW20566   5.993   3.078   3.487
 6556SOL    HW120567   5.997   3.101   3.390
 6556SOL    HW220568   5.943   2.992   3.499
 6557SOL     OW20569   1.418   6.650   2.431
 6557SOL    HW120570   1.362   6.588   2.487
 6557SOL    HW220571   1.360   6.697   2.365
 6558SOL     OW20572   5.627   5.241   0.424
 6558SOL    HW120573   5.622   5.236   0.524
 6558SOL    HW220574   5.661   5.154   0.387
 6559SOL     OW20575   6.350   3.257   6.307
 6559SOL    HW120576   6.423   3.286   6.244
 6559SOL    HW220577   6.351   3.157   6.315
 6560SOL     OW20578   4.837   4.774   0.524
 6560SOL    HW120579   4.742   4.795   0.504
 6560SOL    HW220580   4.895   4.848   0.489
 6561SOL     OW20581   3.871   4.993   0.342
 6561SOL    HW120582   3.822   4.945   0.270
 6561SOL    HW220583   3.922   5.070   0.303
 6562SOL     OW20584   5.788   2.695   0.804
 6562SOL    HW120585   5.813   2.714   0.709
 6562SOL    HW220586   5.869   2.700   0.862
 6563SOL     OW20587   5.396   6.771   4.895
 6563SOL    HW120588   5.317   6.798   4.951
 6563SOL    HW220589   5.371   6.771   4.799
 6564SOL     OW20590   0.051   4.076   2.697
 6564SOL    HW120591   0.075   4.016   2.773
 6564SOL    HW220592   0.117   4.064   2.623
 6565SOL     OW20593   6.191   6.791   2.300
 6565SOL    HW120594   6.192   6.880   2.346
 6565SOL    HW220595   6.166   6.720   2.367
 6566SOL     OW20596   3.850   6.000   2.312
 6566SOL    HW120597   3.788   5.980   2.387
 6566SOL    HW220598   3.864   6.099   2.306
 6567SOL     OW20599   4.421   0.965   1.554
 6567SOL    HW120600   4.510   1.008   1.539
 6567SOL    HW220601   4.361   1.029   1.603
 6568SOL     OW20602   3.745   1.097   1.664
 6568SOL    HW120603   3.705   1.157   1.595
 6568SOL    HW220604   3.768   1.009   1.623
 6569SOL     OW20605   1.127   3.275   5.717
 6569SOL    HW120606   1.175   3.251   5.633
 6569SOL    HW220607   1.132   3.198   5.781
 6570SOL     OW20608   3.776   0.013   1.817
 6570SOL    HW120609   3.678   0.030   1.804
 6570SOL    HW220610   3.827   0.094   1.788
 6571SOL     OW20611   2.757   4.896   3.344
 6571SOL    HW120612   2.843   4.881   3.393
 6571SOL    HW220613   2.683   4.911   3.410
 6572SOL     OW20614   0.565   5.403   4.087
 6572SOL    HW120615   0.471   5.416   4.055
 6572SOL    HW220616   0.575   5.308   4.119
 6573SOL     OW20617   2.009   1.270   3.037
 6573SOL    HW120618   2.082   1.205   3.054
 6573SOL    HW220619   1.960   1.245   2.954
 6574SOL     OW20620   2.128   5.820   2.365
 6574SOL    HW120621   2.135   5.893   2.433
 6574SOL    HW220622   2.216   5.773   2.358
 6575SOL     OW20623   0.065   0.166   2.755
 6575SOL    HW120624   0.140   0.147   2.692
 6575SOL    HW220625   0.043   0.264   2.753
 6576SOL     OW20626   3.614   5.386   0.486
 6576SOL    HW120627   3.667   5.352   0.563
 6576SOL    HW220628   3.529   5.428   0.519
 6577SOL     OW20629   2.711   2.034   4.302
 6577SOL    HW120630   2.734   2.124   4.266
 6577SOL    HW220631   2.697   2.039   4.401
 6578SOL     OW20632   1.741   5.124   0.971
 6578SOL    HW120633   1.792   5.076   0.900
 6578SOL    HW220634   1.799   5.196   1.011
 6579SOL     OW20635   0.221   1.130   3.608
 6579SOL    HW120636   0.231   1.173   3.518
 6579SOL    HW220637   0.299   1.153   3.665
 6580SOL     OW20638   1.072   0.064   6.883
 6580SOL    HW120639   1.166   0.093   6.898
 6580SOL    HW220640   1.011   0.119   6.939
 6581SOL     OW20641   1.470   1.915   6.744
 6581SOL    HW120642   1.453   1.818   6.760
 6581SOL    HW220643   1.443   1.938   6.650
 6582SOL     OW20644   6.369   0.387   3.030
 6582SOL    HW120645   6.313   0.304   3.034
 6582SOL    HW220646   6.454   0.373   3.081
 6583SOL     OW20647   4.149   6.654   6.259
 6583SOL    HW120648   4.054   6.681   6.243
 6583SOL    HW220649   4.154   6.590   6.336
 6584SOL     OW20650   3.645   2.579   0.980
 6584SOL    HW120651   3.582   2.513   0.940
 6584SOL    HW220652   3.594   2.659   1.011
 6585SOL     OW20653   6.094   6.974   0.936
 6585SOL    HW120654   6.169   6.998   0.875
 6585SOL    HW220655   6.034   6.907   0.892
 6586SOL     OW20656   6.251   2.425   5.898
 6586SOL    HW120657   6.350   2.412   5.896
 6586SOL    HW220658   6.228   2.498   5.963
 6587SOL     OW20659   1.461   4.246   5.487
 6587SOL    HW120660   1.395   4.192   5.436
 6587SOL    HW220661   1.445   4.344   5.470
 6588SOL     OW20662   0.376   3.213   0.473
 6588SOL    HW120663   0.400   3.304   0.441
 6588SOL    HW220664   0.451   3.176   0.528
 6589SOL     OW20665   6.579   0.910   1.420
 6589SOL    HW120666   6.592   0.835   1.485
 6589SOL    HW220667   6.581   0.997   1.470
 6590SOL     OW20668   0.876   0.723   5.412
 6590SOL    HW120669   0.910   0.796   5.353
 6590SOL    HW220670   0.776   0.720   5.406
 6591SOL     OW20671   4.831   5.619   4.558
 6591SOL    HW120672   4.851   5.521   4.569
 6591SOL    HW220673   4.764   5.631   4.486
 6592SOL     OW20674   5.102   0.033   2.970
 6592SOL    HW120675   5.029   0.013   3.036
 6592SOL    HW220676   5.113   6.978   2.908
 6593SOL     OW20677   2.828   2.172   2.466
 6593SOL    HW120678   2.879   2.257   2.450
 6593SOL    HW220679   2.892   2.096   2.473
 6594SOL     OW20680   3.764   1.490   5.878
 6594SOL    HW120681   3.798   1.430   5.951
 6594SOL    HW220682   3.703   1.438   5.819
 6595SOL     OW20683   2.410   2.200   4.801
 6595SOL    HW120684   2.327   2.177   4.750
 6595SOL    HW220685   2.405   2.296   4.829
 6596SOL     OW20686   5.167   5.672   2.705
 6596SOL    HW120687   5.095   5.718   2.758
 6596SOL    HW220688   5.235   5.740   2.676
 6597SOL     OW20689   0.838   5.650   2.364
 6597SOL    HW120690   0.915   5.586   2.360
 6597SOL    HW220691   0.755   5.601   2.392
 6598SOL     OW20692   2.041   4.302   4.189
 6598SOL    HW120693   2.025   4.368   4.116
 6598SOL    HW220694   2.073   4.349   4.271
 6599SOL     OW20695   5.653   5.897   6.676
 6599SOL    HW120696   5.690   5.833   6.743
 6599SOL    HW220697   5.708   5.894   6.593
 6600SOL     OW20698   4.729   0.275   5.589
 6600SOL    HW120699   4.773   0.306   5.673
 6600SOL    HW220700   4.643   0.229   5.611
 6601SOL     OW20701   1.108   3.030   2.621
 6601SOL    HW120702   1.200   3.017   2.584
 6601SOL    HW220703   1.097   3.125   2.649
 6602SOL     OW20704   1.993   0.261   1.440
 6602SOL    HW120705   1.929   0.230   1.370
 6602SOL    HW220706   2.073   0.303   1.396
 6603SOL     OW20707   0.740   3.012   3.782
 6603SOL    HW120708   0.779   3.042   3.695
 6603SOL    HW220709   0.676   3.082   3.815
 6604SOL     OW20710   2.166   7.011   1.901
 6604SOL    HW120711   2.255   6.971   1.881
 6604SOL    HW220712   2.177   0.085   1.925
 6605SOL     OW20713   5.691   5.458   1.592
 6605SOL    HW120714   5.742   5.376   1.567
 6605SOL    HW220715   5.624   5.435   1.662
 6606SOL     OW20716   1.271   3.365   3.608
 6606SOL    HW120717   1.304   3.272   3.594
 6606SOL    HW220718   1.229   3.399   3.524
 6607SOL     OW20719   5.942   4.410   3.942
 6607SOL    HW120720   5.978   4.486   3.997
 6607SOL    HW220721   6.011   4.339   3.934
 6608SOL     OW20722   7.014   6.923   6.886
 6608SOL    HW120723   0.038   6.939   6.973
 6608SOL    HW220724   0.022   6.989   6.818
 6609SOL     OW20725   5.027   2.038   6.122
 6609SOL    HW120726   5.085   2.082   6.191
 6609SOL    HW220727   4.935   2.077   6.127
 6610SOL     OW20728   2.730   5.559   0.776
 6610SOL    HW120729   2.822   5.540   0.740
 6610SOL    HW220730   2.728   5.543   0.874
 6611SOL     OW20731   5.336   2.190   3.825
 6611SOL    HW120732   5.280   2.109   3.809
 6611SOL    HW220733   5.333   2.250   3.745
 6612SOL     OW20734   5.636   2.307   6.220
 6612SOL    HW120735   5.734   2.289   6.210
 6612SOL    HW220736   5.615   2.400   6.189
 6613SOL     OW20737   5.206   0.688   6.368
 6613SOL    HW120738   5.154   0.684   6.453
 6613SOL    HW220739   5.291   0.636   6.378
 6614SOL     OW20740   4.845   5.651   2.013
 6614SOL    HW120741   4.912   5.588   2.052
 6614SOL    HW220742   4.813   5.616   1.925
 6615SOL     OW20743   2.967   5.558   0.288
 6615SOL    HW120744   3.032   5.570   0.214
 6615SOL    HW220745   2.929   5.466   0.285
 6616SOL     OW20746   4.648   0.743   6.271
 6616SOL    HW120747   4.715   0.738   6.345
 6616SOL    HW220748   4.566   0.692   6.298
 6617SOL     OW20749   3.889   0.573   3.624
 6617SOL    HW120750   3.835   0.492   3.646
 6617SOL    HW220751   3.894   0.584   3.525
 6618SOL     OW20752   0.564   1.731   3.340
 6618SOL    HW120753   0.544   1.822   3.377
 6618SOL    HW220754   0.555   1.663   3.413
 6619SOL     OW20755   4.617   6.743   4.289
 6619SOL    HW120756   4.649   6.765   4.381
 6619SOL    HW220757   4.519   6.723   4.291
 6620SOL     OW20758   0.615   3.778   3.683
 6620SOL    HW120759   0.536   3.795   3.742
 6620SOL    HW220760   0.632   3.680   3.677
 6621SOL     OW20761   3.948   3.182   4.846
 6621SOL    HW120762   3.900   3.229   4.920
 6621SOL    HW220763   3.897   3.099   4.822
 6622SOL     OW20764   6.165   5.640   1.003
 6622SOL    HW120765   6.218   5.659   1.086
 6622SOL    HW220766   6.185   5.709   0.934
 6623SOL     OW20767   3.498   4.447   5.281
 6623SOL    HW120768   3.468   4.374   5.342
 6623SOL    HW220769   3.557   4.409   5.210
 6624SOL     OW20770   1.045   2.470   4.823
 6624SOL    HW120771   0.954   2.441   4.792
 6624SOL    HW220772   1.073   2.414   4.900
 6625SOL     OW20773   5.910   2.979   5.036
 6625SOL    HW120774   5.873   2.893   5.069
 6625SOL    HW220775   5.944   2.967   4.942
 6626SOL     OW20776   2.946   6.717   4.451
 6626SOL    HW120777   3.046   6.712   4.458
 6626SOL    HW220778   2.919   6.806   4.415
 6627SOL     OW20779   1.418   6.089   4.620
 6627SOL    HW120780   1.509   6.069   4.656
 6627SOL    HW220781   1.392   6.018   4.554
 6628SOL     OW20782   5.047   5.571   3.872
 6628SOL    HW120783   5.023   5.486   3.920
 6628SOL    HW220784   4.975   5.593   3.807
 6629SOL     OW20785   5.096   6.217   6.838
 6629SOL    HW120786   5.062   6.303   6.875
 6629SOL    HW220787   5.110   6.151   6.913
 6630SOL     OW20788   2.570   1.518   1.768
 6630SOL    HW120789   2.601   1.613   1.763
 6630SOL    HW220790   2.486   1.513   1.822
 6631SOL     OW20791   1.651   4.779   5.983
 6631SOL    HW120792   1.594   4.780   5.901
 6631SOL    HW220793   1.645   4.869   6.027
 6632SOL     OW20794   0.953   0.293   0.566
 6632SOL    HW120795   1.040   0.249   0.588
 6632SOL    HW220796   0.917   0.339   0.647
 6633SOL     OW20797   3.260   5.672   6.137
 6633SOL    HW120798   3.163   5.684   6.116
 6633SOL    HW220799   3.273   5.673   6.237
 6634SOL     OW20800   4.980   1.957   5.851
 6634SOL    HW120801   5.021   1.968   5.942
 6634SOL    HW220802   5.023   1.879   5.804
 6635SOL     OW20803   5.004   4.291   2.340
 6635SOL    HW120804   4.921   4.278   2.393
 6635SOL    HW220805   5.083   4.295   2.401
 6636SOL     OW20806   2.923   7.010   1.982
 6636SOL    HW120807   2.988   0.056   1.949
 6636SOL    HW220808   2.973   6.927   2.008
 6637SOL     OW20809   1.557   0.953   0.892
 6637SOL    HW120810   1.620   0.970   0.968
 6637SOL    HW220811   1.548   0.854   0.878
 6638SOL     OW20812   2.938   3.767   3.711
 6638SOL    HW120813   2.986   3.837   3.764
 6638SOL    HW220814   2.893   3.809   3.633
 6639SOL     OW20815   4.524   2.780   0.836
 6639SOL    HW120816   4.492   2.725   0.759
 6639SOL    HW220817   4.521   2.725   0.920
 6640SOL     OW20818   0.741   2.699   5.091
 6640SOL    HW120819   0.647   2.709   5.058
 6640SOL    HW220820   0.743   2.633   5.166
 6641SOL     OW20821   3.759   1.774   1.081
 6641SOL    HW120822   3.709   1.858   1.103
 6641SOL    HW220823   3.846   1.773   1.130
 6642SOL     OW20824   1.928   5.322   0.654
 6642SOL    HW120825   1.958   5.348   0.562
 6642SOL    HW220826   1.888   5.401   0.700
 6643SOL     OW20827   5.136   6.230   0.682
 6643SOL    HW120828   5.087   6.179   0.610
 6643SOL    HW220829   5.234   6.214   0.673
 6644SOL     OW20830   2.073   6.342   2.516
 6644SOL    HW120831   2.168   6.350   2.547
 6644SOL    HW220832   2.014   6.323   2.595
 6645SOL     OW20833   6.320   3.030   0.403
 6645SOL    HW120834   6.296   3.072   0.316
 6645SOL    HW220835   6.238   3.014   0.456
 6646SOL     OW20836   4.097   0.400   6.858
 6646SOL    HW120837   4.079   0.318   6.803
 6646SOL    HW220838   4.025   0.468   6.841
 6647SOL     OW20839   4.431   4.697   1.080
 6647SOL    HW120840   4.484   4.726   1.001
 6647SOL    HW220841   4.492   4.661   1.150
 6648SOL     OW20842   3.085   6.188   4.477
 6648SOL    HW120843   3.099   6.166   4.574
 6648SOL    HW220844   2.994   6.157   4.449
 6649SOL     OW20845   5.927   2.706   6.813
 6649SOL    HW120846   5.973   2.618   6.821
 6649SOL    HW220847   5.901   2.722   6.718
 6650SOL     OW20848   3.545   0.843   5.014
 6650SOL    HW120849   3.564   0.751   4.980
 6650SOL    HW220850   3.466   0.840   5.076
 6651SOL     OW20851   1.006   1.417   0.189
 6651SOL    HW120852   1.083   1.354   0.202
 6651SOL    HW220853   0.922   1.365   0.173
 6652SOL     OW20854   0.977   4.516   6.910
 6652SOL    HW120855   1.031   4.574   6.971
 6652SOL    HW220856   1.001   4.420   6.926
 6653SOL     OW20857   5.224   3.171   0.364
 6653SOL    HW120858   5.283   3.091   0.376
 6653SOL    HW220859   5.200   3.207   0.454
 6654SOL     OW20860   0.355   4.772   3.027
 6654SOL    HW120861   0.305   4.856   3.046
 6654SOL    HW220862   0.303   4.716   2.962
 6655SOL     OW20863   6.234   5.440   1.526
 6655SOL    HW120864   6.187   5.474   1.445
 6655SOL    HW220865   6.208   5.344   1.541
 6656SOL     OW20866   3.981   1.446   2.399
 6656SOL    HW120867   3.999   1.348   2.405
 6656SOL    HW220868   3.938   1.467   2.311
 6657SOL     OW20869   5.299   2.323   4.449
 6657SOL    HW120870   5.326   2.385   4.523
 6657SOL    HW220871   5.261   2.376   4.373
 6658SOL     OW20872   6.226   0.051   5.055
 6658SOL    HW120873   6.235   0.042   4.956
 6658SOL    HW220874   6.267   6.994   5.099
 6659SOL     OW20875   0.943   4.830   2.071
 6659SOL    HW120876   1.019   4.869   2.018
 6659SOL    HW220877   0.971   4.743   2.111
 6660SOL     OW20878   1.033   5.969   2.688
 6660SOL    HW120879   0.969   6.016   2.748
 6660SOL    HW220880   0.992   5.883   2.656
 6661SOL     OW20881   2.719   6.585   4.212
 6661SOL    HW120882   2.794   6.561   4.273
 6661SOL    HW220883   2.679   6.502   4.174
 6662SOL     OW20884   2.499   0.215   1.797
 6662SOL    HW120885   2.596   0.216   1.772
 6662SOL    HW220886   2.486   0.270   1.879
 6663SOL     OW20887   1.769   5.201   6.022
 6663SOL    HW120888   1.849   5.222   6.077
 6663SOL    HW220889   1.794   5.199   5.925
 6664SOL     OW20890   2.018   1.038   1.430
 6664SOL    HW120891   2.084   1.083   1.490
 6664SOL    HW220892   1.929   1.082   1.440
 6665SOL     OW20893   3.067   0.146   5.994
 6665SOL    HW120894   2.994   0.212   5.975
 6665SOL    HW220895   3.115   0.173   6.078
 6666SOL     OW20896   6.317   5.713   4.883
 6666SOL    HW120897   6.392   5.664   4.927
 6666SOL    HW220898   6.255   5.647   4.841
 6667SOL     OW20899   6.786   6.340   5.454
 6667SOL    HW120900   6.764   6.262   5.512
 6667SOL    HW220901   6.775   6.314   5.358
 6668SOL     OW20902   6.632   6.334   1.670
 6668SOL    HW120903   6.637   6.304   1.575
 6668SOL    HW220904   6.676   6.267   1.729
 6669SOL     OW20905   2.360   1.377   1.618
 6669SOL    HW120906   2.331   1.469   1.592
 6669SOL    HW220907   2.353   1.367   1.718
 6670SOL     OW20908   3.024   2.138   6.728
 6670SOL    HW120909   2.945   2.080   6.711
 6670SOL    HW220910   3.037   2.147   6.827
 6671SOL     OW20911   5.200   6.529   0.745
 6671SOL    HW120912   5.135   6.536   0.669
 6671SOL    HW220913   5.191   6.439   0.788
 6672SOL     OW20914   1.049   2.521   0.380
 6672SOL    HW120915   1.084   2.467   0.304
 6672SOL    HW220916   0.999   2.600   0.345
 6673SOL     OW20917   5.604   3.488   3.969
 6673SOL    HW120918   5.619   3.544   3.888
 6673SOL    HW220919   5.505   3.481   3.987
 6674SOL     OW20920   0.598   3.037   6.629
 6674SOL    HW120921   0.616   3.081   6.717
 6674SOL    HW220922   0.550   2.951   6.644
 6675SOL     OW20923   4.465   2.400   6.899
 6675SOL    HW120924   4.474   2.315   6.952
 6675SOL    HW220925   4.392   2.456   6.939
 6676SOL     OW20926   1.096   3.716   3.477
 6676SOL    HW120927   1.171   3.669   3.432
 6676SOL    HW220928   1.091   3.688   3.573
 6677SOL     OW20929   0.575   0.811   0.143
 6677SOL    HW120930   0.582   0.764   0.055
 6677SOL    HW220931   0.480   0.811   0.174
 6678SOL     OW20932   1.616   4.199   0.507
 6678SOL    HW120933   1.660   4.178   0.595
 6678SOL    HW220934   1.629   4.122   0.445
 6679SOL     OW20935   2.343   0.770   3.798
 6679SOL    HW120936   2.283   0.788   3.720
 6679SOL    HW220937   2.381   0.678   3.791
 6680SOL     OW20938   5.144   6.766   0.858
 6680SOL    HW120939   5.224   6.815   0.824
 6680SOL    HW220940   5.155   6.668   0.842
 6681SOL     OW20941   4.374   5.002   1.521
 6681SOL    HW120942   4.439   5.074   1.546
 6681SOL    HW220943   4.345   4.954   1.603
 6682SOL     OW20944   3.201   5.294   6.963
 6682SOL    HW120945   3.245   5.331   0.022
 6682SOL    HW220946   3.196   5.195   6.971
 6683SOL     OW20947   6.145   3.732   6.757
 6683SOL    HW120948   6.243   3.715   6.764
 6683SOL    HW220949   6.096   3.669   6.818
 6684SOL     OW20950   3.255   0.033   1.579
 6684SOL    HW120951   3.170   7.015   1.611
 6684SOL    HW220952   3.236   0.105   1.512
 6685SOL     OW20953   3.851   3.396   6.590
 6685SOL    HW120954   3.875   3.424   6.683
 6685SOL    HW220955   3.835   3.298   6.587
 6686SOL     OW20956   6.207   5.729   3.652
 6686SOL    HW120957   6.276   5.665   3.617
 6686SOL    HW220958   6.244   5.822   3.650
 6687SOL     OW20959   6.679   2.276   1.748
 6687SOL    HW120960   6.702   2.224   1.667
 6687SOL    HW220961   6.704   2.224   1.830
 6688SOL     OW20962   3.959   4.738   0.974
 6688SOL    HW120963   3.950   4.837   0.963
 6688SOL    HW220964   3.941   4.713   1.069
 6689SOL     OW20965   3.366   4.545   5.883
 6689SOL    HW120966   3.327   4.577   5.796
 6689SOL    HW220967   3.436   4.610   5.914
 6690SOL     OW20968   0.842   0.369   6.019
 6690SOL    HW120969   0.897   0.288   5.996
 6690SOL    HW220970   0.874   0.408   6.105
 6691SOL     OW20971   1.841   1.320   2.523
 6691SOL    HW120972   1.782   1.394   2.554
 6691SOL    HW220973   1.937   1.347   2.531
 6692SOL     OW20974   4.176   4.645   1.868
 6692SOL    HW120975   4.087   4.688   1.858
 6692SOL    HW220976   4.178   4.560   1.816
 6693SOL     OW20977   4.603   1.387   5.045
 6693SOL    HW120978   4.659   1.337   4.979
 6693SOL    HW220979   4.573   1.473   5.005
 6694SOL     OW20980   3.649   5.631   1.586
 6694SOL    HW120981   3.647   5.730   1.594
 6694SOL    HW220982   3.616   5.603   1.496
 6695SOL     OW20983   2.911   2.258   0.311
 6695SOL    HW120984   2.929   2.308   0.226
 6695SOL    HW220985   2.994   2.208   0.338
 6696SOL     OW20986   3.833   4.023   3.823
 6696SOL    HW120987   3.876   4.048   3.737
 6696SOL    HW220988   3.734   4.033   3.815
 6697SOL     OW20989   4.991   2.350   2.353
 6697SOL    HW120990   4.903   2.375   2.310
 6697SOL    HW220991   5.005   2.251   2.344
 6698SOL     OW20992   3.420   4.081   1.621
 6698SOL    HW120993   3.467   4.020   1.558
 6698SOL    HW220994   3.456   4.068   1.714
 6699SOL     OW20995   1.916   5.585   5.971
 6699SOL    HW120996   1.858   5.563   6.050
 6699SOL    HW220997   1.977   5.508   5.951
 6700SOL     OW20998   5.855   0.473   0.655
 6700SOL    HW120999   5.925   0.488   0.585
 6700SOL    HW221000   5.865   0.381   0.693
 6701SOL     OW21001   6.052   7.004   1.717
 6701SOL    HW121002   6.058   6.907   1.740
 6701SOL    HW221003   6.125   0.006   1.653
 6702SOL     OW21004   2.275   2.118   0.741
 6702SOL    HW121005   2.306   2.197   0.793
 6702SOL    HW221006   2.175   2.119   0.735
 6703SOL     OW21007   1.585   1.470   5.926
 6703SOL    HW121008   1.575   1.385   5.977
 6703SOL    HW221009   1.573   1.548   5.987
 6704SOL     OW21010   3.731   1.755   4.640
 6704SOL    HW121011   3.769   1.839   4.600
 6704SOL    HW221012   3.787   1.677   4.612
 6705SOL     OW21013   6.294   3.561   1.537
 6705SOL    HW121014   6.331   3.484   1.589
 6705SOL    HW221015   6.365   3.631   1.525
 6706SOL     OW21016   0.515   6.214   0.917
 6706SOL    HW121017   0.578   6.252   0.984
 6706SOL    HW221018   0.515   6.114   0.924
 6707SOL     OW21019   6.099   0.342   2.567
 6707SOL    HW121020   6.198   0.356   2.580
 6707SOL    HW221021   6.057   0.429   2.540
 6708SOL     OW21022   6.591   4.493   1.674
 6708SOL    HW121023   6.611   4.531   1.764
 6708SOL    HW221024   6.675   4.485   1.621
 6709SOL     OW21025   1.221   4.807   1.949
 6709SOL    HW121026   1.293   4.872   1.925
 6709SOL    HW221027   1.226   4.785   2.046
 6710SOL     OW21028   4.092   1.276   1.497
 6710SOL    HW121029   4.063   1.318   1.583
 6710SOL    HW221030   4.015   1.273   1.434
 6711SOL     OW21031   4.582   6.186   6.682
 6711SOL    HW121032   4.588   6.087   6.687
 6711SOL    HW221033   4.488   6.215   6.699
 6712SOL     OW21034   6.293   3.800   0.404
 6712SOL    HW121035   6.212   3.855   0.384
 6712SOL    HW221036   6.269   3.726   0.467
 6713SOL     OW21037   1.335   0.673   4.216
 6713SOL    HW121038   1.263   0.668   4.286
 6713SOL    HW221039   1.393   0.751   4.234
 6714SOL     OW21040   5.695   1.193   0.983
 6714SOL    HW121041   5.764   1.191   1.056
 6714SOL    HW221042   5.675   1.289   0.959
 6715SOL     OW21043   1.336   1.172   1.060
 6715SOL    HW121044   1.236   1.170   1.061
 6715SOL    HW221045   1.368   1.207   0.972
 6716SOL     OW21046   6.594   5.384   2.574
 6716SOL    HW121047   6.524   5.418   2.511
 6716SOL    HW221048   6.580   5.423   2.665
 6717SOL     OW21049   3.408   2.741   0.104
 6717SOL    HW121050   3.441   2.689   0.183
 6717SOL    HW221051   3.321   2.783   0.127
 6718SOL     OW21052   3.691   1.342   1.538
 6718SOL    HW121053   3.727   1.365   1.628
 6718SOL    HW221054   3.591   1.342   1.541
 6719SOL     OW21055   1.934   0.411   7.008
 6719SOL    HW121056   1.995   0.350   6.957
 6719SOL    HW221057   1.987   0.463   0.053
 6720SOL     OW21058   2.808   0.999   5.530
 6720SOL    HW121059   2.716   1.003   5.569
 6720SOL    HW221060   2.872   0.962   5.597
 6721SOL     OW21061   0.110   0.890   0.432
 6721SOL    HW121062   0.027   0.834   0.442
 6721SOL    HW221063   0.189   0.830   0.416
 6722SOL     OW21064   6.962   3.247   0.289
 6722SOL    HW121065   0.009   3.206   0.230
 6722SOL    HW221066   6.919   3.176   0.345
 6723SOL     OW21067   1.563   1.517   6.552
 6723SOL    HW121068   1.558   1.579   6.630
 6723SOL    HW221069   1.493   1.446   6.561
 6724SOL     OW21070   2.321   3.072   6.140
 6724SOL    HW121071   2.284   3.024   6.060
 6724SOL    HW221072   2.376   3.150   6.109
 6725SOL     OW21073   5.930   2.966   3.196
 6725SOL    HW121074   5.932   2.879   3.244
 6725SOL    HW221075   5.982   2.959   3.111
 6726SOL     OW21076   0.175   1.495   5.316
 6726SOL    HW121077   0.213   1.411   5.355
 6726SOL    HW221078   0.137   1.551   5.389
 6727SOL     OW21079   1.043   5.099   5.441
 6727SOL    HW121080   1.006   5.006   5.446
 6727SOL    HW221081   1.028   5.136   5.349
 6728SOL     OW21082   4.334   1.791   3.380
 6728SOL    HW121083   4.347   1.826   3.288
 6728SOL    HW221084   4.308   1.695   3.376
 6729SOL     OW21085   5.971   2.238   0.830
 6729SOL    HW121086   5.887   2.292   0.824
 6729SOL    HW221087   6.033   2.263   0.755
 6730SOL     OW21088   1.548   1.235   1.378
 6730SOL    HW121089   1.500   1.171   1.438
 6730SOL    HW221090   1.483   1.274   1.312
 6731SOL     OW21091   2.043   6.651   1.175
 6731SOL    HW121092   2.058   6.579   1.242
 6731SOL    HW221093   2.059   6.740   1.219
 6732SOL     OW21094   5.648   4.134   4.422
 6732SOL    HW121095   5.733   4.101   4.462
 6732SOL    HW221096   5.668   4.207   4.357
 6733SOL     OW21097   3.408   5.594   6.845
 6733SOL    HW121098   3.443   5.687   6.838
 6733SOL    HW221099   3.450   5.549   6.925
 6734SOL     OW21100   5.131   2.139   5.072
 6734SOL    HW121101   5.059   2.205   5.049
 6734SOL    HW221102   5.197   2.133   4.997
 6735SOL     OW21103   6.096   3.354   4.340
 6735SOL    HW121104   6.171   3.356   4.406
 6735SOL    HW221105   6.098   3.267   4.290
 6736SOL     OW21106   3.132   4.587   0.798
 6736SOL    HW121107   3.149   4.488   0.806
 6736SOL    HW221108   3.037   4.606   0.822
 6737SOL     OW21109   0.444   2.440   1.324
 6737SOL    HW121110   0.511   2.515   1.324
 6737SOL    HW221111   0.381   2.452   1.401
 6738SOL     OW21112   1.401   5.712   3.634
 6738SOL    HW121113   1.310   5.683   3.664
 6738SOL    HW221114   1.458   5.632   3.615
 6739SOL     OW21115   0.053   6.888   3.608
 6739SOL    HW121116   0.071   6.985   3.626
 6739SOL    HW221117   0.018   6.845   3.691
 6740SOL     OW21118   6.503   0.117   4.028
 6740SOL    HW121119   6.569   0.111   3.954
 6740SOL    HW221120   6.458   0.206   4.026
 6741SOL     OW21121   4.943   2.305   6.025
 6741SOL    HW121122   4.876   2.233   6.046
 6741SOL    HW221123   4.956   2.310   5.926
 6742SOL     OW21124   5.558   5.421   3.698
 6742SOL    HW121125   5.475   5.476   3.710
 6742SOL    HW221126   5.588   5.427   3.602
 6743SOL     OW21127   3.654   4.204   6.459
 6743SOL    HW121128   3.611   4.114   6.461
 6743SOL    HW221129   3.592   4.269   6.415
 6744SOL     OW21130   6.517   5.780   6.102
 6744SOL    HW121131   6.468   5.830   6.174
 6744SOL    HW221132   6.463   5.699   6.076
 6745SOL     OW21133   0.191   6.146   3.979
 6745SOL    HW121134   0.198   6.210   4.055
 6745SOL    HW221135   0.265   6.163   3.914
 6746SOL     OW21136   1.463   1.673   2.216
 6746SOL    HW121137   1.402   1.634   2.147
 6746SOL    HW221138   1.409   1.705   2.294
 6747SOL     OW21139   7.019   6.913   6.327
 6747SOL    HW121140   6.941   6.919   6.389
 6747SOL    HW221141   0.066   6.853   6.367
 6748SOL     OW21142   3.373   1.579   4.044
 6748SOL    HW121143   3.330   1.640   4.110
 6748SOL    HW221144   3.340   1.486   4.059
 6749SOL     OW21145   3.558   3.783   0.923
 6749SOL    HW121146   3.469   3.827   0.929
 6749SOL    HW221147   3.624   3.846   0.883
 6750SOL     OW21148   2.976   1.535   4.261
 6750SOL    HW121149   2.965   1.436   4.252
 6750SOL    HW221150   2.917   1.568   4.335
 6751SOL     OW21151   4.533   0.437   3.569
 6751SOL    HW121152   4.624   0.409   3.539
 6751SOL    HW221153   4.495   0.504   3.506
 6752SOL     OW21154   1.660   6.845   3.124
 6752SOL    HW121155   1.619   6.764   3.165
 6752SOL    HW221156   1.712   6.895   3.193
 6753SOL     OW21157   3.589   2.408   5.703
 6753SOL    HW121158   3.518   2.343   5.677
 6753SOL    HW221159   3.550   2.501   5.703
 6754SOL     OW21160   6.008   0.674   0.977
 6754SOL    HW121161   5.984   0.691   0.882
 6754SOL    HW221162   5.996   0.758   1.030
 6755SOL     OW21163   3.159   4.906   1.340
 6755SOL    HW121164   3.061   4.901   1.319
 6755SOL    HW221165   3.172   4.957   1.425
 6756SOL     OW21166   3.021   0.926   5.692
 6756SOL    HW121167   3.054   0.834   5.714
 6756SOL    HW221168   3.097   0.981   5.657
 6757SOL     OW21169   3.291   1.566   1.481
 6757SOL    HW121170   3.308   1.665   1.479
 6757SOL    HW221171   3.349   1.524   1.551
 6758SOL     OW21172   5.278   3.417   1.438
 6758SOL    HW121173   5.204   3.469   1.396
 6758SOL    HW221174   5.262   3.410   1.536
 6759SOL     OW21175   6.888   3.090   2.915
 6759SOL    HW121176   6.827   3.120   2.988
 6759SOL    HW221177   6.905   3.167   2.852
 6760SOL     OW21178   6.085   3.416   2.641
 6760SOL    HW121179   6.007   3.422   2.704
 6760SOL    HW221180   6.129   3.505   2.633
 6761SOL     OW21181   5.017   2.679   4.674
 6761SOL    HW121182   4.918   2.690   4.683
 6761SOL    HW221183   5.050   2.733   4.596
 6762SOL     OW21184   0.662   4.439   4.297
 6762SOL    HW121185   0.683   4.474   4.388
 6762SOL    HW221186   0.731   4.372   4.270
 6763SOL     OW21187   5.070   5.646   5.172
 6763SOL    HW121188   5.088   5.741   5.198
 6763SOL    HW221189   5.148   5.610   5.121
 6764SOL     OW21190   1.586   5.622   2.008
 6764SOL    HW121191   1.521   5.638   2.082
 6764SOL    HW221192   1.616   5.527   2.010
 6765SOL     OW21193   6.572   4.363   3.833
 6765SOL    HW121194   6.585   4.452   3.790
 6765SOL    HW221195   6.501   4.370   3.903
 6766SOL     OW21196   4.714   6.323   6.878
 6766SOL    HW121197   4.732   6.420   6.862
 6766SOL    HW221198   4.656   6.287   6.806
 6767SOL     OW21199   3.036   0.557   0.423
 6767SOL    HW121200   2.972   0.630   0.448
 6767SOL    HW221201   3.028   0.481   0.486
 6768SOL     OW21202   2.163   0.615   5.541
 6768SOL    HW121203   2.241   0.667   5.577
 6768SOL    HW221204   2.100   0.677   5.495
 6769SOL     OW21205   3.250   2.579   0.494
 6769SOL    HW121206   3.328   2.546   0.545
 6769SOL    HW221207   3.237   2.523   0.412
 6770SOL     OW21208   6.915   0.345   1.750
 6770SOL    HW121209   7.013   0.367   1.749
 6770SOL    HW221210   6.888   0.319   1.843
 6771SOL     OW21211   4.528   2.576   3.404
 6771SOL    HW121212   4.503   2.543   3.313
 6771SOL    HW221213   4.467   2.650   3.431
 6772SOL     OW21214   2.999   1.112   2.865
 6772SOL    HW121215   2.921   1.169   2.892
 6772SOL    HW221216   3.082   1.147   2.909
 6773SOL     OW21217   6.767   4.826   1.749
 6773SOL    HW121218   6.673   4.836   1.716
 6773SOL    HW221219   6.830   4.824   1.672
 6774SOL     OW21220   0.586   2.733   5.958
 6774SOL    HW121221   0.632   2.734   6.047
 6774SOL    HW221222   0.531   2.816   5.948
 6775SOL     OW21223   2.540   3.302   1.678
 6775SOL    HW121224   2.618   3.248   1.710
 6775SOL    HW221225   2.485   3.332   1.756
 6776SOL     OW21226   4.526   4.734   6.948
 6776SOL    HW121227   4.596   4.725   7.019
 6776SOL    HW221228   4.492   4.643   6.924
 6777SOL     OW21229   4.028   4.040   6.671
 6777SOL    HW121230   3.999   3.945   6.684
 6777SOL    HW221231   3.947   4.099   6.671
 6778SOL     OW21232   0.231   4.121   1.853
 6778SOL    HW121233   0.290   4.142   1.932
 6778SOL    HW221234   0.278   4.057   1.792
 6779SOL     OW21235   6.562   4.389   6.189
 6779SOL    HW121236   6.565   4.335   6.104
 6779SOL    HW221237   6.654   4.419   6.212
 6780SOL     OW21238   0.887   1.998   2.756
 6780SOL    HW121239   0.803   1.945   2.748
 6780SOL    HW221240   0.866   2.095   2.742
 6781SOL     OW21241   5.676   0.185   4.467
 6781SOL    HW121242   5.738   0.110   4.492
 6781SOL    HW221243   5.615   0.204   4.544
 6782SOL     OW21244   0.223   0.223   3.160
 6782SOL    HW121245   0.237   0.229   3.259
 6782SOL    HW221246   0.181   0.307   3.127
 6783SOL     OW21247   6.980   0.069   6.614
 6783SOL    HW121248   6.885   0.072   6.580
 6783SOL    HW221249   0.005   0.152   6.586
 6784SOL     OW21250   3.387   3.951   0.586
 6784SOL    HW121251   3.307   4.006   0.563
 6784SOL    HW221252   3.468   3.990   0.542
 6785SOL     OW21253   5.134   4.394   2.880
 6785SOL    HW121254   5.144   4.318   2.945
 6785SOL    HW221255   5.161   4.479   2.925
 6786SOL     OW21256   0.798   1.804   6.611
 6786SOL    HW121257   0.855   1.850   6.680
 6786SOL    HW221258   0.774   1.869   6.539
 6787SOL     OW21259   1.423   2.817   0.486
 6787SOL    HW121260   1.336   2.857   0.514
 6787SOL    HW221261   1.410   2.760   0.405
 6788SOL     OW21262   2.533   3.909   1.636
 6788SOL    HW121263   2.624   3.951   1.645
 6788SOL    HW221264   2.530   3.824   1.688
 6789SOL     OW21265   0.237   6.791   2.677
 6789SOL    HW121266   0.217   6.701   2.715
 6789SOL    HW221267   0.251   6.856   2.751
 6790SOL     OW21268   1.140   4.189   1.052
 6790SOL    HW121269   1.040   4.196   1.051
 6790SOL    HW221270   1.167   4.094   1.065
 6791SOL     OW21271   3.835   2.449   1.123
 6791SOL    HW121272   3.767   2.485   1.058
 6791SOL    HW221273   3.825   2.496   1.210
 6792SOL     OW21274   6.691   6.047   6.130
 6792SOL    HW121275   6.715   6.007   6.219
 6792SOL    HW221276   6.744   6.002   6.058
 6793SOL     OW21277   0.850   2.201   0.326
 6793SOL    HW121278   0.863   2.243   0.236
 6793SOL    HW221279   0.818   2.107   0.314
 6794SOL     OW21280   5.325   1.159   4.893
 6794SOL    HW121281   5.365   1.177   4.804
 6794SOL    HW221282   5.368   1.217   4.962
 6795SOL     OW21283   2.307   5.912   0.803
 6795SOL    HW121284   2.293   6.006   0.831
 6795SOL    HW221285   2.403   5.897   0.781
 6796SOL     OW21286   5.885   0.604   2.869
 6796SOL    HW121287   5.870   0.507   2.846
 6796SOL    HW221288   5.864   0.619   2.965
 6797SOL     OW21289   5.129   3.055   1.531
 6797SOL    HW121290   5.106   3.056   1.628
 6797SOL    HW221291   5.194   2.981   1.512
 6798SOL     OW21292   5.654   6.298   2.980
 6798SOL    HW121293   5.718   6.375   2.978
 6798SOL    HW221294   5.696   6.218   2.937
 6799SOL     OW21295   6.472   5.779   0.001
 6799SOL    HW121296   6.475   5.712   6.950
 6799SOL    HW221297   6.524   5.744   0.080
 6800SOL     OW21298   2.428   4.552   1.049
 6800SOL    HW121299   2.451   4.457   1.071
 6800SOL    HW221300   2.452   4.611   1.126
 6801SOL     OW21301   1.530   1.413   2.378
 6801SOL    HW121302   1.588   1.488   2.410
 6801SOL    HW221303   1.437   1.448   2.360
 6802SOL     OW21304   2.783   5.798   0.342
 6802SOL    HW121305   2.831   5.882   0.317
 6802SOL    HW221306   2.844   5.720   0.331
 6803SOL     OW21307   4.309   2.474   6.633
 6803SOL    HW121308   4.209   2.467   6.624
 6803SOL    HW221309   4.339   2.421   6.712
 6804SOL     OW21310   2.540   5.129   3.781
 6804SOL    HW121311   2.587   5.118   3.869
 6804SOL    HW221312   2.452   5.083   3.785
 6805SOL     OW21313   5.832   5.603   4.560
 6805SOL    HW121314   5.867   5.569   4.473
 6805SOL    HW221315   5.736   5.631   4.549
 6806SOL     OW21316   5.434   1.354   3.804
 6806SOL    HW121317   5.336   1.342   3.784
 6806SOL    HW221318   5.488   1.304   3.736
 6807SOL     OW21319   2.681   3.293   1.004
 6807SOL    HW121320   2.666   3.211   1.058
 6807SOL    HW221321   2.728   3.270   0.919
 6808SOL     OW21322   0.193   2.402   5.268
 6808SOL    HW121323   0.246   2.334   5.218
 6808SOL    HW221324   0.246   2.487   5.275
 6809SOL     OW21325   1.897   3.457   1.039
 6809SOL    HW121326   1.814   3.406   1.015
 6809SOL    HW221327   1.964   3.395   1.079
 6810SOL     OW21328   1.538   0.163   1.969
 6810SOL    HW121329   1.611   0.106   1.932
 6810SOL    HW221330   1.534   0.249   1.918
 6811SOL     OW21331   4.803   3.729   6.845
 6811SOL    HW121332   4.817   3.799   6.774
 6811SOL    HW221333   4.722   3.751   6.898
 6812SOL     OW21334   3.815   3.312   3.483
 6812SOL    HW121335   3.740   3.333   3.421
 6812SOL    HW221336   3.799   3.357   3.571
 6813SOL     OW21337   4.831   1.880   2.241
 6813SOL    HW121338   4.751   1.940   2.249
 6813SOL    HW221339   4.801   1.786   2.225
 6814SOL     OW21340   2.959   3.086   0.490
 6814SOL    HW121341   2.880   3.126   0.536
 6814SOL    HW221342   2.968   3.124   0.398
 6815SOL     OW21343   2.974   0.641   1.069
 6815SOL    HW121344   3.054   0.689   1.032
 6815SOL    HW221345   2.940   0.690   1.149
 6816SOL     OW21346   6.997   6.069   6.655
 6816SOL    HW121347   0.049   6.026   6.604
 6816SOL    HW221348   7.017   6.165   6.670
 6817SOL     OW21349   6.939   2.111   5.125
 6817SOL    HW121350   6.941   2.161   5.038
 6817SOL    HW221351   6.991   2.026   5.115
 6818SOL     OW21352   2.301   5.778   1.638
 6818SOL    HW121353   2.368   5.704   1.630
 6818SOL    HW221354   2.346   5.859   1.676
 6819SOL     OW21355   4.480   1.441   3.978
 6819SOL    HW121356   4.576   1.469   3.972
 6819SOL    HW221357   4.422   1.512   3.939
 6820SOL     OW21358   1.249   5.170   3.100
 6820SOL    HW121359   1.160   5.139   3.133
 6820SOL    HW221360   1.252   5.270   3.100
 6821SOL     OW21361   3.085   1.585   5.508
 6821SOL    HW121362   3.080   1.527   5.427
 6821SOL    HW221363   3.167   1.642   5.504
 6822SOL     OW21364   5.841   2.015   6.029
 6822SOL    HW121365   5.768   2.051   6.087
 6822SOL    HW221366   5.803   1.990   5.940
 6823SOL     OW21367   4.084   3.238   3.931
 6823SOL    HW121368   4.066   3.165   3.865
 6823SOL    HW221369   4.045   3.214   4.019
 6824SOL     OW21370   0.824   3.066   6.234
 6824SOL    HW121371   0.783   3.134   6.294
 6824SOL    HW221372   0.786   2.975   6.255
 6825SOL     OW21373   5.504   6.622   2.434
 6825SOL    HW121374   5.454   6.702   2.469
 6825SOL    HW221375   5.442   6.565   2.381
 6826SOL     OW21376   2.214   4.097   2.830
 6826SOL    HW121377   2.202   4.028   2.759
 6826SOL    HW221378   2.182   4.186   2.796
 6827SOL     OW21379   4.749   6.056   0.597
 6827SOL    HW121380   4.653   6.047   0.623
 6827SOL    HW221381   4.757   6.125   0.525
 6828SOL     OW21382   2.439   1.536   1.247
 6828SOL    HW121383   2.392   1.467   1.191
 6828SOL    HW221384   2.383   1.618   1.252
 6829SOL     OW21385   4.701   0.003   4.491
 6829SOL    HW121386   4.766   6.951   4.478
 6829SOL    HW221387   4.704   0.035   4.585
 6830SOL     OW21388   5.793   1.301   3.615
 6830SOL    HW121389   5.698   1.272   3.631
 6830SOL    HW221390   5.854   1.224   3.635
 6831SOL     OW21391   0.881   0.109   5.893
 6831SOL    HW121392   0.928   0.151   5.815
 6831SOL    HW221393   0.826   0.032   5.860
 6832SOL     OW21394   3.001   4.483   1.319
 6832SOL    HW121395   2.912   4.509   1.281
 6832SOL    HW221396   2.988   4.418   1.394
 6833SOL     OW21397   4.308   4.901   6.951
 6833SOL    HW121398   4.387   4.841   6.940
 6833SOL    HW221399   4.258   4.875   0.011
 6834SOL     OW21400   5.168   6.951   1.352
 6834SOL    HW121401   5.089   7.011   1.337
 6834SOL    HW221402   5.136   6.862   1.386
 6835SOL     OW21403   4.359   6.983   5.394
 6835SOL    HW121404   4.295   6.914   5.361
 6835SOL    HW221405   4.381   6.966   5.490
 6836SOL     OW21406   3.151   5.737   0.407
 6836SOL    HW121407   3.097   5.674   0.352
 6836SOL    HW221408   3.103   5.757   0.492
 6837SOL     OW21409   1.079   2.593   2.276
 6837SOL    HW121410   1.172   2.556   2.269
 6837SOL    HW221411   1.080   2.690   2.253
 6838SOL     OW21412   1.621   6.705   0.913
 6838SOL    HW121413   1.646   6.662   0.826
 6838SOL    HW221414   1.636   6.803   0.908
 6839SOL     OW21415   5.009   0.868   0.370
 6839SOL    HW121416   5.087   0.861   0.307
 6839SOL    HW221417   5.006   0.788   0.429
 6840SOL     OW21418   2.385   1.712   5.173
 6840SOL    HW121419   2.449   1.707   5.097
 6840SOL    HW221420   2.304   1.763   5.145
 6841SOL     OW21421   4.988   3.614   6.502
 6841SOL    HW121422   5.016   3.539   6.561
 6841SOL    HW221423   5.003   3.588   6.406
 6842SOL     OW21424   2.805   4.649   1.136
 6842SOL    HW121425   2.748   4.655   1.218
 6842SOL    HW221426   2.749   4.617   1.059
 6843SOL     OW21427   5.547   6.764   6.953
 6843SOL    HW121428   5.523   6.697   6.883
 6843SOL    HW221429   5.466   6.786   7.008
 6844SOL     OW21430   5.448   1.141   4.629
 6844SOL    HW121431   5.459   1.228   4.581
 6844SOL    HW221432   5.448   1.066   4.563
 6845SOL     OW21433   6.024   2.968   2.946
 6845SOL    HW121434   5.957   3.028   2.901
 6845SOL    HW221435   6.084   2.927   2.876
 6846SOL     OW21436   3.159   4.720   6.743
 6846SOL    HW121437   3.070   4.693   6.706
 6846SOL    HW221438   3.228   4.652   6.715
 6847SOL     OW21439   6.772   3.458   5.053
 6847SOL    HW121440   6.841   3.475   5.123
 6847SOL    HW221441   6.701   3.398   5.089
 6848SOL     OW21442   5.305   4.337   4.130
 6848SOL    HW121443   5.262   4.254   4.165
 6848SOL    HW221444   5.234   4.404   4.107
 6849SOL     OW21445   3.465   4.322   6.029
 6849SOL    HW121446   3.441   4.402   5.973
 6849SOL    HW221447   3.411   4.243   5.999
 6850SOL     OW21448   4.528   2.223   3.013
 6850SOL    HW121449   4.579   2.146   2.976
 6850SOL    HW221450   4.438   2.193   3.042
 6851SOL     OW21451   1.261   2.773   2.431
 6851SOL    HW121452   1.173   2.726   2.435
 6851SOL    HW221453   1.334   2.706   2.422
 6852SOL     OW21454   2.773   5.537   1.434
 6852SOL    HW121455   2.829   5.481   1.373
 6852SOL    HW221456   2.688   5.563   1.387
 6853SOL     OW21457   5.159   3.705   6.174
 6853SOL    HW121458   5.167   3.608   6.197
 6853SOL    HW221459   5.231   3.756   6.220
 6854SOL     OW21460   5.728   0.069   5.790
 6854SOL    HW121461   5.780   7.006   5.800
 6854SOL    HW221462   5.648   0.053   5.732
 6855SOL     OW21463   4.500   5.873   3.428
 6855SOL    HW121464   4.559   5.909   3.500
 6855SOL    HW221465   4.457   5.949   3.379
 6856SOL     OW21466   0.436   2.364   5.752
 6856SOL    HW121467   0.484   2.382   5.839
 6856SOL    HW221468   0.503   2.356   5.679
 6857SOL     OW21469   0.809   3.507   6.884
 6857SOL    HW121470   0.866   3.575   6.931
 6857SOL    HW221471   0.856   3.474   6.803
 6858SOL     OW21472   3.408   4.458   1.704
 6858SOL    HW121473   3.315   4.494   1.695
 6858SOL    HW221474   3.460   4.516   1.767
 6859SOL     OW21475   0.904   0.989   2.030
 6859SOL    HW121476   0.971   0.927   1.989
 6859SOL    HW221477   0.935   1.084   2.019
 6860SOL     OW21478   6.703   4.588   1.916
 6860SOL    HW121479   6.642   4.618   1.990
 6860SOL    HW221480   6.763   4.664   1.890
 6861SOL     OW21481   4.755   3.481   5.901
 6861SOL    HW121482   4.707   3.566   5.925
 6861SOL    HW221483   4.771   3.479   5.802
 6862SOL     OW21484   1.022   5.314   5.585
 6862SOL    HW121485   1.011   5.287   5.681
 6862SOL    HW221486   1.064   5.239   5.534
 6863SOL     OW21487   6.958   6.054   5.174
 6863SOL    HW121488   0.022   6.083   5.134
 6863SOL    HW221489   6.966   5.959   5.205
 6864SOL     OW21490   1.831   4.397   5.834
 6864SOL    HW121491   1.779   4.323   5.791
 6864SOL    HW221492   1.882   4.447   5.764
 6865SOL     OW21493   1.817   0.513   5.419
 6865SOL    HW121494   1.894   0.553   5.468
 6865SOL    HW221495   1.737   0.509   5.480
 6866SOL     OW21496   6.124   4.312   2.321
 6866SOL    HW121497   6.195   4.364   2.273
 6866SOL    HW221498   6.150   4.300   2.417
 6867SOL     OW21499   1.992   3.904   1.242
 6867SOL    HW121500   2.046   3.867   1.167
 6867SOL    HW221501   2.023   3.864   1.328
 6868SOL     OW21502   2.160   6.255   5.445
 6868SOL    HW121503   2.144   6.297   5.355
 6868SOL    HW221504   2.076   6.209   5.475
 6869SOL     OW21505   4.253   0.133   5.771
 6869SOL    HW121506   4.225   0.214   5.824
 6869SOL    HW221507   4.263   0.055   5.833
 6870SOL     OW21508   0.842   3.677   0.300
 6870SOL    HW121509   0.802   3.765   0.326
 6870SOL    HW221510   0.770   3.616   0.268
 6871SOL     OW21511   0.295   3.967   2.553
 6871SOL    HW121512   0.250   3.883   2.523
 6871SOL    HW221513   0.380   3.945   2.600
 6872SOL     OW21514   0.820   2.490   2.238
 6872SOL    HW121515   0.741   2.509   2.180
 6872SOL    HW221516   0.898   2.544   2.207
 6873SOL     OW21517   0.923   3.861   3.738
 6873SOL    HW121518   0.834   3.815   3.740
 6873SOL    HW221519   0.995   3.793   3.743
 6874SOL     OW21520   6.441   5.812   3.378
 6874SOL    HW121521   6.362   5.850   3.330
 6874SOL    HW221522   6.485   5.883   3.432
 6875SOL     OW21523   2.155   2.299   1.909
 6875SOL    HW121524   2.120   2.211   1.877
 6875SOL    HW221525   2.254   2.294   1.917
 6876SOL     OW21526   3.187   0.197   3.627
 6876SOL    HW121527   3.258   0.245   3.576
 6876SOL    HW221528   3.179   0.237   3.719
 6877SOL     OW21529   3.268   4.442   1.308
 6877SOL    HW121530   3.322   4.381   1.366
 6877SOL    HW221531   3.171   4.424   1.322
 6878SOL     OW21532   2.465   1.594   3.873
 6878SOL    HW121533   2.432   1.500   3.881
 6878SOL    HW221534   2.549   1.604   3.926
 6879SOL     OW21535   1.949   2.541   0.122
 6879SOL    HW121536   1.959   2.621   0.063
 6879SOL    HW221537   1.860   2.542   0.166
 6880SOL     OW21538   1.168   5.932   6.291
 6880SOL    HW121539   1.149   5.903   6.385
 6880SOL    HW221540   1.115   5.876   6.228
 6881SOL     OW21541   1.481   3.700   1.507
 6881SOL    HW121542   1.513   3.718   1.413
 6881SOL    HW221543   1.511   3.609   1.535
 6882SOL     OW21544   2.971   1.407   0.336
 6882SOL    HW121545   3.065   1.398   0.370
 6882SOL    HW221546   2.918   1.461   0.401
 6883SOL     OW21547   5.068   0.391   5.890
 6883SOL    HW121548   5.052   0.456   5.816
 6883SOL    HW221549   5.114   0.310   5.854
 6884SOL     OW21550   1.652   4.152   3.056
 6884SOL    HW121551   1.707   4.234   3.041
 6884SOL    HW221552   1.570   4.155   2.998
 6885SOL     OW21553   4.820   5.216   4.175
 6885SOL    HW121554   4.751   5.144   4.175
 6885SOL    HW221555   4.889   5.197   4.245
 6886SOL     OW21556   6.411   1.317   5.111
 6886SOL    HW121557   6.455   1.386   5.054
 6886SOL    HW221558   6.411   1.346   5.207
 6887SOL     OW21559   4.749   5.956   0.199
 6887SOL    HW121560   4.749   6.047   0.157
 6887SOL    HW221561   4.692   5.894   0.145
 6888SOL     OW21562   5.235   4.571   6.066
 6888SOL    HW121563   5.184   4.653   6.090
 6888SOL    HW221564   5.309   4.557   6.132
 6889SOL     OW21565   1.546   2.590   5.925
 6889SOL    HW121566   1.633   2.598   5.876
 6889SOL    HW221567   1.520   2.679   5.963
 6890SOL     OW21568   3.685   5.668   2.811
 6890SOL    HW121569   3.633   5.752   2.793
 6890SOL    HW221570   3.753   5.654   2.739
 6891SOL     OW21571   2.824   2.784   1.218
 6891SOL    HW121572   2.857   2.696   1.252
 6891SOL    HW221573   2.827   2.852   1.291
 6892SOL     OW21574   3.388   1.276   3.902
 6892SOL    HW121575   3.458   1.343   3.878
 6892SOL    HW221576   3.350   1.236   3.819
 6893SOL     OW21577   6.149   3.375   0.125
 6893SOL    HW121578   6.218   3.383   0.198
 6893SOL    HW221579   6.193   3.342   0.042
 6894SOL     OW21580   5.573   3.986   1.226
 6894SOL    HW121581   5.637   3.911   1.207
 6894SOL    HW221582   5.533   3.973   1.317
 6895SOL     OW21583   1.897   6.104   0.868
 6895SOL    HW121584   1.860   6.113   0.960
 6895SOL    HW221585   1.839   6.153   0.803
 6896SOL     OW21586   3.220   1.522   3.766
 6896SOL    HW121587   3.314   1.534   3.798
 6896SOL    HW221588   3.201   1.424   3.755
 6897SOL     OW21589   4.731   4.072   5.222
 6897SOL    HW121590   4.790   4.090   5.143
 6897SOL    HW221591   4.739   4.148   5.287
 6898SOL     OW21592   3.068   0.998   1.587
 6898SOL    HW121593   3.168   1.001   1.581
 6898SOL    HW221594   3.030   1.086   1.557
 6899SOL     OW21595   4.987   6.483   3.036
 6899SOL    HW121596   4.950   6.527   3.118
 6899SOL    HW221597   5.072   6.528   3.009
 6900SOL     OW21598   6.877   5.124   6.175
 6900SOL    HW121599   6.848   5.212   6.137
 6900SOL    HW221600   6.805   5.088   6.234
 6901SOL     OW21601   4.643   5.503   6.790
 6901SOL    HW121602   4.582   5.423   6.784
 6901SOL    HW221603   4.588   5.584   6.811
 6902SOL     OW21604   6.868   5.950   5.463
 6902SOL    HW121605   6.956   5.998   5.466
 6902SOL    HW221606   6.794   6.015   5.484
 6903SOL     OW21607   2.959   5.116   5.211
 6903SOL    HW121608   2.883   5.144   5.270
 6903SOL    HW221609   2.956   5.018   5.195
 6904SOL     OW21610   6.904   6.388   5.180
 6904SOL    HW121611   6.876   6.334   5.100
 6904SOL    HW221612   6.965   6.333   5.237
 6905SOL     OW21613   5.776   5.480   0.094
 6905SOL    HW121614   5.813   5.409   0.154
 6905SOL    HW221615   5.849   5.544   0.070
 6906SOL     OW21616   3.042   1.695   3.562
 6906SOL    HW121617   3.134   1.657   3.554
 6906SOL    HW221618   2.975   1.627   3.532
 6907SOL     OW21619   6.344   2.216   1.530
 6907SOL    HW121620   6.365   2.133   1.581
 6907SOL    HW221621   6.263   2.201   1.472
 6908SOL     OW21622   2.677   4.394   6.932
 6908SOL    HW121623   2.600   4.421   6.874
 6908SOL    HW221624   2.761   4.396   6.879
 6909SOL     OW21625   4.906   5.086   2.130
 6909SOL    HW121626   4.999   5.121   2.143
 6909SOL    HW221627   4.907   4.986   2.136
 6910SOL     OW21628   1.630   2.837   2.864
 6910SOL    HW121629   1.609   2.794   2.776
 6910SOL    HW221630   1.592   2.930   2.864
 6911SOL     OW21631   3.935   0.324   5.120
 6911SOL    HW121632   3.996   0.356   5.193
 6911SOL    HW221633   3.985   0.323   5.033
 6912SOL     OW21634   2.819   3.262   6.227
 6912SOL    HW121635   2.893   3.234   6.166
 6912SOL    HW221636   2.746   3.304   6.173
 6913SOL     OW21637   5.372   6.124   4.973
 6913SOL    HW121638   5.372   6.211   5.022
 6913SOL    HW221639   5.385   6.141   4.875
 6914SOL     OW21640   5.892   4.174   2.262
 6914SOL    HW121641   5.855   4.119   2.337
 6914SOL    HW221642   5.988   4.193   2.278
 6915SOL     OW21643   1.091   2.724   1.874
 6915SOL    HW121644   1.014   2.719   1.937
 6915SOL    HW221645   1.101   2.818   1.841
 6916SOL     OW21646   5.394   1.284   5.489
 6916SOL    HW121647   5.396   1.233   5.403
 6916SOL    HW221648   5.303   1.276   5.530
 6917SOL     OW21649   4.807   5.916   2.094
 6917SOL    HW121650   4.860   5.839   2.057
 6917SOL    HW221651   4.724   5.928   2.040
 6918SOL     OW21652   0.465   2.818   2.876
 6918SOL    HW121653   0.385   2.839   2.821
 6918SOL    HW221654   0.541   2.792   2.816
 6919SOL     OW21655   6.359   6.111   3.243
 6919SOL    HW121656   6.448   6.087   3.283
 6919SOL    HW221657   6.316   6.029   3.206
 6920SOL     OW21658   5.366   6.562   5.589
 6920SOL    HW121659   5.444   6.614   5.626
 6920SOL    HW221660   5.313   6.622   5.528
 6921SOL     OW21661   4.247   0.322   4.191
 6921SOL    HW121662   4.310   0.395   4.216
 6921SOL    HW221663   4.237   0.259   4.268
 6922SOL     OW21664   1.907   6.265   5.070
 6922SOL    HW121665   1.825   6.309   5.034
 6922SOL    HW221666   1.943   6.200   5.003
 6923SOL     OW21667   5.910   6.551   2.605
 6923SOL    HW121668   5.942   6.617   2.538
 6923SOL    HW221669   5.880   6.600   2.688
 6924SOL     OW21670   2.935   5.352   1.273
 6924SOL    HW121671   3.034   5.341   1.276
 6924SOL    HW221672   2.891   5.263   1.285
 6925SOL     OW21673   4.871   6.174   6.016
 6925SOL    HW121674   4.939   6.233   6.060
 6925SOL    HW221675   4.877   6.186   5.917
 6926SOL     OW21676   2.280   2.293   0.338
 6926SOL    HW121677   2.230   2.235   0.274
 6926SOL    HW221678   2.216   2.338   0.399
 6927SOL     OW21679   3.786   0.977   0.097
 6927SOL    HW121680   3.868   0.975   0.154
 6927SOL    HW221681   3.706   0.958   0.153
 6928SOL     OW21682   4.880   5.513   1.278
 6928SOL    HW121683   4.837   5.455   1.209
 6928SOL    HW221684   4.967   5.547   1.243
 6929SOL     OW21685   5.489   5.663   1.651
 6929SOL    HW121686   5.519   5.591   1.714
 6929SOL    HW221687   5.417   5.716   1.694
 6930SOL     OW21688   1.029   1.009   0.153
 6930SOL    HW121689   1.082   1.048   0.228
 6930SOL    HW221690   0.940   0.978   0.187
 6931SOL     OW21691   1.973   2.211   0.937
 6931SOL    HW121692   2.059   2.159   0.928
 6931SOL    HW221693   1.905   2.154   0.984
 6932SOL     OW21694   4.817   5.067   1.060
 6932SOL    HW121695   4.723   5.039   1.044
 6932SOL    HW221696   4.875   5.035   0.984
 6933SOL     OW21697   3.685   6.720   6.466
 6933SOL    HW121698   3.756   6.673   6.413
 6933SOL    HW221699   3.635   6.783   6.406
 6934SOL     OW21700   4.849   3.302   6.283
 6934SOL    HW121701   4.852   3.260   6.373
 6934SOL    HW221702   4.754   3.324   6.260
 6935SOL     OW21703   4.975   5.399   2.880
 6935SOL    HW121704   4.975   5.379   2.782
 6935SOL    HW221705   4.888   5.370   2.919
 6936SOL     OW21706   0.171   2.120   4.026
 6936SOL    HW121707   0.142   2.092   3.935
 6936SOL    HW221708   0.263   2.086   4.044
 6937SOL     OW21709   5.404   6.202   0.756
 6937SOL    HW121710   5.460   6.277   0.793
 6937SOL    HW221711   5.355   6.158   0.831
 6938SOL     OW21712   0.631   1.432   4.720
 6938SOL    HW121713   0.661   1.492   4.645
 6938SOL    HW221714   0.548   1.469   4.761
 6939SOL     OW21715   6.380   5.303   3.252
 6939SOL    HW121716   6.467   5.306   3.301
 6939SOL    HW221717   6.308   5.271   3.314
 6940SOL     OW21718   4.861   6.642   0.469
 6940SOL    HW121719   4.899   6.682   0.386
 6940SOL    HW221720   4.765   6.668   0.478
 6941SOL     OW21721   2.987   3.573   2.526
 6941SOL    HW121722   2.941   3.487   2.549
 6941SOL    HW221723   3.086   3.558   2.523
 6942SOL     OW21724   6.089   6.742   1.739
 6942SOL    HW121725   6.152   6.671   1.711
 6942SOL    HW221726   5.997   6.721   1.705
 6943SOL     OW21727   4.490   4.717   0.612
 6943SOL    HW121728   4.518   4.771   0.532
 6943SOL    HW221729   4.409   4.758   0.653
 6944SOL     OW21730   1.173   4.783   6.294
 6944SOL    HW121731   1.121   4.867   6.284
 6944SOL    HW221732   1.201   4.749   6.204
 6945SOL     OW21733   6.725   2.285   0.478
 6945SOL    HW121734   6.705   2.200   0.527
 6945SOL    HW221735   6.771   2.349   0.539
 6946SOL     OW21736   3.838   6.129   1.850
 6946SOL    HW121737   3.902   6.063   1.889
 6946SOL    HW221738   3.759   6.139   1.911
 6947SOL     OW21739   4.163   5.676   5.960
 6947SOL    HW121740   4.188   5.585   5.928
 6947SOL    HW221741   4.064   5.689   5.950
 6948SOL     OW21742   6.946   6.199   1.424
 6948SOL    HW121743   6.946   6.249   1.510
 6948SOL    HW221744   6.984   6.257   1.351
 6949SOL     OW21745   2.700   2.331   3.058
 6949SOL    HW121746   2.644   2.399   3.106
 6949SOL    HW221747   2.709   2.359   2.962
 6950SOL     OW21748   1.714   0.136   4.267
 6950SOL    HW121749   1.733   0.061   4.204
 6950SOL    HW221750   1.791   0.147   4.331
 6951SOL     OW21751   6.262   5.413   6.433
 6951SOL    HW121752   6.324   5.338   6.458
 6951SOL    HW221753   6.314   5.498   6.429
 6952SOL     OW21754   2.510   4.501   3.291
 6952SOL    HW121755   2.599   4.513   3.335
 6952SOL    HW221756   2.492   4.578   3.230
 6953SOL     OW21757   5.213   6.440   0.364
 6953SOL    HW121758   5.154   6.440   0.445
 6953SOL    HW221759   5.283   6.511   0.374
 6954SOL     OW21760   0.014   3.458   1.192
 6954SOL    HW121761   0.060   3.404   1.262
 6954SOL    HW221762   7.001   3.543   1.232
 6955SOL     OW21763   5.187   0.306   2.315
 6955SOL    HW121764   5.155   0.381   2.258
 6955SOL    HW221765   5.240   0.343   2.392
 6956SOL     OW21766   6.067   5.460   2.781
 6956SOL    HW121767   6.141   5.455   2.714
 6956SOL    HW221768   5.985   5.416   2.744
 6957SOL     OW21769   5.375   5.954   6.716
 6957SOL    HW121770   5.352   5.874   6.661
 6957SOL    HW221771   5.469   5.947   6.749
 6958SOL     OW21772   3.569   3.704   4.185
 6958SOL    HW121773   3.472   3.711   4.160
 6958SOL    HW221774   3.617   3.786   4.156
 6959SOL     OW21775   1.623   4.058   2.564
 6959SOL    HW121776   1.697   4.025   2.506
 6959SOL    HW221777   1.556   4.108   2.508
 6960SOL     OW21778   1.830   4.351   1.033
 6960SOL    HW121779   1.831   4.429   1.096
 6960SOL    HW221780   1.909   4.293   1.050
 6961SOL     OW21781   4.774   0.994   4.491
 6961SOL    HW121782   4.753   0.961   4.399
 6961SOL    HW221783   4.814   0.919   4.545
 6962SOL     OW21784   3.576   6.054   0.681
 6962SOL    HW121785   3.553   6.063   0.584
 6962SOL    HW221786   3.493   6.062   0.736
 6963SOL     OW21787   5.505   5.674   6.881
 6963SOL    HW121788   5.527   5.762   6.839
 6963SOL    HW221789   5.573   5.606   6.854
 6964SOL     OW21790   3.230   6.913   5.542
 6964SOL    HW121791   3.309   6.861   5.512
 6964SOL    HW221792   3.241   6.939   5.638
 6965SOL     OW21793   1.189   1.862   6.553
 6965SOL    HW121794   1.284   1.849   6.524
 6965SOL    HW221795   1.145   1.773   6.567
 6966SOL     OW21796   1.292   0.636   2.328
 6966SOL    HW121797   1.340   0.724   2.329
 6966SOL    HW221798   1.347   0.569   2.379
 6967SOL     OW21799   3.859   1.599   5.529
 6967SOL    HW121800   3.794   1.524   5.541
 6967SOL    HW221801   3.880   1.640   5.618
 6968SOL     OW21802   2.814   0.411   2.791
 6968SOL    HW121803   2.852   0.425   2.699
 6968SOL    HW221804   2.888   0.410   2.858
 6969SOL     OW21805   3.315   2.159   0.798
 6969SOL    HW121806   3.320   2.129   0.893
 6969SOL    HW221807   3.243   2.108   0.751
 6970SOL     OW21808   3.346   4.695   5.591
 6970SOL    HW121809   3.249   4.694   5.567
 6970SOL    HW221810   3.378   4.789   5.603
 6971SOL     OW21811   5.189   4.841   1.441
 6971SOL    HW121812   5.158   4.829   1.347
 6971SOL    HW221813   5.159   4.765   1.497
 6972SOL     OW21814   5.220   3.579   2.620
 6972SOL    HW121815   5.264   3.643   2.683
 6972SOL    HW221816   5.226   3.614   2.526
 6973SOL     OW21817   0.881   2.173   3.194
 6973SOL    HW121818   0.923   2.231   3.264
 6973SOL    HW221819   0.839   2.231   3.125
 6974SOL     OW21820   2.925   3.464   2.841
 6974SOL    HW121821   2.923   3.419   2.752
 6974SOL    HW221822   2.891   3.558   2.831
 6975SOL     OW21823   2.665   5.707   4.837
 6975SOL    HW121824   2.708   5.641   4.898
 6975SOL    HW221825   2.734   5.747   4.777
 6976SOL     OW21826   5.304   3.916   5.746
 6976SOL    HW121827   5.248   3.836   5.770
 6976SOL    HW221828   5.298   3.932   5.648
 6977SOL     OW21829   3.972   4.273   1.652
 6977SOL    HW121830   4.003   4.192   1.701
 6977SOL    HW221831   3.881   4.300   1.685
 6978SOL     OW21832   5.099   2.991   1.158
 6978SOL    HW121833   5.111   2.910   1.215
 6978SOL    HW221834   5.182   3.007   1.104
 6979SOL     OW21835   1.303   2.920   1.196
 6979SOL    HW121836   1.216   2.962   1.221
 6979SOL    HW221837   1.290   2.861   1.117
 6980SOL     OW21838   1.664   0.895   3.397
 6980SOL    HW121839   1.682   0.948   3.313
 6980SOL    HW221840   1.596   0.944   3.452
 6981SOL     OW21841   3.311   3.561   6.289
 6981SOL    HW121842   3.260   3.476   6.299
 6981SOL    HW221843   3.281   3.608   6.206
 6982SOL     OW21844   0.997   0.943   3.227
 6982SOL    HW121845   1.031   0.874   3.291
 6982SOL    HW221846   0.902   0.922   3.204
 6983SOL     OW21847   4.766   1.370   5.252
 6983SOL    HW121848   4.704   1.403   5.181
 6983SOL    HW221849   4.718   1.305   5.311
 6984SOL     OW21850   1.885   1.831   2.545
 6984SOL    HW121851   1.806   1.888   2.569
 6984SOL    HW221852   1.965   1.890   2.532
 6985SOL     OW21853   6.370   4.789   0.257
 6985SOL    HW121854   6.348   4.705   0.307
 6985SOL    HW221855   6.467   4.809   0.266
 6986SOL     OW21856   3.385   6.472   6.712
 6986SOL    HW121857   3.375   6.567   6.682
 6986SOL    HW221858   3.405   6.414   6.632
 6987SOL     OW21859   0.045   1.867   5.610
 6987SOL    HW121860   0.023   1.910   5.697
 6987SOL    HW221861   6.993   1.884   5.545
 6988SOL     OW21862   2.340   0.293   5.628
 6988SOL    HW121863   2.271   0.221   5.618
 6988SOL    HW221864   2.334   0.356   5.551
 6989SOL     OW21865   6.337   4.498   2.451
 6989SOL    HW121866   6.350   4.568   2.381
 6989SOL    HW221867   6.377   4.412   2.420
 6990SOL     OW21868   3.666   2.752   1.830
 6990SOL    HW121869   3.644   2.654   1.826
 6990SOL    HW221870   3.735   2.773   1.761
 6991SOL     OW21871   5.247   4.563   3.354
 6991SOL    HW121872   5.289   4.648   3.323
 6991SOL    HW221873   5.290   4.486   3.307
 6992SOL     OW21874   0.011   6.327   0.596
 6992SOL    HW121875   6.981   6.295   0.517
 6992SOL    HW221876   6.973   6.333   0.675
 6993SOL     OW21877   6.152   0.545   1.356
 6993SOL    HW121878   6.252   0.555   1.351
 6993SOL    HW221879   6.127   0.512   1.447
 6994SOL     OW21880   1.589   0.102   3.931
 6994SOL    HW121881   1.550   0.137   4.016
 6994SOL    HW221882   1.637   0.176   3.883
 6995SOL     OW21883   0.320   3.672   0.613
 6995SOL    HW121884   0.374   3.756   0.603
 6995SOL    HW221885   0.379   3.592   0.595
 6996SOL     OW21886   1.020   0.260   0.279
 6996SOL    HW121887   0.970   0.201   0.342
 6996SOL    HW221888   1.007   0.356   0.306
 6997SOL     OW21889   0.031   4.878   5.507
 6997SOL    HW121890   0.030   4.783   5.539
 6997SOL    HW221891   0.085   4.883   5.423
 6998SOL     OW21892   0.236   1.567   1.403
 6998SOL    HW121893   0.295   1.536   1.328
 6998SOL    HW221894   0.170   1.496   1.425
 6999SOL     OW21895   0.545   2.476   6.524
 6999SOL    HW121896   0.457   2.517   6.548
 6999SOL    HW221897   0.610   2.492   6.599
 7000SOL     OW21898   6.308   7.009   2.436
 7000SOL    HW121899   6.404   6.984   2.448
 7000SOL    HW221900   6.301   0.086   2.427
 7001SOL     OW21901   1.150   1.611   5.052
 7001SOL    HW121902   1.130   1.687   4.990
 7001SOL    HW221903   1.242   1.577   5.034
 7002SOL     OW21904   1.414   5.600   3.962
 7002SOL    HW121905   1.363   5.638   3.886
 7002SOL    HW221906   1.406   5.500   3.962
 7003SOL     OW21907   5.405   4.626   1.406
 7003SOL    HW121908   5.382   4.583   1.493
 7003SOL    HW221909   5.329   4.614   1.341
 7004SOL     OW21910   1.203   5.400   0.658
 7004SOL    HW121911   1.233   5.381   0.751
 7004SOL    HW221912   1.272   5.370   0.593
 7005SOL     OW21913   1.243   6.942   6.678
 7005SOL    HW121914   1.329   6.969   6.721
 7005SOL    HW221915   1.166   6.976   6.731
 7006SOL     OW21916   6.585   6.559   3.478
 7006SOL    HW121917   6.675   6.579   3.441
 7006SOL    HW221918   6.515   6.589   3.413
 7007SOL     OW21919   4.489   0.783   5.476
 7007SOL    HW121920   4.578   0.752   5.444
 7007SOL    HW221921   4.433   0.704   5.501
 7008SOL     OW21922   6.881   4.352   4.096
 7008SOL    HW121923   6.935   4.436   4.092
 7008SOL    HW221924   6.824   4.354   4.178
 7009SOL     OW21925   4.100   6.738   1.845
 7009SOL    HW121926   4.136   6.715   1.755
 7009SOL    HW221927   4.004   6.763   1.837
 7010SOL     OW21928   5.590   3.865   3.026
 7010SOL    HW121929   5.583   3.935   2.956
 7010SOL    HW221930   5.661   3.889   3.092
 7011SOL     OW21931   3.987   6.812   0.959
 7011SOL    HW121932   4.025   6.808   0.866
 7011SOL    HW221933   4.052   6.857   1.020
 7012SOL     OW21934   1.345   2.722   0.997
 7012SOL    HW121935   1.292   2.670   0.929
 7012SOL    HW221936   1.390   2.658   1.060
 7013SOL     OW21937   2.348   0.806   6.543
 7013SOL    HW121938   2.395   0.883   6.500
 7013SOL    HW221939   2.278   0.771   6.481
 7014SOL     OW21940   6.061   3.527   1.414
 7014SOL    HW121941   6.043   3.428   1.411
 7014SOL    HW221942   6.148   3.544   1.459
 7015SOL     OW21943   5.794   4.521   2.689
 7015SOL    HW121944   5.776   4.617   2.712
 7015SOL    HW221945   5.781   4.507   2.591
 7016SOL     OW21946   3.182   5.351   0.953
 7016SOL    HW121947   3.233   5.266   0.965
 7016SOL    HW221948   3.222   5.422   1.011
 7017SOL     OW21949   3.834   5.339   2.997
 7017SOL    HW121950   3.908   5.276   3.019
 7017SOL    HW221951   3.867   5.433   3.003
 7018SOL     OW21952   5.694   3.639   3.734
 7018SOL    HW121953   5.664   3.666   3.642
 7018SOL    HW221954   5.777   3.583   3.726
 7019SOL     OW21955   4.738   5.263   2.500
 7019SOL    HW121956   4.806   5.328   2.534
 7019SOL    HW221957   4.690   5.221   2.577
 7020SOL     OW21958   0.297   3.730   6.918
 7020SOL    HW121959   0.357   3.654   6.892
 7020SOL    HW221960   0.202   3.706   6.897
 7021SOL     OW21961   1.168   3.111   4.607
 7021SOL    HW121962   1.205   3.030   4.653
 7021SOL    HW221963   1.243   3.163   4.565
 7022SOL     OW21964   4.308   0.771   0.132
 7022SOL    HW121965   4.239   0.791   0.201
 7022SOL    HW221966   4.287   0.682   0.090
 7023SOL     OW21967   0.258   2.205   1.769
 7023SOL    HW121968   0.322   2.280   1.754
 7023SOL    HW221969   0.276   2.132   1.703
 7024SOL     OW21970   3.702   2.929   3.717
 7024SOL    HW121971   3.778   2.947   3.654
 7024SOL    HW221972   3.711   2.987   3.798
 7025SOL     OW21973   3.197   0.762   0.289
 7025SOL    HW121974   3.284   0.778   0.337
 7025SOL    HW221975   3.158   0.675   0.320
 7026SOL     OW21976   3.597   1.668   1.922
 7026SOL    HW121977   3.677   1.679   1.863
 7026SOL    HW221978   3.550   1.756   1.930
 7027SOL     OW21979   2.559   6.063   3.459
 7027SOL    HW121980   2.506   6.012   3.527
 7027SOL    HW221981   2.635   6.006   3.428
 7028SOL     OW21982   2.367   0.339   3.206
 7028SOL    HW121983   2.399   0.432   3.219
 7028SOL    HW221984   2.283   0.325   3.259
 7029SOL     OW21985   2.916   3.945   5.851
 7029SOL    HW121986   2.953   3.974   5.939
 7029SOL    HW221987   2.988   3.946   5.782
 7030SOL     OW21988   1.048   2.103   4.828
 7030SOL    HW121989   0.986   2.108   4.749
 7030SOL    HW221990   1.019   2.169   4.897
 7031SOL     OW21991   4.413   6.429   0.579
 7031SOL    HW121992   4.446   6.439   0.485
 7031SOL    HW221993   4.377   6.517   0.611
 7032SOL     OW21994   4.376   0.657   4.294
 7032SOL    HW121995   4.323   0.705   4.365
 7032SOL    HW221996   4.454   0.611   4.337
 7033SOL     OW21997   1.644   2.784   4.274
 7033SOL    HW121998   1.578   2.859   4.275
 7033SOL    HW221999   1.666   2.757   4.367
 7034SOL     OW22000   6.480   2.624   3.479
 7034SOL    HW122001   6.536   2.705   3.461
 7034SOL    HW222002   6.395   2.630   3.426
 7035SOL     OW22003   2.157   0.274   1.939
 7035SOL    HW122004   2.099   0.284   2.020
 7035SOL    HW222005   2.103   0.296   1.858
 7036SOL     OW22006   0.443   1.992   2.641
 7036SOL    HW122007   0.346   2.015   2.635
 7036SOL    HW222008   0.497   2.076   2.634
 7037SOL     OW22009   0.349   0.895   5.460
 7037SOL    HW122010   0.411   0.940   5.396
 7037SOL    HW222011   0.322   0.959   5.532
 7038SOL     OW22012   2.870   4.612   5.604
 7038SOL    HW122013   2.823   4.604   5.516
 7038SOL    HW222014   2.863   4.525   5.653
 7039SOL     OW22015   1.024   5.225   3.984
 7039SOL    HW122016   0.927   5.199   3.986
 7039SOL    HW222017   1.056   5.243   4.077
 7040SOL     OW22018   4.563   2.204   5.113
 7040SOL    HW122019   4.588   2.114   5.079
 7040SOL    HW222020   4.640   2.242   5.166
 7041SOL     OW22021   1.203   1.404   3.483
 7041SOL    HW122022   1.148   1.466   3.427
 7041SOL    HW222023   1.212   1.316   3.436
 7042SOL     OW22024   4.603   5.921   4.872
 7042SOL    HW122025   4.592   5.946   4.969
 7042SOL    HW222026   4.671   5.849   4.863
 7043SOL     OW22027   2.295   4.225   4.098
 7043SOL    HW122028   2.302   4.273   4.010
 7043SOL    HW222029   2.204   4.240   4.137
 7044SOL     OW22030   4.681   0.026   4.904
 7044SOL    HW122031   4.621   0.001   4.980
 7044SOL    HW222032   4.634   0.091   4.844
 7045SOL     OW22033   5.836   5.357   2.617
 7045SOL    HW122034   5.762   5.357   2.550
 7045SOL    HW222035   5.815   5.292   2.689
 7046SOL     OW22036   3.267   2.062   4.199
 7046SOL    HW122037   3.179   2.093   4.234
 7046SOL    HW222038   3.305   1.993   4.260
 7047SOL     OW22039   0.502   1.008   1.486
 7047SOL    HW122040   0.516   1.037   1.391
 7047SOL    HW222041   0.434   1.067   1.529
 7048SOL     OW22042   6.340   6.589   4.956
 7048SOL    HW122043   6.302   6.640   5.033
 7048SOL    HW222044   6.304   6.626   4.870
 7049SOL     OW22045   3.998   1.059   2.226
 7049SOL    HW122046   3.902   1.034   2.210
 7049SOL    HW222047   4.020   1.143   2.176
 7050SOL     OW22048   3.634   4.944   0.734
 7050SOL    HW122049   3.669   4.852   0.750
 7050SOL    HW222050   3.671   5.006   0.803
 7051SOL     OW22051   0.058   6.968   1.391
 7051SOL    HW122052   0.034   6.899   1.323
 7051SOL    HW222053   7.002   6.983   1.452
 7052SOL     OW22054   5.411   6.800   3.345
 7052SOL    HW122055   5.502   6.835   3.324
 7052SOL    HW222056   5.342   6.857   3.301
 7053SOL     OW22057   1.507   3.407   4.064
 7053SOL    HW122058   1.471   3.441   3.977
 7053SOL    HW222059   1.460   3.453   4.140
 7054SOL     OW22060   0.151   0.338   1.129
 7054SOL    HW122061   0.118   0.289   1.210
 7054SOL    HW222062   0.192   0.273   1.066
 7055SOL     OW22063   2.176   0.233   6.967
 7055SOL    HW122064   2.214   0.202   0.032
 7055SOL    HW222065   2.202   0.169   6.895
 7056SOL     OW22066   6.763   5.914   1.102
 7056SOL    HW122067   6.664   5.930   1.106
 7056SOL    HW222068   6.781   5.816   1.108
 7057SOL     OW22069   3.106   5.320   4.071
 7057SOL    HW122070   3.023   5.356   4.028
 7057SOL    HW222071   3.129   5.375   4.152
 7058SOL     OW22072   5.413   1.919   6.407
 7058SOL    HW122073   5.327   1.964   6.431
 7058SOL    HW222074   5.476   1.926   6.484
 7059SOL     OW22075   2.215   1.470   4.492
 7059SOL    HW122076   2.156   1.507   4.564
 7059SOL    HW222077   2.189   1.376   4.472
 7060SOL     OW22078   3.554   6.705   2.083
 7060SOL    HW122079   3.536   6.607   2.075
 7060SOL    HW222080   3.551   6.747   1.993
 7061SOL     OW22081   1.260   2.251   2.321
 7061SOL    HW122082   1.349   2.264   2.366
 7061SOL    HW222083   1.256   2.308   2.239
 7062SOL     OW22084   4.323   1.742   4.402
 7062SOL    HW122085   4.228   1.710   4.400
 7062SOL    HW222086   4.326   1.836   4.436
 7063SOL     OW22087   0.172   6.410   2.307
 7063SOL    HW122088   0.258   6.362   2.289
 7063SOL    HW222089   0.098   6.365   2.258
 7064SOL     OW22090   5.285   1.659   5.763
 7064SOL    HW122091   5.366   1.657   5.821
 7064SOL    HW222092   5.204   1.638   5.819
 7065SOL     OW22093   3.321   4.645   5.308
 7065SOL    HW122094   3.334   4.687   5.397
 7065SOL    HW222095   3.394   4.579   5.291
 7066SOL     OW22096   4.468   1.000   6.735
 7066SOL    HW122097   4.415   1.082   6.716
 7066SOL    HW222098   4.484   0.993   6.834
 7067SOL     OW22099   1.425   3.599   0.075
 7067SOL    HW122100   1.394   3.693   0.083
 7067SOL    HW222101   1.497   3.581   0.142
 7068SOL     OW22102   5.876   4.426   4.390
 7068SOL    HW122103   5.912   4.512   4.353
 7068SOL    HW222104   5.829   4.376   4.317
 7069SOL     OW22105   6.019   1.504   5.881
 7069SOL    HW122106   6.115   1.516   5.908
 7069SOL    HW222107   6.015   1.448   5.798
 7070SOL     OW22108   0.632   6.387   4.775
 7070SOL    HW122109   0.532   6.384   4.783
 7070SOL    HW222110   0.657   6.440   4.695
 7071SOL     OW22111   5.228   6.601   6.615
 7071SOL    HW122112   5.138   6.559   6.624
 7071SOL    HW222113   5.299   6.532   6.628
 7072SOL     OW22114   1.112   4.341   6.694
 7072SOL    HW122115   1.142   4.246   6.686
 7072SOL    HW222116   1.193   4.401   6.695
 7073SOL     OW22117   4.078   0.278   2.966
 7073SOL    HW122118   3.979   0.289   2.972
 7073SOL    HW222119   4.122   0.367   2.970
 7074SOL     OW22120   6.343   3.935   3.583
 7074SOL    HW122121   6.306   3.950   3.675
 7074SOL    HW222122   6.431   3.981   3.574
 7075SOL     OW22123   3.252   5.052   4.923
 7075SOL    HW122124   3.185   4.987   4.959
 7075SOL    HW222125   3.301   5.095   4.999
 7076SOL     OW22126   6.298   2.959   1.951
 7076SOL    HW122127   6.327   3.043   1.905
 7076SOL    HW222128   6.250   2.900   1.885
 7077SOL     OW22129   2.606   4.986   2.486
 7077SOL    HW122130   2.567   4.967   2.396
 7077SOL    HW222131   2.613   5.085   2.499
 7078SOL     OW22132   5.383   6.891   0.792
 7078SOL    HW122133   5.450   6.910   0.864
 7078SOL    HW222134   5.418   6.923   0.704
 7079SOL     OW22135   1.551   6.738   3.831
 7079SOL    HW122136   1.631   6.734   3.891
 7079SOL    HW222137   1.530   6.646   3.797
 7080SOL     OW22138   4.053   1.691   4.499
 7080SOL    HW122139   3.983   1.622   4.484
 7080SOL    HW222140   4.106   1.667   4.581
 7081SOL     OW22141   1.661   0.749   0.187
 7081SOL    HW122142   1.565   0.759   0.213
 7081SOL    HW222143   1.708   0.837   0.196
 7082SOL     OW22144   6.996   3.833   1.559
 7082SOL    HW122145   6.996   3.920   1.509
 7082SOL    HW222146   7.020   3.849   1.654
 7083SOL     OW22147   0.087   2.182   2.391
 7083SOL    HW122148   0.037   2.260   2.354
 7083SOL    HW222149   0.114   2.121   2.316
 7084SOL     OW22150   0.655   5.584   5.905
 7084SOL    HW122151   0.640   5.679   5.933
 7084SOL    HW222152   0.568   5.545   5.875
 7085SOL     OW22153   0.088   2.526   2.598
 7085SOL    HW122154   0.176   2.546   2.556
 7085SOL    HW222155   0.016   2.531   2.528
 7086SOL     OW22156   5.711   0.353   6.915
 7086SOL    HW122157   5.802   0.314   6.904
 7086SOL    HW222158   5.687   0.355   7.012
 7087SOL     OW22159   4.924   3.318   2.718
 7087SOL    HW122160   4.950   3.414   2.733
 7087SOL    HW222161   4.981   3.259   2.775
 7088SOL     OW22162   5.747   1.244   5.055
 7088SOL    HW122163   5.793   1.214   4.971
 7088SOL    HW222164   5.710   1.336   5.041
 7089SOL     OW22165   3.474   5.339   2.600
 7089SOL    HW122166   3.472   5.336   2.700
 7089SOL    HW222167   3.560   5.380   2.570
 7090SOL     OW22168   3.223   1.420   0.427
 7090SOL    HW122169   3.275   1.462   0.502
 7090SOL    HW222170   3.268   1.335   0.399
 7091SOL     OW22171   0.734   0.157   0.469
 7091SOL    HW122172   0.730   0.057   0.476
 7091SOL    HW222173   0.820   0.189   0.508
 7092SOL     OW22174   3.825   2.060   6.613
 7092SOL    HW122175   3.726   2.066   6.606
 7092SOL    HW222176   3.868   2.121   6.547
 7093SOL     OW22177   3.383   3.786   1.308
 7093SOL    HW122178   3.382   3.885   1.299
 7093SOL    HW222179   3.354   3.760   1.400
 7094SOL     OW22180   1.668   6.642   5.638
 7094SOL    HW122181   1.687   6.681   5.727
 7094SOL    HW222182   1.593   6.576   5.645
 7095SOL     OW22183   3.254   4.845   5.138
 7095SOL    HW122184   3.154   4.844   5.145
 7095SOL    HW222185   3.292   4.771   5.193
 7096SOL     OW22186   6.983   0.557   1.168
 7096SOL    HW122187   6.996   0.635   1.106
 7096SOL    HW222188   0.034   0.490   1.153
 7097SOL     OW22189   5.428   0.301   1.873
 7097SOL    HW122190   5.446   0.306   1.775
 7097SOL    HW222191   5.379   0.217   1.894
 7098SOL     OW22192   1.933   6.659   4.499
 7098SOL    HW122193   1.875   6.739   4.487
 7098SOL    HW222194   1.982   6.666   4.586
 7099SOL     OW22195   3.350   2.050   3.938
 7099SOL    HW122196   3.326   2.068   4.034
 7099SOL    HW222197   3.269   2.065   3.880
 7100SOL     OW22198   0.732   3.490   0.626
 7100SOL    HW122199   0.746   3.571   0.682
 7100SOL    HW222200   0.808   3.426   0.640
 7101SOL     OW22201   2.612   6.250   5.502
 7101SOL    HW122202   2.585   6.345   5.514
 7101SOL    HW222203   2.530   6.192   5.495
 7102SOL     OW22204   5.159   1.088   1.262
 7102SOL    HW122205   5.172   0.990   1.275
 7102SOL    HW222206   5.234   1.125   1.208
 7103SOL     OW22207   4.929   5.046   2.470
 7103SOL    HW122208   4.927   4.983   2.547
 7103SOL    HW222209   4.842   5.095   2.464
 7104SOL     OW22210   5.309   2.945   3.204
 7104SOL    HW122211   5.379   2.874   3.203
 7104SOL    HW222212   5.348   3.030   3.168
 7105SOL     OW22213   3.168   3.960   4.146
 7105SOL    HW122214   3.163   4.016   4.063
 7105SOL    HW222215   3.229   4.004   4.212
 7106SOL     OW22216   3.248   2.902   1.161
 7106SOL    HW122217   3.165   2.949   1.193
 7106SOL    HW222218   3.244   2.806   1.189
 7107SOL     OW22219   4.247   0.531   0.040
 7107SOL    HW122220   4.181   0.481   7.007
 7107SOL    HW222221   4.318   0.468   0.072
 7108SOL     OW22222   2.494   6.524   2.853
 7108SOL    HW122223   2.400   6.494   2.835
 7108SOL    HW222224   2.492   6.609   2.906
 7109SOL     OW22225   1.441   0.325   6.552
 7109SOL    HW122226   1.477   0.410   6.514
 7109SOL    HW222227   1.350   0.308   6.514
 7110SOL     OW22228   3.223   6.661   4.446
 7110SOL    HW122229   3.275   6.742   4.418
 7110SOL    HW222230   3.280   6.604   4.505
 7111SOL     OW22231   1.081   0.847   4.398
 7111SOL    HW122232   1.086   0.876   4.494
 7111SOL    HW222233   1.034   0.758   4.393
 7112SOL     OW22234   2.273   4.408   4.520
 7112SOL    HW122235   2.220   4.484   4.483
 7112SOL    HW222236   2.217   4.326   4.524
 7113SOL     OW22237   2.677   4.863   5.196
 7113SOL    HW122238   2.680   4.774   5.151
 7113SOL    HW222239   2.581   4.887   5.214
 7114SOL     OW22240   4.566   5.187   1.546
 7114SOL    HW122241   4.623   5.139   1.480
 7114SOL    HW222242   4.538   5.275   1.508
 7115SOL     OW22243   5.914   4.245   6.986
 7115SOL    HW122244   5.872   4.170   6.935
 7115SOL    HW222245   5.970   4.300   6.924
 7116SOL     OW22246   6.117   4.191   3.896
 7116SOL    HW122247   6.086   4.116   3.838
 7116SOL    HW222248   6.111   4.164   3.992
 7117SOL     OW22249   6.285   6.922   3.977
 7117SOL    HW122250   6.379   6.890   3.961
 7117SOL    HW222251   6.236   6.854   4.031
 7118SOL     OW22252   4.114   4.263   5.295
 7118SOL    HW122253   4.158   4.330   5.235
 7118SOL    HW222254   4.079   4.187   5.240
 7119SOL     OW22255   5.293   0.794   5.198
 7119SOL    HW122256   5.237   0.863   5.243
 7119SOL    HW222257   5.327   0.728   5.266
 7120SOL     OW22258   5.418   1.215   1.162
 7120SOL    HW122259   5.390   1.283   1.094
 7120SOL    HW222260   5.509   1.237   1.196
 7121SOL     OW22261   0.974   6.480   3.671
 7121SOL    HW122262   0.986   6.412   3.743
 7121SOL    HW222263   1.014   6.567   3.700
 7122SOL     OW22264   2.501   6.836   5.618
 7122SOL    HW122265   2.601   6.847   5.617
 7122SOL    HW222266   2.469   6.811   5.527
 7123SOL     OW22267   6.119   4.737   5.066
 7123SOL    HW122268   6.130   4.644   5.032
 7123SOL    HW222269   6.023   4.753   5.090
 7124SOL     OW22270   1.414   2.733   1.604
 7124SOL    HW122271   1.480   2.794   1.559
 7124SOL    HW222272   1.392   2.769   1.695
 7125SOL     OW22273   0.675   0.475   2.061
 7125SOL    HW122274   0.707   0.510   1.972
 7125SOL    HW222275   0.601   0.533   2.094
 7126SOL     OW22276   4.019   6.302   1.508
 7126SOL    HW122277   4.071   6.266   1.431
 7126SOL    HW222278   3.943   6.240   1.529
 7127SOL     OW22279   3.609   5.872   5.274
 7127SOL    HW122280   3.683   5.938   5.290
 7127SOL    HW222281   3.542   5.911   5.211
 7128SOL     OW22282   3.539   4.626   6.626
 7128SOL    HW122283   3.574   4.621   6.532
 7128SOL    HW222284   3.607   4.588   6.689
 7129SOL     OW22285   0.505   1.701   0.994
 7129SOL    HW122286   0.432   1.689   0.926
 7129SOL    HW222287   0.483   1.779   1.053
 7130SOL     OW22288   2.941   0.089   4.393
 7130SOL    HW122289   2.990   0.013   4.350
 7130SOL    HW222290   2.947   0.170   4.334
 7131SOL     OW22291   3.741   0.667   2.525
 7131SOL    HW122292   3.681   0.747   2.516
 7131SOL    HW222293   3.685   0.584   2.520
 7132SOL     OW22294   5.397   4.270   6.795
 7132SOL    HW122295   5.339   4.293   6.717
 7132SOL    HW222296   5.426   4.174   6.787
 7133SOL     OW22297   3.762   5.560   3.563
 7133SOL    HW122298   3.702   5.485   3.592
 7133SOL    HW222299   3.755   5.572   3.464
 7134SOL     OW22300   5.739   5.911   1.652
 7134SOL    HW122301   5.717   5.837   1.589
 7134SOL    HW222302   5.827   5.893   1.697
 7135SOL     OW22303   2.031   3.379   2.094
 7135SOL    HW122304   1.943   3.416   2.064
 7135SOL    HW222305   2.104   3.423   2.042
 7136SOL     OW22306   2.699   1.758   1.756
 7136SOL    HW122307   2.747   1.834   1.714
 7136SOL    HW222308   2.647   1.791   1.835
 7137SOL     OW22309   2.632   2.062   1.733
 7137SOL    HW122310   2.544   2.023   1.761
 7137SOL    HW222311   2.671   2.112   1.810
 7138SOL     OW22312   1.799   1.462   1.307
 7138SOL    HW122313   1.866   1.426   1.242
 7138SOL    HW222314   1.751   1.386   1.350
 7139SOL     OW22315   5.165   5.724   2.223
 7139SOL    HW122316   5.151   5.809   2.173
 7139SOL    HW222317   5.263   5.710   2.239
 7140SOL     OW22318   5.920   3.789   0.966
 7140SOL    HW122319   5.919   3.817   0.870
 7140SOL    HW222320   5.827   3.792   1.003
 7141SOL     OW22321   4.198   6.630   1.084
 7141SOL    HW122322   4.240   6.687   1.013
 7141SOL    HW222323   4.172   6.687   1.161
 7142SOL     OW22324   3.313   0.860   4.155
 7142SOL    HW122325   3.379   0.930   4.129
 7142SOL    HW222326   3.223   0.901   4.165
 7143SOL     OW22327   2.209   4.736   6.601
 7143SOL    HW122328   2.121   4.775   6.626
 7143SOL    HW222329   2.205   4.702   6.507
 7144SOL     OW22330   0.002   1.405   4.448
 7144SOL    HW122331   0.023   1.487   4.501
 7144SOL    HW222332   6.997   1.430   4.355
 7145SOL     OW22333   4.885   1.614   0.373
 7145SOL    HW122334   4.951   1.676   0.416
 7145SOL    HW222335   4.841   1.660   0.296
 7146SOL     OW22336   2.226   1.213   4.749
 7146SOL    HW122337   2.225   1.246   4.655
 7146SOL    HW222338   2.141   1.239   4.794
 7147SOL     OW22339   5.606   4.574   2.986
 7147SOL    HW122340   5.636   4.652   2.931
 7147SOL    HW222341   5.507   4.565   2.979
 7148SOL     OW22342   6.177   6.040   2.046
 7148SOL    HW122343   6.272   6.059   2.072
 7148SOL    HW222344   6.163   5.942   2.038
 7149SOL     OW22345   6.909   4.705   3.779
 7149SOL    HW122346   6.973   4.633   3.754
 7149SOL    HW222347   6.951   4.795   3.762
 7150SOL     OW22348   4.235   3.626   0.052
 7150SOL    HW122349   4.289   3.586   7.001
 7150SOL    HW222350   4.242   3.726   0.048
 7151SOL     OW22351   3.629   0.404   0.885
 7151SOL    HW122352   3.587   0.478   0.938
 7151SOL    HW222353   3.728   0.408   0.897
 7152SOL     OW22354   0.005   0.903   6.662
 7152SOL    HW122355   6.945   0.861   6.699
 7152SOL    HW222356   0.028   0.860   6.575
 7153SOL     OW22357   4.266   6.304   1.659
 7153SOL    HW122358   4.336   6.335   1.596
 7153SOL    HW222359   4.176   6.311   1.615
 7154SOL     OW22360   4.289   1.511   2.263
 7154SOL    HW122361   4.223   1.556   2.203
 7154SOL    HW222362   4.272   1.540   2.358
 7155SOL     OW22363   3.167   1.838   2.334
 7155SOL    HW122364   3.189   1.890   2.252
 7155SOL    HW222365   3.251   1.803   2.375
 7156SOL     OW22366   5.825   3.620   1.279
 7156SOL    HW122367   5.879   3.578   1.352
 7156SOL    HW222368   5.855   3.585   1.190
 7157SOL     OW22369   6.053   4.354   6.759
 7157SOL    HW122370   5.968   4.363   6.707
 7157SOL    HW222371   6.084   4.445   6.787
 7158SOL     OW22372   5.360   6.871   3.960
 7158SOL    HW122373   5.445   6.855   3.910
 7158SOL    HW222374   5.368   6.956   4.013
 7159SOL     OW22375   6.948   4.902   4.361
 7159SOL    HW122376   6.967   4.997   4.386
 7159SOL    HW222377   7.013   4.842   4.408
 7160SOL     OW22378   5.493   6.927   2.677
 7160SOL    HW122379   5.482   7.002   2.611
 7160SOL    HW222380   5.523   6.845   2.629
 7161SOL     OW22381   4.111   3.438   3.231
 7161SOL    HW122382   4.167   3.436   3.314
 7161SOL    HW222383   4.050   3.359   3.231
 7162SOL     OW22384   0.108   5.496   2.202
 7162SOL    HW122385   0.148   5.455   2.120
 7162SOL    HW222386   0.075   5.588   2.180
 7163SOL     OW22387   1.212   2.008   2.234
 7163SOL    HW122388   1.115   2.002   2.208
 7163SOL    HW222389   1.232   2.100   2.267
 7164SOL     OW22390   1.370   0.925   6.064
 7164SOL    HW122391   1.456   0.898   6.107
 7164SOL    HW222392   1.315   0.977   6.129
 7165SOL     OW22393   5.764   6.835   0.393
 7165SOL    HW122394   5.747   6.841   0.295
 7165SOL    HW222395   5.859   6.860   0.412
 7166SOL     OW22396   5.087   6.643   6.078
 7166SOL    HW122397   5.021   6.716   6.097
 7166SOL    HW222398   5.175   6.683   6.052
 7167SOL     OW22399   6.051   1.889   4.828
 7167SOL    HW122400   6.112   1.955   4.785
 7167SOL    HW222401   6.104   1.809   4.857
 7168SOL     OW22402   2.073   1.044   2.578
 7168SOL    HW122403   2.088   1.143   2.582
 7168SOL    HW222404   1.978   1.026   2.552
 7169SOL     OW22405   1.958   4.050   5.448
 7169SOL    HW122406   1.900   4.130   5.430
 7169SOL    HW222407   2.054   4.078   5.448
 7170SOL     OW22408   4.302   0.482   1.663
 7170SOL    HW122409   4.355   0.566   1.656
 7170SOL    HW222410   4.213   0.501   1.706
 7171SOL     OW22411   5.523   4.944   0.970
 7171SOL    HW122412   5.593   4.902   0.913
 7171SOL    HW222413   5.536   4.917   1.065
 7172SOL     OW22414   1.846   1.254   4.563
 7172SOL    HW122415   1.847   1.307   4.647
 7172SOL    HW222416   1.757   1.209   4.553
 7173SOL     OW22417   5.791   5.761   6.870
 7173SOL    HW122418   5.804   5.836   6.935
 7173SOL    HW222419   5.870   5.700   6.874
 7174SOL     OW22420   5.655   4.553   1.427
 7174SOL    HW122421   5.565   4.583   1.394
 7174SOL    HW222422   5.697   4.492   1.359
 7175SOL     OW22423   5.827   3.672   5.027
 7175SOL    HW122424   5.765   3.748   5.010
 7175SOL    HW222425   5.834   3.615   4.946
 7176SOL     OW22426   0.426   1.675   4.415
 7176SOL    HW122427   0.486   1.741   4.461
 7176SOL    HW222428   0.361   1.725   4.357
 7177SOL     OW22429   2.094   5.332   5.435
 7177SOL    HW122430   2.166   5.316   5.368
 7177SOL    HW222431   2.025   5.393   5.396
 7178SOL     OW22432   0.424   0.664   5.562
 7178SOL    HW122433   0.400   0.756   5.530
 7178SOL    HW222434   0.454   0.669   5.658
 7179SOL     OW22435   3.061   5.536   6.366
 7179SOL    HW122436   3.156   5.564   6.377
 7179SOL    HW222437   3.057   5.441   6.334
 7180SOL     OW22438   1.520   4.998   1.106
 7180SOL    HW122439   1.578   5.073   1.075
 7180SOL    HW222440   1.572   4.913   1.105
 7181SOL     OW22441   2.319   1.570   5.667
 7181SOL    HW122442   2.316   1.472   5.648
 7181SOL    HW222443   2.377   1.615   5.599
 7182SOL     OW22444   0.556   3.154   3.947
 7182SOL    HW122445   0.541   3.227   3.880
 7182SOL    HW222446   0.490   3.164   4.022
 7183SOL     OW22447   1.344   6.331   1.801
 7183SOL    HW122448   1.393   6.352   1.716
 7183SOL    HW222449   1.248   6.312   1.780
 7184SOL     OW22450   6.504   0.742   3.415
 7184SOL    HW122451   6.565   0.701   3.347
 7184SOL    HW222452   6.557   0.795   3.480
 7185SOL     OW22453   5.025   0.977   4.986
 7185SOL    HW122454   5.016   1.067   5.028
 7185SOL    HW222455   5.122   0.958   4.968
 7186SOL     OW22456   0.318   0.200   0.130
 7186SOL    HW122457   0.332   0.178   0.226
 7186SOL    HW222458   0.242   0.146   0.094
 7187SOL     OW22459   3.113   2.975   4.996
 7187SOL    HW122460   3.027   2.924   4.989
 7187SOL    HW222461   3.119   3.041   4.921
 7188SOL     OW22462   4.177   4.870   0.151
 7188SOL    HW122463   4.153   4.965   0.173
 7188SOL    HW222464   4.164   4.813   0.232
 7189SOL     OW22465   6.289   2.924   5.460
 7189SOL    HW122466   6.224   2.864   5.414
 7189SOL    HW222467   6.251   3.016   5.465
 7190SOL     OW22468   6.028   5.580   1.338
 7190SOL    HW122469   6.102   5.580   1.271
 7190SOL    HW222470   5.954   5.639   1.306
 7191SOL     OW22471   0.688   4.049   3.277
 7191SOL    HW122472   0.714   4.038   3.373
 7191SOL    HW222473   0.734   3.981   3.221
 7192SOL     OW22474   1.804   4.626   6.511
 7192SOL    HW122475   1.801   4.574   6.426
 7192SOL    HW222476   1.774   4.569   6.587
 7193SOL     OW22477   2.990   1.923   2.518
 7193SOL    HW122478   2.912   1.862   2.511
 7193SOL    HW222479   3.059   1.898   2.450
 7194SOL     OW22480   2.835   2.778   0.070
 7194SOL    HW122481   2.752   2.737   0.031
 7194SOL    HW222482   2.832   2.771   0.170
 7195SOL     OW22483   7.005   3.672   6.992
 7195SOL    HW122484   7.015   3.602   0.040
 7195SOL    HW222485   7.020   3.631   6.902
 7196SOL     OW22486   3.036   3.930   2.492
 7196SOL    HW122487   3.008   3.963   2.402
 7196SOL    HW222488   3.004   3.836   2.505
 7197SOL     OW22489   1.518   3.783   5.371
 7197SOL    HW122490   1.490   3.712   5.435
 7197SOL    HW222491   1.557   3.741   5.289
 7198SOL     OW22492   6.688   1.074   0.551
 7198SOL    HW122493   6.780   1.065   0.588
 7198SOL    HW222494   6.685   1.149   0.485
 7199SOL     OW22495   0.965   0.862   2.544
 7199SOL    HW122496   0.882   0.902   2.585
 7199SOL    HW222497   0.975   0.895   2.450
 7200SOL     OW22498   2.125   2.426   0.521
 7200SOL    HW122499   2.148   2.409   0.617
 7200SOL    HW222500   2.144   2.521   0.499
 7201SOL     OW22501   6.230   5.743   4.042
 7201SOL    HW122502   6.198   5.756   3.948
 7201SOL    HW222503   6.157   5.768   4.106
 7202SOL     OW22504   5.376   6.538   6.094
 7202SOL    HW122505   5.469   6.563   6.123
 7202SOL    HW222506   5.313   6.552   6.170
 7203SOL     OW22507   0.512   1.257   2.064
 7203SOL    HW122508   0.523   1.327   2.134
 7203SOL    HW222509   0.526   1.297   1.974
 7204SOL     OW22510   6.650   1.815   0.776
 7204SOL    HW122511   6.624   1.880   0.846
 7204SOL    HW222512   6.607   1.727   0.794
 7205SOL     OW22513   2.083   2.505   5.149
 7205SOL    HW122514   2.101   2.433   5.082
 7205SOL    HW222515   1.989   2.539   5.136
 7206SOL     OW22516   1.817   2.032   1.063
 7206SOL    HW122517   1.717   2.026   1.061
 7206SOL    HW222518   1.856   1.960   1.005
 7207SOL     OW22519   1.774   2.101   3.959
 7207SOL    HW122520   1.749   2.183   3.907
 7207SOL    HW222521   1.858   2.061   3.921
 7208SOL     OW22522   3.908   0.555   4.407
 7208SOL    HW122523   3.936   0.532   4.314
 7208SOL    HW222524   3.947   0.643   4.434
 7209SOL     OW22525   2.255   2.438   2.349
 7209SOL    HW122526   2.287   2.512   2.408
 7209SOL    HW222527   2.322   2.422   2.276
 7210SOL     OW22528   2.698   1.674   2.765
 7210SOL    HW122529   2.692   1.586   2.810
 7210SOL    HW222530   2.634   1.738   2.807
 7211SOL     OW22531   3.427   5.991   5.076
 7211SOL    HW122532   3.383   6.029   5.157
 7211SOL    HW222533   3.359   5.978   5.004
 7212SOL     OW22534   5.774   5.301   5.811
 7212SOL    HW122535   5.728   5.368   5.869
 7212SOL    HW222536   5.873   5.304   5.828
 7213SOL     OW22537   3.516   0.265   0.403
 7213SOL    HW122538   3.587   0.197   0.421
 7213SOL    HW222539   3.449   0.226   0.340
 7214SOL     OW22540   0.488   0.784   6.379
 7214SOL    HW122541   0.397   0.777   6.420
 7214SOL    HW222542   0.502   0.707   6.317
 7215SOL     OW22543   0.273   2.632   3.221
 7215SOL    HW122544   0.229   2.674   3.300
 7215SOL    HW222545   0.355   2.684   3.196
 7216SOL     OW22546   3.239   6.615   2.426
 7216SOL    HW122547   3.250   6.687   2.358
 7216SOL    HW222548   3.179   6.647   2.500
 7217SOL     OW22549   0.990   4.126   3.614
 7217SOL    HW122550   1.060   4.139   3.683
 7217SOL    HW222551   0.953   4.034   3.621
 7218SOL     OW22552   6.726   3.375   4.387
 7218SOL    HW122553   6.777   3.421   4.460
 7218SOL    HW222554   6.694   3.286   4.420
 7219SOL     OW22555   3.006   6.657   1.702
 7219SOL    HW122556   2.987   6.721   1.628
 7219SOL    HW222557   3.101   6.624   1.694
 7220SOL     OW22558   6.715   3.655   4.897
 7220SOL    HW122559   6.702   3.725   4.967
 7220SOL    HW222560   6.738   3.568   4.942
 7221SOL     OW22561   3.017   6.123   4.728
 7221SOL    HW122562   3.081   6.137   4.804
 7221SOL    HW222563   2.935   6.179   4.742
 7222SOL     OW22564   6.372   6.235   3.489
 7222SOL    HW122565   6.363   6.194   3.398
 7222SOL    HW222566   6.291   6.289   3.510
 7223SOL     OW22567   2.450   1.928   0.644
 7223SOL    HW122568   2.495   1.972   0.567
 7223SOL    HW222569   2.391   1.994   0.691
 7224SOL     OW22570   4.403   2.299   3.808
 7224SOL    HW122571   4.490   2.253   3.793
 7224SOL    HW222572   4.399   2.332   3.902
 7225SOL     OW22573   1.903   6.694   0.680
 7225SOL    HW122574   1.938   6.687   0.773
 7225SOL    HW222575   1.957   6.762   0.630
 7226SOL     OW22576   5.874   0.715   0.459
 7226SOL    HW122577   5.932   0.638   0.434
 7226SOL    HW222578   5.780   0.684   0.473
 7227SOL     OW22579   2.999   0.671   2.449
 7227SOL    HW122580   2.972   0.765   2.426
 7227SOL    HW222581   3.074   0.642   2.389
 7228SOL     OW22582   0.282   1.899   2.914
 7228SOL    HW122583   0.232   1.947   2.985
 7228SOL    HW222584   0.354   1.843   2.955
 7229SOL     OW22585   6.896   6.897   4.459
 7229SOL    HW122586   6.873   6.853   4.546
 7229SOL    HW222587   6.995   6.893   4.445
 7230SOL     OW22588   2.702   5.089   4.000
 7230SOL    HW122589   2.742   5.088   4.092
 7230SOL    HW222590   2.670   4.998   3.976
 7231SOL     OW22591   3.807   0.774   0.395
 7231SOL    HW122592   3.799   0.865   0.435
 7231SOL    HW222593   3.801   0.705   0.466
 7232SOL     OW22594   5.031   6.755   2.653
 7232SOL    HW122595   5.027   6.822   2.578
 7232SOL    HW222596   4.956   6.772   2.716
 7233SOL     OW22597   6.041   1.899   5.843
 7233SOL    HW122598   5.983   1.853   5.775
 7233SOL    HW222599   5.992   1.904   5.930
 7234SOL     OW22600   4.865   4.018   3.583
 7234SOL    HW122601   4.854   3.921   3.564
 7234SOL    HW222602   4.958   4.037   3.613
 7235SOL     OW22603   5.986   5.838   1.758
 7235SOL    HW122604   6.031   5.825   1.846
 7235SOL    HW222605   5.978   5.750   1.711
 7236SOL     OW22606   1.689   2.434   2.701
 7236SOL    HW122607   1.604   2.399   2.742
 7236SOL    HW222608   1.767   2.386   2.741
 7237SOL     OW22609   4.971   6.715   6.962
 7237SOL    HW122610   4.968   6.710   0.040
 7237SOL    HW222611   4.970   6.811   6.934
 7238SOL     OW22612   4.735   2.334   6.824
 7238SOL    HW122613   4.635   2.339   6.815
 7238SOL    HW222614   4.759   2.321   6.920
 7239SOL     OW22615   0.314   3.493   2.188
 7239SOL    HW122616   0.310   3.394   2.201
 7239SOL    HW222617   0.223   3.533   2.204
 7240SOL     OW22618   6.838   1.528   6.095
 7240SOL    HW122619   6.792   1.547   6.009
 7240SOL    HW222620   6.771   1.528   6.169
 7241SOL     OW22621   1.927   0.533   0.746
 7241SOL    HW122622   1.933   0.581   0.658
 7241SOL    HW222623   2.006   0.557   0.802
 7242SOL     OW22624   0.169   6.127   5.055
 7242SOL    HW122625   0.244   6.130   5.121
 7242SOL    HW222626   0.204   6.100   4.965
 7243SOL     OW22627   6.926   3.553   6.552
 7243SOL    HW122628   6.827   3.558   6.544
 7243SOL    HW222629   6.968   3.620   6.491
 7244SOL     OW22630   0.315   6.768   0.384
 7244SOL    HW122631   0.396   6.744   0.437
 7244SOL    HW222632   0.273   6.851   0.422
 7245SOL     OW22633   1.451   2.399   6.208
 7245SOL    HW122634   1.509   2.332   6.162
 7245SOL    HW222635   1.355   2.370   6.200
 7246SOL     OW22636   2.807   0.590   4.282
 7246SOL    HW122637   2.731   0.530   4.307
 7246SOL    HW222638   2.809   0.602   4.183
 7247SOL     OW22639   3.143   2.358   5.599
 7247SOL    HW122640   3.233   2.320   5.577
 7247SOL    HW222641   3.077   2.328   5.531
 7248SOL     OW22642   2.824   0.591   3.988
 7248SOL    HW122643   2.766   0.595   3.907
 7248SOL    HW222644   2.913   0.555   3.963
 7249SOL     OW22645   4.300   4.650   2.149
 7249SOL    HW122646   4.249   4.706   2.214
 7249SOL    HW222647   4.254   4.653   2.059
 7250SOL     OW22648   5.311   4.852   6.013
 7250SOL    HW122649   5.254   4.869   5.933
 7250SOL    HW222650   5.254   4.820   6.089
 7251SOL     OW22651   0.937   6.842   5.965
 7251SOL    HW122652   0.867   6.793   6.017
 7251SOL    HW222653   0.909   6.844   5.868
 7252SOL     OW22654   2.927   3.679   2.271
 7252SOL    HW122655   2.933   3.632   2.359
 7252SOL    HW222656   2.944   3.614   2.197
 7253SOL     OW22657   1.658   6.888   5.978
 7253SOL    HW122658   1.560   6.875   5.994
 7253SOL    HW222659   1.705   6.799   5.984
 7254SOL     OW22660   5.586   5.135   4.076
 7254SOL    HW122661   5.637   5.182   4.004
 7254SOL    HW222662   5.630   5.048   4.097
 7255SOL     OW22663   4.720   3.236   6.961
 7255SOL    HW122664   4.719   3.304   6.887
 7255SOL    HW222665   4.671   3.272   0.018
 7256SOL     OW22666   3.965   6.575   5.468
 7256SOL    HW122667   3.939   6.483   5.437
 7256SOL    HW222668   3.981   6.633   5.388
 7257SOL     OW22669   0.195   1.621   5.025
 7257SOL    HW122670   0.184   1.599   5.122
 7257SOL    HW222671   0.180   1.539   4.970
 7258SOL     OW22672   5.502   2.165   1.599
 7258SOL    HW122673   5.496   2.215   1.513
 7258SOL    HW222674   5.587   2.188   1.645
 7259SOL     OW22675   1.180   3.633   2.450
 7259SOL    HW122676   1.201   3.673   2.539
 7259SOL    HW222677   1.263   3.626   2.395
 7260SOL     OW22678   4.934   2.409   1.054
 7260SOL    HW122679   4.930   2.310   1.043
 7260SOL    HW222680   4.994   2.432   1.131
 7261SOL     OW22681   0.377   4.019   1.141
 7261SOL    HW122682   0.401   4.090   1.208
 7261SOL    HW222683   0.304   4.053   1.082
 7262SOL     OW22684   5.645   0.862   6.321
 7262SOL    HW122685   5.614   0.823   6.235
 7262SOL    HW222686   5.711   0.935   6.303
 7263SOL     OW22687   0.106   6.643   0.255
 7263SOL    HW122688   0.156   6.587   0.189
 7263SOL    HW222689   0.172   6.696   0.310
 7264SOL     OW22690   5.488   0.976   0.984
 7264SOL    HW122691   5.465   1.057   1.037
 7264SOL    HW222692   5.511   1.002   0.890
 7265SOL     OW22693   5.774   5.310   4.623
 7265SOL    HW122694   5.818   5.400   4.614
 7265SOL    HW222695   5.796   5.271   4.712
 7266SOL     OW22696   6.553   0.911   3.843
 7266SOL    HW122697   6.502   0.941   3.924
 7266SOL    HW222698   6.563   0.812   3.844
 7267SOL     OW22699   6.632   6.605   4.786
 7267SOL    HW122700   6.549   6.613   4.841
 7267SOL    HW222701   6.616   6.542   4.709
 7268SOL     OW22702   0.009   5.173   4.429
 7268SOL    HW122703   0.104   5.178   4.398
 7268SOL    HW222704   6.981   5.254   4.398
 7269SOL     OW22705   2.119   6.147   5.925
 7269SOL    HW122706   2.073   6.166   6.012
 7269SOL    HW222707   2.215   6.172   5.932
 7270SOL     OW22708   0.096   2.053   3.781
 7270SOL    HW122709   0.052   2.141   3.761
 7270SOL    HW222710   0.136   2.016   3.698
 7271SOL     OW22711   1.799   5.246   3.897
 7271SOL    HW122712   1.875   5.304   3.925
 7271SOL    HW222713   1.831   5.178   3.831
 7272SOL     OW22714   6.319   5.888   2.239
 7272SOL    HW122715   6.307   5.846   2.148
 7272SOL    HW222716   6.367   5.974   2.229
 7273SOL     OW22717   5.026   3.386   6.663
 7273SOL    HW122718   5.124   3.378   6.679
 7273SOL    HW222719   4.985   3.295   6.657
 7274SOL     OW22720   0.516   4.195   0.065
 7274SOL    HW122721   0.613   4.193   0.088
 7274SOL    HW222722   0.487   4.104   0.037
 7275SOL     OW22723   0.278   5.825   2.757
 7275SOL    HW122724   0.295   5.909   2.808
 7275SOL    HW222725   0.240   5.756   2.818
 7276SOL     OW22726   5.615   0.193   3.777
 7276SOL    HW122727   5.584   0.118   3.718
 7276SOL    HW222728   5.697   0.234   3.738
 7277SOL     OW22729   4.999   0.539   5.671
 7277SOL    HW122730   4.903   0.560   5.689
 7277SOL    HW222731   5.023   0.571   5.579
 7278SOL     OW22732   3.086   3.792   1.421
 7278SOL    HW122733   3.060   3.803   1.518
 7278SOL    HW222734   3.048   3.707   1.386
 7279SOL     OW22735   4.465   6.132   0.150
 7279SOL    HW122736   4.537   6.190   0.112
 7279SOL    HW222737   4.477   6.124   0.249
 7280SOL     OW22738   6.534   0.422   4.518
 7280SOL    HW122739   6.493   0.512   4.533
 7280SOL    HW222740   6.549   0.376   4.606
 7281SOL     OW22741   3.089   2.131   6.991
 7281SOL    HW122742   3.130   2.216   6.958
 7281SOL    HW222743   3.034   2.150   0.050
 7282SOL     OW22744   6.062   4.913   2.604
 7282SOL    HW122745   6.019   5.003   2.592
 7282SOL    HW222746   6.099   4.882   2.516
 7283SOL     OW22747   2.801   1.542   3.472
 7283SOL    HW122748   2.778   1.469   3.408
 7283SOL    HW222749   2.780   1.631   3.431
 7284SOL     OW22750   0.484   3.280   5.599
 7284SOL    HW122751   0.501   3.249   5.692
 7284SOL    HW222752   0.550   3.351   5.574
 7285SOL     OW22753   5.260   3.673   2.357
 7285SOL    HW122754   5.338   3.622   2.322
 7285SOL    HW222755   5.258   3.764   2.314
 7286SOL     OW22756   3.120   2.000   0.657
 7286SOL    HW122757   3.120   1.910   0.614
 7286SOL    HW222758   3.062   1.998   0.739
 7287SOL     OW22759   0.110   2.128   6.491
 7287SOL    HW122760   0.126   2.037   6.529
 7287SOL    HW222761   0.191   2.185   6.504
 7288SOL     OW22762   3.517   0.921   6.706
 7288SOL    HW122763   3.577   0.920   6.786
 7288SOL    HW222764   3.571   0.899   6.625
 7289SOL     OW22765   6.453   1.628   3.431
 7289SOL    HW122766   6.406   1.542   3.414
 7289SOL    HW222767   6.419   1.669   3.515
 7290SOL     OW22768   3.209   6.504   5.582
 7290SOL    HW122769   3.122   6.494   5.631
 7290SOL    HW222770   3.277   6.546   5.642
 7291SOL     OW22771   1.537   6.969   1.408
 7291SOL    HW122772   1.518   6.983   1.311
 7291SOL    HW222773   1.596   0.020   1.442
 7292SOL     OW22774   2.480   0.686   4.158
 7292SOL    HW122775   2.575   0.654   4.163
 7292SOL    HW222776   2.428   0.651   4.236
 7293SOL     OW22777   1.948   1.701   5.439
 7293SOL    HW122778   1.927   1.722   5.344
 7293SOL    HW222779   1.864   1.706   5.494
 7294SOL     OW22780   2.587   5.545   0.363
 7294SOL    HW122781   2.593   5.634   0.319
 7294SOL    HW222782   2.530   5.552   0.445
 7295SOL     OW22783   0.818   2.495   1.022
 7295SOL    HW122784   0.787   2.584   1.056
 7295SOL    HW222785   0.861   2.508   0.932
 7296SOL     OW22786   2.864   5.081   1.196
 7296SOL    HW122787   2.903   4.996   1.162
 7296SOL    HW222788   2.764   5.080   1.183
 7297SOL     OW22789   4.098   5.569   1.028
 7297SOL    HW122790   4.050   5.646   1.070
 7297SOL    HW222791   4.050   5.484   1.050
 7298SOL     OW22792   4.793   4.451   5.679
 7298SOL    HW122793   4.769   4.357   5.702
 7298SOL    HW222794   4.840   4.452   5.590
 7299SOL     OW22795   0.097   1.705   0.175
 7299SOL    HW122796   0.107   1.642   0.097
 7299SOL    HW222797   0.081   1.653   0.258
 7300SOL     OW22798   6.185   5.695   2.386
 7300SOL    HW122799   6.091   5.715   2.358
 7300SOL    HW222800   6.248   5.757   2.339
 7301SOL     OW22801   6.624   0.948   4.667
 7301SOL    HW122802   6.693   0.943   4.740
 7301SOL    HW222803   6.558   1.020   4.690
 7302SOL     OW22804   0.715   1.483   6.170
 7302SOL    HW122805   0.814   1.499   6.175
 7302SOL    HW222806   0.668   1.556   6.219
 7303SOL     OW22807   4.786   0.730   6.568
 7303SOL    HW122808   4.691   0.728   6.600
 7303SOL    HW222809   4.847   0.744   6.646
 7304SOL     OW22810   3.744   4.379   0.264
 7304SOL    HW122811   3.821   4.332   0.221
 7304SOL    HW222812   3.748   4.366   0.363
 7305SOL     OW22813   4.706   1.537   0.588
 7305SOL    HW122814   4.629   1.598   0.611
 7305SOL    HW222815   4.751   1.570   0.505
 7306SOL     OW22816   5.179   2.779   1.310
 7306SOL    HW122817   5.238   2.756   1.233
 7306SOL    HW222818   5.233   2.826   1.380
 7307SOL     OW22819   2.759   0.168   1.696
 7307SOL    HW122820   2.824   0.232   1.736
 7307SOL    HW222821   2.784   0.075   1.723
 7308SOL     OW22822   6.915   4.086   5.480
 7308SOL    HW122823   6.819   4.107   5.501
 7308SOL    HW222824   6.964   4.070   5.566
 7309SOL     OW22825   5.343   5.918   0.450
 7309SOL    HW122826   5.374   5.825   0.469
 7309SOL    HW222827   5.420   5.982   0.463
 7310SOL     OW22828   2.076   3.794   1.490
 7310SOL    HW122829   2.056   3.724   1.559
 7310SOL    HW222830   2.124   3.870   1.533
 7311SOL     OW22831   3.587   2.031   2.248
 7311SOL    HW122832   3.600   2.117   2.198
 7311SOL    HW222833   3.491   2.004   2.243
 7312SOL     OW22834   0.083   3.137   5.876
 7312SOL    HW122835   0.033   3.202   5.818
 7312SOL    HW222836   0.153   3.091   5.821
 7313SOL     OW22837   3.919   2.084   6.231
 7313SOL    HW122838   3.983   2.034   6.289
 7313SOL    HW222839   3.952   2.084   6.137
 7314SOL     OW22840   6.436   3.567   5.277
 7314SOL    HW122841   6.376   3.613   5.343
 7314SOL    HW222842   6.452   3.472   5.307
 7315SOL     OW22843   6.888   0.087   2.907
 7315SOL    HW122844   6.840   0.159   2.958
 7315SOL    HW222845   6.956   0.128   2.846
 7316SOL     OW22846   2.966   3.547   6.147
 7316SOL    HW122847   2.956   3.562   6.245
 7316SOL    HW222848   3.056   3.578   6.117
 7317SOL     OW22849   4.920   0.867   2.524
 7317SOL    HW122850   4.843   0.807   2.505
 7317SOL    HW222851   4.901   0.920   2.606
 7318SOL     OW22852   1.120   1.658   0.572
 7318SOL    HW122853   1.175   1.725   0.620
 7318SOL    HW222854   1.040   1.634   0.628
 7319SOL     OW22855   6.169   3.832   6.160
 7319SOL    HW122856   6.091   3.772   6.140
 7319SOL    HW222857   6.224   3.793   6.233
 7320SOL     OW22858   6.621   3.520   1.828
 7320SOL    HW122859   6.521   3.519   1.828
 7320SOL    HW222860   6.654   3.595   1.770
 7321SOL     OW22861   3.386   6.366   5.206
 7321SOL    HW122862   3.310   6.410   5.255
 7321SOL    HW222863   3.352   6.327   5.121
 7322SOL     OW22864   0.180   2.623   2.819
 7322SOL    HW122865   0.145   2.571   2.741
 7322SOL    HW222866   0.153   2.577   2.904
 7323SOL     OW22867   2.257   2.148   1.479
 7323SOL    HW122868   2.195   2.225   1.495
 7323SOL    HW222869   2.235   2.105   1.391
 7324SOL     OW22870   5.119   6.517   2.511
 7324SOL    HW122871   5.085   6.430   2.546
 7324SOL    HW222872   5.066   6.592   2.549
 7325SOL     OW22873   3.882   6.779   0.404
 7325SOL    HW122874   3.824   6.746   0.329
 7325SOL    HW222875   3.893   6.878   0.397
 7326SOL     OW22876   3.001   6.800   5.630
 7326SOL    HW122877   2.992   6.854   5.713
 7326SOL    HW222878   3.084   6.826   5.582
 7327SOL     OW22879   6.741   2.735   5.155
 7327SOL    HW122880   6.697   2.701   5.072
 7327SOL    HW222881   6.737   2.834   5.157
 7328SOL     OW22882   3.839   0.803   5.995
 7328SOL    HW122883   3.896   0.753   6.060
 7328SOL    HW222884   3.871   0.897   5.987
 7329SOL     OW22885   4.474   4.004   1.455
 7329SOL    HW122886   4.397   3.941   1.454
 7329SOL    HW222887   4.521   3.999   1.543
 7330SOL     OW22888   2.875   2.348   0.051
 7330SOL    HW122889   2.910   2.436   0.019
 7330SOL    HW222890   2.775   2.351   0.054
 7331SOL     OW22891   5.661   0.153   1.919
 7331SOL    HW122892   5.651   0.099   1.836
 7331SOL    HW222893   5.588   0.222   1.924
 7332SOL     OW22894   1.981   6.107   0.168
 7332SOL    HW122895   1.925   6.095   0.250
 7332SOL    HW222896   2.017   6.018   0.139
 7333SOL     OW22897   6.973   3.367   3.968
 7333SOL    HW122898   6.883   3.373   4.012
 7333SOL    HW222899   0.020   3.405   4.029
 7334SOL     OW22900   3.865   6.390   0.254
 7334SOL    HW122901   3.930   6.343   0.314
 7334SOL    HW222902   3.793   6.326   0.228
 7335SOL     OW22903   2.013   2.936   2.556
 7335SOL    HW122904   2.032   2.867   2.625
 7335SOL    HW222905   2.094   2.951   2.499
 7336SOL     OW22906   1.569   6.230   2.982
 7336SOL    HW122907   1.481   6.213   3.026
 7336SOL    HW222908   1.643   6.201   3.043
 7337SOL     OW22909   0.683   2.939   2.117
 7337SOL    HW122910   0.689   3.037   2.098
 7337SOL    HW222911   0.632   2.925   2.202
 7338SOL     OW22912   6.154   2.759   1.165
 7338SOL    HW122913   6.198   2.669   1.175
 7338SOL    HW222914   6.091   2.774   1.241
 7339SOL     OW22915   5.065   6.496   3.727
 7339SOL    HW122916   5.000   6.428   3.694
 7339SOL    HW222917   5.091   6.474   3.821
 7340SOL     OW22918   1.474   0.787   0.673
 7340SOL    HW122919   1.421   0.810   0.592
 7340SOL    HW222920   1.520   0.699   0.658
 7341SOL     OW22921   6.750   2.914   6.773
 7341SOL    HW122922   6.797   2.842   6.721
 7341SOL    HW222923   6.723   2.987   6.711
 7342SOL     OW22924   6.489   1.466   1.678
 7342SOL    HW122925   6.556   1.453   1.605
 7342SOL    HW222926   6.417   1.527   1.646
 7343SOL     OW22927   4.538   2.795   0.048
 7343SOL    HW122928   4.622   2.813   7.020
 7343SOL    HW222929   4.465   2.856   0.015
 7344SOL     OW22930   1.380   6.496   6.177
 7344SOL    HW122931   1.419   6.404   6.165
 7344SOL    HW222932   1.294   6.503   6.127
 7345SOL     OW22933   3.776   3.341   5.812
 7345SOL    HW122934   3.712   3.295   5.750
 7345SOL    HW222935   3.773   3.439   5.796
 7346SOL     OW22936   3.892   5.604   2.633
 7346SOL    HW122937   3.925   5.650   2.550
 7346SOL    HW222938   3.894   5.505   2.619
 7347SOL     OW22939   0.846   1.892   0.566
 7347SOL    HW122940   0.848   1.903   0.467
 7347SOL    HW222941   0.751   1.885   0.596
 7348SOL     OW22942   1.371   3.471   3.845
 7348SOL    HW122943   1.353   3.437   3.752
 7348SOL    HW222944   1.293   3.449   3.904
 7349SOL     OW22945   4.439   0.161   2.008
 7349SOL    HW122946   4.352   0.128   1.972
 7349SOL    HW222947   4.505   0.086   2.010
 7350SOL     OW22948   2.686   1.824   5.502
 7350SOL    HW122949   2.778   1.788   5.492
 7350SOL    HW222950   2.670   1.851   5.597
 7351SOL     OW22951   5.602   5.932   3.453
 7351SOL    HW122952   5.665   5.857   3.435
 7351SOL    HW222953   5.508   5.903   3.432
 7352SOL     OW22954   0.966   1.672   2.833
 7352SOL    HW122955   1.034   1.746   2.831
 7352SOL    HW222956   1.014   1.584   2.837
 7353SOL     OW22957   0.361   0.023   6.778
 7353SOL    HW122958   0.439   0.083   6.759
 7353SOL    HW222959   0.278   0.078   6.787
 7354SOL     OW22960   1.705   0.865   4.637
 7354SOL    HW122961   1.668   0.942   4.690
 7354SOL    HW222962   1.793   0.891   4.598
 7355SOL     OW22963   0.551   1.837   6.789
 7355SOL    HW122964   0.510   1.856   6.700
 7355SOL    HW222965   0.562   1.738   6.800
 7356SOL     OW22966   4.034   3.616   6.235
 7356SOL    HW122967   4.101   3.641   6.305
 7356SOL    HW222968   4.081   3.570   6.159
 7357SOL     OW22969   3.144   5.974   2.357
 7357SOL    HW122970   3.099   6.017   2.435
 7357SOL    HW222971   3.077   5.923   2.303
 7358SOL     OW22972   6.556   3.486   2.718
 7358SOL    HW122973   6.602   3.556   2.665
 7358SOL    HW222974   6.500   3.429   2.657
 7359SOL     OW22975   4.291   2.172   5.711
 7359SOL    HW122976   4.299   2.194   5.808
 7359SOL    HW222977   4.337   2.084   5.694
 7360SOL     OW22978   2.463   3.313   5.525
 7360SOL    HW122979   2.454   3.282   5.620
 7360SOL    HW222980   2.531   3.257   5.478
 7361SOL     OW22981   5.699   1.049   2.699
 7361SOL    HW122982   5.600   1.061   2.703
 7361SOL    HW222983   5.727   0.982   2.769
 7362SOL     OW22984   2.990   5.769   6.047
 7362SOL    HW122985   2.898   5.776   6.086
 7362SOL    HW222986   2.998   5.834   5.971
 7363SOL     OW22987   4.656   1.125   1.506
 7363SOL    HW122988   4.747   1.101   1.473
 7363SOL    HW222989   4.619   1.199   1.451
 7364SOL     OW22990   4.506   0.338   1.789
 7364SOL    HW122991   4.487   0.292   1.877
 7364SOL    HW222992   4.423   0.382   1.756
 7365SOL     OW22993   0.403   6.100   2.306
 7365SOL    HW122994   0.362   6.026   2.359
 7365SOL    HW222995   0.476   6.064   2.248
 7366SOL     OW22996   2.519   6.507   5.505
 7366SOL    HW122997   2.583   6.583   5.515
 7366SOL    HW222998   2.513   6.480   5.409
 7367SOL     OW22999   3.808   2.498   0.440
 7367SOL    HW123000   3.890   2.464   0.394
 7367SOL    HW223001   3.829   2.515   0.537
 7368SOL     OW23002   3.578   2.957   3.095
 7368SOL    HW123003   3.637   2.983   3.171
 7368SOL    HW223004   3.494   3.011   3.097
 7369SOL     OW23005   3.657   2.830   1.083
 7369SOL    HW123006   3.682   2.870   0.995
 7369SOL    HW223007   3.589   2.888   1.128
 7370SOL     OW23008   2.801   2.164   5.882
 7370SOL    HW123009   2.788   2.232   5.809
 7370SOL    HW223010   2.824   2.076   5.841
 7371SOL     OW23011   3.142   6.718   3.786
 7371SOL    HW123012   3.070   6.756   3.728
 7371SOL    HW223013   3.130   6.619   3.793
 7372SOL     OW23014   4.275   6.777   4.880
 7372SOL    HW123015   4.318   6.863   4.909
 7372SOL    HW223016   4.328   6.737   4.806
 7373SOL     OW23017   5.783   1.941   4.956
 7373SOL    HW123018   5.798   1.974   5.049
 7373SOL    HW223019   5.871   1.920   4.914
 7374SOL     OW23020   1.644   2.163   4.790
 7374SOL    HW123021   1.677   2.181   4.697
 7374SOL    HW223022   1.706   2.206   4.855
 7375SOL     OW23023   2.308   2.623   1.955
 7375SOL    HW123024   2.269   2.596   1.867
 7375SOL    HW223025   2.356   2.546   1.996
 7376SOL     OW23026   1.077   3.075   1.269
 7376SOL    HW123027   1.081   3.157   1.211
 7376SOL    HW223028   1.060   3.102   1.364
 7377SOL     OW23029   3.954   5.042   0.987
 7377SOL    HW123030   3.950   5.044   1.087
 7377SOL    HW223031   3.987   5.130   0.953
 7378SOL     OW23032   1.580   6.759   4.871
 7378SOL    HW123033   1.615   6.764   4.965
 7378SOL    HW223034   1.639   6.698   4.817
 7379SOL     OW23035   2.779   0.766   1.964
 7379SOL    HW123036   2.846   0.763   1.889
 7379SOL    HW223037   2.781   0.857   2.006
 7380SOL     OW23038   6.491   4.199   3.599
 7380SOL    HW123039   6.496   4.237   3.692
 7380SOL    HW223040   6.561   4.128   3.589
 7381SOL     OW23041   4.216   2.799   0.616
 7381SOL    HW123042   4.238   2.896   0.622
 7381SOL    HW223043   4.245   2.764   0.526
 7382SOL     OW23044   6.831   2.203   5.992
 7382SOL    HW123045   6.844   2.114   5.948
 7382SOL    HW223046   6.773   2.192   6.073
 7383SOL     OW23047   1.877   5.855   1.776
 7383SOL    HW123048   1.875   5.756   1.760
 7383SOL    HW223049   1.789   5.894   1.748
 7384SOL     OW23050   6.584   0.105   1.568
 7384SOL    HW123051   6.559   0.129   1.662
 7384SOL    HW223052   6.513   0.134   1.505
 7385SOL     OW23053   2.625   5.239   2.545
 7385SOL    HW123054   2.658   5.183   2.621
 7385SOL    HW223055   2.598   5.329   2.579
 7386SOL     OW23056   6.439   3.141   6.688
 7386SOL    HW123057   6.345   3.124   6.658
 7386SOL    HW223058   6.448   3.113   6.784
 7387SOL     OW23059   6.733   5.500   5.754
 7387SOL    HW123060   6.685   5.538   5.833
 7387SOL    HW223061   6.798   5.567   5.718
 7388SOL     OW23062   1.335   5.101   2.331
 7388SOL    HW123063   1.243   5.078   2.298
 7388SOL    HW223064   1.388   5.017   2.340
 7389SOL     OW23065   6.886   3.658   0.661
 7389SOL    HW123066   6.916   3.562   0.655
 7389SOL    HW223067   6.963   3.714   0.691
 7390SOL     OW23068   2.684   1.883   2.307
 7390SOL    HW123069   2.616   1.830   2.256
 7390SOL    HW223070   2.753   1.918   2.245
 7391SOL     OW23071   4.077   3.623   2.783
 7391SOL    HW123072   4.013   3.584   2.848
 7391SOL    HW223073   4.101   3.716   2.811
 7392SOL     OW23074   3.444   6.233   0.092
 7392SOL    HW123075   3.357   6.277   0.115
 7392SOL    HW223076   3.477   6.270   0.004
 7393SOL     OW23077   6.134   4.592   3.624
 7393SOL    HW123078   6.157   4.688   3.640
 7393SOL    HW223079   6.154   4.539   3.707
 7394SOL     OW23080   1.941   3.061   6.251
 7394SOL    HW123081   1.886   2.980   6.273
 7394SOL    HW223082   2.009   3.075   6.323
 7395SOL     OW23083   2.161   3.058   1.558
 7395SOL    HW123084   2.145   3.099   1.648
 7395SOL    HW223085   2.258   3.060   1.536
 7396SOL     OW23086   2.286   6.347   1.895
 7396SOL    HW123087   2.195   6.306   1.898
 7396SOL    HW223088   2.355   6.276   1.910
 7397SOL     OW23089   4.925   3.279   4.373
 7397SOL    HW123090   4.908   3.185   4.345
 7397SOL    HW223091   4.861   3.305   4.445
 7398SOL     OW23092   1.241   4.807   3.082
 7398SOL    HW123093   1.215   4.815   3.178
 7398SOL    HW223094   1.334   4.772   3.075
 7399SOL     OW23095   6.659   2.840   4.747
 7399SOL    HW123096   6.716   2.922   4.734
 7399SOL    HW223097   6.629   2.806   4.658
 7400SOL     OW23098   5.135   2.020   5.484
 7400SOL    HW123099   5.180   1.966   5.556
 7400SOL    HW223100   5.133   1.967   5.399
 7401SOL     OW23101   1.916   2.468   3.365
 7401SOL    HW123102   1.855   2.430   3.295
 7401SOL    HW223103   1.921   2.567   3.355
 7402SOL     OW23104   2.766   5.035   5.835
 7402SOL    HW123105   2.688   5.017   5.774
 7402SOL    HW223106   2.814   4.949   5.852
 7403SOL     OW23107   1.903   3.053   2.863
 7403SOL    HW123108   1.954   3.023   2.944
 7403SOL    HW223109   1.908   2.983   2.792
 7404SOL     OW23110   3.129   3.801   1.700
 7404SOL    HW123111   3.149   3.825   1.795
 7404SOL    HW223112   3.214   3.773   1.654
 7405SOL     OW23113   3.034   5.361   5.106
 7405SOL    HW123114   3.015   5.271   5.144
 7405SOL    HW223115   3.125   5.361   5.063
 7406SOL     OW23116   0.897   1.570   5.362
 7406SOL    HW123117   0.988   1.611   5.357
 7406SOL    HW223118   0.896   1.487   5.306
 7407SOL     OW23119   1.044   6.215   6.708
 7407SOL    HW123120   0.990   6.266   6.641
 7407SOL    HW223121   1.141   6.222   6.684
 7408SOL     OW23122   3.469   4.283   5.497
 7408SOL    HW123123   3.376   4.282   5.534
 7408SOL    HW223124   3.524   4.214   5.545
 7409SOL     OW23125   5.284   4.317   0.036
 7409SOL    HW123126   5.357   4.269   0.085
 7409SOL    HW223127   5.297   4.305   6.960
 7410SOL     OW23128   0.365   0.395   0.450
 7410SOL    HW123129   0.370   0.373   0.547
 7410SOL    HW223130   0.450   0.368   0.405
 7411SOL     OW23131   1.519   1.229   6.032
 7411SOL    HW123132   1.610   1.195   6.055
 7411SOL    HW223133   1.486   1.184   5.949
 7412SOL     OW23134   3.953   6.709   0.673
 7412SOL    HW123135   3.956   6.763   0.588
 7412SOL    HW223136   3.901   6.625   0.657
 7413SOL     OW23137   4.607   4.297   3.329
 7413SOL    HW123138   4.554   4.300   3.414
 7413SOL    HW223139   4.553   4.334   3.254
 7414SOL     OW23140   2.286   1.910   4.350
 7414SOL    HW123141   2.360   1.924   4.417
 7414SOL    HW223142   2.214   1.853   4.390
 7415SOL     OW23143   3.237   6.211   6.383
 7415SOL    HW123144   3.299   6.158   6.324
 7415SOL    HW223145   3.183   6.148   6.439
 7416SOL     OW23146   1.696   1.592   2.516
 7416SOL    HW123147   1.704   1.692   2.521
 7416SOL    HW223148   1.640   1.560   2.593
 7417SOL     OW23149   1.731   2.219   2.344
 7417SOL    HW123150   1.787   2.297   2.373
 7417SOL    HW223151   1.736   2.147   2.412
 7418SOL     OW23152   1.745   4.727   0.169
 7418SOL    HW123153   1.674   4.695   0.232
 7418SOL    HW223154   1.708   4.728   0.076
 7419SOL     OW23155   6.342   3.612   3.880
 7419SOL    HW123156   6.278   3.538   3.901
 7419SOL    HW223157   6.363   3.611   3.782
 7420SOL     OW23158   6.675   5.895   1.838
 7420SOL    HW123159   6.720   5.814   1.800
 7420SOL    HW223160   6.578   5.893   1.816
 7421SOL     OW23161   4.224   3.906   1.510
 7421SOL    HW123162   4.160   3.899   1.434
 7421SOL    HW223163   4.176   3.937   1.592
 7422SOL     OW23164   6.329   3.813   2.250
 7422SOL    HW123165   6.267   3.752   2.203
 7422SOL    HW223166   6.328   3.903   2.206
 7423SOL     OW23167   5.589   2.177   5.157
 7423SOL    HW123168   5.675   2.129   5.176
 7423SOL    HW223169   5.521   2.111   5.126
 7424SOL     OW23170   6.567   1.664   5.416
 7424SOL    HW123171   6.608   1.726   5.483
 7424SOL    HW223172   6.499   1.714   5.361
 7425SOL     OW23173   5.464   0.170   0.281
 7425SOL    HW123174   5.426   0.082   0.252
 7425SOL    HW223175   5.479   0.227   0.200
 7426SOL     OW23176   3.415   2.259   5.564
 7426SOL    HW123177   3.439   2.169   5.601
 7426SOL    HW223178   3.408   2.253   5.464
 7427SOL     OW23179   3.783   1.301   3.661
 7427SOL    HW123180   3.798   1.338   3.753
 7427SOL    HW223181   3.847   1.227   3.643
 7428SOL     OW23182   4.411   6.871   5.637
 7428SOL    HW123183   4.462   6.796   5.677
 7428SOL    HW223184   4.320   6.877   5.679
 7429SOL     OW23185   1.096   6.647   3.415
 7429SOL    HW123186   1.133   6.556   3.432
 7429SOL    HW223187   1.036   6.644   3.335
 7430SOL     OW23188   6.859   4.354   1.914
 7430SOL    HW123189   6.938   4.360   1.853
 7430SOL    HW223190   6.807   4.439   1.908
 7431SOL     OW23191   2.060   2.062   3.870
 7431SOL    HW123192   2.101   2.020   3.951
 7431SOL    HW223193   2.133   2.092   3.809
 7432SOL     OW23194   1.932   0.488   3.483
 7432SOL    HW123195   1.967   0.567   3.433
 7432SOL    HW223196   1.994   0.410   3.471
 7433SOL     OW23197   3.320   6.733   6.721
 7433SOL    HW123198   3.224   6.759   6.724
 7433SOL    HW223199   3.375   6.813   6.696
 7434SOL     OW23200   4.875   6.170   5.707
 7434SOL    HW123201   4.831   6.094   5.660
 7434SOL    HW223202   4.823   6.254   5.691
 7435SOL     OW23203   4.545   5.887   1.904
 7435SOL    HW123204   4.453   5.867   1.870
 7435SOL    HW223205   4.603   5.914   1.827
 7436SOL     OW23206   4.526   4.389   6.294
 7436SOL    HW123207   4.606   4.375   6.236
 7436SOL    HW223208   4.475   4.469   6.261
 7437SOL     OW23209   2.958   5.942   1.515
 7437SOL    HW123210   2.982   5.853   1.476
 7437SOL    HW223211   2.913   5.929   1.603
 7438SOL     OW23212   1.831   0.677   0.521
 7438SOL    HW123213   1.788   0.744   0.582
 7438SOL    HW223214   1.761   0.633   0.465
 7439SOL     OW23215   1.642   5.322   5.396
 7439SOL    HW123216   1.575   5.377   5.346
 7439SOL    HW223217   1.623   5.225   5.381
 7440SOL     OW23218   6.119   3.167   3.948
 7440SOL    HW123219   6.133   3.092   3.883
 7440SOL    HW223220   6.024   3.198   3.943
 7441SOL     OW23221   5.819   6.573   3.728
 7441SOL    HW123222   5.876   6.617   3.797
 7441SOL    HW223223   5.764   6.501   3.770
 7442SOL     OW23224   5.988   0.843   6.093
 7442SOL    HW123225   5.988   0.780   6.016
 7442SOL    HW223226   5.985   0.792   6.179
 7443SOL     OW23227   6.735   5.649   1.754
 7443SOL    HW123228   6.831   5.619   1.756
 7443SOL    HW223229   6.681   5.594   1.816
 7444SOL     OW23230   6.391   1.259   6.264
 7444SOL    HW123231   6.373   1.318   6.185
 7444SOL    HW223232   6.467   1.297   6.317
 7445SOL     OW23233   3.652   6.922   1.254
 7445SOL    HW123234   3.696   6.989   1.195
 7445SOL    HW223235   3.594   6.969   1.321
 7446SOL     OW23236   5.211   2.840   0.343
 7446SOL    HW123237   5.144   2.908   0.312
 7446SOL    HW223238   5.197   2.821   0.440
 7447SOL     OW23239   6.592   4.477   6.506
 7447SOL    HW123240   6.603   4.405   6.575
 7447SOL    HW223241   6.501   4.470   6.466
 7448SOL     OW23242   5.553   6.349   5.912
 7448SOL    HW123243   5.510   6.438   5.929
 7448SOL    HW223244   5.501   6.278   5.957
 7449SOL     OW23245   0.443   5.371   0.457
 7449SOL    HW123246   0.535   5.341   0.482
 7449SOL    HW223247   0.418   5.333   0.368
 7450SOL     OW23248   5.268   2.233   5.565
 7450SOL    HW123249   5.251   2.262   5.660
 7450SOL    HW223250   5.213   2.152   5.545
 7451SOL     OW23251   5.540   5.542   2.445
 7451SOL    HW123252   5.472   5.477   2.477
 7451SOL    HW223253   5.567   5.602   2.521
 7452SOL     OW23254   6.223   6.111   4.291
 7452SOL    HW123255   6.236   6.160   4.205
 7452SOL    HW223256   6.127   6.087   4.302
 7453SOL     OW23257   4.970   5.646   6.289
 7453SOL    HW123258   4.984   5.744   6.304
 7453SOL    HW223259   4.872   5.628   6.276
 7454SOL     OW23260   3.371   1.738   0.539
 7454SOL    HW123261   3.369   1.794   0.456
 7454SOL    HW223262   3.277   1.713   0.565
 7455SOL     OW23263   6.333   3.099   2.679
 7455SOL    HW123264   6.337   3.195   2.709
 7455SOL    HW223265   6.309   3.096   2.582
 7456SOL     OW23266   2.598   1.913   5.253
 7456SOL    HW123267   2.652   1.901   5.336
 7456SOL    HW223268   2.564   1.824   5.222
 7457SOL     OW23269   2.547   0.072   3.904
 7457SOL    HW123270   2.621   0.070   3.971
 7457SOL    HW223271   2.516   7.001   3.885
 7458SOL     OW23272   1.101   0.270   5.511
 7458SOL    HW123273   1.044   0.321   5.446
 7458SOL    HW223274   1.054   0.265   5.599
 7459SOL     OW23275   6.115   1.280   2.387
 7459SOL    HW123276   6.165   1.299   2.471
 7459SOL    HW223277   6.166   1.316   2.309
 7460SOL     OW23278   1.579   6.348   0.103
 7460SOL    HW123279   1.550   6.362   0.198
 7460SOL    HW223280   1.585   6.436   0.057
 7461SOL     OW23281   6.587   6.367   5.248
 7461SOL    HW123282   6.503   6.365   5.302
 7461SOL    HW223283   6.598   6.281   5.199
 7462SOL     OW23284   1.050   5.600   1.022
 7462SOL    HW123285   1.058   5.653   0.937
 7462SOL    HW223286   1.060   5.661   1.100
 7463SOL     OW23287   3.262   4.664   0.521
 7463SOL    HW123288   3.249   4.723   0.441
 7463SOL    HW223289   3.174   4.650   0.566
 7464SOL     OW23290   0.229   5.831   4.830
 7464SOL    HW123291   0.134   5.840   4.861
 7464SOL    HW223292   0.245   5.737   4.799
 7465SOL     OW23293   2.769   5.344   0.265
 7465SOL    HW123294   2.754   5.339   0.166
 7465SOL    HW223295   2.702   5.408   0.305
 7466SOL     OW23296   0.520   0.661   5.978
 7466SOL    HW123297   0.557   0.677   6.070
 7466SOL    HW223298   0.589   0.614   5.922
 7467SOL     OW23299   0.551   2.405   6.016
 7467SOL    HW123300   0.565   2.444   6.106
 7467SOL    HW223301   0.602   2.457   5.948
 7468SOL     OW23302   5.334   2.759   4.044
 7468SOL    HW123303   5.245   2.776   4.086
 7468SOL    HW223304   5.402   2.742   4.115
 7469SOL     OW23305   6.419   2.135   0.125
 7469SOL    HW123306   6.355   2.194   0.076
 7469SOL    HW223307   6.437   2.173   0.216
 7470SOL     OW23308   5.559   4.306   3.893
 7470SOL    HW123309   5.618   4.232   3.927
 7470SOL    HW223310   5.475   4.310   3.947
 7471SOL     OW23311   5.221   5.899   6.054
 7471SOL    HW123312   5.194   5.813   6.012
 7471SOL    HW223313   5.255   5.882   6.147
 7472SOL     OW23314   6.529   0.827   5.702
 7472SOL    HW123315   6.443   0.864   5.737
 7472SOL    HW223316   6.605   0.863   5.755
 7473SOL     OW23317   4.683   0.096   3.859
 7473SOL    HW123318   4.606   0.159   3.849
 7473SOL    HW223319   4.655   0.018   3.915
 7474SOL     OW23320   6.452   2.687   7.015
 7474SOL    HW123321   6.421   2.682   0.087
 7474SOL    HW223322   6.552   2.695   7.013
 7475SOL     OW23323   4.330   2.288   2.305
 7475SOL    HW123324   4.268   2.267   2.229
 7475SOL    HW223325   4.277   2.297   2.390
 7476SOL     OW23326   2.361   2.184   2.798
 7476SOL    HW123327   2.455   2.169   2.767
 7476SOL    HW223328   2.362   2.224   2.889
 7477SOL     OW23329   0.498   3.098   4.583
 7477SOL    HW123330   0.476   3.031   4.654
 7477SOL    HW223331   0.581   3.070   4.536
 7478SOL     OW23332   5.515   3.233   5.061
 7478SOL    HW123333   5.446   3.174   5.019
 7478SOL    HW223334   5.584   3.177   5.105
 7479SOL     OW23335   5.597   3.291   0.385
 7479SOL    HW123336   5.526   3.361   0.375
 7479SOL    HW223337   5.564   3.204   0.349
 7480SOL     OW23338   2.097   5.266   2.496
 7480SOL    HW123339   2.154   5.221   2.564
 7480SOL    HW223340   2.047   5.198   2.442
 7481SOL     OW23341   6.071   4.609   6.831
 7481SOL    HW123342   6.132   4.638   6.905
 7481SOL    HW223343   6.038   4.689   6.782
 7482SOL     OW23344   4.297   2.204   2.689
 7482SOL    HW123345   4.315   2.301   2.669
 7482SOL    HW223346   4.375   2.167   2.741
 7483SOL     OW23347   4.532   2.244   4.532
 7483SOL    HW123348   4.458   2.295   4.489
 7483SOL    HW223349   4.619   2.272   4.492
 7484SOL     OW23350   2.270   5.584   4.633
 7484SOL    HW123351   2.258   5.485   4.631
 7484SOL    HW223352   2.319   5.613   4.551
 7485SOL     OW23353   2.788   0.060   3.645
 7485SOL    HW123354   2.833   0.104   3.568
 7485SOL    HW223355   2.823   0.098   3.731
 7486SOL     OW23356   0.819   5.992   0.187
 7486SOL    HW123357   0.887   5.966   0.119
 7486SOL    HW223358   0.745   6.043   0.142
 7487SOL     OW23359   4.663   0.925   2.811
 7487SOL    HW123360   4.582   0.875   2.782
 7487SOL    HW223361   4.699   0.978   2.734
 7488SOL     OW23362   1.488   6.365   4.163
 7488SOL    HW123363   1.427   6.364   4.242
 7488SOL    HW223364   1.436   6.348   4.080
 7489SOL     OW23365   6.509   3.862   6.961
 7489SOL    HW123366   6.473   3.832   0.027
 7489SOL    HW223367   6.606   3.842   6.956
 7490SOL     OW23368   1.481   1.980   2.284
 7490SOL    HW123369   1.382   1.973   2.300
 7490SOL    HW223370   1.505   1.925   2.204
 7491SOL     OW23371   4.697   2.698   0.494
 7491SOL    HW123372   4.742   2.788   0.490
 7491SOL    HW223373   4.614   2.705   0.548
 7492SOL     OW23374   1.679   1.186   4.019
 7492SOL    HW123375   1.763   1.138   4.044
 7492SOL    HW223376   1.652   1.161   3.926
 7493SOL     OW23377   6.587   3.617   5.641
 7493SOL    HW123378   6.525   3.622   5.562
 7493SOL    HW223379   6.619   3.522   5.652
 7494SOL     OW23380   5.652   1.026   3.918
 7494SOL    HW123381   5.578   1.016   3.853
 7494SOL    HW223382   5.637   0.965   3.996
 7495SOL     OW23383   2.206   2.907   4.631
 7495SOL    HW123384   2.258   2.826   4.658
 7495SOL    HW223385   2.218   2.979   4.700
 7496SOL     OW23386   6.160   3.015   3.718
 7496SOL    HW123387   6.092   3.032   3.647
 7496SOL    HW223388   6.224   2.945   3.686
 7497SOL     OW23389   1.432   6.185   1.422
 7497SOL    HW123390   1.497   6.134   1.366
 7497SOL    HW223391   1.475   6.269   1.456
 7498SOL     OW23392   2.701   0.726   3.554
 7498SOL    HW123393   2.791   0.769   3.567
 7498SOL    HW223394   2.686   0.658   3.626
 7499SOL     OW23395   4.562   1.571   3.509
 7499SOL    HW123396   4.611   1.658   3.504
 7499SOL    HW223397   4.536   1.542   3.417
 7500SOL     OW23398   3.771   6.382   3.847
 7500SOL    HW123399   3.677   6.351   3.859
 7500SOL    HW223400   3.773   6.457   3.781
 7501SOL     OW23401   5.937   2.912   4.098
 7501SOL    HW123402   5.866   2.903   4.027
 7501SOL    HW223403   5.992   2.994   4.080
 7502SOL     OW23404   3.697   0.208   4.045
 7502SOL    HW123405   3.674   0.130   4.103
 7502SOL    HW223406   3.614   0.242   4.000
 7503SOL     OW23407   1.739   6.224   0.678
 7503SOL    HW123408   1.667   6.181   0.622
 7503SOL    HW223409   1.746   6.321   0.655
 7504SOL     OW23410   0.466   6.359   2.213
 7504SOL    HW123411   0.444   6.270   2.254
 7504SOL    HW223412   0.562   6.380   2.231
 7505SOL     OW23413   0.351   1.613   5.664
 7505SOL    HW123414   0.427   1.547   5.668
 7505SOL    HW223415   0.268   1.570   5.700
 7506SOL     OW23416   3.473   2.153   3.308
 7506SOL    HW123417   3.488   2.080   3.241
 7506SOL    HW223418   3.426   2.229   3.263
 7507SOL     OW23419   6.301   3.657   4.543
 7507SOL    HW123420   6.263   3.745   4.514
 7507SOL    HW223421   6.353   3.617   4.467
 7508SOL     OW23422   1.794   5.885   0.289
 7508SOL    HW123423   1.820   5.799   0.333
 7508SOL    HW223424   1.758   5.866   0.198
 7509SOL     OW23425   5.274   4.035   0.342
 7509SOL    HW123426   5.223   3.976   0.405
 7509SOL    HW223427   5.230   4.034   0.252
 7510SOL     OW23428   4.135   3.447   3.797
 7510SOL    HW123429   4.114   3.356   3.833
 7510SOL    HW223430   4.193   3.496   3.862
 7511SOL     OW23431   3.010   5.841   3.171
 7511SOL    HW123432   3.047   5.906   3.236
 7511SOL    HW223433   2.954   5.889   3.103
 7512SOL     OW23434   2.856   1.002   6.453
 7512SOL    HW123435   2.775   1.005   6.394
 7512SOL    HW223436   2.885   0.907   6.465
 7513SOL     OW23437   1.898   2.065   3.334
 7513SOL    HW123438   1.823   1.998   3.334
 7513SOL    HW223439   1.890   2.123   3.415
 7514SOL     OW23440   1.428   4.402   3.668
 7514SOL    HW123441   1.417   4.375   3.572
 7514SOL    HW223442   1.348   4.371   3.720
 7515SOL     OW23443   6.553   4.309   5.223
 7515SOL    HW123444   6.513   4.392   5.263
 7515SOL    HW223445   6.508   4.228   5.260
 7516SOL     OW23446   1.579   5.374   6.161
 7516SOL    HW123447   1.618   5.295   6.113
 7516SOL    HW223448   1.501   5.409   6.109
 7517SOL     OW23449   1.681   2.804   6.758
 7517SOL    HW123450   1.599   2.820   6.813
 7517SOL    HW223451   1.675   2.714   6.715
 7518SOL     OW23452   4.863   2.872   3.846
 7518SOL    HW123453   4.829   2.808   3.777
 7518SOL    HW223454   4.789   2.933   3.874
 7519SOL     OW23455   5.138   0.298   4.610
 7519SOL    HW123456   5.177   0.210   4.583
 7519SOL    HW223457   5.184   0.372   4.562
 7520SOL     OW23458   1.255   1.485   2.384
 7520SOL    HW123459   1.222   1.579   2.377
 7520SOL    HW223460   1.192   1.431   2.441
 7521SOL     OW23461   4.665   1.799   4.497
 7521SOL    HW123462   4.658   1.795   4.398
 7521SOL    HW223463   4.761   1.803   4.524
 7522SOL     OW23464   1.055   6.728   4.504
 7522SOL    HW123465   1.083   6.665   4.432
 7522SOL    HW223466   1.117   6.806   4.506
 7523SOL     OW23467   5.075   0.747   6.128
 7523SOL    HW123468   5.144   0.731   6.058
 7523SOL    HW223469   5.111   0.718   6.217
 7524SOL     OW23470   6.797   2.581   4.682
 7524SOL    HW123471   6.755   2.637   4.611
 7524SOL    HW223472   6.737   2.505   4.704
 7525SOL     OW23473   4.127   6.795   0.018
 7525SOL    HW123474   4.149   6.726   0.086
 7525SOL    HW223475   4.029   6.792   7.019
 7526SOL     OW23476   2.171   3.196   1.793
 7526SOL    HW123477   2.214   3.280   1.828
 7526SOL    HW223478   2.152   3.134   1.869
 7527SOL     OW23479   3.492   5.723   3.946
 7527SOL    HW123480   3.534   5.784   4.012
 7527SOL    HW223481   3.397   5.750   3.931
 7528SOL     OW23482   5.318   1.660   7.016
 7528SOL    HW123483   5.282   1.578   6.972
 7528SOL    HW223484   5.405   1.639   0.038
 7529SOL     OW23485   5.708   1.718   3.221
 7529SOL    HW123486   5.755   1.734   3.308
 7529SOL    HW223487   5.773   1.722   3.146
 7530SOL     OW23488   6.844   1.472   2.227
 7530SOL    HW123489   6.749   1.455   2.254
 7530SOL    HW223490   6.852   1.469   2.128
 7531SOL     OW23491   4.787   2.717   3.240
 7531SOL    HW123492   4.719   2.649   3.267
 7531SOL    HW223493   4.872   2.670   3.214
 7532SOL     OW23494   4.564   5.868   6.624
 7532SOL    HW123495   4.663   5.883   6.626
 7532SOL    HW223496   4.535   5.844   6.531
 7533SOL     OW23497   4.379   2.789   1.675
 7533SOL    HW123498   4.464   2.744   1.646
 7533SOL    HW223499   4.396   2.886   1.692
 7534SOL     OW23500   5.034   6.953   4.504
 7534SOL    HW123501   5.001   6.944   4.598
 7534SOL    HW223502   5.106   7.022   4.501
 7535SOL     OW23503   1.471   6.357   5.001
 7535SOL    HW123504   1.565   6.370   4.968
 7535SOL    HW223505   1.426   6.446   5.010
 7536SOL     OW23506   5.259   6.138   4.039
 7536SOL    HW123507   5.186   6.083   4.079
 7536SOL    HW223508   5.326   6.078   3.995
 7537SOL     OW23509   1.621   5.356   1.967
 7537SOL    HW123510   1.716   5.326   1.981
 7537SOL    HW223511   1.561   5.303   2.026
 7538SOL     OW23512   1.209   2.702   1.417
 7538SOL    HW123513   1.274   2.663   1.483
 7538SOL    HW223514   1.254   2.775   1.366
 7539SOL     OW23515   1.583   5.123   3.380
 7539SOL    HW123516   1.621   5.056   3.445
 7539SOL    HW223517   1.554   5.077   3.297
 7540SOL     OW23518   5.296   6.011   4.512
 7540SOL    HW123519   5.253   5.936   4.462
 7540SOL    HW223520   5.228   6.081   4.533
 7541SOL     OW23521   0.448   4.112   6.627
 7541SOL    HW123522   0.399   4.160   6.554
 7541SOL    HW223523   0.386   4.093   6.703
 7542SOL     OW23524   6.618   5.682   5.511
 7542SOL    HW123525   6.592   5.586   5.507
 7542SOL    HW223526   6.619   5.720   5.419
 7543SOL     OW23527   2.730   0.319   4.947
 7543SOL    HW123528   2.769   0.395   4.897
 7543SOL    HW223529   2.792   0.241   4.944
 7544SOL     OW23530   0.224   2.389   4.073
 7544SOL    HW123531   0.182   2.304   4.041
 7544SOL    HW223532   0.237   2.384   4.172
 7545SOL     OW23533   0.484   5.778   6.256
 7545SOL    HW123534   0.386   5.775   6.234
 7545SOL    HW223535   0.517   5.872   6.248
 7546SOL     OW23536   4.501   2.502   1.920
 7546SOL    HW123537   4.502   2.405   1.894
 7546SOL    HW223538   4.450   2.554   1.851
 7547SOL     OW23539   4.829   0.658   1.596
 7547SOL    HW123540   4.877   0.578   1.632
 7547SOL    HW223541   4.738   0.631   1.564
 7548SOL     OW23542   4.428   1.884   0.041
 7548SOL    HW123543   4.357   1.817   0.065
 7548SOL    HW223544   4.508   1.835   0.005
 7549SOL     OW23545   3.640   2.499   6.289
 7549SOL    HW123546   3.711   2.430   6.279
 7549SOL    HW223547   3.676   2.578   6.340
 7550SOL     OW23548   1.806   4.222   3.791
 7550SOL    HW123549   1.805   4.216   3.691
 7550SOL    HW223550   1.832   4.134   3.830
 7551SOL     OW23551   5.173   2.768   5.319
 7551SOL    HW123552   5.216   2.684   5.352
 7551SOL    HW223553   5.081   2.747   5.285
 7552SOL     OW23554   1.673   5.936   4.791
 7552SOL    HW123555   1.707   6.008   4.731
 7552SOL    HW223556   1.624   5.977   4.868
 7553SOL     OW23557   6.205   6.001   6.004
 7553SOL    HW123558   6.281   6.066   5.998
 7553SOL    HW223559   6.142   6.017   5.928
 7554SOL     OW23560   5.472   1.138   0.596
 7554SOL    HW123561   5.512   1.073   0.531
 7554SOL    HW223562   5.537   1.212   0.615
 7555SOL     OW23563   3.071   6.417   6.259
 7555SOL    HW123564   3.028   6.461   6.338
 7555SOL    HW223565   3.149   6.363   6.289
 7556SOL     OW23566   1.371   1.344   0.470
 7556SOL    HW123567   1.392   1.290   0.388
 7556SOL    HW223568   1.435   1.422   0.475
 7557SOL     OW23569   4.910   0.290   0.260
 7557SOL    HW123570   4.934   0.382   0.291
 7557SOL    HW223571   4.993   0.235   0.251
 7558SOL     OW23572   1.620   2.441   3.544
 7558SOL    HW123573   1.707   2.459   3.499
 7558SOL    HW223574   1.553   2.511   3.519
 7559SOL     OW23575   3.812   2.128   5.427
 7559SOL    HW123576   3.908   2.110   5.447
 7559SOL    HW223577   3.794   2.226   5.436
 7560SOL     OW23578   6.098   0.010   0.206
 7560SOL    HW123579   6.085   0.028   0.108
 7560SOL    HW223580   6.191   0.033   0.232
 7561SOL     OW23581   5.203   2.973   5.721
 7561SOL    HW123582   5.175   3.066   5.697
 7561SOL    HW223583   5.287   2.977   5.776
 7562SOL     OW23584   1.113   4.794   4.907
 7562SOL    HW123585   1.096   4.855   4.829
 7562SOL    HW223586   1.134   4.702   4.872
 7563SOL     OW23587   2.947   6.419   2.516
 7563SOL    HW123588   2.978   6.487   2.450
 7563SOL    HW223589   2.979   6.329   2.489
 7564SOL     OW23590   4.647   0.551   5.000
 7564SOL    HW123591   4.632   0.531   5.096
 7564SOL    HW223592   4.744   0.541   4.978
 7565SOL     OW23593   6.044   4.082   6.231
 7565SOL    HW123594   6.080   4.162   6.279
 7565SOL    HW223595   6.116   4.013   6.223
 7566SOL     OW23596   5.569   4.829   2.587
 7566SOL    HW123597   5.668   4.819   2.601
 7566SOL    HW223598   5.541   4.773   2.509
 7567SOL     OW23599   1.061   1.666   4.643
 7567SOL    HW123600   1.072   1.598   4.571
 7567SOL    HW223601   1.008   1.626   4.718
 7568SOL     OW23602   5.914   5.571   2.448
 7568SOL    HW123603   5.869   5.486   2.476
 7568SOL    HW223604   5.910   5.637   2.523
 7569SOL     OW23605   3.844   4.863   6.529
 7569SOL    HW123606   3.863   4.811   6.613
 7569SOL    HW223607   3.806   4.952   6.553
 7570SOL     OW23608   0.174   2.761   3.427
 7570SOL    HW123609   0.240   2.787   3.498
 7570SOL    HW223610   0.082   2.760   3.467
 7571SOL     OW23611   5.439   3.107   3.023
 7571SOL    HW123612   5.532   3.070   3.021
 7571SOL    HW223613   5.392   3.084   2.938
 7572SOL     OW23614   4.727   6.678   3.091
 7572SOL    HW123615   4.814   6.689   3.138
 7572SOL    HW223616   4.743   6.647   2.997
 7573SOL     OW23617   6.001   0.458   5.888
 7573SOL    HW123618   6.075   0.442   5.821
 7573SOL    HW223619   5.919   0.410   5.858
 7574SOL     OW23620   5.772   1.458   3.974
 7574SOL    HW123621   5.811   1.373   3.938
 7574SOL    HW223622   5.694   1.486   3.918
 7575SOL     OW23623   6.065   6.501   0.946
 7575SOL    HW123624   6.156   6.539   0.964
 7575SOL    HW223625   5.995   6.567   0.976
 7576SOL     OW23626   4.866   2.668   0.991
 7576SOL    HW123627   4.790   2.694   1.050
 7576SOL    HW223628   4.904   2.580   1.022
 7577SOL     OW23629   6.941   6.553   0.408
 7577SOL    HW123630   6.912   6.466   0.368
 7577SOL    HW223631   7.010   6.595   0.348
 7578SOL     OW23632   0.609   5.438   2.373
 7578SOL    HW123633   0.635   5.406   2.464
 7578SOL    HW223634   0.671   5.399   2.305
 7579SOL     OW23635   6.736   1.780   1.510
 7579SOL    HW123636   6.712   1.877   1.507
 7579SOL    HW223637   6.709   1.742   1.599
 7580SOL     OW23638   1.706   4.386   3.277
 7580SOL    HW123639   1.670   4.473   3.311
 7580SOL    HW223640   1.733   4.396   3.182
 7581SOL     OW23641   0.848   1.457   1.098
 7581SOL    HW123642   0.829   1.548   1.134
 7581SOL    HW223643   0.945   1.436   1.109
 7582SOL     OW23644   4.670   1.638   3.875
 7582SOL    HW123645   4.765   1.659   3.854
 7582SOL    HW223646   4.632   1.710   3.934
 7583SOL     OW23647   5.178   3.587   3.486
 7583SOL    HW123648   5.094   3.568   3.435
 7583SOL    HW223649   5.248   3.621   3.424
 7584SOL     OW23650   0.612   6.944   2.631
 7584SOL    HW123651   0.689   6.967   2.691
 7584SOL    HW223652   0.532   6.922   2.686
 7585SOL     OW23653   0.973   1.970   6.745
 7585SOL    HW123654   1.003   1.966   6.840
 7585SOL    HW223655   1.052   1.981   6.685
 7586SOL     OW23656   1.222   0.576   2.054
 7586SOL    HW123657   1.208   0.545   2.148
 7586SOL    HW223658   1.166   0.657   2.037
 7587SOL     OW23659   3.341   1.163   0.408
 7587SOL    HW123660   3.280   1.095   0.448
 7587SOL    HW223661   3.436   1.137   0.425
 7588SOL     OW23662   1.483   2.561   4.260
 7588SOL    HW123663   1.391   2.596   4.245
 7588SOL    HW223664   1.543   2.636   4.291
 7589SOL     OW23665   0.307   1.187   3.077
 7589SOL    HW123666   0.244   1.132   3.131
 7589SOL    HW223667   0.256   1.251   3.019
 7590SOL     OW23668   6.463   1.766   6.843
 7590SOL    HW123669   6.525   1.746   6.919
 7590SOL    HW223670   6.387   1.822   6.875
 7591SOL     OW23671   4.813   2.615   6.751
 7591SOL    HW123672   4.765   2.629   6.664
 7591SOL    HW223673   4.782   2.529   6.792
 7592SOL     OW23674   6.142   4.505   4.774
 7592SOL    HW123675   6.198   4.483   4.853
 7592SOL    HW223676   6.182   4.584   4.727
 7593SOL     OW23677   6.492   2.286   6.127
 7593SOL    HW123678   6.544   2.205   6.155
 7593SOL    HW223679   6.504   2.358   6.195
 7594SOL     OW23680   0.427   4.636   1.101
 7594SOL    HW123681   0.403   4.540   1.117
 7594SOL    HW223682   0.515   4.656   1.144
 7595SOL     OW23683   6.549   3.024   6.335
 7595SOL    HW123684   6.609   2.966   6.279
 7595SOL    HW223685   6.587   3.032   6.427
 7596SOL     OW23686   3.120   0.299   5.063
 7596SOL    HW123687   3.152   0.206   5.044
 7596SOL    HW223688   3.096   0.307   5.160
 7597SOL     OW23689   2.193   5.984   2.591
 7597SOL    HW123690   2.230   5.952   2.678
 7597SOL    HW223691   2.254   6.052   2.552
 7598SOL     OW23692   5.974   0.286   2.813
 7598SOL    HW123693   6.006   0.309   2.721
 7598SOL    HW223694   5.890   0.232   2.807
 7599SOL     OW23695   4.524   3.631   1.296
 7599SOL    HW123696   4.475   3.572   1.233
 7599SOL    HW223697   4.485   3.621   1.388
 7600SOL     OW23698   1.494   1.015   3.565
 7600SOL    HW123699   1.566   1.047   3.626
 7600SOL    HW223700   1.431   1.089   3.545
 7601SOL     OW23701   3.365   5.425   1.951
 7601SOL    HW123702   3.318   5.473   1.877
 7601SOL    HW223703   3.332   5.330   1.955
 7602SOL     OW23704   0.555   2.645   0.036
 7602SOL    HW123705   0.459   2.651   0.008
 7602SOL    HW223706   0.611   2.703   6.999
 7603SOL     OW23707   2.427   7.015   5.836
 7603SOL    HW123708   2.462   6.956   5.909
 7603SOL    HW223709   2.441   6.971   5.747
 7604SOL     OW23710   1.513   2.229   5.063
 7604SOL    HW123711   1.502   2.149   5.121
 7604SOL    HW223712   1.483   2.208   4.970
 7605SOL     OW23713   1.334   0.365   0.363
 7605SOL    HW123714   1.315   0.277   0.407
 7605SOL    HW223715   1.249   0.416   0.353
 7606SOL     OW23716   5.826   2.049   4.521
 7606SOL    HW123717   5.793   2.127   4.574
 7606SOL    HW223718   5.799   1.964   4.567
 7607SOL     OW23719   3.520   6.051   0.417
 7607SOL    HW123720   3.425   6.071   0.393
 7607SOL    HW223721   3.549   5.967   0.371
 7608SOL     OW23722   5.544   2.682   6.492
 7608SOL    HW123723   5.609   2.614   6.526
 7608SOL    HW223724   5.594   2.753   6.442
 7609SOL     OW23725   0.404   3.420   4.008
 7609SOL    HW123726   0.490   3.423   3.958
 7609SOL    HW223727   0.334   3.375   3.952
 7610SOL     OW23728   3.619   5.337   6.880
 7610SOL    HW123729   3.607   5.397   6.801
 7610SOL    HW223730   3.558   5.259   6.872
 7611SOL     OW23731   4.866   3.425   1.356
 7611SOL    HW123732   4.856   3.393   1.450
 7611SOL    HW223733   4.921   3.359   1.305
 7612SOL     OW23734   3.670   2.078   2.923
 7612SOL    HW123735   3.708   2.006   2.982
 7612SOL    HW223736   3.579   2.103   2.955
 7613SOL     OW23737   1.128   2.316   2.031
 7613SOL    HW123738   1.204   2.260   1.999
 7613SOL    HW223739   1.160   2.410   2.046
 7614SOL     OW23740   4.932   3.345   0.796
 7614SOL    HW123741   4.849   3.295   0.820
 7614SOL    HW223742   4.971   3.386   0.879
 7615SOL     OW23743   5.580   3.704   5.595
 7615SOL    HW123744   5.589   3.612   5.558
 7615SOL    HW223745   5.540   3.699   5.687
 7616SOL     OW23746   5.952   6.884   3.417
 7616SOL    HW123747   6.042   6.873   3.459
 7616SOL    HW223748   5.960   6.940   3.335
 7617SOL     OW23749   5.238   4.791   3.138
 7617SOL    HW123750   5.287   4.865   3.093
 7617SOL    HW223751   5.159   4.828   3.187
 7618SOL     OW23752   1.704   2.786   0.130
 7618SOL    HW123753   1.710   2.872   0.181
 7618SOL    HW223754   1.790   2.769   0.082
 7619SOL     OW23755   0.209   2.681   4.126
 7619SOL    HW123756   0.228   2.585   4.147
 7619SOL    HW223757   0.116   2.690   4.092
 7620SOL     OW23758   3.497   4.483   0.223
 7620SOL    HW123759   3.590   4.446   0.221
 7620SOL    HW223760   3.445   4.446   0.146
 7621SOL     OW23761   0.409   5.939   0.913
 7621SOL    HW123762   0.461   5.905   0.835
 7621SOL    HW223763   0.319   5.970   0.882
 7622SOL     OW23764   4.297   4.273   0.165
 7622SOL    HW123765   4.209   4.281   0.118
 7622SOL    HW223766   4.331   4.179   0.156
 7623SOL     OW23767   4.278   4.543   1.439
 7623SOL    HW123768   4.366   4.566   1.480
 7623SOL    HW223769   4.222   4.495   1.506
 7624SOL     OW23770   0.326   2.662   2.511
 7624SOL    HW123771   0.381   2.649   2.593
 7624SOL    HW223772   0.329   2.759   2.484
 7625SOL     OW23773   5.666   1.785   0.431
 7625SOL    HW123774   5.691   1.879   0.456
 7625SOL    HW223775   5.748   1.733   0.410
 7626SOL     OW23776   6.306   0.703   5.865
 7626SOL    HW123777   6.344   0.662   5.782
 7626SOL    HW223778   6.305   0.634   5.938
 7627SOL     OW23779   3.511   2.074   0.109
 7627SOL    HW123780   3.450   2.073   0.030
 7627SOL    HW223781   3.606   2.065   0.079
 7628SOL     OW23782   3.780   3.030   0.920
 7628SOL    HW123783   3.819   3.067   1.004
 7628SOL    HW223784   3.765   3.105   0.855
 7629SOL     OW23785   6.124   3.453   3.917
 7629SOL    HW123786   6.031   3.437   3.885
 7629SOL    HW223787   6.169   3.365   3.935
 7630SOL     OW23788   1.302   6.980   5.621
 7630SOL    HW123789   1.203   6.983   5.609
 7630SOL    HW223790   1.330   0.034   5.679
 7631SOL     OW23791   2.148   6.959   5.073
 7631SOL    HW123792   2.144   6.930   5.169
 7631SOL    HW223793   2.072   6.918   5.023
 7632SOL     OW23794   4.154   5.167   1.445
 7632SOL    HW123795   4.231   5.106   1.464
 7632SOL    HW223796   4.070   5.123   1.476
 7633SOL     OW23797   5.925   0.176   1.891
 7633SOL    HW123798   5.964   0.097   1.846
 7633SOL    HW223799   5.826   0.164   1.900
 7634SOL     OW23800   1.319   2.070   1.209
 7634SOL    HW123801   1.283   1.984   1.174
 7634SOL    HW223802   1.309   2.073   1.309
 7635SOL     OW23803   2.664   5.038   4.560
 7635SOL    HW123804   2.755   5.008   4.587
 7635SOL    HW223805   2.645   5.008   4.466
 7636SOL     OW23806   0.460   4.624   4.374
 7636SOL    HW123807   0.504   4.708   4.407
 7636SOL    HW223808   0.526   4.549   4.376
 7637SOL     OW23809   0.813   6.082   3.864
 7637SOL    HW123810   0.849   6.061   3.773
 7637SOL    HW223811   0.766   6.171   3.861
 7638SOL     OW23812   0.910   5.471   1.909
 7638SOL    HW123813   0.846   5.524   1.853
 7638SOL    HW223814   0.999   5.469   1.864
 7639SOL     OW23815   7.020   0.917   0.074
 7639SOL    HW123816   7.021   0.827   0.117
 7639SOL    HW223817   0.057   0.917   7.017
 7640SOL     OW23818   3.194   1.706   6.787
 7640SOL    HW123819   3.196   1.608   6.769
 7640SOL    HW223820   3.218   1.756   6.703
 7641SOL     OW23821   6.830   3.885   2.949
 7641SOL    HW123822   6.766   3.849   3.017
 7641SOL    HW223823   6.912   3.827   2.947
 7642SOL     OW23824   5.943   1.172   2.776
 7642SOL    HW123825   5.876   1.128   2.717
 7642SOL    HW223826   5.910   1.263   2.801
 7643SOL     OW23827   5.236   1.880   3.022
 7643SOL    HW123828   5.334   1.872   3.006
 7643SOL    HW223829   5.194   1.789   3.021
 7644SOL     OW23830   4.904   3.123   2.310
 7644SOL    HW123831   4.826   3.089   2.258
 7644SOL    HW223832   4.957   3.046   2.346
 7645SOL     OW23833   3.577   3.631   5.435
 7645SOL    HW123834   3.505   3.694   5.406
 7645SOL    HW223835   3.547   3.537   5.421
 7646SOL     OW23836   1.022   2.645   2.756
 7646SOL    HW123837   1.021   2.675   2.660
 7646SOL    HW223838   1.047   2.723   2.814
 7647SOL     OW23839   0.182   2.783   4.385
 7647SOL    HW123840   0.185   2.877   4.419
 7647SOL    HW223841   0.194   2.783   4.286
 7648SOL     OW23842   2.096   2.169   3.086
 7648SOL    HW123843   2.089   2.143   3.183
 7648SOL    HW223844   2.087   2.268   3.078
 7649SOL     OW23845   0.400   0.996   4.983
 7649SOL    HW123846   0.465   1.072   4.984
 7649SOL    HW223847   0.350   0.996   4.896
 7650SOL     OW23848   4.406   1.119   1.172
 7650SOL    HW123849   4.388   1.149   1.078
 7650SOL    HW223850   4.356   1.177   1.236
 7651SOL     OW23851   2.390   5.275   4.886
 7651SOL    HW123852   2.364   5.182   4.909
 7651SOL    HW223853   2.458   5.274   4.813
 7652SOL     OW23854   6.232   2.187   4.765
 7652SOL    HW123855   6.259   2.109   4.709
 7652SOL    HW223856   6.142   2.219   4.736
 7653SOL     OW23857   0.821   1.459   6.771
 7653SOL    HW123858   0.829   1.366   6.735
 7653SOL    HW223859   0.906   1.484   6.817
 7654SOL     OW23860   5.643   2.626   4.713
 7654SOL    HW123861   5.684   2.545   4.757
 7654SOL    HW223862   5.699   2.653   4.634
 7655SOL     OW23863   3.433   0.319   3.532
 7655SOL    HW123864   3.383   0.403   3.513
 7655SOL    HW223865   3.506   0.337   3.598
 7656SOL     OW23866   6.132   3.547   5.951
 7656SOL    HW123867   6.072   3.577   6.025
 7656SOL    HW223868   6.168   3.456   5.972
 7657SOL     OW23869   1.451   4.033   4.259
 7657SOL    HW123870   1.414   3.944   4.288
 7657SOL    HW223871   1.548   4.023   4.238
 7658SOL     OW23872   2.843   0.773   0.573
 7658SOL    HW123873   2.778   0.714   0.621
 7658SOL    HW223874   2.936   0.752   0.606
 7659SOL     OW23875   4.681   4.208   5.737
 7659SOL    HW123876   4.634   4.200   5.825
 7659SOL    HW223877   4.705   4.117   5.704
 7660SOL     OW23878   6.865   5.580   4.838
 7660SOL    HW123879   6.824   5.493   4.864
 7660SOL    HW223880   6.916   5.568   4.753
 7661SOL     OW23881   4.526   2.260   6.455
 7661SOL    HW123882   4.626   2.265   6.460
 7661SOL    HW223883   4.486   2.321   6.524
 7662SOL     OW23884   1.064   1.840   2.604
 7662SOL    HW123885   1.149   1.823   2.654
 7662SOL    HW223886   1.031   1.933   2.625
 7663SOL     OW23887   5.825   5.909   5.857
 7663SOL    HW123888   5.848   6.002   5.884
 7663SOL    HW223889   5.758   5.871   5.920
 7664SOL     OW23890   4.283   0.941   2.919
 7664SOL    HW123891   4.281   0.989   3.006
 7664SOL    HW223892   4.190   0.910   2.897
 7665SOL     OW23893   5.678   2.310   3.778
 7665SOL    HW123894   5.648   2.243   3.709
 7665SOL    HW223895   5.776   2.300   3.793
 7666SOL     OW23896   6.359   6.063   3.881
 7666SOL    HW123897   6.390   6.028   3.970
 7666SOL    HW223898   6.322   6.155   3.893
 7667SOL     OW23899   4.881   6.617   2.265
 7667SOL    HW123900   4.810   6.552   2.239
 7667SOL    HW223901   4.839   6.701   2.299
 7668SOL     OW23902   2.567   5.061   1.144
 7668SOL    HW123903   2.544   5.118   1.223
 7668SOL    HW223904   2.488   5.054   1.084
 7669SOL     OW23905   3.890   0.031   6.032
 7669SOL    HW123906   3.933   0.029   5.941
 7669SOL    HW223907   3.854   0.122   6.049
 7670SOL     OW23908   0.796   6.660   0.288
 7670SOL    HW123909   0.738   6.619   0.218
 7670SOL    HW223910   0.889   6.672   0.251
 7671SOL     OW23911   5.315   6.871   2.416
 7671SOL    HW123912   5.355   6.958   2.442
 7671SOL    HW223913   5.216   6.881   2.407
 7672SOL     OW23914   6.520   4.486   3.131
 7672SOL    HW123915   6.430   4.480   3.088
 7672SOL    HW223916   6.572   4.403   3.111
 7673SOL     OW23917   1.297   5.444   3.090
 7673SOL    HW123918   1.346   5.509   3.148
 7673SOL    HW223919   1.347   5.433   3.004
 7674SOL     OW23920   4.060   0.795   4.486
 7674SOL    HW123921   4.134   0.770   4.548
 7674SOL    HW223922   3.978   0.817   4.539
 7675SOL     OW23923   3.310   6.729   3.548
 7675SOL    HW123924   3.252   6.743   3.628
 7675SOL    HW223925   3.269   6.660   3.488
 7676SOL     OW23926   3.319   2.902   5.932
 7676SOL    HW123927   3.246   2.850   5.977
 7676SOL    HW223928   3.380   2.941   6.001
 7677SOL     OW23929   6.836   4.972   1.355
 7677SOL    HW123930   6.875   4.927   1.435
 7677SOL    HW223931   6.843   4.912   1.275
 7678SOL     OW23932   1.668   2.190   5.375
 7678SOL    HW123933   1.672   2.195   5.475
 7678SOL    HW223934   1.583   2.144   5.348
 7679SOL     OW23935   2.058   5.045   5.483
 7679SOL    HW123936   2.000   5.020   5.560
 7679SOL    HW223937   2.054   5.144   5.469
 7680SOL     OW23938   1.411   0.235   5.309
 7680SOL    HW123939   1.353   0.198   5.236
 7680SOL    HW223940   1.403   0.335   5.310
 7681SOL     OW23941   2.945   2.299   6.520
 7681SOL    HW123942   2.947   2.376   6.583
 7681SOL    HW223943   2.981   2.217   6.566
 7682SOL     OW23944   3.295   1.731   2.782
 7682SOL    HW123945   3.372   1.793   2.765
 7682SOL    HW223946   3.209   1.781   2.774
 7683SOL     OW23947   0.352   1.183   4.535
 7683SOL    HW123948   0.393   1.093   4.518
 7683SOL    HW223949   0.258   1.183   4.501
 7684SOL     OW23950   4.083   1.873   1.715
 7684SOL    HW123951   4.051   1.782   1.688
 7684SOL    HW223952   4.035   1.943   1.662
 7685SOL     OW23953   3.863   1.403   6.693
 7685SOL    HW123954   3.817   1.367   6.774
 7685SOL    HW223955   3.913   1.486   6.718
 7686SOL     OW23956   4.457   0.223   4.972
 7686SOL    HW123957   4.460   0.182   4.880
 7686SOL    HW223958   4.511   0.307   4.972
 7687SOL     OW23959   5.174   5.565   4.889
 7687SOL    HW123960   5.108   5.495   4.862
 7687SOL    HW223961   5.135   5.655   4.874
 7688SOL     OW23962   0.384   5.287   5.740
 7688SOL    HW123963   0.315   5.260   5.673
 7688SOL    HW223964   0.465   5.230   5.730
 7689SOL     OW23965   4.929   0.704   1.857
 7689SOL    HW123966   4.892   0.666   1.772
 7689SOL    HW223967   4.916   0.803   1.858
 7690SOL     OW23968   5.669   5.001   0.322
 7690SOL    HW123969   5.769   4.993   0.325
 7690SOL    HW223970   5.630   4.916   0.286
 7691SOL     OW23971   4.552   4.627   2.257
 7691SOL    HW123972   4.457   4.624   2.225
 7691SOL    HW223973   4.563   4.699   2.326
 7692SOL     OW23974   0.700   6.310   1.412
 7692SOL    HW123975   0.799   6.316   1.402
 7692SOL    HW223976   0.672   6.359   1.494
 7693SOL     OW23977   3.102   0.760   0.693
 7693SOL    HW123978   3.156   0.676   0.698
 7693SOL    HW223979   3.160   0.836   0.664
 7694SOL     OW23980   5.714   2.454   4.400
 7694SOL    HW123981   5.716   2.394   4.480
 7694SOL    HW223982   5.647   2.419   4.334
 7695SOL     OW23983   6.355   6.765   2.767
 7695SOL    HW123984   6.449   6.767   2.801
 7695SOL    HW223985   6.326   6.858   2.746
 7696SOL     OW23986   0.386   1.975   6.177
 7696SOL    HW123987   0.422   2.031   6.102
 7696SOL    HW223988   0.458   1.919   6.216
 7697SOL     OW23989   3.420   0.049   2.787
 7697SOL    HW123990   3.492   7.003   2.792
 7697SOL    HW223991   3.420   0.104   2.871
 7698SOL     OW23992   6.059   2.627   6.354
 7698SOL    HW123993   6.158   2.642   6.353
 7698SOL    HW223994   6.015   2.696   6.297
 7699SOL     OW23995   2.537   5.337   6.868
 7699SOL    HW123996   2.561   5.259   6.810
 7699SOL    HW223997   2.494   5.408   6.813
 7700SOL     OW23998   4.555   6.210   3.243
 7700SOL    HW123999   4.635   6.160   3.209
 7700SOL    HW224000   4.575   6.308   3.245
 7701SOL     OW24001   7.019   1.803   6.060
 7701SOL    HW124002   7.019   1.703   6.065
 7701SOL    HW224003   0.085   1.838   6.092
 7702SOL     OW24004   4.798   0.249   5.863
 7702SOL    HW124005   4.865   0.320   5.884
 7702SOL    HW224006   4.706   0.282   5.885
 7703SOL     OW24007   6.239   0.424   5.049
 7703SOL    HW124008   6.329   0.405   5.010
 7703SOL    HW224009   6.249   0.476   5.133
 7704SOL     OW24010   6.955   1.562   4.218
 7704SOL    HW124011   6.948   1.596   4.124
 7704SOL    HW224012   6.893   1.613   4.277
 7705SOL     OW24013   2.554   5.183   0.468
 7705SOL    HW124014   2.642   5.173   0.422
 7705SOL    HW224015   2.483   5.135   0.416
 7706SOL     OW24016   3.710   3.085   3.298
 7706SOL    HW124017   3.787   3.048   3.349
 7706SOL    HW224018   3.660   3.150   3.355
 7707SOL     OW24019   6.691   5.541   6.941
 7707SOL    HW124020   6.694   5.614   6.872
 7707SOL    HW224021   6.755   5.562   7.015
 7708SOL     OW24022   1.979   0.114   4.009
 7708SOL    HW124023   2.074   0.130   4.036
 7708SOL    HW224024   1.972   0.111   3.910
 7709SOL     OW24025   6.952   5.217   1.165
 7709SOL    HW124026   6.907   5.162   1.235
 7709SOL    HW224027   6.956   5.312   1.196
 7710SOL     OW24028   1.603   2.782   0.681
 7710SOL    HW124029   1.575   2.821   0.769
 7710SOL    HW224030   1.540   2.813   0.610
 7711SOL     OW24031   6.224   5.332   5.663
 7711SOL    HW124032   6.215   5.408   5.599
 7711SOL    HW224033   6.255   5.250   5.615
 7712SOL     OW24034   6.372   4.577   6.132
 7712SOL    HW124035   6.433   4.503   6.161
 7712SOL    HW224036   6.340   4.627   6.212
 7713SOL     OW24037   1.721   4.452   0.763
 7713SOL    HW124038   1.734   4.405   0.850
 7713SOL    HW224039   1.623   4.471   0.749
 7714SOL     OW24040   6.791   0.378   4.417
 7714SOL    HW124041   6.699   0.393   4.453
 7714SOL    HW224042   6.787   0.364   4.319
 7715SOL     OW24043   2.186   2.827   6.071
 7715SOL    HW124044   2.138   2.846   6.157
 7715SOL    HW224045   2.275   2.784   6.091
 7716SOL     OW24046   0.888   4.967   6.727
 7716SOL    HW124047   0.806   4.964   6.671
 7716SOL    HW224048   0.941   4.883   6.713
 7717SOL     OW24049   1.440   2.174   5.811
 7717SOL    HW124050   1.359   2.143   5.861
 7717SOL    HW224051   1.502   2.220   5.875
 7718SOL     OW24052   0.569   3.275   2.394
 7718SOL    HW124053   0.564   3.369   2.428
 7718SOL    HW224054   0.493   3.259   2.331
 7719SOL     OW24055   1.551   4.365   4.752
 7719SOL    HW124056   1.606   4.298   4.803
 7719SOL    HW224057   1.611   4.426   4.701
 7720SOL     OW24058   6.091   2.204   6.106
 7720SOL    HW124059   6.147   2.277   6.144
 7720SOL    HW224060   6.142   2.158   6.033
 7721SOL     OW24061   1.431   0.410   2.455
 7721SOL    HW124062   1.511   0.409   2.394
 7721SOL    HW224063   1.429   0.326   2.509
 7722SOL     OW24064   2.099   5.089   3.988
 7722SOL    HW124065   2.111   5.106   4.086
 7722SOL    HW224066   2.090   5.176   3.940
 7723SOL     OW24067   5.088   3.003   6.805
 7723SOL    HW124068   4.990   3.016   6.788
 7723SOL    HW224069   5.117   2.915   6.767
 7724SOL     OW24070   3.088   4.023   1.200
 7724SOL    HW124071   3.076   3.965   1.281
 7724SOL    HW224072   3.184   4.049   1.191
 7725SOL     OW24073   5.892   2.513   2.370
 7725SOL    HW124074   5.977   2.564   2.363
 7725SOL    HW224075   5.850   2.530   2.459
 7726SOL     OW24076   1.102   3.157   6.186
 7726SOL    HW124077   1.147   3.186   6.271
 7726SOL    HW224078   1.006   3.138   6.204
 7727SOL     OW24079   5.165   2.265   1.659
 7727SOL    HW124080   5.101   2.193   1.632
 7727SOL    HW224081   5.114   2.347   1.686
 7728SOL     OW24082   2.138   2.838   5.162
 7728SOL    HW124083   2.195   2.781   5.103
 7728SOL    HW224084   2.183   2.925   5.179
 7729SOL     OW24085   6.329   1.707   2.232
 7729SOL    HW124086   6.279   1.698   2.318
 7729SOL    HW224087   6.303   1.633   2.170
 7730SOL     OW24088   5.552   4.432   5.320
 7730SOL    HW124089   5.617   4.428   5.244
 7730SOL    HW224090   5.564   4.518   5.370
 7731SOL     OW24091   5.899   0.199   0.551
 7731SOL    HW124092   5.818   0.201   0.494
 7731SOL    HW224093   5.872   0.190   0.647
 7732SOL     OW24094   4.457   0.317   0.104
 7732SOL    HW124095   4.549   0.353   0.086
 7732SOL    HW224096   4.420   0.276   0.021
 7733SOL     OW24097   6.551   5.506   2.810
 7733SOL    HW124098   6.616   5.574   2.844
 7733SOL    HW224099   6.460   5.547   2.805
 7734SOL     OW24100   2.551   4.610   5.000
 7734SOL    HW124101   2.650   4.622   5.012
 7734SOL    HW224102   2.532   4.595   4.903
 7735SOL     OW24103   6.400   6.324   0.291
 7735SOL    HW124104   6.415   6.270   0.374
 7735SOL    HW224105   6.308   6.306   0.256
 7736SOL     OW24106   2.726   2.712   0.596
 7736SOL    HW124107   2.656   2.656   0.640
 7736SOL    HW224108   2.809   2.657   0.584
 7737SOL     OW24109   3.928   5.115   1.611
 7737SOL    HW124110   3.831   5.138   1.607
 7737SOL    HW224111   3.976   5.185   1.665
 7738SOL     OW24112   2.830   6.111   6.629
 7738SOL    HW124113   2.793   6.203   6.625
 7738SOL    HW224114   2.928   6.114   6.610
 7739SOL     OW24115   1.361   2.487   1.876
 7739SOL    HW124116   1.305   2.569   1.864
 7739SOL    HW224117   1.455   2.514   1.896
 7740SOL     OW24118   1.745   1.097   2.736
 7740SOL    HW124119   1.785   1.045   2.811
 7740SOL    HW224120   1.768   1.194   2.746
 7741SOL     OW24121   1.639   4.584   5.475
 7741SOL    HW124122   1.659   4.678   5.446
 7741SOL    HW224123   1.665   4.572   5.571
 7742SOL     OW24124   4.248   1.401   3.810
 7742SOL    HW124125   4.275   1.488   3.770
 7742SOL    HW224126   4.312   1.376   3.882
 7743SOL     OW24127   5.301   1.021   6.715
 7743SOL    HW124128   5.298   1.115   6.681
 7743SOL    HW224129   5.358   0.966   6.653
 7744SOL     OW24130   0.877   5.752   5.054
 7744SOL    HW124131   0.817   5.690   5.103
 7744SOL    HW224132   0.964   5.706   5.033
 7745SOL     OW24133   2.000   6.605   0.031
 7745SOL    HW124134   2.041   6.615   6.963
 7745SOL    HW224135   2.048   6.664   0.096
 7746SOL     OW24136   0.909   6.434   0.959
 7746SOL    HW124137   0.969   6.387   1.024
 7746SOL    HW224138   0.957   6.513   0.920
 7747SOL     OW24139   6.689   6.129   0.676
 7747SOL    HW124140   6.734   6.218   0.679
 7747SOL    HW224141   6.609   6.130   0.735
 7748SOL     OW24142   3.995   3.023   5.264
 7748SOL    HW124143   3.980   2.926   5.247
 7748SOL    HW224144   3.907   3.069   5.278
 7749SOL     OW24145   3.554   3.840   3.229
 7749SOL    HW124146   3.642   3.793   3.227
 7749SOL    HW224147   3.492   3.792   3.291
 7750SOL     OW24148   5.389   5.376   5.935
 7750SOL    HW124149   5.293   5.405   5.939
 7750SOL    HW224150   5.411   5.321   6.015
 7751SOL     OW24151   0.531   1.462   3.511
 7751SOL    HW124152   0.620   1.428   3.541
 7751SOL    HW224153   0.459   1.428   3.572
 7752SOL     OW24154   5.319   5.312   5.243
 7752SOL    HW124155   5.254   5.387   5.257
 7752SOL    HW224156   5.412   5.345   5.260
 7753SOL     OW24157   2.562   0.309   4.676
 7753SOL    HW124158   2.587   0.295   4.771
 7753SOL    HW224159   2.526   0.224   4.638
 7754SOL     OW24160   5.783   0.760   0.731
 7754SOL    HW124161   5.710   0.692   0.722
 7754SOL    HW224162   5.831   0.769   0.643
 7755SOL     OW24163   0.165   6.659   5.555
 7755SOL    HW124164   0.086   6.611   5.592
 7755SOL    HW224165   0.212   6.708   5.628
 7756SOL     OW24166   2.496   5.775   2.068
 7756SOL    HW124167   2.425   5.839   2.097
 7756SOL    HW224168   2.468   5.682   2.090
 7757SOL     OW24169   4.543   5.963   5.154
 7757SOL    HW124170   4.590   5.931   5.237
 7757SOL    HW224171   4.564   6.060   5.140
 7758SOL     OW24172   2.143   2.467   6.111
 7758SOL    HW124173   2.108   2.438   6.022
 7758SOL    HW224174   2.240   2.488   6.103
 7759SOL     OW24175   1.966   0.451   4.971
 7759SOL    HW124176   1.892   0.427   4.908
 7759SOL    HW224177   2.021   0.524   4.931
 7760SOL     OW24178   6.019   2.886   2.028
 7760SOL    HW124179   5.962   2.933   2.096
 7760SOL    HW224180   6.100   2.942   2.009
 7761SOL     OW24181   3.025   6.933   6.163
 7761SOL    HW124182   3.033   6.875   6.244
 7761SOL    HW224183   3.099   6.999   6.162
 7762SOL     OW24184   4.032   0.908   6.311
 7762SOL    HW124185   4.099   0.981   6.302
 7762SOL    HW224186   3.965   0.932   6.381
 7763SOL     OW24187   1.259   1.871   0.647
 7763SOL    HW124188   1.348   1.905   0.678
 7763SOL    HW224189   1.191   1.886   0.719
 7764SOL     OW24190   3.863   3.356   2.543
 7764SOL    HW124191   3.777   3.307   2.530
 7764SOL    HW224192   3.846   3.454   2.548
 7765SOL     OW24193   6.815   3.695   4.111
 7765SOL    HW124194   6.761   3.616   4.081
 7765SOL    HW224195   6.758   3.777   4.110
 7766SOL     OW24196   5.612   1.735   6.900
 7766SOL    HW124197   5.571   1.674   6.831
 7766SOL    HW224198   5.627   1.684   6.984
 7767SOL     OW24199   3.688   6.065   3.571
 7767SOL    HW124200   3.733   6.035   3.487
 7767SOL    HW224201   3.691   5.992   3.639
 7768SOL     OW24202   3.441   4.918   2.705
 7768SOL    HW124203   3.442   4.956   2.797
 7768SOL    HW224204   3.348   4.916   2.669
 7769SOL     OW24205   4.352   1.563   1.689
 7769SOL    HW124206   4.427   1.628   1.702
 7769SOL    HW224207   4.288   1.600   1.621
 7770SOL     OW24208   2.583   4.691   2.143
 7770SOL    HW124209   2.675   4.651   2.142
 7770SOL    HW224210   2.517   4.625   2.107
 7771SOL     OW24211   2.787   2.326   4.498
 7771SOL    HW124212   2.798   2.332   4.398
 7771SOL    HW224213   2.734   2.405   4.529
 7772SOL     OW24214   5.242   1.297   3.443
 7772SOL    HW124215   5.297   1.378   3.421
 7772SOL    HW224216   5.228   1.291   3.542
 7773SOL     OW24217   3.870   4.470   6.431
 7773SOL    HW124218   3.909   4.550   6.386
 7773SOL    HW224219   3.873   4.391   6.370
 7774SOL     OW24220   5.518   1.423   5.812
 7774SOL    HW124221   5.513   1.446   5.715
 7774SOL    HW224222   5.522   1.508   5.865
 7775SOL     OW24223   3.457   6.395   3.313
 7775SOL    HW124224   3.454   6.428   3.407
 7775SOL    HW224225   3.521   6.450   3.260
 7776SOL     OW24226   3.215   3.331   5.859
 7776SOL    HW124227   3.255   3.353   5.770
 7776SOL    HW224228   3.278   3.358   5.932
 7777SOL     OW24229   2.529   1.387   5.551
 7777SOL    HW124230   2.551   1.353   5.642
 7777SOL    HW224231   2.610   1.428   5.510
 7778SOL     OW24232   5.745   0.352   0.325
 7778SOL    HW124233   5.661   0.345   0.379
 7778SOL    HW224234   5.755   0.445   0.291
 7779SOL     OW24235   3.514   2.969   0.700
 7779SOL    HW124236   3.525   2.949   0.603
 7779SOL    HW224237   3.581   3.038   0.728
 7780SOL     OW24238   1.488   5.895   4.413
 7780SOL    HW124239   1.549   5.817   4.401
 7780SOL    HW224240   1.474   5.940   4.325
 7781SOL     OW24241   1.307   3.999   6.046
 7781SOL    HW124242   1.344   4.016   6.137
 7781SOL    HW224243   1.278   3.903   6.039
 7782SOL     OW24244   1.637   3.986   5.905
 7782SOL    HW124245   1.615   4.039   5.824
 7782SOL    HW224246   1.606   3.891   5.894
 7783SOL     OW24247   2.802   6.589   5.913
 7783SOL    HW124248   2.898   6.561   5.914
 7783SOL    HW224249   2.746   6.518   5.956
 7784SOL     OW24250   1.263   3.410   0.191
 7784SOL    HW124251   1.198   3.454   0.253
 7784SOL    HW224252   1.330   3.478   0.160
 7785SOL     OW24253   2.006   6.591   4.044
 7785SOL    HW124254   2.057   6.660   4.097
 7785SOL    HW224255   2.054   6.572   3.959
 7786SOL     OW24256   2.997   4.836   5.210
 7786SOL    HW124257   3.013   4.832   5.308
 7786SOL    HW224258   2.952   4.752   5.180
 7787SOL     OW24259   2.315   2.556   5.294
 7787SOL    HW124260   2.355   2.640   5.257
 7787SOL    HW224261   2.221   2.548   5.262
 7788SOL     OW24262   1.712   1.379   1.676
 7788SOL    HW124263   1.640   1.424   1.623
 7788SOL    HW224264   1.701   1.401   1.773
 7789SOL     OW24265   2.258   0.407   0.834
 7789SOL    HW124266   2.245   0.322   0.784
 7789SOL    HW224267   2.234   0.393   0.930
 7790SOL     OW24268   6.277   4.588   3.318
 7790SOL    HW124269   6.284   4.653   3.393
 7790SOL    HW224270   6.341   4.512   3.333
 7791SOL     OW24271   2.633   5.994   4.575
 7791SOL    HW124272   2.603   6.006   4.670
 7791SOL    HW224273   2.727   5.959   4.574
 7792SOL     OW24274   1.761   5.053   6.324
 7792SOL    HW124275   1.825   5.021   6.254
 7792SOL    HW224276   1.811   5.104   6.394
 7793SOL     OW24277   1.988   1.416   5.520
 7793SOL    HW124278   2.054   1.388   5.450
 7793SOL    HW224279   1.974   1.515   5.514
 7794SOL     OW24280   4.960   5.114   4.414
 7794SOL    HW124281   4.873   5.076   4.444
 7794SOL    HW224282   5.026   5.111   4.489
 7795SOL     OW24283   2.031   4.110   5.148
 7795SOL    HW124284   2.032   4.034   5.214
 7795SOL    HW224285   2.118   4.159   5.153
 7796SOL     OW24286   3.340   4.040   3.783
 7796SOL    HW124287   3.366   4.122   3.733
 7796SOL    HW224288   3.317   3.967   3.719
 7797SOL     OW24289   0.309   5.512   3.345
 7797SOL    HW124290   0.308   5.572   3.425
 7797SOL    HW224291   0.367   5.552   3.274
 7798SOL     OW24292   2.756   5.282   0.013
 7798SOL    HW124293   2.666   5.293   6.994
 7798SOL    HW224294   2.826   5.290   6.964
 7799SOL     OW24295   6.498   5.522   1.614
 7799SOL    HW124296   6.400   5.504   1.600
 7799SOL    HW224297   6.510   5.612   1.656
 7800SOL     OW24298   0.766   4.226   1.514
 7800SOL    HW124299   0.719   4.281   1.583
 7800SOL    HW224300   0.859   4.262   1.501
 7801SOL     OW24301   2.559   1.643   0.936
 7801SOL    HW124302   2.564   1.563   0.875
 7801SOL    HW224303   2.609   1.624   1.020
 7802SOL     OW24304   6.241   3.180   1.030
 7802SOL    HW124305   6.285   3.092   1.010
 7802SOL    HW224306   6.311   3.252   1.034
 7803SOL     OW24307   4.254   3.702   5.625
 7803SOL    HW124308   4.306   3.617   5.625
 7803SOL    HW224309   4.288   3.762   5.553
 7804SOL     OW24310   6.417   1.047   4.083
 7804SOL    HW124311   6.330   1.006   4.111
 7804SOL    HW224312   6.476   1.058   4.162
 7805SOL     OW24313   5.251   2.433   0.845
 7805SOL    HW124314   5.185   2.508   0.835
 7805SOL    HW224315   5.235   2.386   0.931
 7806SOL     OW24316   5.627   3.432   5.968
 7806SOL    HW124317   5.636   3.516   6.022
 7806SOL    HW224318   5.685   3.361   6.007
 7807SOL     OW24319   0.107   5.023   6.325
 7807SOL    HW124320   0.011   5.009   6.301
 7807SOL    HW224321   0.161   5.035   6.242
 7808SOL     OW24322   0.613   2.499   4.831
 7808SOL    HW124323   0.674   2.494   4.752
 7808SOL    HW224324   0.566   2.587   4.832
 7809SOL     OW24325   2.185   6.101   5.055
 7809SOL    HW124326   2.266   6.049   5.028
 7809SOL    HW224327   2.209   6.165   5.127
 7810SOL     OW24328   3.002   0.573   5.564
 7810SOL    HW124329   2.953   0.636   5.503
 7810SOL    HW224330   2.963   0.482   5.556
 7811SOL     OW24331   6.341   4.178   4.282
 7811SOL    HW124332   6.278   4.236   4.334
 7811SOL    HW224333   6.288   4.111   4.230
 7812SOL     OW24334   1.426   1.724   3.935
 7812SOL    HW124335   1.372   1.640   3.942
 7812SOL    HW224336   1.480   1.736   4.018
 7813SOL     OW24337   4.770   2.460   6.243
 7813SOL    HW124338   4.785   2.541   6.187
 7813SOL    HW224339   4.812   2.381   6.198
 7814SOL     OW24340   7.020   1.761   3.219
 7814SOL    HW124341   0.090   1.756   3.181
 7814SOL    HW224342   6.953   1.761   3.145
 7815SOL     OW24343   4.857   1.357   6.426
 7815SOL    HW124344   4.937   1.416   6.436
 7815SOL    HW224345   4.775   1.406   6.455
 7816SOL     OW24346   1.788   3.059   5.986
 7816SOL    HW124347   1.810   3.136   5.926
 7816SOL    HW224348   1.828   3.074   6.076
 7817SOL     OW24349   6.404   3.372   4.039
 7817SOL    HW124350   6.497   3.391   4.068
 7817SOL    HW224351   6.343   3.443   4.074
 7818SOL     OW24352   5.465   0.422   2.119
 7818SOL    HW124353   5.441   0.337   2.071
 7818SOL    HW224354   5.444   0.500   2.060
 7819SOL     OW24355   0.503   3.146   1.727
 7819SOL    HW124356   0.567   3.072   1.705
 7819SOL    HW224357   0.413   3.125   1.690
 7820SOL     OW24358   1.761   2.292   5.001
 7820SOL    HW124359   1.817   2.367   5.037
 7820SOL    HW224360   1.683   2.276   5.061
 7821SOL     OW24361   4.266   5.536   1.296
 7821SOL    HW124362   4.204   5.596   1.346
 7821SOL    HW224363   4.301   5.584   1.216
 7822SOL     OW24364   6.993   0.302   5.435
 7822SOL    HW124365   0.047   0.277   5.375
 7822SOL    HW224366   7.015   0.386   5.483
 7823SOL     OW24367   2.187   4.150   4.513
 7823SOL    HW124368   2.199   4.090   4.434
 7823SOL    HW224369   2.176   4.096   4.595
 7824SOL     OW24370   6.626   2.649   4.919
 7824SOL    HW124371   6.659   2.560   4.887
 7824SOL    HW224372   6.645   2.719   4.851
 7825SOL     OW24373   2.474   3.149   6.805
 7825SOL    HW124374   2.520   3.106   6.883
 7825SOL    HW224375   2.539   3.158   6.730
 7826SOL     OW24376   0.028   1.367   0.255
 7826SOL    HW124377   0.090   1.404   0.324
 7826SOL    HW224378   0.050   1.270   0.240
 7827SOL     OW24379   0.605   5.813   2.572
 7827SOL    HW124380   0.585   5.785   2.666
 7827SOL    HW224381   0.559   5.750   2.509
 7828SOL     OW24382   6.610   4.306   6.744
 7828SOL    HW124383   6.602   4.230   6.808
 7828SOL    HW224384   6.667   4.378   6.783
 7829SOL     OW24385   3.348   3.174   1.583
 7829SOL    HW124386   3.422   3.150   1.646
 7829SOL    HW224387   3.386   3.190   1.492
 7830SOL     OW24388   3.598   5.242   5.412
 7830SOL    HW124389   3.633   5.149   5.401
 7830SOL    HW224390   3.672   5.308   5.398
 7831SOL     OW24391   1.860   1.370   1.022
 7831SOL    HW124392   1.944   1.331   0.986
 7831SOL    HW224393   1.789   1.370   0.951
 7832SOL     OW24394   5.169   0.563   4.401
 7832SOL    HW124395   5.128   0.522   4.320
 7832SOL    HW224396   5.106   0.629   4.441
 7833SOL     OW24397   1.756   0.350   4.534
 7833SOL    HW124398   1.692   0.417   4.496
 7833SOL    HW224399   1.706   0.269   4.564
 7834SOL     OW24400   6.980   1.434   3.890
 7834SOL    HW124401   0.045   1.480   3.899
 7834SOL    HW224402   6.908   1.490   3.932
 7835SOL     OW24403   3.994   1.770   4.854
 7835SOL    HW124404   3.932   1.744   4.928
 7835SOL    HW224405   4.089   1.753   4.882
 7836SOL     OW24406   3.772   4.104   5.484
 7836SOL    HW124407   3.821   4.074   5.565
 7836SOL    HW224408   3.737   4.024   5.434
 7837SOL     OW24409   5.727   6.419   6.916
 7837SOL    HW124410   5.710   6.325   6.889
 7837SOL    HW224411   5.755   6.421   7.012
 7838SOL     OW24412   4.849   4.821   1.500
 7838SOL    HW124413   4.895   4.811   1.412
 7838SOL    HW224414   4.853   4.916   1.529
 7839SOL     OW24415   5.446   4.010   4.950
 7839SOL    HW124416   5.363   4.043   4.993
 7839SOL    HW224417   5.514   4.083   4.946
 7840SOL     OW24418   0.868   4.547   3.911
 7840SOL    HW124419   0.794   4.490   3.874
 7840SOL    HW224420   0.889   4.518   4.004
 7841SOL     OW24421   4.799   2.271   6.448
 7841SOL    HW124422   4.786   2.341   6.377
 7841SOL    HW224423   4.891   2.231   6.439
 7842SOL     OW24424   2.435   1.717   2.232
 7842SOL    HW124425   2.400   1.723   2.326
 7842SOL    HW224426   2.370   1.759   2.170
 7843SOL     OW24427   6.791   0.344   4.122
 7843SOL    HW124428   6.802   0.438   4.088
 7843SOL    HW224429   6.836   0.281   4.059
 7844SOL     OW24430   3.633   0.541   2.042
 7844SOL    HW124431   3.661   0.461   1.989
 7844SOL    HW224432   3.645   0.523   2.139
 7845SOL     OW24433   5.203   1.992   1.255
 7845SOL    HW124434   5.188   1.914   1.196
 7845SOL    HW224435   5.268   1.967   1.327
 7846SOL     OW24436   1.294   2.550   0.531
 7846SOL    HW124437   1.379   2.541   0.479
 7846SOL    HW224438   1.216   2.546   0.468
 7847SOL     OW24439   6.325   1.742   3.653
 7847SOL    HW124440   6.269   1.805   3.598
 7847SOL    HW224441   6.268   1.665   3.682
 7848SOL     OW24442   2.772   4.336   0.902
 7848SOL    HW124443   2.830   4.417   0.901
 7848SOL    HW224444   2.818   4.263   0.954
 7849SOL     OW24445   5.757   3.190   5.270
 7849SOL    HW124446   5.815   3.114   5.298
 7849SOL    HW224447   5.726   3.240   5.351
 7850SOL     OW24448   6.656   1.453   3.632
 7850SOL    HW124449   6.600   1.402   3.567
 7850SOL    HW224450   6.742   1.404   3.648
 7851SOL     OW24451   0.899   3.156   1.839
 7851SOL    HW124452   0.916   3.236   1.781
 7851SOL    HW224453   0.831   3.179   1.908
 7852SOL     OW24454   2.959   1.123   0.363
 7852SOL    HW124455   2.886   1.061   0.335
 7852SOL    HW224456   2.925   1.217   0.360
 7853SOL     OW24457   4.468   3.045   1.727
 7853SOL    HW124458   4.537   3.045   1.800
 7853SOL    HW224459   4.389   3.098   1.757
 7854SOL     OW24460   4.282   2.128   6.048
 7854SOL    HW124461   4.280   2.214   6.100
 7854SOL    HW224462   4.191   2.110   6.010
 7855SOL     OW24463   4.626   6.290   4.488
 7855SOL    HW124464   4.712   6.240   4.480
 7855SOL    HW224465   4.634   6.378   4.442
 7856SOL     OW24466   1.815   4.744   4.962
 7856SOL    HW124467   1.821   4.763   4.864
 7856SOL    HW224468   1.743   4.676   4.977
 7857SOL     OW24469   4.921   3.892   0.735
 7857SOL    HW124470   4.957   3.801   0.755
 7857SOL    HW224471   4.925   3.908   0.636
 7858SOL     OW24472   0.251   5.557   4.773
 7858SOL    HW124473   0.314   5.557   4.850
 7858SOL    HW224474   0.185   5.482   4.782
 7859SOL     OW24475   4.875   3.163   6.542
 7859SOL    HW124476   4.898   3.081   6.490
 7859SOL    HW224477   4.778   3.161   6.566
 7860SOL     OW24478   3.526   1.380   4.240
 7860SOL    HW124479   3.587   1.340   4.309
 7860SOL    HW224480   3.453   1.315   4.219
 7861SOL     OW24481   2.501   5.893   1.791
 7861SOL    HW124482   2.600   5.903   1.780
 7861SOL    HW224483   2.482   5.841   1.875
 7862SOL     OW24484   2.728   5.260   2.144
 7862SOL    HW124485   2.710   5.344   2.195
 7862SOL    HW224486   2.789   5.201   2.197
 7863SOL     OW24487   0.217   4.148   3.101
 7863SOL    HW124488   0.118   4.144   3.115
 7863SOL    HW224489   0.263   4.108   3.180
 7864SOL     OW24490   2.038   6.405   6.804
 7864SOL    HW124491   2.073   6.329   6.859
 7864SOL    HW224492   2.098   6.484   6.815
 7865SOL     OW24493   5.991   6.261   3.841
 7865SOL    HW124494   5.931   6.182   3.837
 7865SOL    HW224495   6.023   6.275   3.934
 7866SOL     OW24496   1.605   0.286   4.988
 7866SOL    HW124497   1.643   0.356   5.048
 7866SOL    HW224498   1.630   0.305   4.893
 7867SOL     OW24499   5.324   6.977   3.695
 7867SOL    HW124500   5.323   6.938   3.787
 7867SOL    HW224501   5.416   6.967   3.656
 7868SOL     OW24502   3.729   5.505   0.984
 7868SOL    HW124503   3.702   5.411   1.007
 7868SOL    HW224504   3.804   5.503   0.919
 7869SOL     OW24505   5.161   4.839   5.418
 7869SOL    HW124506   5.217   4.890   5.352
 7869SOL    HW224507   5.221   4.791   5.482
 7870SOL     OW24508   4.761   0.347   5.318
 7870SOL    HW124509   4.683   0.403   5.290
 7870SOL    HW224510   4.763   0.341   5.418
 7871SOL     OW24511   5.169   1.261   2.098
 7871SOL    HW124512   5.113   1.261   2.181
 7871SOL    HW224513   5.195   1.355   2.076
 7872SOL     OW24514   1.921   4.680   2.532
 7872SOL    HW124515   1.938   4.643   2.623
 7872SOL    HW224516   1.953   4.615   2.462
 7873SOL     OW24517   6.406   1.521   1.068
 7873SOL    HW124518   6.350   1.441   1.086
 7873SOL    HW224519   6.501   1.493   1.054
 7874SOL     OW24520   5.556   2.790   0.904
 7874SOL    HW124521   5.570   2.889   0.914
 7874SOL    HW224522   5.640   2.749   0.867
 7875SOL     OW24523   3.891   3.720   6.839
 7875SOL    HW124524   3.843   3.735   6.752
 7875SOL    HW224525   3.835   3.755   6.914
 7876SOL     OW24526   0.953   0.359   2.755
 7876SOL    HW124527   1.010   0.441   2.753
 7876SOL    HW224528   1.006   0.283   2.791
 7877SOL     OW24529   6.173   1.367   2.645
 7877SOL    HW124530   6.079   1.398   2.657
 7877SOL    HW224531   6.223   1.380   2.730
 7878SOL     OW24532   4.862   3.733   3.536
 7878SOL    HW124533   4.874   3.642   3.497
 7878SOL    HW224534   4.868   3.728   3.635
 7879SOL     OW24535   3.365   5.259   3.263
 7879SOL    HW124536   3.428   5.181   3.264
 7879SOL    HW224537   3.335   5.278   3.357
 7880SOL     OW24538   2.313   3.658   1.005
 7880SOL    HW124539   2.258   3.723   0.951
 7880SOL    HW224540   2.398   3.638   0.956
 7881SOL     OW24541   5.340   4.392   4.401
 7881SOL    HW124542   5.358   4.308   4.452
 7881SOL    HW224543   5.314   4.370   4.307
 7882SOL     OW24544   2.756   4.081   1.627
 7882SOL    HW124545   2.752   4.159   1.690
 7882SOL    HW224546   2.700   4.102   1.546
 7883SOL     OW24547   1.000   0.490   5.405
 7883SOL    HW124548   0.960   0.581   5.402
 7883SOL    HW224549   1.053   0.473   5.322
 7884SOL     OW24550   0.651   3.603   3.956
 7884SOL    HW124551   0.553   3.613   3.972
 7884SOL    HW224552   0.701   3.672   4.008
 7885SOL     OW24553   6.536   5.488   1.068
 7885SOL    HW124554   6.466   5.530   1.010
 7885SOL    HW224555   6.523   5.389   1.071
 7886SOL     OW24556   4.748   5.630   0.586
 7886SOL    HW124557   4.802   5.634   0.670
 7886SOL    HW224558   4.808   5.646   0.507
 7887SOL     OW24559   3.644   1.741   6.743
 7887SOL    HW124560   3.593   1.801   6.804
 7887SOL    HW224561   3.709   1.794   6.689
 7888SOL     OW24562   5.153   0.188   3.751
 7888SOL    HW124563   5.183   0.122   3.682
 7888SOL    HW224564   5.214   0.268   3.748
 7889SOL     OW24565   0.597   6.410   1.634
 7889SOL    HW124566   0.645   6.495   1.610
 7889SOL    HW224567   0.549   6.422   1.721
 7890SOL     OW24568   2.207   3.929   2.159
 7890SOL    HW124569   2.130   3.970   2.111
 7890SOL    HW224570   2.186   3.834   2.180
 7891SOL     OW24571   2.592   4.945   2.214
 7891SOL    HW124572   2.687   4.976   2.205
 7891SOL    HW224573   2.581   4.859   2.165
 7892SOL     OW24574   1.872   2.741   5.161
 7892SOL    HW124575   1.804   2.814   5.167
 7892SOL    HW224576   1.958   2.771   5.200
 7893SOL     OW24577   6.135   6.815   1.333
 7893SOL    HW124578   6.045   6.828   1.292
 7893SOL    HW224579   6.143   6.721   1.367
 7894SOL     OW24580   2.558   6.294   2.323
 7894SOL    HW124581   2.578   6.329   2.415
 7894SOL    HW224582   2.543   6.370   2.260
 7895SOL     OW24583   6.540   1.161   4.935
 7895SOL    HW124584   6.475   1.088   4.913
 7895SOL    HW224585   6.501   1.221   5.004
 7896SOL     OW24586   4.699   3.947   5.650
 7896SOL    HW124587   4.609   3.924   5.688
 7896SOL    HW224588   4.699   3.931   5.551
 7897SOL     OW24589   2.246   4.369   6.473
 7897SOL    HW124590   2.276   4.408   6.386
 7897SOL    HW224591   2.211   4.277   6.458
 7898SOL     OW24592   4.725   2.215   3.580
 7898SOL    HW124593   4.728   2.116   3.591
 7898SOL    HW224594   4.782   2.258   3.649
 7899SOL     OW24595   6.809   2.180   2.325
 7899SOL    HW124596   6.825   2.239   2.246
 7899SOL    HW224597   6.711   2.162   2.334
 7900SOL     OW24598   1.131   5.349   1.418
 7900SOL    HW124599   1.102   5.424   1.477
 7900SOL    HW224600   1.227   5.363   1.392
 7901SOL     OW24601   5.758   0.165   6.063
 7901SOL    HW124602   5.714   0.125   5.982
 7901SOL    HW224603   5.847   0.122   6.077
 7902SOL     OW24604   4.558   4.595   1.455
 7902SOL    HW124605   4.625   4.638   1.394
 7902SOL    HW224606   4.550   4.498   1.432
 7903SOL     OW24607   6.166   1.847   0.115
 7903SOL    HW124608   6.170   1.934   0.164
 7903SOL    HW224609   6.182   1.861   0.018
 7904SOL     OW24610   6.566   0.573   2.457
 7904SOL    HW124611   6.469   0.590   2.441
 7904SOL    HW224612   6.618   0.596   2.375
 7905SOL     OW24613   3.949   1.860   1.278
 7905SOL    HW124614   3.941   1.878   1.376
 7905SOL    HW224615   4.014   1.923   1.237
 7906SOL     OW24616   6.179   5.775   6.845
 7906SOL    HW124617   6.154   5.793   6.750
 7906SOL    HW224618   6.264   5.722   6.847
 7907SOL     OW24619   6.409   2.399   3.963
 7907SOL    HW124620   6.481   2.469   3.958
 7907SOL    HW224621   6.402   2.364   4.056
 7908SOL     OW24622   0.486   0.969   3.116
 7908SOL    HW124623   0.519   1.006   3.203
 7908SOL    HW224624   0.403   1.016   3.089
 7909SOL     OW24625   4.908   3.802   4.806
 7909SOL    HW124626   4.926   3.768   4.714
 7909SOL    HW224627   4.874   3.728   4.863
 7910SOL     OW24628   4.168   2.721   5.937
 7910SOL    HW124629   4.184   2.634   5.891
 7910SOL    HW224630   4.185   2.796   5.873
 7911SOL     OW24631   6.974   5.254   0.230
 7911SOL    HW124632   0.021   5.209   0.285
 7911SOL    HW224633   6.969   5.212   0.140
 7912SOL     OW24634   6.046   5.415   6.613
 7912SOL    HW124635   6.119   5.424   6.545
 7912SOL    HW224636   6.043   5.321   6.647
 7913SOL     OW24637   0.138   5.216   6.531
 7913SOL    HW124638   0.124   5.136   6.474
 7913SOL    HW224639   0.167   5.187   6.622
 7914SOL     OW24640   6.531   5.269   1.330
 7914SOL    HW124641   6.546   5.367   1.340
 7914SOL    HW224642   6.565   5.239   1.241
 7915SOL     OW24643   4.905   2.077   2.930
 7915SOL    HW124644   4.808   2.083   2.907
 7915SOL    HW224645   4.930   1.980   2.940
 7916SOL     OW24646   5.625   3.430   5.528
 7916SOL    HW124647   5.564   3.409   5.452
 7916SOL    HW224648   5.599   3.375   5.608
 7917SOL     OW24649   3.911   3.548   4.174
 7917SOL    HW124650   3.960   3.468   4.206
 7917SOL    HW224651   3.859   3.525   4.092
 7918SOL     OW24652   5.978   1.622   1.631
 7918SOL    HW124653   5.898   1.579   1.589
 7918SOL    HW224654   6.060   1.596   1.579
 7919SOL     OW24655   5.958   3.996   2.850
 7919SOL    HW124656   5.896   4.067   2.817
 7919SOL    HW224657   5.922   3.957   2.935
 7920SOL     OW24658   0.291   4.850   1.737
 7920SOL    HW124659   0.282   4.797   1.653
 7920SOL    HW224660   0.306   4.946   1.715
 7921SOL     OW24661   2.873   6.480   1.232
 7921SOL    HW124662   2.851   6.410   1.164
 7921SOL    HW224663   2.827   6.459   1.318
 7922SOL     OW24664   6.899   5.346   6.929
 7922SOL    HW124665   6.861   5.256   6.947
 7922SOL    HW224666   6.824   5.411   6.910
 7923SOL     OW24667   1.802   1.340   2.837
 7923SOL    HW124668   1.736   1.413   2.821
 7923SOL    HW224669   1.895   1.375   2.821
 7924SOL     OW24670   2.919   6.515   3.595
 7924SOL    HW124671   2.979   6.498   3.673
 7924SOL    HW224672   2.859   6.592   3.615
 7925SOL     OW24673   6.356   1.877   6.138
 7925SOL    HW124674   6.341   1.886   6.236
 7925SOL    HW224675   6.431   1.812   6.122
 7926SOL     OW24676   3.300   0.839   3.505
 7926SOL    HW124677   3.235   0.904   3.466
 7926SOL    HW224678   3.389   0.884   3.517
 7927SOL     OW24679   4.385   5.401   5.125
 7927SOL    HW124680   4.338   5.318   5.155
 7927SOL    HW224681   4.345   5.481   5.170
 7928SOL     OW24682   1.802   4.663   3.068
 7928SOL    HW124683   1.873   4.733   3.071
 7928SOL    HW224684   1.755   4.658   3.156
 7929SOL     OW24685   4.175   3.634   5.012
 7929SOL    HW124686   4.216   3.544   5.028
 7929SOL    HW224687   4.187   3.692   5.092
 7930SOL     OW24688   4.530   5.192   3.639
 7930SOL    HW124689   4.457   5.256   3.663
 7930SOL    HW224690   4.612   5.243   3.614
 7931SOL     OW24691   2.041   2.711   6.937
 7931SOL    HW124692   2.055   2.689   6.840
 7931SOL    HW224693   2.082   2.799   6.958
 7932SOL     OW24694   2.794   0.488   6.728
 7932SOL    HW124695   2.803   0.578   6.769
 7932SOL    HW224696   2.708   0.482   6.678
 7933SOL     OW24697   0.745   6.202   0.028
 7933SOL    HW124698   0.679   6.187   6.978
 7933SOL    HW224699   0.816   6.266   7.020
 7934SOL     OW24700   2.582   3.617   0.529
 7934SOL    HW124701   2.510   3.553   0.504
 7934SOL    HW224702   2.626   3.653   0.446
 7935SOL     OW24703   4.968   5.768   0.332
 7935SOL    HW124704   5.060   5.789   0.298
 7935SOL    HW224705   4.900   5.821   0.281
 7936SOL     OW24706   3.508   6.120   3.294
 7936SOL    HW124707   3.492   6.219   3.295
 7936SOL    HW224708   3.606   6.103   3.284
 7937SOL     OW24709   5.759   6.758   5.545
 7937SOL    HW124710   5.731   6.852   5.524
 7937SOL    HW224711   5.858   6.750   5.535
 7938SOL     OW24712   3.899   5.248   4.824
 7938SOL    HW124713   3.996   5.226   4.819
 7938SOL    HW224714   3.877   5.321   4.759
 7939SOL     OW24715   1.200   1.549   5.617
 7939SOL    HW124716   1.252   1.500   5.687
 7939SOL    HW224717   1.157   1.484   5.555
 7940SOL     OW24718   2.096   5.962   1.615
 7940SOL    HW124719   2.032   5.940   1.688
 7940SOL    HW224720   2.168   5.893   1.611
 7941SOL     OW24721   0.222   1.073   0.916
 7941SOL    HW124722   0.314   1.072   0.955
 7941SOL    HW224723   0.196   0.979   0.891
 7942SOL     OW24724   0.185   6.400   1.951
 7942SOL    HW124725   0.145   6.358   2.032
 7942SOL    HW224726   0.189   6.499   1.963
 7943SOL     OW24727   5.663   2.395   1.068
 7943SOL    HW124728   5.728   2.404   0.992
 7943SOL    HW224729   5.612   2.480   1.078
 7944SOL     OW24730   0.037   2.884   1.773
 7944SOL    HW124731   6.994   2.843   1.837
 7944SOL    HW224732   0.125   2.896   1.819
 7945SOL     OW24733   4.791   0.110   2.368
 7945SOL    HW124734   4.866   0.158   2.415
 7945SOL    HW224735   4.776   0.153   2.278
 7946SOL     OW24736   1.628   2.329   5.981
 7946SOL    HW124737   1.726   2.340   5.965
 7946SOL    HW224738   1.584   2.419   5.979
 7947SOL     OW24739   3.782   2.813   6.643
 7947SOL    HW124740   3.743   2.794   6.734
 7947SOL    HW224741   3.875   2.778   6.639
 7948SOL     OW24742   6.985   6.791   0.520
 7948SOL    HW124743   6.910   6.821   0.578
 7948SOL    HW224744   6.971   6.695   0.494
 7949SOL     OW24745   5.060   4.876   4.269
 7949SOL    HW124746   5.149   4.878   4.314
 7949SOL    HW224747   5.018   4.967   4.272
 7950SOL     OW24748   4.261   5.321   3.374
 7950SOL    HW124749   4.228   5.323   3.469
 7950SOL    HW224750   4.287   5.413   3.346
 7951SOL     OW24751   2.688   3.468   1.222
 7951SOL    HW124752   2.628   3.540   1.188
 7951SOL    HW224753   2.706   3.402   1.149
 7952SOL     OW24754   6.843   2.684   6.666
 7952SOL    HW124755   6.918   2.721   6.610
 7952SOL    HW224756   6.857   2.586   6.679
 7953SOL     OW24757   2.259   2.635   3.174
 7953SOL    HW124758   2.218   2.707   3.118
 7953SOL    HW224759   2.208   2.627   3.260
 7954SOL     OW24760   4.446   5.357   4.835
 7954SOL    HW124761   4.470   5.378   4.930
 7954SOL    HW224762   4.477   5.430   4.776
 7955SOL     OW24763   0.041   6.463   6.842
 7955SOL    HW124764   0.123   6.420   6.881
 7955SOL    HW224765   6.982   6.416   6.875
 7956SOL     OW24766   0.315   5.834   3.859
 7956SOL    HW124767   0.256   5.788   3.925
 7956SOL    HW224768   0.405   5.850   3.900
 7957SOL     OW24769   1.331   2.015   6.982
 7957SOL    HW124770   1.395   1.958   6.932
 7957SOL    HW224771   1.368   2.037   0.050
 7958SOL     OW24772   3.631   5.876   4.122
 7958SOL    HW124773   3.712   5.834   4.162
 7958SOL    HW224774   3.657   5.960   4.074
 7959SOL     OW24775   5.633   4.296   0.577
 7959SOL    HW124776   5.680   4.220   0.532
 7959SOL    HW224777   5.540   4.304   0.540
 7960SOL     OW24778   3.025   1.686   1.091
 7960SOL    HW124779   2.967   1.758   1.053
 7960SOL    HW224780   3.112   1.725   1.120
 7961SOL     OW24781   1.854   6.664   6.226
 7961SOL    HW124782   1.907   6.617   6.155
 7961SOL    HW224783   1.867   6.763   6.217
 7962SOL     OW24784   2.061   1.262   0.850
 7962SOL    HW124785   2.003   1.180   0.852
 7962SOL    HW224786   2.153   1.236   0.822
 7963SOL     OW24787   0.103   1.044   5.382
 7963SOL    HW124788   0.104   0.966   5.444
 7963SOL    HW224789   0.100   1.010   5.287
 7964SOL     OW24790   5.388   5.240   3.802
 7964SOL    HW124791   5.431   5.152   3.821
 7964SOL    HW224792   5.458   5.306   3.774
 7965SOL     OW24793   4.214   2.310   0.131
 7965SOL    HW124794   4.194   2.259   0.047
 7965SOL    HW224795   4.219   2.408   0.110
 7966SOL     OW24796   1.249   4.093   4.875
 7966SOL    HW124797   1.308   4.107   4.954
 7966SOL    HW224798   1.194   4.175   4.859
 7967SOL     OW24799   2.796   5.407   3.257
 7967SOL    HW124800   2.851   5.490   3.271
 7967SOL    HW224801   2.840   5.349   3.188
 7968SOL     OW24802   2.524   2.366   3.465
 7968SOL    HW124803   2.509   2.293   3.533
 7968SOL    HW224804   2.619   2.396   3.469
 7969SOL     OW24805   3.955   0.178   2.329
 7969SOL    HW124806   3.861   0.144   2.341
 7969SOL    HW224807   3.955   0.278   2.333
 7970SOL     OW24808   6.943   3.619   3.032
 7970SOL    HW124809   6.949   3.629   2.933
 7970SOL    HW224810   6.873   3.550   3.054
 7971SOL     OW24811   2.879   0.955   2.407
 7971SOL    HW124812   2.793   1.002   2.387
 7971SOL    HW224813   2.937   0.954   2.326
 7972SOL     OW24814   6.796   4.388   1.516
 7972SOL    HW124815   6.778   4.408   1.419
 7972SOL    HW224816   6.739   4.311   1.544
 7973SOL     OW24817   5.195   3.494   3.822
 7973SOL    HW124818   5.203   3.587   3.787
 7973SOL    HW224819   5.224   3.429   3.753
 7974SOL     OW24820   5.743   0.271   4.225
 7974SOL    HW124821   5.703   0.357   4.194
 7974SOL    HW224822   5.706   0.248   4.316
 7975SOL     OW24823   4.379   0.743   4.049
 7975SOL    HW124824   4.361   0.702   4.138
 7975SOL    HW224825   4.309   0.811   4.028
 7976SOL     OW24826   0.553   6.766   5.558
 7976SOL    HW124827   0.477   6.793   5.617
 7976SOL    HW224828   0.520   6.698   5.492
 7977SOL     OW24829   5.048   6.237   2.617
 7977SOL    HW124830   5.113   6.183   2.670
 7977SOL    HW224831   5.024   6.187   2.534
 7978SOL     OW24832   4.823   4.062   6.418
 7978SOL    HW124833   4.777   3.982   6.380
 7978SOL    HW224834   4.916   4.067   6.381
 7979SOL     OW24835   3.124   0.315   4.778
 7979SOL    HW124836   3.208   0.367   4.767
 7979SOL    HW224837   3.093   0.321   4.873
 7980SOL     OW24838   3.664   5.741   0.318
 7980SOL    HW124839   3.693   5.648   0.298
 7980SOL    HW224840   3.732   5.806   0.284
 7981SOL     OW24841   0.731   5.208   2.191
 7981SOL    HW124842   0.655   5.143   2.200
 7981SOL    HW224843   0.760   5.213   2.096
 7982SOL     OW24844   6.780   2.381   0.219
 7982SOL    HW124845   6.798   2.358   0.314
 7982SOL    HW224846   6.687   2.417   0.210
 7983SOL     OW24847   5.812   1.388   2.934
 7983SOL    HW124848   5.740   1.356   2.995
 7983SOL    HW224849   5.893   1.414   2.987
 7984SOL     OW24850   1.009   2.051   2.017
 7984SOL    HW124851   1.087   2.022   1.962
 7984SOL    HW224852   1.028   2.140   2.058
 7985SOL     OW24853   1.681   0.405   2.341
 7985SOL    HW124854   1.743   0.351   2.398
 7985SOL    HW224855   1.723   0.419   2.251
 7986SOL     OW24856   3.768   1.567   6.942
 7986SOL    HW124857   3.717   1.552   0.004
 7986SOL    HW224858   3.707   1.604   6.872
 7987SOL     OW24859   0.034   3.083   5.564
 7987SOL    HW124860   0.035   3.183   5.552
 7987SOL    HW224861   0.127   3.049   5.563
 7988SOL     OW24862   2.738   2.396   4.876
 7988SOL    HW124863   2.694   2.423   4.791
 7988SOL    HW224864   2.683   2.426   4.954
 7989SOL     OW24865   3.667   2.547   5.326
 7989SOL    HW124866   3.570   2.527   5.315
 7989SOL    HW224867   3.707   2.482   5.390
 7990SOL     OW24868   1.251   2.672   4.219
 7990SOL    HW124869   1.275   2.742   4.152
 7990SOL    HW224870   1.197   2.713   4.292
 7991SOL     OW24871   0.022   2.712   6.167
 7991SOL    HW124872   6.973   2.725   6.235
 7991SOL    HW224873   0.074   2.796   6.157
 7992SOL     OW24874   1.253   6.805   1.186
 7992SOL    HW124875   1.250   6.754   1.272
 7992SOL    HW224876   1.276   6.743   1.111
 7993SOL     OW24877   2.104   5.800   6.747
 7993SOL    HW124878   2.044   5.805   6.827
 7993SOL    HW224879   2.123   5.892   6.714
 7994SOL     OW24880   4.638   0.769   3.923
 7994SOL    HW124881   4.726   0.753   3.966
 7994SOL    HW224882   4.565   0.730   3.980
 7995SOL     OW24883   4.112   5.637   4.267
 7995SOL    HW124884   4.053   5.570   4.312
 7995SOL    HW224885   4.120   5.616   4.170
 7996SOL     OW24886   3.560   6.651   4.275
 7996SOL    HW124887   3.547   6.552   4.274
 7996SOL    HW224888   3.510   6.691   4.353
 7997SOL     OW24889   6.256   1.887   0.883
 7997SOL    HW124890   6.300   1.866   0.970
 7997SOL    HW224891   6.161   1.913   0.899
 7998SOL     OW24892   4.973   5.011   0.133
 7998SOL    HW124893   4.961   4.925   0.084
 7998SOL    HW224894   5.068   5.020   0.162
 7999SOL     OW24895   0.984   0.004   5.537
 7999SOL    HW124896   1.025   0.090   5.506
 7999SOL    HW224897   0.960   6.971   5.457
 8000SOL     OW24898   5.716   0.583   6.231
 8000SOL    HW124899   5.735   0.618   6.323
 8000SOL    HW224900   5.641   0.636   6.191
 8001SOL     OW24901   2.049   6.194   1.997
 8001SOL    HW124902   2.022   6.098   1.997
 8001SOL    HW224903   1.968   6.251   2.010
 8002SOL     OW24904   0.204   3.456   5.244
 8002SOL    HW124905   0.243   3.369   5.215
 8002SOL    HW224906   0.275   3.512   5.286
 8003SOL     OW24907   3.164   4.903   2.883
 8003SOL    HW124908   3.256   4.912   2.921
 8003SOL    HW224909   3.159   4.953   2.796
 8004SOL     OW24910   2.347   4.295   3.400
 8004SOL    HW124911   2.346   4.219   3.334
 8004SOL    HW224912   2.395   4.373   3.359
 8005SOL     OW24913   2.505   1.032   2.078
 8005SOL    HW124914   2.500   0.947   2.130
 8005SOL    HW224915   2.599   1.066   2.077
 8006SOL     OW24916   2.457   5.567   0.007
 8006SOL    HW124917   2.455   5.478   6.983
 8006SOL    HW224918   2.551   5.599   0.014
 8007SOL     OW24919   1.120   0.052   3.760
 8007SOL    HW124920   1.041   7.018   3.737
 8007SOL    HW224921   1.196   7.015   3.788
 8008SOL     OW24922   5.440   6.311   6.507
 8008SOL    HW124923   5.438   6.302   6.407
 8008SOL    HW224924   5.374   6.248   6.547
 8009SOL     OW24925   6.604   0.316   3.198
 8009SOL    HW124926   6.588   0.233   3.252
 8009SOL    HW224927   6.649   0.291   3.112
 8010SOL     OW24928   2.475   1.571   6.707
 8010SOL    HW124929   2.486   1.531   6.798
 8010SOL    HW224930   2.529   1.654   6.700
 8011SOL     OW24931   2.519   2.118   0.978
 8011SOL    HW124932   2.582   2.162   1.042
 8011SOL    HW224933   2.556   2.029   0.950
 8012SOL     OW24934   1.398   6.368   1.165
 8012SOL    HW124935   1.433   6.299   1.228
 8012SOL    HW224936   1.470   6.435   1.145
 8013SOL     OW24937   5.998   4.845   4.519
 8013SOL    HW124938   6.073   4.870   4.580
 8013SOL    HW224939   6.036   4.817   4.430
 8014SOL     OW24940   1.858   5.816   6.461
 8014SOL    HW124941   1.936   5.767   6.422
 8014SOL    HW224942   1.877   5.837   6.557
 8015SOL     OW24943   2.970   2.545   0.575
 8015SOL    HW124944   3.066   2.575   0.576
 8015SOL    HW224945   2.959   2.467   0.637
 8016SOL     OW24946   4.620   0.432   0.423
 8016SOL    HW124947   4.622   0.334   0.401
 8016SOL    HW224948   4.670   0.448   0.508
 8017SOL     OW24949   0.342   3.968   5.907
 8017SOL    HW124950   0.287   3.891   5.876
 8017SOL    HW224951   0.340   3.973   6.007
 8018SOL     OW24952   5.051   1.611   5.588
 8018SOL    HW124953   5.043   1.605   5.688
 8018SOL    HW224954   4.962   1.593   5.546
 8019SOL     OW24955   1.622   4.801   0.553
 8019SOL    HW124956   1.721   4.804   0.537
 8019SOL    HW224957   1.604   4.823   0.649
 8020SOL     OW24958   5.727   6.150   6.817
 8020SOL    HW124959   5.649   6.103   6.775
 8020SOL    HW224960   5.811   6.121   6.772
 8021SOL     OW24961   0.760   1.340   1.899
 8021SOL    HW124962   0.849   1.297   1.886
 8021SOL    HW224963   0.730   1.379   1.812
 8022SOL     OW24964   4.287   0.571   2.655
 8022SOL    HW124965   4.371   0.537   2.697
 8022SOL    HW224966   4.280   0.537   2.562
 8023SOL     OW24967   6.138   6.438   2.975
 8023SOL    HW124968   6.224   6.413   3.020
 8023SOL    HW224969   6.157   6.471   2.882
 8024SOL     OW24970   4.029   5.791   6.531
 8024SOL    HW124971   4.008   5.697   6.504
 8024SOL    HW224972   4.061   5.792   6.626
 8025SOL     OW24973   3.514   6.530   6.281
 8025SOL    HW124974   3.538   6.515   6.376
 8025SOL    HW224975   3.444   6.602   6.275
 8026SOL     OW24976   0.481   3.955   7.014
 8026SOL    HW124977   0.444   3.957   0.084
 8026SOL    HW224978   0.422   3.899   6.956
 8027SOL     OW24979   4.762   1.787   4.997
 8027SOL    HW124980   4.703   1.720   4.952
 8027SOL    HW224981   4.819   1.741   5.064
 8028SOL     OW24982   4.340   5.365   5.940
 8028SOL    HW124983   4.398   5.409   6.008
 8028SOL    HW224984   4.397   5.320   5.871
 8029SOL     OW24985   4.991   4.198   6.601
 8029SOL    HW124986   4.914   4.218   6.540
 8029SOL    HW224987   4.969   4.120   6.659
 8030SOL     OW24988   5.227   4.467   5.562
 8030SOL    HW124989   5.249   4.559   5.528
 8030SOL    HW224990   5.225   4.467   5.662
 8031SOL     OW24991   4.713   4.794   2.104
 8031SOL    HW124992   4.689   4.698   2.092
 8031SOL    HW224993   4.788   4.802   2.169
 8032SOL     OW24994   6.088   3.597   4.704
 8032SOL    HW124995   6.166   3.610   4.643
 8032SOL    HW224996   6.106   3.521   4.767
 8033SOL     OW24997   5.600   2.518   6.983
 8033SOL    HW124998   5.504   2.515   7.010
 8033SOL    HW224999   5.658   2.525   0.041
 8034SOL     OW25000   6.362   6.897   5.212
 8034SOL    HW125001   6.336   6.930   5.303
 8034SOL    HW225002   6.460   6.909   5.199
 8035SOL     OW25003   5.902   6.323   5.614
 8035SOL    HW125004   5.809   6.289   5.595
 8035SOL    HW225005   5.923   6.399   5.553
 8036SOL     OW25006   2.008   3.617   1.693
 8036SOL    HW125007   2.003   3.517   1.693
 8036SOL    HW225008   2.080   3.647   1.756
 8037SOL     OW25009   2.293   3.357   1.059
 8037SOL    HW125010   2.359   3.339   1.132
 8037SOL    HW225011   2.317   3.441   1.011
 8038SOL     OW25012   6.609   2.146   3.329
 8038SOL    HW125013   6.675   2.146   3.405
 8038SOL    HW225014   6.554   2.229   3.332
 8039SOL     OW25015   1.822   6.664   2.723
 8039SOL    HW125016   1.744   6.716   2.760
 8039SOL    HW225017   1.789   6.577   2.686
 8040SOL     OW25018   0.533   5.570   0.933
 8040SOL    HW125019   0.440   5.594   0.906
 8040SOL    HW225020   0.556   5.480   0.895
 8041SOL     OW25021   3.539   1.165   1.304
 8041SOL    HW125022   3.580   1.230   1.240
 8041SOL    HW225023   3.448   1.196   1.329
 8042SOL     OW25024   3.666   2.961   2.025
 8042SOL    HW125025   3.681   2.883   1.964
 8042SOL    HW225026   3.754   3.001   2.051
 8043SOL     OW25027   2.452   0.795   0.969
 8043SOL    HW125028   2.442   0.716   0.909
 8043SOL    HW225029   2.549   0.816   0.980
 8044SOL     OW25030   3.198   2.908   1.490
 8044SOL    HW125031   3.296   2.913   1.474
 8044SOL    HW225032   3.153   2.985   1.444
 8045SOL     OW25033   6.086   1.645   2.841
 8045SOL    HW125034   6.012   1.655   2.908
 8045SOL    HW225035   6.159   1.590   2.881
 8046SOL     OW25036   5.308   4.418   5.842
 8046SOL    HW125037   5.298   4.469   5.927
 8046SOL    HW225038   5.336   4.324   5.862
 8047SOL     OW25039   3.196   5.658   4.610
 8047SOL    HW125040   3.246   5.576   4.639
 8047SOL    HW225041   3.098   5.642   4.619
 8048SOL     OW25042   5.591   0.784   5.466
 8048SOL    HW125043   5.519   0.725   5.429
 8048SOL    HW225044   5.652   0.730   5.524
 8049SOL     OW25045   0.538   6.827   0.890
 8049SOL    HW125046   0.542   6.731   0.914
 8049SOL    HW225047   0.563   6.883   0.969
 8050SOL     OW25048   1.496   3.086   1.307
 8050SOL    HW125049   1.535   3.157   1.248
 8050SOL    HW225050   1.419   3.042   1.259
 8051SOL     OW25051   4.831   0.443   2.543
 8051SOL    HW125052   4.880   0.526   2.519
 8051SOL    HW225053   4.890   0.364   2.529
 8052SOL     OW25054   3.355   1.376   2.364
 8052SOL    HW125055   3.272   1.431   2.367
 8052SOL    HW225056   3.336   1.290   2.316
 8053SOL     OW25057   4.008   3.830   2.954
 8053SOL    HW125058   4.052   3.810   3.041
 8053SOL    HW225059   3.948   3.910   2.964
 8054SOL     OW25060   4.487   6.869   4.675
 8054SOL    HW125061   4.491   6.966   4.699
 8054SOL    HW225062   4.565   6.822   4.717
 8055SOL     OW25063   0.533   0.297   6.352
 8055SOL    HW125064   0.547   0.303   6.253
 8055SOL    HW225065   0.584   0.219   6.389
 8056SOL     OW25066   4.346   1.338   2.823
 8056SOL    HW125067   4.259   1.298   2.794
 8056SOL    HW225068   4.335   1.438   2.830
 8057SOL     OW25069   2.928   0.400   2.551
 8057SOL    HW125070   2.843   0.389   2.500
 8057SOL    HW225071   2.969   0.488   2.529
 8058SOL     OW25072   3.008   0.089   2.434
 8058SOL    HW125073   2.998   0.130   2.343
 8058SOL    HW225074   2.922   0.097   2.484
 8059SOL     OW25075   3.960   2.196   4.556
 8059SOL    HW125076   3.962   2.098   4.579
 8059SOL    HW225077   3.985   2.249   4.637
 8060SOL     OW25078   6.956   1.317   4.703
 8060SOL    HW125079   0.017   1.277   4.741
 8060SOL    HW225080   6.977   1.359   4.614
 8061SOL     OW25081   6.274   5.356   2.624
 8061SOL    HW125082   6.336   5.276   2.623
 8061SOL    HW225083   6.329   5.440   2.621
 8062SOL     OW25084   1.467   4.269   4.407
 8062SOL    HW125085   1.444   4.187   4.354
 8062SOL    HW225086   1.419   4.265   4.495
 8063SOL     OW25087   2.296   3.826   7.005
 8063SOL    HW125088   2.360   3.903   6.998
 8063SOL    HW225089   2.206   3.855   6.973
 8064SOL     OW25090   0.446   4.458   0.207
 8064SOL    HW125091   0.469   4.360   0.204
 8064SOL    HW225092   0.350   4.470   0.180
 8065SOL     OW25093   4.182   0.035   4.700
 8065SOL    HW125094   4.184   0.074   4.608
 8065SOL    HW225095   4.134   6.970   4.698
 8066SOL     OW25096   1.525   1.240   6.797
 8066SOL    HW125097   1.436   1.196   6.805
 8066SOL    HW225098   1.595   1.183   6.839
 8067SOL     OW25099   4.161   3.028   1.696
 8067SOL    HW125100   4.064   3.023   1.718
 8067SOL    HW225101   4.207   2.947   1.732
 8068SOL     OW25102   6.877   5.183   4.879
 8068SOL    HW125103   6.911   5.151   4.967
 8068SOL    HW225104   6.926   5.137   4.805
 8069SOL     OW25105   2.041   6.394   1.381
 8069SOL    HW125106   2.011   6.302   1.405
 8069SOL    HW225107   2.124   6.416   1.432
 8070SOL     OW25108   3.349   5.819   1.593
 8070SOL    HW125109   3.332   5.823   1.494
 8070SOL    HW225110   3.443   5.850   1.611
 8071SOL     OW25111   4.248   6.650   5.116
 8071SOL    HW125112   4.273   6.676   5.023
 8071SOL    HW225113   4.167   6.591   5.114
 8072SOL     OW25114   4.715   1.264   0.440
 8072SOL    HW125115   4.685   1.169   0.433
 8072SOL    HW225116   4.636   1.322   0.462
 8073SOL     OW25117   4.776   6.668   6.175
 8073SOL    HW125118   4.732   6.758   6.171
 8073SOL    HW225119   4.814   6.653   6.266
 8074SOL     OW25120   2.873   3.356   0.590
 8074SOL    HW125121   2.938   3.432   0.591
 8074SOL    HW225122   2.791   3.383   0.539
 8075SOL     OW25123   6.604   1.149   1.559
 8075SOL    HW125124   6.611   1.230   1.501
 8075SOL    HW225125   6.691   1.134   1.606
 8076SOL     OW25126   5.374   2.541   5.374
 8076SOL    HW125127   5.337   2.570   5.462
 8076SOL    HW225128   5.314   2.472   5.334
 8077SOL     OW25129   0.943   6.871   1.563
 8077SOL    HW125130   1.035   6.873   1.603
 8077SOL    HW225131   0.950   6.870   1.463
 8078SOL     OW25132   6.741   1.632   0.448
 8078SOL    HW125133   6.714   1.590   0.361
 8078SOL    HW225134   6.685   1.714   0.464
 8079SOL     OW25135   6.533   2.130   3.075
 8079SOL    HW125136   6.533   2.116   3.174
 8079SOL    HW225137   6.476   2.208   3.052
 8080SOL     OW25138   2.114   3.795   0.876
 8080SOL    HW125139   2.021   3.777   0.908
 8080SOL    HW225140   2.110   3.859   0.799
 8081SOL     OW25141   5.474   1.053   5.721
 8081SOL    HW125142   5.475   1.059   5.621
 8081SOL    HW225143   5.413   1.123   5.757
 8082SOL     OW25144   5.958   2.412   3.325
 8082SOL    HW125145   5.961   2.357   3.242
 8082SOL    HW225146   6.040   2.395   3.379
 8083SOL     OW25147   5.206   3.191   2.583
 8083SOL    HW125148   5.261   3.250   2.643
 8083SOL    HW225149   5.223   3.215   2.487
 8084SOL     OW25150   6.507   5.845   1.293
 8084SOL    HW125151   6.491   5.915   1.223
 8084SOL    HW225152   6.558   5.886   1.370
 8085SOL     OW25153   5.613   6.960   1.263
 8085SOL    HW125154   5.555   6.960   1.345
 8085SOL    HW225155   5.598   0.022   1.212
 8086SOL     OW25156   4.505   0.341   4.351
 8086SOL    HW125157   4.481   0.248   4.379
 8086SOL    HW225158   4.570   0.338   4.276
 8087SOL     OW25159   2.732   2.343   0.837
 8087SOL    HW125160   2.771   2.251   0.839
 8087SOL    HW225161   2.691   2.364   0.925
 8088SOL     OW25162   6.032   1.029   2.293
 8088SOL    HW125163   6.055   1.123   2.317
 8088SOL    HW225164   5.967   1.029   2.217
 8089SOL     OW25165   4.988   3.274   0.050
 8089SOL    HW125166   5.067   3.225   0.014
 8089SOL    HW225167   4.917   3.279   7.002
 8090SOL     OW25168   5.298   1.666   6.510
 8090SOL    HW125169   5.333   1.754   6.478
 8090SOL    HW225170   5.356   1.633   6.584
 8091SOL     OW25171   3.308   4.598   7.013
 8091SOL    HW125172   3.399   4.632   6.986
 8091SOL    HW225173   3.269   4.659   0.059
 8092SOL     OW25174   1.278   1.444   4.655
 8092SOL    HW125175   1.281   1.523   4.715
 8092SOL    HW225176   1.200   1.452   4.593
 8093SOL     OW25177   5.526   5.448   1.822
 8093SOL    HW125178   5.540   5.350   1.816
 8093SOL    HW225179   5.476   5.470   1.906
 8094SOL     OW25180   1.353   4.380   6.498
 8094SOL    HW125181   1.411   4.422   6.429
 8094SOL    HW225182   1.396   4.295   6.529
 8095SOL     OW25183   6.006   3.595   4.172
 8095SOL    HW125184   6.085   3.590   4.233
 8095SOL    HW225185   5.984   3.503   4.140
 8096SOL     OW25186   3.035   5.632   2.398
 8096SOL    HW125187   2.973   5.555   2.414
 8096SOL    HW225188   3.129   5.604   2.421
 8097SOL     OW25189   4.829   0.353   3.135
 8097SOL    HW125190   4.755   0.311   3.187
 8097SOL    HW225191   4.905   0.375   3.197
 8098SOL     OW25192   2.117   5.931   4.169
 8098SOL    HW125193   2.093   5.835   4.152
 8098SOL    HW225194   2.043   5.975   4.220
 8099SOL     OW25195   5.657   6.981   4.253
 8099SOL    HW125196   5.634   7.001   4.158
 8099SOL    HW225197   5.629   0.034   4.311
 8100SOL     OW25198   0.358   6.667   0.131
 8100SOL    HW125199   0.345   6.742   0.066
 8100SOL    HW225200   0.360   6.704   0.224
 8101SOL     OW25201   1.299   0.035   5.074
 8101SOL    HW125202   1.318   0.037   4.976
 8101SOL    HW225203   1.316   6.966   5.110
 8102SOL     OW25204   0.449   5.233   6.160
 8102SOL    HW125205   0.433   5.269   6.252
 8102SOL    HW225206   0.374   5.173   6.134
 8103SOL     OW25207   4.041   1.391   1.782
 8103SOL    HW125208   3.942   1.401   1.796
 8103SOL    HW225209   4.082   1.355   1.866
 8104SOL     OW25210   3.644   6.762   5.950
 8104SOL    HW125211   3.656   6.663   5.937
 8104SOL    HW225212   3.676   6.810   5.868
 8105SOL     OW25213   2.638   2.249   4.012
 8105SOL    HW125214   2.602   2.307   4.085
 8105SOL    HW225215   2.622   2.294   3.924
 8106SOL     OW25216   1.318   4.130   3.364
 8106SOL    HW125217   1.243   4.075   3.327
 8106SOL    HW225218   1.403   4.077   3.362
 8107SOL     OW25219   2.220   6.535   5.840
 8107SOL    HW125220   2.269   6.462   5.887
 8107SOL    HW225221   2.221   6.518   5.741
 8108SOL     OW25222   6.928   3.698   4.653
 8108SOL    HW125223   6.951   3.604   4.625
 8108SOL    HW225224   6.871   3.696   4.735
 8109SOL     OW25225   2.107   4.584   5.346
 8109SOL    HW125226   2.206   4.576   5.339
 8109SOL    HW225227   2.068   4.589   5.254
 8110SOL     OW25228   2.185   6.785   0.547
 8110SOL    HW125229   2.198   6.772   0.645
 8110SOL    HW225230   2.207   6.879   0.522
 8111SOL     OW25231   2.760   6.407   5.037
 8111SOL    HW125232   2.796   6.463   5.111
 8111SOL    HW225233   2.771   6.310   5.059
 8112SOL     OW25234   2.898   0.326   5.511
 8112SOL    HW125235   2.956   0.251   5.543
 8112SOL    HW225236   2.895   0.325   5.411
 8113SOL     OW25237   3.626   2.309   0.226
 8113SOL    HW125238   3.540   2.274   0.191
 8113SOL    HW225239   3.685   2.335   0.149
 8114SOL     OW25240   2.253   2.995   2.443
 8114SOL    HW125241   2.288   2.920   2.387
 8114SOL    HW225242   2.243   3.076   2.386
 8115SOL     OW25243   3.060   1.262   1.470
 8115SOL    HW125244   2.964   1.281   1.489
 8115SOL    HW225245   3.118   1.320   1.527
 8116SOL     OW25246   6.188   6.978   5.438
 8116SOL    HW125247   6.205   0.046   5.400
 8116SOL    HW225248   6.190   6.983   5.538
 8117SOL     OW25249   1.370   1.727   4.315
 8117SOL    HW125250   1.465   1.759   4.309
 8117SOL    HW225251   1.367   1.628   4.306
 8118SOL     OW25252   1.112   4.316   5.659
 8118SOL    HW125253   1.206   4.349   5.668
 8118SOL    HW225254   1.060   4.341   5.742
 8119SOL     OW25255   0.380   5.499   3.888
 8119SOL    HW125256   0.462   5.541   3.849
 8119SOL    HW225257   0.329   5.567   3.941
 8120SOL     OW25258   4.323   4.498   0.372
 8120SOL    HW125259   4.310   4.433   0.297
 8120SOL    HW225260   4.292   4.458   0.458
 8121SOL     OW25261   0.150   6.843   3.105
 8121SOL    HW125262   0.115   6.895   3.182
 8121SOL    HW225263   0.181   6.905   3.033
 8122SOL     OW25264   0.609   5.686   1.550
 8122SOL    HW125265   0.599   5.626   1.471
 8122SOL    HW225266   0.537   5.756   1.548
 8123SOL     OW25267   1.043   6.648   6.257
 8123SOL    HW125268   0.983   6.728   6.253
 8123SOL    HW225269   1.136   6.677   6.277
 8124SOL     OW25270   1.519   5.569   0.960
 8124SOL    HW125271   1.431   5.525   0.981
 8124SOL    HW225272   1.568   5.588   1.045
 8125SOL     OW25273   6.091   4.583   2.688
 8125SOL    HW125274   5.995   4.566   2.707
 8125SOL    HW225275   6.129   4.642   2.759
 8126SOL     OW25276   5.873   4.197   3.213
 8126SOL    HW125277   5.865   4.293   3.187
 8126SOL    HW225278   5.914   4.190   3.303
 8127SOL     OW25279   2.291   5.354   0.502
 8127SOL    HW125280   2.335   5.432   0.459
 8127SOL    HW225281   2.202   5.338   0.459
 8128SOL     OW25282   2.957   2.722   6.549
 8128SOL    HW125283   2.865   2.691   6.570
 8128SOL    HW225284   3.000   2.757   6.632
 8129SOL     OW25285   5.415   0.532   6.433
 8129SOL    HW125286   5.500   0.537   6.485
 8129SOL    HW225287   5.384   0.437   6.430
 8130SOL     OW25288   0.867   5.227   6.235
 8130SOL    HW125289   0.778   5.237   6.191
 8130SOL    HW225290   0.923   5.309   6.217
 8131SOL     OW25291   3.445   0.846   0.446
 8131SOL    HW125292   3.439   0.754   0.405
 8131SOL    HW225293   3.495   0.841   0.532
 8132SOL     OW25294   6.085   5.337   4.545
 8132SOL    HW125295   6.152   5.290   4.488
 8132SOL    HW225296   6.008   5.367   4.488
 8133SOL     OW25297   3.010   5.154   3.323
 8133SOL    HW125298   2.974   5.193   3.239
 8133SOL    HW225299   3.056   5.226   3.376
 8134SOL     OW25300   2.146   1.972   4.126
 8134SOL    HW125301   2.052   1.940   4.140
 8134SOL    HW225302   2.202   1.950   4.205
 8135SOL     OW25303   3.518   5.326   2.170
 8135SOL    HW125304   3.499   5.241   2.120
 8135SOL    HW225305   3.437   5.385   2.167
 8136SOL     OW25306   3.708   5.368   2.351
 8136SOL    HW125307   3.790   5.347   2.297
 8136SOL    HW225308   3.627   5.330   2.306
 8137SOL     OW25309   1.909   3.386   4.990
 8137SOL    HW125310   1.994   3.405   4.939
 8137SOL    HW225311   1.856   3.470   4.998
 8138SOL     OW25312   5.735   1.659   2.259
 8138SOL    HW125313   5.782   1.609   2.332
 8138SOL    HW225314   5.673   1.726   2.300
 8139SOL     OW25315   0.846   3.087   3.260
 8139SOL    HW125316   0.761   3.036   3.246
 8139SOL    HW225317   0.827   3.171   3.310
 8140SOL     OW25318   4.713   6.986   0.185
 8140SOL    HW125319   4.663   0.020   0.251
 8140SOL    HW225320   4.649   6.945   0.121
 8141SOL     OW25321   5.095   1.350   5.803
 8141SOL    HW125322   5.091   1.342   5.703
 8141SOL    HW225323   5.186   1.323   5.835
 8142SOL     OW25324   2.266   5.982   0.010
 8142SOL    HW125325   2.271   5.987   0.110
 8142SOL    HW225326   2.259   5.887   7.004
 8143SOL     OW25327   4.964   4.280   0.663
 8143SOL    HW125328   4.982   4.182   0.655
 8143SOL    HW225329   4.886   4.296   0.724
 8144SOL     OW25330   0.531   5.867   5.952
 8144SOL    HW125331   0.513   5.916   5.866
 8144SOL    HW225332   0.504   5.925   6.029
 8145SOL     OW25333   5.689   5.690   0.686
 8145SOL    HW125334   5.780   5.707   0.723
 8145SOL    HW225335   5.620   5.734   0.743
 8146SOL     OW25336   6.010   0.213   4.329
 8146SOL    HW125337   5.921   0.235   4.289
 8146SOL    HW225338   6.063   0.158   4.265
 8147SOL     OW25339   0.818   0.531   6.326
 8147SOL    HW125340   0.829   0.446   6.377
 8147SOL    HW225341   0.903   0.584   6.331
 8148SOL     OW25342   3.819   4.227   6.655
 8148SOL    HW125343   3.780   4.227   6.564
 8148SOL    HW225344   3.848   4.319   6.680
 8149SOL     OW25345   1.117   0.201   4.809
 8149SOL    HW125346   1.025   0.197   4.768
 8149SOL    HW225347   1.183   0.159   4.747
 8150SOL     OW25348   1.029   3.412   1.003
 8150SOL    HW125349   0.992   3.476   0.936
 8150SOL    HW225350   0.954   3.366   1.050
 8151SOL     OW25351   6.081   4.811   3.882
 8151SOL    HW125352   6.087   4.905   3.913
 8151SOL    HW225353   6.065   4.750   3.960
 8152SOL     OW25354   4.681   1.614   3.074
 8152SOL    HW125355   4.692   1.626   2.976
 8152SOL    HW225356   4.657   1.701   3.117
 8153SOL     OW25357   0.924   0.849   3.836
 8153SOL    HW125358   0.871   0.785   3.782
 8153SOL    HW225359   0.919   0.824   3.933
 8154SOL     OW25360   2.488   1.641   3.320
 8154SOL    HW125361   2.467   1.645   3.418
 8154SOL    HW225362   2.427   1.703   3.271
 8155SOL     OW25363   1.344   4.362   2.548
 8155SOL    HW125364   1.405   4.429   2.589
 8155SOL    HW225365   1.254   4.367   2.592
 8156SOL     OW25366   5.875   5.348   1.382
 8156SOL    HW125367   5.799   5.364   1.319
 8156SOL    HW225368   5.940   5.424   1.376
 8157SOL     OW25369   6.127   2.977   6.361
 8157SOL    HW125370   6.204   2.978   6.297
 8157SOL    HW225371   6.047   2.936   6.317
 8158SOL     OW25372   5.658   4.803   6.248
 8158SOL    HW125373   5.664   4.816   6.149
 8158SOL    HW225374   5.660   4.892   6.294
 8159SOL     OW25375   3.899   6.440   5.939
 8159SOL    HW125376   3.800   6.436   5.923
 8159SOL    HW225377   3.919   6.413   6.033
 8160SOL     OW25378   5.464   1.688   3.099
 8160SOL    HW125379   5.556   1.716   3.126
 8160SOL    HW225380   5.463   1.590   3.080
 8161SOL     OW25381   5.414   3.498   0.346
 8161SOL    HW125382   5.389   3.520   0.440
 8161SOL    HW225383   5.332   3.475   0.294
 8162SOL     OW25384   0.049   4.773   6.691
 8162SOL    HW125385   0.090   4.802   6.777
 8162SOL    HW225386   0.099   4.814   6.615
 8163SOL     OW25387   4.503   4.685   5.329
 8163SOL    HW125388   4.580   4.733   5.289
 8163SOL    HW225389   4.525   4.659   5.423
 8164SOL     OW25390   5.083   0.953   6.904
 8164SOL    HW125391   5.162   0.964   6.844
 8164SOL    HW225392   5.029   0.875   6.874
 8165SOL     OW25393   6.289   2.738   6.520
 8165SOL    HW125394   6.354   2.672   6.557
 8165SOL    HW225395   6.304   2.827   6.562
 8166SOL     OW25396   1.520   1.986   3.868
 8166SOL    HW125397   1.499   1.888   3.871
 8166SOL    HW225398   1.613   2.001   3.901
 8167SOL     OW25399   6.596   1.339   4.026
 8167SOL    HW125400   6.576   1.258   4.082
 8167SOL    HW225401   6.510   1.383   4.000
 8168SOL     OW25402   1.971   0.768   1.374
 8168SOL    HW125403   1.882   0.771   1.328
 8168SOL    HW225404   2.005   0.861   1.387
 8169SOL     OW25405   4.951   1.994   0.132
 8169SOL    HW125406   5.016   2.058   0.173
 8169SOL    HW225407   4.870   1.987   0.190
 8170SOL     OW25408   6.817   4.287   2.193
 8170SOL    HW125409   6.872   4.364   2.225
 8170SOL    HW225410   6.832   4.274   2.095
 8171SOL     OW25411   1.577   1.428   7.011
 8171SOL    HW125412   1.530   1.377   6.939
 8171SOL    HW225413   1.514   1.493   0.031
 8172SOL     OW25414   0.393   2.042   1.589
 8172SOL    HW125415   0.375   2.077   1.497
 8172SOL    HW225416   0.492   2.030   1.601
 8173SOL     OW25417   5.906   2.261   2.262
 8173SOL    HW125418   5.882   2.306   2.347
 8173SOL    HW225419   5.901   2.162   2.273
 8174SOL     OW25420   1.439   6.122   2.502
 8174SOL    HW125421   1.513   6.190   2.504
 8174SOL    HW225422   1.379   6.141   2.423
 8175SOL     OW25423   1.194   2.233   4.224
 8175SOL    HW125424   1.150   2.146   4.244
 8175SOL    HW225425   1.287   2.217   4.190
 8176SOL     OW25426   1.952   4.292   1.426
 8176SOL    HW125427   1.969   4.242   1.511
 8176SOL    HW225428   1.901   4.234   1.363
 8177SOL     OW25429   3.700   1.098   2.816
 8177SOL    HW125430   3.664   1.047   2.739
 8177SOL    HW225431   3.641   1.084   2.896
 8178SOL     OW25432   2.668   6.657   0.573
 8178SOL    HW125433   2.599   6.670   0.644
 8178SOL    HW225434   2.752   6.706   0.598
 8179SOL     OW25435   5.016   0.938   4.225
 8179SOL    HW125436   5.104   0.962   4.184
 8179SOL    HW225437   5.022   0.949   4.324
 8180SOL     OW25438   5.600   6.775   6.588
 8180SOL    HW125439   5.512   6.819   6.605
 8180SOL    HW225440   5.669   6.815   6.649
 8181SOL     OW25441   0.921   1.057   0.850
 8181SOL    HW125442   0.857   1.134   0.853
 8181SOL    HW225443   0.870   0.971   0.845
 8182SOL     OW25444   3.795   3.783   4.786
 8182SOL    HW125445   3.716   3.826   4.742
 8182SOL    HW225446   3.809   3.691   4.749
 8183SOL     OW25447   6.551   0.693   5.116
 8183SOL    HW125448   6.497   0.725   5.039
 8183SOL    HW225449   6.532   0.750   5.196
 8184SOL     OW25450   1.316   6.685   6.606
 8184SOL    HW125451   1.311   6.625   6.686
 8184SOL    HW225452   1.294   6.779   6.633
 8185SOL     OW25453   1.192   0.553   0.658
 8185SOL    HW125454   1.128   0.568   0.582
 8185SOL    HW225455   1.150   0.584   0.743
 8186SOL     OW25456   1.548   5.225   6.614
 8186SOL    HW125457   1.527   5.127   6.618
 8186SOL    HW225458   1.507   5.264   6.532
 8187SOL     OW25459   2.013   1.643   4.943
 8187SOL    HW125460   2.017   1.712   5.015
 8187SOL    HW225461   2.067   1.563   4.970
 8188SOL     OW25462   4.215   1.952   4.052
 8188SOL    HW125463   4.234   2.049   4.043
 8188SOL    HW225464   4.202   1.929   4.149
 8189SOL     OW25465   4.904   4.891   3.522
 8189SOL    HW125466   4.935   4.949   3.598
 8189SOL    HW225467   4.962   4.810   3.516
 8190SOL     OW25468   5.386   3.687   3.344
 8190SOL    HW125469   5.359   3.763   3.285
 8190SOL    HW225470   5.442   3.623   3.293
 8191SOL     OW25471   4.446   4.901   1.997
 8191SOL    HW125472   4.526   4.902   2.056
 8191SOL    HW225473   4.439   4.812   1.952
 8192SOL     OW25474   1.556   4.998   3.134
 8192SOL    HW125475   1.541   5.047   3.048
 8192SOL    HW225476   1.551   4.900   3.118
 8193SOL     OW25477   6.977   5.020   4.677
 8193SOL    HW125478   6.997   5.048   4.583
 8193SOL    HW225479   6.878   5.025   4.693
 8194SOL     OW25480   4.524   0.183   0.846
 8194SOL    HW125481   4.508   0.211   0.941
 8194SOL    HW225482   4.439   0.190   0.794
 8195SOL     OW25483   5.992   6.760   3.878
 8195SOL    HW125484   6.050   6.745   3.958
 8195SOL    HW225485   5.930   6.836   3.896
 8196SOL     OW25486   4.677   1.105   0.120
 8196SOL    HW125487   4.645   1.181   0.177
 8196SOL    HW225488   4.694   1.025   0.177
 8197SOL     OW25489   4.542   1.771   1.758
 8197SOL    HW125490   4.598   1.780   1.841
 8197SOL    HW225491   4.601   1.760   1.679
 8198SOL     OW25492   2.876   0.363   1.813
 8198SOL    HW125493   2.916   0.423   1.744
 8198SOL    HW225494   2.809   0.415   1.867
 8199SOL     OW25495   4.695   2.603   5.748
 8199SOL    HW125496   4.783   2.642   5.722
 8199SOL    HW225497   4.695   2.505   5.729
 8200SOL     OW25498   5.755   4.039   1.901
 8200SOL    HW125499   5.666   4.080   1.920
 8200SOL    HW225500   5.824   4.078   1.962
 8201SOL     OW25501   0.481   0.756   5.093
 8201SOL    HW125502   0.404   0.699   5.065
 8201SOL    HW225503   0.467   0.850   5.061
 8202SOL     OW25504   6.993   6.238   2.134
 8202SOL    HW125505   6.905   6.262   2.093
 8202SOL    HW225506   0.010   6.160   2.085
 8203SOL     OW25507   1.843   2.536   6.807
 8203SOL    HW125508   1.882   2.601   6.873
 8203SOL    HW225509   1.859   2.569   6.714
 8204SOL     OW25510   4.332   3.628   0.837
 8204SOL    HW125511   4.324   3.578   0.923
 8204SOL    HW225512   4.429   3.643   0.817
 8205SOL     OW25513   0.738   2.511   0.181
 8205SOL    HW125514   0.759   2.543   0.273
 8205SOL    HW225515   0.656   2.558   0.147
 8206SOL     OW25516   4.291   1.451   6.983
 8206SOL    HW125517   4.207   1.399   6.972
 8206SOL    HW225518   4.304   1.511   6.904
 8207SOL     OW25519   3.379   3.256   4.266
 8207SOL    HW125520   3.291   3.211   4.278
 8207SOL    HW225521   3.374   3.349   4.302
 8208SOL     OW25522   0.637   1.107   7.002
 8208SOL    HW125523   0.551   1.096   0.031
 8208SOL    HW225524   0.618   1.105   6.904
 8209SOL     OW25525   0.239   0.601   5.131
 8209SOL    HW125526   0.219   0.529   5.065
 8209SOL    HW225527   0.278   0.560   5.214
 8210SOL     OW25528   1.773   3.038   6.927
 8210SOL    HW125529   1.745   2.949   6.893
 8210SOL    HW225530   1.751   3.109   6.859
 8211SOL     OW25531   3.324   4.455   1.042
 8211SOL    HW125532   3.318   4.447   1.141
 8211SOL    HW225533   3.355   4.369   1.003
 8212SOL     OW25534   1.422   2.090   2.922
 8212SOL    HW125535   1.400   2.007   2.871
 8212SOL    HW225536   1.338   2.142   2.937
 8213SOL     OW25537   6.910   5.033   2.265
 8213SOL    HW125538   6.909   4.949   2.210
 8213SOL    HW225539   6.956   5.105   2.214
 8214SOL     OW25540   5.776   5.134   3.260
 8214SOL    HW125541   5.817   5.064   3.201
 8214SOL    HW225542   5.738   5.207   3.203
 8215SOL     OW25543   3.462   5.717   4.963
 8215SOL    HW125544   3.511   5.643   5.009
 8215SOL    HW225545   3.516   5.801   4.971
 8216SOL     OW25546   5.199   5.397   4.103
 8216SOL    HW125547   5.128   5.452   4.149
 8216SOL    HW225548   5.289   5.426   4.134
 8217SOL     OW25549   1.906   4.763   0.583
 8217SOL    HW125550   1.933   4.704   0.659
 8217SOL    HW225551   1.943   4.727   0.498
 8218SOL     OW25552   0.708   2.049   6.799
 8218SOL    HW125553   0.805   2.025   6.801
 8218SOL    HW225554   0.654   1.965   6.795
 8219SOL     OW25555   4.891   2.309   0.787
 8219SOL    HW125556   4.877   2.229   0.845
 8219SOL    HW225557   4.950   2.375   0.835
 8220SOL     OW25558   3.960   3.179   3.162
 8220SOL    HW125559   3.862   3.174   3.184
 8220SOL    HW225560   3.974   3.150   3.068
 8221SOL     OW25561   4.955   6.028   4.159
 8221SOL    HW125562   4.935   6.062   4.251
 8221SOL    HW225563   5.030   5.962   4.164
 8222SOL     OW25564   5.293   1.679   2.331
 8222SOL    HW125565   5.203   1.671   2.375
 8222SOL    HW225566   5.290   1.753   2.264
 8223SOL     OW25567   0.634   4.608   5.472
 8223SOL    HW125568   0.716   4.553   5.453
 8223SOL    HW225569   0.638   4.693   5.419
 8224SOL     OW25570   1.016   2.629   3.141
 8224SOL    HW125571   0.920   2.604   3.134
 8224SOL    HW225572   1.027   2.705   3.204
 8225SOL     OW25573   4.431   1.284   0.452
 8225SOL    HW125574   4.402   1.302   0.358
 8225SOL    HW225575   4.357   1.309   0.515
 8226SOL     OW25576   5.166   0.495   1.830
 8226SOL    HW125577   5.115   0.537   1.905
 8226SOL    HW225578   5.246   0.446   1.867
 8227SOL     OW25579   0.540   2.360   3.962
 8227SOL    HW125580   0.630   2.319   3.952
 8227SOL    HW225581   0.531   2.398   4.054
 8228SOL     OW25582   6.756   2.728   5.600
 8228SOL    HW125583   6.736   2.743   5.696
 8228SOL    HW225584   6.753   2.815   5.551
 8229SOL     OW25585   3.572   5.192   0.214
 8229SOL    HW125586   3.556   5.182   0.312
 8229SOL    HW225587   3.524   5.273   0.180
 8230SOL     OW25588   5.634   7.014   5.486
 8230SOL    HW125589   5.611   0.058   5.415
 8230SOL    HW225590   5.555   7.000   5.546
 8231SOL     OW25591   3.831   6.112   1.565
 8231SOL    HW125592   3.855   6.132   1.661
 8231SOL    HW225593   3.759   6.043   1.563
 8232SOL     OW25594   4.447   0.951   0.794
 8232SOL    HW125595   4.440   0.905   0.706
 8232SOL    HW225596   4.389   1.033   0.793
 8233SOL     OW25597   0.839   5.889   6.576
 8233SOL    HW125598   0.845   5.794   6.543
 8233SOL    HW225599   0.931   5.928   6.582
 8234SOL     OW25600   2.501   3.301   0.308
 8234SOL    HW125601   2.442   3.360   0.363
 8234SOL    HW225602   2.448   3.223   0.274
 8235SOL     OW25603   2.298   2.826   0.692
 8235SOL    HW125604   2.272   2.859   0.783
 8235SOL    HW225605   2.343   2.899   0.641
 8236SOL     OW25606   6.754   4.060   0.223
 8236SOL    HW125607   6.790   3.967   0.213
 8236SOL    HW225608   6.657   4.055   0.248
 8237SOL     OW25609   5.073   6.156   4.492
 8237SOL    HW125610   4.978   6.151   4.522
 8237SOL    HW225611   5.086   6.238   4.436
 8238SOL     OW25612   1.633   4.020   0.313
 8238SOL    HW125613   1.574   3.939   0.320
 8238SOL    HW225614   1.594   4.084   0.248
 8239SOL     OW25615   6.186   2.127   5.521
 8239SOL    HW125616   6.219   2.033   5.515
 8239SOL    HW225617   6.145   2.142   5.611
 8240SOL     OW25618   3.796   3.623   2.592
 8240SOL    HW125619   3.850   3.707   2.596
 8240SOL    HW225620   3.757   3.605   2.683
 8241SOL     OW25621   3.093   6.759   0.424
 8241SOL    HW125622   3.143   6.675   0.400
 8241SOL    HW225623   3.154   6.837   0.415
 8242SOL     OW25624   1.275   4.475   5.924
 8242SOL    HW125625   1.186   4.435   5.901
 8242SOL    HW225626   1.330   4.408   5.974
 8243SOL     OW25627   0.977   3.076   6.540
 8243SOL    HW125628   1.026   2.992   6.518
 8243SOL    HW225629   0.903   3.090   6.474
 8244SOL     OW25630   0.726   6.533   3.528
 8244SOL    HW125631   0.824   6.536   3.548
 8244SOL    HW225632   0.686   6.623   3.546
 8245SOL     OW25633   3.917   1.465   2.758
 8245SOL    HW125634   3.885   1.473   2.664
 8245SOL    HW225635   3.843   1.427   2.815
 8246SOL     OW25636   6.668   4.222   5.538
 8246SOL    HW125637   6.580   4.191   5.501
 8246SOL    HW225638   6.653   4.266   5.627
 8247SOL     OW25639   1.066   1.282   1.657
 8247SOL    HW125640   1.104   1.232   1.579
 8247SOL    HW225641   0.971   1.306   1.638
 8248SOL     OW25642   5.843   4.781   3.749
 8248SOL    HW125643   5.830   4.820   3.658
 8248SOL    HW225644   5.936   4.799   3.780
 8249SOL     OW25645   1.893   4.053   4.791
 8249SOL    HW125646   1.840   4.096   4.864
 8249SOL    HW225647   1.910   4.119   4.718
 8250SOL     OW25648   3.398   4.076   2.372
 8250SOL    HW125649   3.354   4.094   2.460
 8250SOL    HW225650   3.457   4.154   2.348
 8251SOL     OW25651   6.000   2.287   4.654
 8251SOL    HW125652   6.026   2.315   4.562
 8251SOL    HW225653   5.924   2.345   4.686
 8252SOL     OW25654   2.911   3.575   0.239
 8252SOL    HW125655   2.937   3.583   0.142
 8252SOL    HW225656   2.970   3.635   0.293
 8253SOL     OW25657   3.311   3.289   5.074
 8253SOL    HW125658   3.299   3.261   5.169
 8253SOL    HW225659   3.409   3.302   5.055
 8254SOL     OW25660   4.110   4.999   4.444
 8254SOL    HW125661   4.112   5.014   4.345
 8254SOL    HW225662   4.071   5.080   4.489
 8255SOL     OW25663   3.717   6.284   4.541
 8255SOL    HW125664   3.741   6.339   4.461
 8255SOL    HW225665   3.760   6.323   4.623
 8256SOL     OW25666   6.392   6.997   3.080
 8256SOL    HW125667   6.337   6.914   3.093
 8256SOL    HW225668   6.331   0.053   3.068
 8257SOL     OW25669   6.744   4.416   3.484
 8257SOL    HW125670   6.825   4.407   3.542
 8257SOL    HW225671   6.709   4.325   3.461
 8258SOL     OW25672   5.134   1.351   0.659
 8258SOL    HW125673   5.161   1.258   0.684
 8258SOL    HW225674   5.069   1.347   0.583
 8259SOL     OW25675   3.984   1.496   3.824
 8259SOL    HW125676   3.989   1.591   3.791
 8259SOL    HW225677   4.077   1.458   3.831
 8260SOL     OW25678   2.799   0.571   1.342
 8260SOL    HW125679   2.734   0.497   1.357
 8260SOL    HW225680   2.750   0.652   1.308
 8261SOL     OW25681   5.972   1.081   1.393
 8261SOL    HW125682   6.011   1.013   1.330
 8261SOL    HW225683   6.022   1.078   1.480
 8262SOL     OW25684   0.265   2.588   0.706
 8262SOL    HW125685   0.357   2.608   0.738
 8262SOL    HW225686   0.267   2.510   0.644
 8263SOL     OW25687   0.339   2.236   0.226
 8263SOL    HW125688   0.282   2.317   0.220
 8263SOL    HW225689   0.283   2.157   0.251
 8264SOL     OW25690   1.435   5.825   2.447
 8264SOL    HW125691   1.361   5.758   2.446
 8264SOL    HW225692   1.401   5.912   2.483
 8265SOL     OW25693   1.177   6.824   1.706
 8265SOL    HW125694   1.168   6.730   1.739
 8265SOL    HW225695   1.274   6.848   1.700
 8266SOL     OW25696   2.154   0.620   2.713
 8266SOL    HW125697   2.208   0.613   2.796
 8266SOL    HW225698   2.102   0.535   2.700
 8267SOL     OW25699   1.890   3.349   1.708
 8267SOL    HW125700   1.832   3.376   1.631
 8267SOL    HW225701   1.885   3.250   1.720
 8268SOL     OW25702   2.292   6.507   6.244
 8268SOL    HW125703   2.248   6.585   6.199
 8268SOL    HW225704   2.253   6.495   6.335
 8269SOL     OW25705   5.898   1.271   1.195
 8269SOL    HW125706   5.919   1.196   1.258
 8269SOL    HW225707   5.982   1.319   1.170
 8270SOL     OW25708   2.461   0.072   4.578
 8270SOL    HW125709   2.377   0.061   4.525
 8270SOL    HW225710   2.488   7.007   4.618
 8271SOL     OW25711   6.841   0.609   1.962
 8271SOL    HW125712   6.854   0.510   1.956
 8271SOL    HW225713   6.916   0.649   2.014
 8272SOL     OW25714   4.867   0.971   1.398
 8272SOL    HW125715   4.896   1.002   1.307
 8272SOL    HW225716   4.941   0.917   1.439
 8273SOL     OW25717   1.462   6.407   0.867
 8273SOL    HW125718   1.440   6.434   0.773
 8273SOL    HW225719   1.490   6.311   0.868
 8274SOL     OW25720   4.654   4.802   3.548
 8274SOL    HW125721   4.604   4.875   3.502
 8274SOL    HW225722   4.748   4.831   3.565
 8275SOL     OW25723   4.399   1.604   6.120
 8275SOL    HW125724   4.470   1.574   6.056
 8275SOL    HW225725   4.384   1.702   6.109
 8276SOL     OW25726   1.267   2.367   3.703
 8276SOL    HW125727   1.245   2.270   3.693
 8276SOL    HW225728   1.311   2.400   3.620
 8277SOL     OW25729   0.637   0.618   6.914
 8277SOL    HW125730   0.570   0.555   6.952
 8277SOL    HW225731   0.639   0.609   6.814
 8278SOL     OW25732   2.522   1.873   6.640
 8278SOL    HW125733   2.431   1.892   6.678
 8278SOL    HW225734   2.577   1.956   6.642
 8279SOL     OW25735   1.157   0.405   4.194
 8279SOL    HW125736   1.138   0.345   4.117
 8279SOL    HW225737   1.198   0.490   4.161
 8280SOL     OW25738   2.576   2.959   0.247
 8280SOL    HW125739   2.610   3.009   0.168
 8280SOL    HW225740   2.650   2.905   0.286
 8281SOL     OW25741   1.395   5.366   1.281
 8281SOL    HW125742   1.372   5.407   1.192
 8281SOL    HW225743   1.479   5.407   1.315
 8282SOL     OW25744   5.365   3.592   6.755
 8282SOL    HW125745   5.441   3.642   6.795
 8282SOL    HW225746   5.365   3.606   6.656
 8283SOL     OW25747   1.125   4.616   6.515
 8283SOL    HW125748   1.044   4.558   6.504
 8283SOL    HW225749   1.138   4.671   6.433
 8284SOL     OW25750   0.630   3.796   1.837
 8284SOL    HW125751   0.723   3.767   1.858
 8284SOL    HW225752   0.629   3.894   1.817
 8285SOL     OW25753   4.249   3.116   5.346
 8285SOL    HW125754   4.212   3.203   5.378
 8285SOL    HW225755   4.179   3.066   5.296
 8286SOL     OW25756   5.274   3.296   6.744
 8286SOL    HW125757   5.272   3.253   6.834
 8286SOL    HW225758   5.325   3.381   6.749
 8287SOL     OW25759   2.185   5.309   4.659
 8287SOL    HW125760   2.244   5.279   4.734
 8287SOL    HW225761   2.205   5.255   4.577
 8288SOL     OW25762   2.875   1.931   2.118
 8288SOL    HW125763   2.897   1.835   2.136
 8288SOL    HW225764   2.934   1.965   2.044
 8289SOL     OW25765   0.184   6.733   1.377
 8289SOL    HW125766   0.147   6.816   1.418
 8289SOL    HW225767   0.233   6.680   1.446
 8290SOL     OW25768   6.375   1.075   0.375
 8290SOL    HW125769   6.442   1.147   0.394
 8290SOL    HW225770   6.327   1.050   0.459
 8291SOL     OW25771   4.668   6.736   6.878
 8291SOL    HW125772   4.627   6.677   6.808
 8291SOL    HW225773   4.760   6.703   6.900
 8292SOL     OW25774   2.443   6.472   6.874
 8292SOL    HW125775   2.496   6.413   6.935
 8292SOL    HW225776   2.498   6.552   6.849
 8293SOL     OW25777   3.135   0.168   0.257
 8293SOL    HW125778   3.039   0.148   0.234
 8293SOL    HW225779   3.139   0.219   0.342
 8294SOL     OW25780   5.832   4.360   5.496
 8294SOL    HW125781   5.772   4.308   5.435
 8294SOL    HW225782   5.780   4.390   5.576
 8295SOL     OW25783   5.172   5.189   2.163
 8295SOL    HW125784   5.241   5.152   2.225
 8295SOL    HW225785   5.198   5.169   2.068
 8296SOL     OW25786   2.273   6.838   6.337
 8296SOL    HW125787   2.252   6.862   6.243
 8296SOL    HW225788   2.190   6.806   6.383
 8297SOL     OW25789   6.482   2.825   2.545
 8297SOL    HW125790   6.444   2.736   2.521
 8297SOL    HW225791   6.420   2.897   2.515
 8298SOL     OW25792   5.699   2.310   1.480
 8298SOL    HW125793   5.712   2.304   1.579
 8298SOL    HW225794   5.697   2.218   1.441
 8299SOL     OW25795   0.028   2.597   1.995
 8299SOL    HW125796   6.992   2.677   1.986
 8299SOL    HW225797   0.116   2.623   2.034
 8300SOL     OW25798   1.114   5.723   5.849
 8300SOL    HW125799   1.195   5.669   5.824
 8300SOL    HW225800   1.115   5.809   5.798
 8301SOL     OW25801   3.415   1.725   1.195
 8301SOL    HW125802   3.383   1.752   1.286
 8301SOL    HW225803   3.482   1.651   1.204
 8302SOL     OW25804   6.062   6.003   5.709
 8302SOL    HW125805   6.006   5.939   5.761
 8302SOL    HW225806   6.057   5.981   5.612
 8303SOL     OW25807   6.724   0.398   3.748
 8303SOL    HW125808   6.658   0.419   3.676
 8303SOL    HW225809   6.717   0.301   3.772
 8304SOL     OW25810   1.114   3.240   6.846
 8304SOL    HW125811   1.109   3.195   6.935
 8304SOL    HW225812   1.150   3.332   6.858
 8305SOL     OW25813   3.851   5.168   4.366
 8305SOL    HW125814   3.882   5.092   4.309
 8305SOL    HW225815   3.835   5.135   4.459
 8306SOL     OW25816   0.575   2.900   4.800
 8306SOL    HW125817   0.496   2.840   4.785
 8306SOL    HW225818   0.659   2.850   4.781
 8307SOL     OW25819   4.367   5.291   1.912
 8307SOL    HW125820   4.331   5.351   1.841
 8307SOL    HW225821   4.447   5.334   1.955
 8308SOL     OW25822   4.409   5.792   1.503
 8308SOL    HW125823   4.454   5.866   1.554
 8308SOL    HW225824   4.420   5.707   1.554
 8309SOL     OW25825   6.375   5.547   3.473
 8309SOL    HW125826   6.454   5.502   3.515
 8309SOL    HW225827   6.402   5.639   3.443
 8310SOL     OW25828   1.161   4.242   0.778
 8310SOL    HW125829   1.238   4.240   0.714
 8310SOL    HW225830   1.194   4.271   0.869
 8311SOL     OW25831   0.288   1.264   5.389
 8311SOL    HW125832   0.372   1.211   5.379
 8311SOL    HW225833   0.209   1.203   5.386
 8312SOL     OW25834   4.287   5.820   1.807
 8312SOL    HW125835   4.233   5.891   1.763
 8312SOL    HW225836   4.229   5.766   1.867
 8313SOL     OW25837   4.343   1.094   2.080
 8313SOL    HW125838   4.316   1.180   2.037
 8313SOL    HW225839   4.366   1.027   2.009
 8314SOL     OW25840   4.784   6.543   1.207
 8314SOL    HW125841   4.799   6.525   1.304
 8314SOL    HW225842   4.704   6.602   1.195
 8315SOL     OW25843   3.953   3.489   0.733
 8315SOL    HW125844   3.922   3.556   0.801
 8315SOL    HW225845   4.046   3.460   0.755
 8316SOL     OW25846   0.903   2.764   1.602
 8316SOL    HW125847   0.916   2.723   1.512
 8316SOL    HW225848   0.888   2.692   1.669
 8317SOL     OW25849   2.127   3.174   2.251
 8317SOL    HW125850   2.056   3.109   2.279
 8317SOL    HW225851   2.087   3.243   2.190
 8318SOL     OW25852   4.456   1.672   4.653
 8318SOL    HW125853   4.541   1.707   4.615
 8318SOL    HW225854   4.382   1.688   4.587
 8319SOL     OW25855   3.010   1.937   6.446
 8319SOL    HW125856   3.056   1.936   6.357
 8319SOL    HW225857   3.078   1.939   6.519
 8320SOL     OW25858   3.589   4.877   1.301
 8320SOL    HW125859   3.560   4.847   1.210
 8320SOL    HW225860   3.552   4.815   1.370
 8321SOL     OW25861   6.913   1.330   6.815
 8321SOL    HW125862   6.948   1.422   6.796
 8321SOL    HW225863   6.858   1.331   6.898
 8322SOL     OW25864   0.379   0.098   0.382
 8322SOL    HW125865   0.399   0.169   0.449
 8322SOL    HW225866   0.327   0.025   0.426
 8323SOL     OW25867   6.935   6.669   2.728
 8323SOL    HW125868   6.884   6.655   2.813
 8323SOL    HW225869   6.932   6.765   2.702
 8324SOL     OW25870   6.559   0.260   2.171
 8324SOL    HW125871   6.606   0.233   2.086
 8324SOL    HW225872   6.561   0.360   2.179
 8325SOL     OW25873   3.357   3.269   4.562
 8325SOL    HW125874   3.309   3.196   4.513
 8325SOL    HW225875   3.395   3.333   4.496
 8326SOL     OW25876   4.593   3.214   5.331
 8326SOL    HW125877   4.513   3.274   5.329
 8326SOL    HW225878   4.568   3.127   5.375
 8327SOL     OW25879   5.586   2.551   6.125
 8327SOL    HW125880   5.516   2.557   6.054
 8327SOL    HW225881   5.618   2.643   6.148
 8328SOL     OW25882   2.561   4.229   6.296
 8328SOL    HW125883   2.465   4.224   6.267
 8328SOL    HW225884   2.620   4.218   6.216
 8329SOL     OW25885   0.480   3.780   6.258
 8329SOL    HW125886   0.515   3.687   6.243
 8329SOL    HW225887   0.528   3.822   6.335
 8330SOL     OW25888   1.683   0.268   0.361
 8330SOL    HW125889   1.715   0.300   0.450
 8330SOL    HW225890   1.647   0.346   0.309
 8331SOL     OW25891   2.719   0.847   0.931
 8331SOL    HW125892   2.752   0.782   0.863
 8331SOL    HW225893   2.796   0.893   0.974
 8332SOL     OW25894   4.975   4.636   2.756
 8332SOL    HW125895   4.890   4.600   2.794
 8332SOL    HW225896   5.053   4.583   2.791
 8333SOL     OW25897   0.241   5.872   6.714
 8333SOL    HW125898   0.333   5.850   6.682
 8333SOL    HW225899   0.246   5.933   6.793
 8334SOL     OW25900   5.135   1.672   3.650
 8334SOL    HW125901   5.054   1.614   3.656
 8334SOL    HW225902   5.161   1.682   3.554
 8335SOL     OW25903   6.564   5.274   5.103
 8335SOL    HW125904   6.639   5.339   5.093
 8335SOL    HW225905   6.531   5.246   5.013
 8336SOL     OW25906   0.085   0.723   1.739
 8336SOL    HW125907   0.124   0.631   1.745
 8336SOL    HW225908   7.010   0.716   1.721
 8337SOL     OW25909   1.356   6.673   3.116
 8337SOL    HW125910   1.354   6.773   3.119
 8337SOL    HW225911   1.272   6.636   3.157
 8338SOL     OW25912   1.663   5.009   2.367
 8338SOL    HW125913   1.622   5.100   2.368
 8338SOL    HW225914   1.592   4.940   2.355
 8339SOL     OW25915   6.075   0.796   1.235
 8339SOL    HW125916   6.159   0.828   1.191
 8339SOL    HW225917   6.094   0.712   1.287
 8340SOL     OW25918   4.693   4.016   0.839
 8340SOL    HW125919   4.762   3.987   0.772
 8340SOL    HW225920   4.709   4.112   0.864
 8341SOL     OW25921   2.588   6.270   0.417
 8341SOL    HW125922   2.491   6.263   0.396
 8341SOL    HW225923   2.600   6.306   0.509
 8342SOL     OW25924   3.287   0.335   1.429
 8342SOL    HW125925   3.287   0.266   1.356
 8342SOL    HW225926   3.206   0.393   1.419
 8343SOL     OW25927   1.012   4.987   6.279
 8343SOL    HW125928   0.977   5.074   6.246
 8343SOL    HW225929   0.936   4.925   6.298
 8344SOL     OW25930   4.979   6.822   5.611
 8344SOL    HW125931   4.950   6.765   5.688
 8344SOL    HW225932   4.916   6.899   5.601
 8345SOL     OW25933   5.151   2.136   3.371
 8345SOL    HW125934   5.145   2.234   3.386
 8345SOL    HW225935   5.165   2.118   3.274
 8346SOL     OW25936   3.142   4.782   0.166
 8346SOL    HW125937   3.054   4.758   0.206
 8346SOL    HW225938   3.209   4.795   0.239
 8347SOL     OW25939   3.484   6.874   4.818
 8347SOL    HW125940   3.386   6.897   4.817
 8347SOL    HW225941   3.537   6.957   4.838
 8348SOL     OW25942   1.301   0.086   1.440
 8348SOL    HW125943   1.322   7.017   1.474
 8348SOL    HW225944   1.279   0.146   1.517
 8349SOL     OW25945   5.898   4.853   1.570
 8349SOL    HW125946   5.993   4.875   1.593
 8349SOL    HW225947   5.839   4.930   1.594
 8350SOL     OW25948   4.330   1.061   4.656
 8350SOL    HW125949   4.329   1.031   4.751
 8350SOL    HW225950   4.425   1.067   4.625
 8351SOL     OW25951   4.453   4.942   4.791
 8351SOL    HW125952   4.416   4.865   4.739
 8351SOL    HW225953   4.462   5.022   4.731
 8352SOL     OW25954   6.711   0.089   1.943
 8352SOL    HW125955   6.660   0.006   1.918
 8352SOL    HW225956   6.808   0.075   1.923
 8353SOL     OW25957   5.547   3.723   1.960
 8353SOL    HW125958   5.563   3.694   2.055
 8353SOL    HW225959   5.600   3.665   1.898
 8354SOL     OW25960   3.480   0.703   7.018
 8354SOL    HW125961   3.410   0.771   0.015
 8354SOL    HW225962   3.536   0.733   6.941
 8355SOL     OW25963   3.471   0.529   6.718
 8355SOL    HW125964   3.428   0.455   6.770
 8355SOL    HW225965   3.435   0.616   6.749
 8356SOL     OW25966   1.181   6.863   0.498
 8356SOL    HW125967   1.108   6.820   0.552
 8356SOL    HW225968   1.140   6.932   0.437
 8357SOL     OW25969   3.823   6.562   6.244
 8357SOL    HW125970   3.730   6.544   6.213
 8357SOL    HW225971   3.853   6.651   6.210
 8358SOL     OW25972   1.884   2.959   4.771
 8358SOL    HW125973   1.823   2.890   4.731
 8358SOL    HW225974   1.937   3.001   4.697
 8359SOL     OW25975   3.294   6.211   4.304
 8359SOL    HW125976   3.229   6.199   4.379
 8359SOL    HW225977   3.335   6.123   4.282
 8360SOL     OW25978   3.466   6.604   2.553
 8360SOL    HW125979   3.374   6.607   2.513
 8360SOL    HW225980   3.530   6.653   2.494
 8361SOL     OW25981   1.413   0.980   1.818
 8361SOL    HW125982   1.512   0.997   1.811
 8361SOL    HW225983   1.382   1.004   1.910
 8362SOL     OW25984   2.595   2.374   0.043
 8362SOL    HW125985   2.576   2.453   0.100
 8362SOL    HW225986   2.531   2.300   0.064
 8363SOL     OW25987   0.984   2.744   0.191
 8363SOL    HW125988   1.078   2.776   0.179
 8363SOL    HW225989   0.946   2.715   0.103
 8364SOL     OW25990   6.869   3.510   3.484
 8364SOL    HW125991   6.901   3.525   3.578
 8364SOL    HW225992   6.947   3.489   3.425
 8365SOL     OW25993   1.470   4.136   1.871
 8365SOL    HW125994   1.433   4.117   1.780
 8365SOL    HW225995   1.395   4.140   1.937
 8366SOL     OW25996   4.163   5.608   2.248
 8366SOL    HW125997   4.218   5.688   2.225
 8366SOL    HW225998   4.223   5.529   2.263
 8367SOL     OW25999   3.912   6.146   4.288
 8367SOL    HW126000   3.896   6.047   4.291
 8367SOL    HW226001   4.009   6.165   4.299
 8368SOL     OW26002   3.238   6.346   6.007
 8368SOL    HW126003   3.190   6.325   6.092
 8368SOL    HW226004   3.322   6.292   6.002
 8369SOL     OW26005   2.002   1.081   6.601
 8369SOL    HW126006   1.949   1.052   6.681
 8369SOL    HW226007   1.980   1.177   6.580
 8370SOL     OW26008   3.387   2.150   5.891
 8370SOL    HW126009   3.430   2.103   5.814
 8370SOL    HW226010   3.458   2.193   5.948
 8371SOL     OW26011   1.638   4.168   1.104
 8371SOL    HW126012   1.707   4.238   1.083
 8371SOL    HW226013   1.547   4.210   1.103
 8372SOL     OW26014   0.808   6.069   2.811
 8372SOL    HW126015   0.768   6.070   2.903
 8372SOL    HW226016   0.737   6.089   2.743
 8373SOL     OW26017   0.651   0.187   5.035
 8373SOL    HW126018   0.666   0.160   5.130
 8373SOL    HW226019   0.713   0.262   5.012
 8374SOL     OW26020   6.692   0.277   6.605
 8374SOL    HW126021   6.762   0.347   6.616
 8374SOL    HW226022   6.615   0.314   6.553
 8375SOL     OW26023   3.429   6.161   5.991
 8375SOL    HW126024   3.514   6.108   5.999
 8375SOL    HW226025   3.356   6.101   5.956
 8376SOL     OW26026   2.231   0.177   4.092
 8376SOL    HW126027   2.323   0.215   4.095
 8376SOL    HW226028   2.210   0.134   4.180
 8377SOL     OW26029   5.594   5.885   1.883
 8377SOL    HW126030   5.559   5.972   1.918
 8377SOL    HW226031   5.673   5.902   1.824
 8378SOL     OW26032   4.391   4.542   3.011
 8378SOL    HW126033   4.436   4.453   3.022
 8378SOL    HW226034   4.332   4.540   2.930
 8379SOL     OW26035   6.842   2.911   0.878
 8379SOL    HW126036   6.803   2.970   0.949
 8379SOL    HW226037   6.896   2.839   0.922
 8380SOL     OW26038   6.341   0.933   2.385
 8380SOL    HW126039   6.264   0.987   2.351
 8380SOL    HW226040   6.355   0.952   2.482
 8381SOL     OW26041   0.860   4.284   4.614
 8381SOL    HW126042   0.891   4.192   4.591
 8381SOL    HW226043   0.920   4.352   4.571
 8382SOL     OW26044   1.161   1.431   2.102
 8382SOL    HW126045   1.084   1.479   2.144
 8382SOL    HW226046   1.210   1.380   2.172
 8383SOL     OW26047   2.453   1.820   6.379
 8383SOL    HW126048   2.436   1.725   6.353
 8383SOL    HW226049   2.465   1.827   6.478
 8384SOL     OW26050   0.204   6.971   0.524
 8384SOL    HW126051   0.272   6.984   0.596
 8384SOL    HW226052   0.123   6.928   0.563
 8385SOL     OW26053   6.164   2.806   1.740
 8385SOL    HW126054   6.226   2.732   1.712
 8385SOL    HW226055   6.132   2.856   1.660
 8386SOL     OW26056   1.018   4.143   2.535
 8386SOL    HW126057   0.950   4.145   2.461
 8386SOL    HW226058   1.041   4.237   2.561
 8387SOL     OW26059   0.934   1.652   1.417
 8387SOL    HW126060   1.018   1.600   1.433
 8387SOL    HW226061   0.957   1.749   1.408
 8388SOL     OW26062   1.609   6.541   1.142
 8388SOL    HW126063   1.686   6.484   1.169
 8388SOL    HW226064   1.627   6.580   1.051
 8389SOL     OW26065   5.369   3.254   2.318
 8389SOL    HW126066   5.359   3.349   2.347
 8389SOL    HW226067   5.342   3.245   2.222
 8390SOL     OW26068   3.553   1.531   6.320
 8390SOL    HW126069   3.556   1.570   6.228
 8390SOL    HW226070   3.467   1.556   6.364
 8391SOL     OW26071   5.787   6.203   1.047
 8391SOL    HW126072   5.818   6.267   1.118
 8391SOL    HW226073   5.853   6.201   0.972
 8392SOL     OW26074   5.743   4.075   3.976
 8392SOL    HW126075   5.697   3.988   3.961
 8392SOL    HW226076   5.792   4.102   3.893
 8393SOL     OW26077   5.715   0.577   2.588
 8393SOL    HW126078   5.807   0.563   2.551
 8393SOL    HW226079   5.653   0.600   2.513
 8394SOL     OW26080   6.064   3.421   1.776
 8394SOL    HW126081   6.118   3.362   1.717
 8394SOL    HW226082   5.995   3.469   1.722
 8395SOL     OW26083   3.060   6.511   5.900
 8395SOL    HW126084   3.127   6.449   5.941
 8395SOL    HW226085   3.106   6.596   5.873
 8396SOL     OW26086   4.350   4.726   3.542
 8396SOL    HW126087   4.445   4.711   3.571
 8396SOL    HW226088   4.344   4.715   3.443
 8397SOL     OW26089   0.693   0.982   3.612
 8397SOL    HW126090   0.774   1.027   3.574
 8397SOL    HW226091   0.667   1.027   3.698
 8398SOL     OW26092   5.167   1.964   6.531
 8398SOL    HW126093   5.165   2.013   6.618
 8398SOL    HW226094   5.123   1.875   6.542
 8399SOL     OW26095   6.443   6.395   6.451
 8399SOL    HW126096   6.391   6.344   6.519
 8399SOL    HW226097   6.455   6.489   6.482
 8400SOL     OW26098   1.607   2.053   4.201
 8400SOL    HW126099   1.532   2.116   4.181
 8400SOL    HW226100   1.681   2.066   4.134
 8401SOL     OW26101   2.169   0.983   5.335
 8401SOL    HW126102   2.140   1.045   5.408
 8401SOL    HW226103   2.247   1.023   5.286
 8402SOL     OW26104   5.468   1.402   6.137
 8402SOL    HW126105   5.404   1.391   6.213
 8402SOL    HW226106   5.453   1.491   6.093
 8403SOL     OW26107   0.266   3.836   4.748
 8403SOL    HW126108   0.196   3.870   4.685
 8403SOL    HW226109   0.272   3.896   4.828
 8404SOL     OW26110   3.159   0.690   5.766
 8404SOL    HW126111   3.097   0.642   5.704
 8404SOL    HW226112   3.238   0.632   5.785
 8405SOL     OW26113   3.951   1.753   6.313
 8405SOL    HW126114   3.895   1.804   6.248
 8405SOL    HW226115   4.034   1.804   6.334
 8406SOL     OW26116   4.466   0.615   0.754
 8406SOL    HW126117   4.559   0.578   0.747
 8406SOL    HW226118   4.457   0.666   0.839
 8407SOL     OW26119   4.638   6.253   3.770
 8407SOL    HW126120   4.646   6.270   3.869
 8407SOL    HW226121   4.597   6.164   3.755
 8408SOL     OW26122   5.102   5.634   6.996
 8408SOL    HW126123   5.109   5.700   0.049
 8408SOL    HW226124   5.192   5.619   6.956
 8409SOL     OW26125   4.745   2.401   1.762
 8409SOL    HW126126   4.670   2.396   1.696
 8409SOL    HW226127   4.719   2.464   1.836
 8410SOL     OW26128   5.985   2.026   1.615
 8410SOL    HW126129   5.929   1.969   1.675
 8410SOL    HW226130   6.017   2.106   1.666
 8411SOL     OW26131   0.387   5.925   1.208
 8411SOL    HW126132   0.446   5.975   1.272
 8411SOL    HW226133   0.433   5.915   1.120
 8412SOL     OW26134   3.950   2.878   0.708
 8412SOL    HW126135   3.912   2.931   0.785
 8412SOL    HW226136   4.042   2.848   0.732
 8413SOL     OW26137   4.108   5.953   6.321
 8413SOL    HW126138   4.077   5.893   6.395
 8413SOL    HW226139   4.156   5.898   6.252
 8414SOL     OW26140   1.955   1.623   2.382
 8414SOL    HW126141   1.859   1.594   2.389
 8414SOL    HW226142   1.967   1.710   2.429
 8415SOL     OW26143   2.681   6.754   3.860
 8415SOL    HW126144   2.623   6.777   3.782
 8415SOL    HW226145   2.654   6.664   3.896
 8416SOL     OW26146   6.188   1.660   4.845
 8416SOL    HW126147   6.225   1.651   4.753
 8416SOL    HW226148   6.169   1.569   4.882
 8417SOL     OW26149   2.157   3.234   5.588
 8417SOL    HW126150   2.159   3.334   5.582
 8417SOL    HW226151   2.247   3.201   5.619
 8418SOL     OW26152   0.382   5.746   2.204
 8418SOL    HW126153   0.454   5.812   2.179
 8418SOL    HW226154   0.397   5.715   2.298
 8419SOL     OW26155   6.060   1.572   3.395
 8419SOL    HW126156   5.996   1.649   3.390
 8419SOL    HW226157   6.008   1.487   3.403
 8420SOL     OW26158   3.141   6.839   2.091
 8420SOL    HW126159   3.103   6.748   2.074
 8420SOL    HW226160   3.210   6.833   2.163
 8421SOL     OW26161   2.900   6.132   7.011
 8421SOL    HW126162   2.813   6.174   0.016
 8421SOL    HW226163   2.936   6.178   6.931
 8422SOL     OW26164   4.494   2.503   2.268
 8422SOL    HW126165   4.434   2.428   2.296
 8422SOL    HW226166   4.485   2.518   2.169
 8423SOL     OW26167   4.407   4.346   5.724
 8423SOL    HW126168   4.356   4.400   5.790
 8423SOL    HW226169   4.486   4.303   5.768
 8424SOL     OW26170   1.885   1.386   3.617
 8424SOL    HW126171   1.951   1.375   3.691
 8424SOL    HW226172   1.875   1.299   3.568
 8425SOL     OW26173   3.546   3.836   4.649
 8425SOL    HW126174   3.473   3.889   4.692
 8425SOL    HW226175   3.590   3.891   4.578
 8426SOL     OW26176   3.628   3.248   2.504
 8426SOL    HW126177   3.646   3.173   2.440
 8426SOL    HW226178   3.607   3.210   2.595
 8427SOL     OW26179   3.304   3.626   3.161
 8427SOL    HW126180   3.219   3.675   3.181
 8427SOL    HW226181   3.367   3.686   3.112
 8428SOL     OW26182   0.385   0.465   1.243
 8428SOL    HW126183   0.445   0.387   1.261
 8428SOL    HW226184   0.296   0.432   1.214
 8429SOL     OW26185   2.160   5.409   5.981
 8429SOL    HW126186   2.180   5.375   5.889
 8429SOL    HW226187   2.244   5.415   6.034
 8430SOL     OW26188   3.862   4.878   3.915
 8430SOL    HW126189   3.949   4.835   3.937
 8430SOL    HW226190   3.840   4.862   3.819
 8431SOL     OW26191   3.165   4.446   6.816
 8431SOL    HW126192   3.208   4.496   6.890
 8431SOL    HW226193   3.204   4.475   6.728
 8432SOL     OW26194   6.895   5.263   5.832
 8432SOL    HW126195   6.943   5.188   5.786
 8432SOL    HW226196   6.884   5.339   5.768
 8433SOL     OW26197   4.332   2.422   0.944
 8433SOL    HW126198   4.361   2.497   1.003
 8433SOL    HW226199   4.343   2.448   0.848
 8434SOL     OW26200   2.177   5.716   5.154
 8434SOL    HW126201   2.205   5.650   5.084
 8434SOL    HW226202   2.248   5.786   5.164
 8435SOL     OW26203   5.260   0.618   3.153
 8435SOL    HW126204   5.319   0.582   3.225
 8435SOL    HW226205   5.270   0.717   3.148
 8436SOL     OW26206   2.713   5.897   3.784
 8436SOL    HW126207   2.777   5.969   3.758
 8436SOL    HW226208   2.711   5.827   3.712
 8437SOL     OW26209   1.949   2.684   2.302
 8437SOL    HW126210   2.031   2.722   2.258
 8437SOL    HW226211   1.966   2.674   2.400
 8438SOL     OW26212   2.145   3.899   3.017
 8438SOL    HW126213   2.171   3.973   2.955
 8438SOL    HW226214   2.050   3.910   3.046
 8439SOL     OW26215   6.554   5.502   3.822
 8439SOL    HW126216   6.559   5.592   3.865
 8439SOL    HW226217   6.572   5.431   3.891
 8440SOL     OW26218   2.460   1.726   3.596
 8440SOL    HW126219   2.462   1.650   3.661
 8440SOL    HW226220   2.497   1.808   3.640
 8441SOL     OW26221   5.610   5.618   5.240
 8441SOL    HW126222   5.563   5.603   5.153
 8441SOL    HW226223   5.601   5.537   5.297
 8442SOL     OW26224   3.342   0.491   5.152
 8442SOL    HW126225   3.312   0.496   5.247
 8442SOL    HW226226   3.267   0.457   5.095
 8443SOL     OW26227   2.305   4.996   3.800
 8443SOL    HW126228   2.222   5.007   3.854
 8443SOL    HW226229   2.288   4.930   3.726
 8444SOL     OW26230   3.576   6.323   3.561
 8444SOL    HW126231   3.612   6.230   3.551
 8444SOL    HW226232   3.507   6.324   3.633
 8445SOL     OW26233   2.379   0.519   0.166
 8445SOL    HW126234   2.378   0.420   0.172
 8445SOL    HW226235   2.352   0.559   0.253
 8446SOL     OW26236   0.366   6.086   4.835
 8446SOL    HW126237   0.461   6.083   4.866
 8446SOL    HW226238   0.343   5.999   4.790
 8447SOL     OW26239   3.538   1.392   2.050
 8447SOL    HW126240   3.474   1.380   2.125
 8447SOL    HW226241   3.495   1.362   1.964
 8448SOL     OW26242   4.919   5.890   3.929
 8448SOL    HW126243   4.937   5.933   4.017
 8448SOL    HW226244   5.004   5.885   3.876
 8449SOL     OW26245   0.864   3.251   3.980
 8449SOL    HW126246   0.773   3.225   4.011
 8449SOL    HW226247   0.914   3.169   3.952
 8450SOL     OW26248   0.367   0.647   0.246
 8450SOL    HW126249   0.391   0.593   0.327
 8450SOL    HW226250   0.307   0.593   0.186
 8451SOL     OW26251   3.124   1.064   0.575
 8451SOL    HW126252   3.066   1.107   0.644
 8451SOL    HW226253   3.073   1.055   0.490
 8452SOL     OW26254   5.004   2.259   4.313
 8452SOL    HW126255   5.027   2.342   4.262
 8452SOL    HW226256   4.987   2.282   4.409
 8453SOL     OW26257   0.489   5.101   6.787
 8453SOL    HW126258   0.536   5.123   6.702
 8453SOL    HW226259   0.519   5.012   6.820
 8454SOL     OW26260   0.658   4.601   0.234
 8454SOL    HW126261   0.639   4.685   0.183
 8454SOL    HW226262   0.581   4.539   0.226
 8455SOL     OW26263   0.047   0.737   2.666
 8455SOL    HW126264   0.037   0.702   2.759
 8455SOL    HW226265   0.007   0.828   2.661
 8456SOL     OW26266   4.930   0.580   3.492
 8456SOL    HW126267   4.994   0.617   3.560
 8456SOL    HW226268   4.846   0.635   3.491
 8457SOL     OW26269   6.588   6.443   4.571
 8457SOL    HW126270   6.519   6.376   4.542
 8457SOL    HW226271   6.585   6.523   4.510
 8458SOL     OW26272   0.621   0.333   0.318
 8458SOL    HW126273   0.668   0.272   0.383
 8458SOL    HW226274   0.655   0.426   0.330
 8459SOL     OW26275   1.881   5.713   3.436
 8459SOL    HW126276   1.875   5.688   3.533
 8459SOL    HW226277   1.830   5.797   3.420
 8460SOL     OW26278   4.440   3.883   5.493
 8460SOL    HW126279   4.411   3.946   5.421
 8460SOL    HW226280   4.527   3.840   5.466
 8461SOL     OW26281   0.559   2.314   5.462
 8461SOL    HW126282   0.488   2.260   5.417
 8461SOL    HW226283   0.633   2.255   5.494
 8462SOL     OW26284   3.265   1.839   1.503
 8462SOL    HW126285   3.197   1.876   1.439
 8462SOL    HW226286   3.346   1.897   1.501
 8463SOL     OW26287   6.265   0.054   2.001
 8463SOL    HW126288   6.173   0.018   2.019
 8463SOL    HW226289   6.290   0.118   2.074
 8464SOL     OW26290   5.673   3.699   4.771
 8464SOL    HW126291   5.574   3.689   4.762
 8464SOL    HW226292   5.715   3.608   4.776
 8465SOL     OW26293   1.417   2.089   0.206
 8465SOL    HW126294   1.469   2.012   0.244
 8465SOL    HW226295   1.353   2.123   0.275
 8466SOL     OW26296   1.177   5.662   3.765
 8466SOL    HW126297   1.183   5.740   3.827
 8466SOL    HW226298   1.084   5.626   3.765
 8467SOL     OW26299   2.791   5.801   1.157
 8467SOL    HW126300   2.706   5.853   1.147
 8467SOL    HW226301   2.782   5.713   1.111
 8468SOL     OW26302   3.966   2.021   0.398
 8468SOL    HW126303   3.875   2.057   0.418
 8468SOL    HW226304   3.983   2.024   0.299
 8469SOL     OW26305   2.893   3.111   6.852
 8469SOL    HW126306   2.895   3.082   6.948
 8469SOL    HW226307   2.864   3.206   6.846
 8470SOL     OW26308   2.064   2.837   1.129
 8470SOL    HW126309   2.065   2.898   1.208
 8470SOL    HW226310   1.984   2.778   1.133
 8471SOL     OW26311   2.260   0.384   3.684
 8471SOL    HW126312   2.208   0.306   3.720
 8471SOL    HW226313   2.353   0.355   3.662
 8472SOL     OW26314   0.580   6.926   4.580
 8472SOL    HW126315   0.659   6.865   4.578
 8472SOL    HW226316   0.576   6.979   4.495
 8473SOL     OW26317   7.006   5.794   0.125
 8473SOL    HW126318   0.078   5.800   0.157
 8473SOL    HW226319   6.995   5.851   0.043
 8474SOL     OW26320   3.215   3.124   1.838
 8474SOL    HW126321   3.218   3.038   1.888
 8474SOL    HW226322   3.247   3.110   1.744
 8475SOL     OW26323   6.121   1.972   2.295
 8475SOL    HW126324   6.150   1.877   2.311
 8475SOL    HW226325   6.160   2.005   2.209
 8476SOL     OW26326   6.048   6.868   2.091
 8476SOL    HW126327   6.096   6.856   2.178
 8476SOL    HW226328   5.950   6.868   2.107
 8477SOL     OW26329   2.762   6.647   0.986
 8477SOL    HW126330   2.831   6.617   0.921
 8477SOL    HW226331   2.797   6.635   1.079
 8478SOL     OW26332   1.789   0.535   5.726
 8478SOL    HW126333   1.819   0.533   5.821
 8478SOL    HW226334   1.831   0.460   5.675
 8479SOL     OW26335   6.042   0.910   0.150
 8479SOL    HW126336   6.137   0.941   0.151
 8479SOL    HW226337   5.994   0.947   0.229
 8480SOL     OW26338   2.997   0.879   1.314
 8480SOL    HW126339   3.064   0.825   1.365
 8480SOL    HW226340   3.029   0.973   1.306
 8481SOL     OW26341   3.970   1.145   4.430
 8481SOL    HW126342   3.993   1.129   4.526
 8481SOL    HW226343   4.049   1.185   4.383
 8482SOL     OW26344   2.134   6.944   2.167
 8482SOL    HW126345   2.160   6.990   2.082
 8482SOL    HW226346   2.056   6.884   2.150
 8483SOL     OW26347   3.320   5.607   2.499
 8483SOL    HW126348   3.410   5.613   2.454
 8483SOL    HW226349   3.317   5.524   2.555
 8484SOL     OW26350   0.143   4.731   3.276
 8484SOL    HW126351   0.091   4.652   3.243
 8484SOL    HW226352   0.135   4.806   3.210
 8485SOL     OW26353   1.768   3.789   0.653
 8485SOL    HW126354   1.836   3.747   0.713
 8485SOL    HW226355   1.679   3.747   0.670
 8486SOL     OW26356   5.454   1.100   2.847
 8486SOL    HW126357   5.357   1.081   2.831
 8486SOL    HW226358   5.468   1.121   2.944
 8487SOL     OW26359   5.209   0.221   0.982
 8487SOL    HW126360   5.138   0.155   1.007
 8487SOL    HW226361   5.175   0.314   0.996
 8488SOL     OW26362   5.488   5.286   4.593
 8488SOL    HW126363   5.460   5.217   4.526
 8488SOL    HW226364   5.586   5.276   4.611
 8489SOL     OW26365   5.552   5.176   1.571
 8489SOL    HW126366   5.549   5.084   1.534
 8489SOL    HW226367   5.483   5.233   1.526
 8490SOL     OW26368   4.752   5.796   3.223
 8490SOL    HW126369   4.680   5.749   3.172
 8490SOL    HW226370   4.759   5.891   3.192
 8491SOL     OW26371   2.653   0.494   1.910
 8491SOL    HW126372   2.554   0.487   1.903
 8491SOL    HW226373   2.678   0.557   1.984
 8492SOL     OW26374   5.135   3.412   5.479
 8492SOL    HW126375   5.106   3.486   5.539
 8492SOL    HW226376   5.167   3.450   5.392
 8493SOL     OW26377   3.585   1.714   0.227
 8493SOL    HW126378   3.592   1.717   0.327
 8493SOL    HW226379   3.604   1.621   0.195
 8494SOL     OW26380   2.430   5.521   6.712
 8494SOL    HW126381   2.343   5.552   6.675
 8494SOL    HW226382   2.496   5.509   6.637
 8495SOL     OW26383   6.655   3.275   0.701
 8495SOL    HW126384   6.609   3.214   0.765
 8495SOL    HW226385   6.754   3.259   0.704
 8496SOL     OW26386   0.374   1.783   3.870
 8496SOL    HW126387   0.405   1.734   3.951
 8496SOL    HW226388   0.431   1.865   3.856
 8497SOL     OW26389   5.400   5.745   4.211
 8497SOL    HW126390   5.479   5.686   4.228
 8497SOL    HW226391   5.432   5.839   4.199
 8498SOL     OW26392   0.204   6.919   1.802
 8498SOL    HW126393   0.294   6.960   1.817
 8498SOL    HW226394   0.144   6.986   1.758
 8499SOL     OW26395   2.646   5.162   6.278
 8499SOL    HW126396   2.617   5.157   6.182
 8499SOL    HW226397   2.709   5.239   6.288
 8500SOL     OW26398   2.830   7.016   5.236
 8500SOL    HW126399   2.926   0.008   5.261
 8500SOL    HW226400   2.810   0.045   5.152
 8501SOL     OW26401   1.682   3.206   6.732
 8501SOL    HW126402   1.598   3.259   6.720
 8501SOL    HW226403   1.761   3.266   6.719
 8502SOL     OW26404   0.685   5.472   1.706
 8502SOL    HW126405   0.652   5.543   1.643
 8502SOL    HW226406   0.704   5.389   1.654
 8503SOL     OW26407   1.067   5.020   3.603
 8503SOL    HW126408   1.020   5.057   3.522
 8503SOL    HW226409   1.008   4.955   3.649
 8504SOL     OW26410   2.101   6.248   3.896
 8504SOL    HW126411   2.057   6.296   3.820
 8504SOL    HW226412   2.196   6.229   3.871
 8505SOL     OW26413   5.393   4.324   3.583
 8505SOL    HW126414   5.405   4.230   3.552
 8505SOL    HW226415   5.305   4.359   3.551
 8506SOL     OW26416   0.974   6.202   0.382
 8506SOL    HW126417   0.878   6.231   0.382
 8506SOL    HW226418   0.994   6.151   0.299
 8507SOL     OW26419   2.489   0.986   5.584
 8507SOL    HW126420   2.505   0.913   5.517
 8507SOL    HW226421   2.455   1.067   5.536
 8508SOL     OW26422   6.421   3.055   5.182
 8508SOL    HW126423   6.442   2.992   5.108
 8508SOL    HW226424   6.325   3.081   5.178
 8509SOL     OW26425   6.426   1.157   4.576
 8509SOL    HW126426   6.470   1.163   4.487
 8509SOL    HW226427   6.455   1.234   4.633
 8510SOL     OW26428   6.681   5.670   3.252
 8510SOL    HW126429   6.742   5.617   3.310
 8510SOL    HW226430   6.611   5.714   3.309
 8511SOL     OW26431   5.476   3.917   1.757
 8511SOL    HW126432   5.454   3.981   1.830
 8511SOL    HW226433   5.492   3.826   1.796
 8512SOL     OW26434   4.321   2.176   0.370
 8512SOL    HW126435   4.291   2.208   0.460
 8512SOL    HW226436   4.262   2.214   0.300
 8513SOL     OW26437   5.040   3.636   0.765
 8513SOL    HW126438   5.134   3.610   0.787
 8513SOL    HW226439   4.977   3.569   0.805
 8514SOL     OW26440   2.536   2.555   3.810
 8514SOL    HW126441   2.620   2.515   3.774
 8514SOL    HW226442   2.460   2.536   3.748
 8515SOL     OW26443   0.333   1.394   6.761
 8515SOL    HW126444   0.337   1.296   6.745
 8515SOL    HW226445   0.271   1.413   6.837
 8516SOL     OW26446   6.025   2.851   2.486
 8516SOL    HW126447   6.007   2.949   2.475
 8516SOL    HW226448   6.004   2.803   2.401
 8517SOL     OW26449   1.860   2.805   5.966
 8517SOL    HW126450   1.928   2.770   6.030
 8517SOL    HW226451   1.858   2.905   5.970
 8518SOL     OW26452   4.979   4.086   6.072
 8518SOL    HW126453   4.958   4.010   6.010
 8518SOL    HW226454   4.973   4.172   6.022
 8519SOL     OW26455   1.018   4.629   0.292
 8519SOL    HW126456   0.994   4.688   0.215
 8519SOL    HW226457   0.975   4.664   0.375
 8520SOL     OW26458   3.309   3.140   5.325
 8520SOL    HW126459   3.221   3.100   5.302
 8520SOL    HW226460   3.373   3.067   5.351
 8521SOL     OW26461   2.284   6.450   5.596
 8521SOL    HW126462   2.257   6.382   5.528
 8521SOL    HW226463   2.380   6.474   5.582
 8522SOL     OW26464   0.885   0.563   1.115
 8522SOL    HW126465   0.799   0.539   1.160
 8522SOL    HW226466   0.955   0.495   1.136
 8523SOL     OW26467   3.211   0.015   6.534
 8523SOL    HW126468   3.298   0.028   6.580
 8523SOL    HW226469   3.147   6.992   6.596
 8524SOL     OW26470   1.339   4.444   5.021
 8524SOL    HW126471   1.294   4.452   5.110
 8524SOL    HW226472   1.283   4.388   4.960
 8525SOL     OW26473   5.537   4.815   1.214
 8525SOL    HW126474   5.516   4.749   1.287
 8525SOL    HW226475   5.622   4.863   1.236
 8526SOL     OW26476   3.099   6.352   0.761
 8526SOL    HW126477   3.177   6.414   0.744
 8526SOL    HW226478   3.109   6.312   0.852
 8527SOL     OW26479   3.544   0.442   0.054
 8527SOL    HW126480   3.523   0.536   0.027
 8527SOL    HW226481   3.635   0.439   0.096
 8528SOL     OW26482   4.685   1.786   0.973
 8528SOL    HW126483   4.709   1.776   1.070
 8528SOL    HW226484   4.597   1.835   0.965
 8529SOL     OW26485   1.248   6.465   0.082
 8529SOL    HW126486   1.299   6.550   0.069
 8529SOL    HW226487   1.160   6.486   0.126
 8530SOL     OW26488   2.981   3.805   4.506
 8530SOL    HW126489   2.884   3.817   4.484
 8530SOL    HW226490   2.994   3.817   4.605
 8531SOL     OW26491   0.169   5.294   3.292
 8531SOL    HW126492   0.129   5.311   3.203
 8531SOL    HW226493   0.204   5.380   3.330
 8532SOL     OW26494   3.789   6.816   4.302
 8532SOL    HW126495   3.858   6.826   4.230
 8532SOL    HW226496   3.735   6.734   4.285
 8533SOL     OW26497   1.142   6.031   6.927
 8533SOL    HW126498   1.057   5.990   6.893
 8533SOL    HW226499   1.173   6.102   6.863
 8534SOL     OW26500   4.679   2.729   3.689
 8534SOL    HW126501   4.620   2.787   3.632
 8534SOL    HW226502   4.626   2.652   3.724
 8535SOL     OW26503   6.114   1.268   4.639
 8535SOL    HW126504   6.201   1.225   4.613
 8535SOL    HW226505   6.079   1.322   4.563
 8536SOL     OW26506   1.364   2.442   5.171
 8536SOL    HW126507   1.313   2.414   5.253
 8536SOL    HW226508   1.419   2.365   5.138
 8537SOL     OW26509   6.289   1.415   3.356
 8537SOL    HW126510   6.247   1.325   3.369
 8537SOL    HW226511   6.217   1.484   3.348
 8538SOL     OW26512   1.706   1.773   0.026
 8538SOL    HW126513   1.773   1.837   7.010
 8538SOL    HW226514   1.728   1.680   7.019
 8539SOL     OW26515   6.518   2.158   2.352
 8539SOL    HW126516   6.500   2.255   2.365
 8539SOL    HW226517   6.460   2.104   2.412
 8540SOL     OW26518   4.882   0.213   6.609
 8540SOL    HW126519   4.896   0.136   6.547
 8540SOL    HW226520   4.888   0.299   6.558
 8541SOL     OW26521   2.864   1.909   3.573
 8541SOL    HW126522   2.930   1.974   3.536
 8541SOL    HW226523   2.912   1.838   3.626
 8542SOL     OW26524   3.150   4.526   6.078
 8542SOL    HW126525   3.230   4.532   6.019
 8542SOL    HW226526   3.098   4.444   6.056
 8543SOL     OW26527   1.529   1.970   0.719
 8543SOL    HW126528   1.542   2.059   0.762
 8543SOL    HW226529   1.575   1.969   0.630
 8544SOL     OW26530   5.657   2.962   3.965
 8544SOL    HW126531   5.611   2.880   3.933
 8544SOL    HW226532   5.592   3.038   3.966
 8545SOL     OW26533   4.864   6.571   6.419
 8545SOL    HW126534   4.891   6.570   6.516
 8545SOL    HW226535   4.833   6.480   6.393
 8546SOL     OW26536   6.263   2.104   3.344
 8546SOL    HW126537   6.264   2.061   3.254
 8546SOL    HW226538   6.224   2.040   3.411
 8547SOL     OW26539   1.950   5.910   6.176
 8547SOL    HW126540   2.031   5.961   6.146
 8547SOL    HW226541   1.978   5.840   6.241
 8548SOL     OW26542   6.181   2.042   5.064
 8548SOL    HW126543   6.132   2.007   5.144
 8548SOL    HW226544   6.118   2.094   5.007
 8549SOL     OW26545   7.019   4.051   4.350
 8549SOL    HW126546   6.979   4.129   4.399
 8549SOL    HW226547   6.996   4.058   4.253
 8550SOL     OW26548   1.909   5.008   0.161
 8550SOL    HW126549   1.890   4.910   0.151
 8550SOL    HW226550   1.959   5.041   0.080
 8551SOL     OW26551   3.368   4.185   6.634
 8551SOL    HW126552   3.415   4.196   6.722
 8551SOL    HW226553   3.324   4.271   6.609
 8552SOL     OW26554   2.912   5.641   3.336
 8552SOL    HW126555   2.924   5.689   3.424
 8552SOL    HW226556   2.923   5.706   3.261
 8553SOL     OW26557   5.233   5.867   0.228
 8553SOL    HW126558   5.280   5.910   0.305
 8553SOL    HW226559   5.297   5.810   0.178
 8554SOL     OW26560   0.299   4.811   0.412
 8554SOL    HW126561   0.309   4.870   0.493
 8554SOL    HW226562   0.319   4.864   0.330
 8555SOL     OW26563   1.332   0.555   2.702
 8555SOL    HW126564   1.386   0.520   2.625
 8555SOL    HW226565   1.243   0.585   2.669
 8556SOL     OW26566   0.737   0.320   3.157
 8556SOL    HW126567   0.714   0.290   3.065
 8556SOL    HW226568   0.798   0.399   3.152
 8557SOL     OW26569   6.515   0.257   1.837
 8557SOL    HW126570   6.556   0.341   1.801
 8557SOL    HW226571   6.587   0.201   1.879
 8558SOL     OW26572   2.035   5.327   2.800
 8558SOL    HW126573   2.121   5.282   2.823
 8558SOL    HW226574   2.033   5.419   2.841
 8559SOL     OW26575   0.457   0.620   2.203
 8559SOL    HW126576   0.536   0.615   2.264
 8559SOL    HW226577   0.390   0.684   2.240
 8560SOL     OW26578   6.850   0.471   0.442
 8560SOL    HW126579   6.950   0.463   0.442
 8560SOL    HW226580   6.813   0.422   0.362
 8561SOL     OW26581   4.151   5.950   2.444
 8561SOL    HW126582   4.227   6.013   2.428
 8561SOL    HW226583   4.106   5.930   2.356
 8562SOL     OW26584   5.023   6.499   4.935
 8562SOL    HW126585   5.113   6.529   4.903
 8562SOL    HW226586   5.031   6.405   4.971
 8563SOL     OW26587   2.801   3.357   6.888
 8563SOL    HW126588   2.762   3.368   6.980
 8563SOL    HW226589   2.741   3.402   6.822
 8564SOL     OW26590   1.402   0.811   3.139
 8564SOL    HW126591   1.400   0.909   3.157
 8564SOL    HW226592   1.357   0.762   3.213
 8565SOL     OW26593   3.947   6.970   1.405
 8565SOL    HW126594   3.861   7.021   1.405
 8565SOL    HW226595   3.997   6.988   1.489
 8566SOL     OW26596   1.263   1.628   2.986
 8566SOL    HW126597   1.193   1.563   2.956
 8566SOL    HW226598   1.255   1.642   3.085
 8567SOL     OW26599   6.244   1.557   1.597
 8567SOL    HW126600   6.206   1.484   1.654
 8567SOL    HW226601   6.257   1.524   1.503
 8568SOL     OW26602   4.895   1.529   6.750
 8568SOL    HW126603   4.800   1.507   6.773
 8568SOL    HW226604   4.950   1.446   6.754
 8569SOL     OW26605   5.006   1.246   5.102
 8569SOL    HW126606   4.960   1.282   5.021
 8569SOL    HW226607   4.942   1.245   5.179
 8570SOL     OW26608   1.465   4.533   6.178
 8570SOL    HW126609   1.563   4.521   6.159
 8570SOL    HW226610   1.433   4.617   6.134
 8571SOL     OW26611   0.175   5.243   5.555
 8571SOL    HW126612   0.118   5.325   5.558
 8571SOL    HW226613   0.123   5.165   5.587
 8572SOL     OW26614   2.193   5.360   5.718
 8572SOL    HW126615   2.113   5.374   5.661
 8572SOL    HW226616   2.254   5.293   5.675
 8573SOL     OW26617   4.018   6.088   6.806
 8573SOL    HW126618   4.072   6.166   6.775
 8573SOL    HW226619   4.077   6.026   6.858
 8574SOL     OW26620   0.982   4.698   6.006
 8574SOL    HW126621   0.917   4.655   6.068
 8574SOL    HW226622   1.071   4.707   6.052
 8575SOL     OW26623   2.868   2.460   6.722
 8575SOL    HW126624   2.906   2.513   6.799
 8575SOL    HW226625   2.845   2.368   6.753
 8576SOL     OW26626   0.472   6.775   1.378
 8576SOL    HW126627   0.384   6.752   1.338
 8576SOL    HW226628   0.531   6.694   1.380
 8577SOL     OW26629   6.242   5.218   4.150
 8577SOL    HW126630   6.217   5.290   4.085
 8577SOL    HW226631   6.332   5.182   4.127
 8578SOL     OW26632   4.513   0.139   4.717
 8578SOL    HW126633   4.554   0.226   4.690
 8578SOL    HW226634   4.425   0.128   4.672
 8579SOL     OW26635   1.232   4.848   3.364
 8579SOL    HW126636   1.294   4.918   3.398
 8579SOL    HW226637   1.151   4.843   3.423
 8580SOL     OW26638   2.075   6.993   1.649
 8580SOL    HW126639   2.117   6.997   1.739
 8580SOL    HW226640   2.100   0.053   1.597
 8581SOL     OW26641   3.493   1.995   1.455
 8581SOL    HW126642   3.572   1.969   1.511
 8581SOL    HW226643   3.481   2.095   1.460
 8582SOL     OW26644   5.051   4.490   2.154
 8582SOL    HW126645   5.026   4.402   2.194
 8582SOL    HW226646   5.068   4.478   2.056
 8583SOL     OW26647   6.017   0.688   6.311
 8583SOL    HW126648   5.981   0.678   6.403
 8583SOL    HW226649   6.006   0.602   6.261
 8584SOL     OW26650   0.231   4.371   0.447
 8584SOL    HW126651   0.210   4.374   0.349
 8584SOL    HW226652   0.253   4.463   0.479
 8585SOL     OW26653   0.252   0.521   0.907
 8585SOL    HW126654   0.222   0.453   0.973
 8585SOL    HW226655   0.206   0.506   0.819
 8586SOL     OW26656   2.861   6.239   3.028
 8586SOL    HW126657   2.890   6.153   2.985
 8586SOL    HW226658   2.852   6.310   2.958
 8587SOL     OW26659   0.570   1.307   3.052
 8587SOL    HW126660   0.568   1.363   2.969
 8587SOL    HW226661   0.480   1.267   3.068
 8588SOL     OW26662   3.226   1.667   0.858
 8588SOL    HW126663   3.141   1.719   0.852
 8588SOL    HW226664   3.209   1.572   0.829
 8589SOL     OW26665   3.684   1.377   4.830
 8589SOL    HW126666   3.781   1.379   4.808
 8589SOL    HW226667   3.634   1.436   4.766
 8590SOL     OW26668   6.667   5.865   4.727
 8590SOL    HW126669   6.658   5.957   4.764
 8590SOL    HW226670   6.627   5.799   4.791
 8591SOL     OW26671   0.652   4.590   6.438
 8591SOL    HW126672   0.726   4.640   6.392
 8591SOL    HW226673   0.685   4.557   6.526
 8592SOL     OW26674   0.155   4.432   0.184
 8592SOL    HW126675   0.096   4.421   0.104
 8592SOL    HW226676   0.139   4.522   0.225
 8593SOL     OW26677   1.090   6.762   2.205
 8593SOL    HW126678   1.120   6.857   2.214
 8593SOL    HW226679   1.030   6.754   2.125
 8594SOL     OW26680   3.240   3.812   4.427
 8594SOL    HW126681   3.279   3.898   4.394
 8594SOL    HW226682   3.143   3.825   4.447
 8595SOL     OW26683   2.131   2.299   2.705
 8595SOL    HW126684   2.219   2.263   2.737
 8595SOL    HW226685   2.105   2.253   2.621
 8596SOL     OW26686   5.567   5.193   1.975
 8596SOL    HW126687   5.504   5.261   2.012
 8596SOL    HW226688   5.520   5.105   1.969
 8597SOL     OW26689   3.460   2.223   1.163
 8597SOL    HW126690   3.399   2.145   1.149
 8597SOL    HW226691   3.418   2.305   1.124
 8598SOL     OW26692   0.052   5.309   0.910
 8598SOL    HW126693   0.051   5.272   1.003
 8598SOL    HW226694   6.991   5.363   0.895
 8599SOL     OW26695   0.984   2.790   3.879
 8599SOL    HW126696   0.899   2.781   3.932
 8599SOL    HW226697   1.029   2.700   3.874
 8600SOL     OW26698   6.367   4.720   6.367
 8600SOL    HW126699   6.408   4.751   6.453
 8600SOL    HW226700   6.358   4.799   6.305
 8601SOL     OW26701   0.233   1.374   4.887
 8601SOL    HW126702   0.210   1.279   4.869
 8601SOL    HW226703   0.287   1.410   4.811
 8602SOL     OW26704   2.769   6.587   2.858
 8602SOL    HW126705   2.785   6.686   2.861
 8602SOL    HW226706   2.671   6.569   2.855
 8603SOL     OW26707   3.322   3.780   0.071
 8603SOL    HW126708   3.309   3.861   0.127
 8603SOL    HW226709   3.302   3.801   6.998
 8604SOL     OW26710   6.473   2.845   3.936
 8604SOL    HW126711   6.377   2.852   3.910
 8604SOL    HW226712   6.525   2.806   3.859
 8605SOL     OW26713   3.700   5.290   4.146
 8605SOL    HW126714   3.742   5.240   4.221
 8605SOL    HW226715   3.679   5.227   4.071
 8606SOL     OW26716   2.446   4.154   5.833
 8606SOL    HW126717   2.373   4.222   5.826
 8606SOL    HW226718   2.522   4.180   5.773
 8607SOL     OW26719   3.639   5.695   1.131
 8607SOL    HW126720   3.666   5.613   1.080
 8607SOL    HW226721   3.606   5.668   1.222
 8608SOL     OW26722   4.435   4.905   2.715
 8608SOL    HW126723   4.354   4.961   2.728
 8608SOL    HW226724   4.447   4.845   2.794
 8609SOL     OW26725   3.663   0.303   4.288
 8609SOL    HW126726   3.640   0.400   4.295
 8609SOL    HW226727   3.669   0.277   4.192
 8610SOL     OW26728   1.138   0.201   3.228
 8610SOL    HW126729   1.205   0.154   3.286
 8610SOL    HW226730   1.184   0.272   3.175
 8611SOL     OW26731   1.315   2.191   4.808
 8611SOL    HW126732   1.365   2.205   4.722
 8611SOL    HW226733   1.224   2.155   4.789
 8612SOL     OW26734   2.928   3.636   6.410
 8612SOL    HW126735   2.872   3.701   6.462
 8612SOL    HW226736   3.025   3.655   6.427
 8613SOL     OW26737   2.224   1.515   0.944
 8613SOL    HW126738   2.233   1.541   0.848
 8613SOL    HW226739   2.150   1.567   0.986
 8614SOL     OW26740   0.606   4.000   2.928
 8614SOL    HW126741   0.657   4.001   3.014
 8614SOL    HW226742   0.622   4.085   2.879
 8615SOL     OW26743   4.788   1.971   5.198
 8615SOL    HW126744   4.771   1.931   5.108
 8615SOL    HW226745   4.881   1.947   5.228
 8616SOL     OW26746   0.561   4.735   0.464
 8616SOL    HW126747   0.464   4.754   0.445
 8616SOL    HW226748   0.600   4.681   0.391
 8617SOL     OW26749   6.572   1.841   0.466
 8617SOL    HW126750   6.536   1.853   0.374
 8617SOL    HW226751   6.497   1.835   0.531
 8618SOL     OW26752   4.536   6.831   2.216
 8618SOL    HW126753   4.488   6.877   2.290
 8618SOL    HW226754   4.484   6.751   2.186
 8619SOL     OW26755   4.440   5.197   0.308
 8619SOL    HW126756   4.454   5.270   0.375
 8619SOL    HW226757   4.358   5.145   0.332
 8620SOL     OW26758   6.227   6.518   2.719
 8620SOL    HW126759   6.217   6.505   2.621
 8620SOL    HW226760   6.285   6.596   2.737
 8621SOL     OW26761   6.313   1.159   3.839
 8621SOL    HW126762   6.339   1.121   3.928
 8621SOL    HW226763   6.353   1.250   3.830
 8622SOL     OW26764   4.649   4.049   6.946
 8622SOL    HW126765   4.694   4.060   6.858
 8622SOL    HW226766   4.604   3.960   6.949
 8623SOL     OW26767   0.761   4.752   3.355
 8623SOL    HW126768   0.678   4.805   3.338
 8623SOL    HW226769   0.830   4.775   3.286
 8624SOL     OW26770   1.295   4.385   3.412
 8624SOL    HW126771   1.302   4.293   3.373
 8624SOL    HW226772   1.200   4.401   3.440
 8625SOL     OW26773   4.643   0.629   4.451
 8625SOL    HW126774   4.694   0.600   4.532
 8625SOL    HW226775   4.591   0.712   4.473
 8626SOL     OW26776   3.742   3.155   4.308
 8626SOL    HW126777   3.678   3.222   4.344
 8626SOL    HW226778   3.708   3.062   4.325
 8627SOL     OW26779   1.434   1.028   1.518
 8627SOL    HW126780   1.424   0.933   1.486
 8627SOL    HW226781   1.470   1.028   1.611
 8628SOL     OW26782   6.340   0.052   0.308
 8628SOL    HW126783   6.417   0.098   0.265
 8628SOL    HW226784   6.351   0.053   0.407
 8629SOL     OW26785   1.547   4.535   4.364
 8629SOL    HW126786   1.550   4.435   4.374
 8629SOL    HW226787   1.640   4.569   4.348
 8630SOL     OW26788   5.788   4.155   4.770
 8630SOL    HW126789   5.804   4.104   4.686
 8630SOL    HW226790   5.839   4.113   4.845
 8631SOL     OW26791   4.126   6.133   5.854
 8631SOL    HW126792   4.135   6.228   5.883
 8631SOL    HW226793   4.055   6.088   5.908
 8632SOL     OW26794   3.534   6.831   4.053
 8632SOL    HW126795   3.504   6.801   3.962
 8632SOL    HW226796   3.535   6.753   4.115
 8633SOL     OW26797   5.266   1.421   4.057
 8633SOL    HW126798   5.281   1.366   3.974
 8633SOL    HW226799   5.269   1.362   4.137
 8634SOL     OW26800   6.483   3.754   1.507
 8634SOL    HW126801   6.540   3.736   1.427
 8634SOL    HW226802   6.434   3.841   1.495
 8635SOL     OW26803   5.791   3.703   5.844
 8635SOL    HW126804   5.833   3.703   5.934
 8635SOL    HW226805   5.694   3.680   5.852
 8636SOL     OW26806   5.997   5.166   6.737
 8636SOL    HW126807   5.994   5.111   6.821
 8636SOL    HW226808   6.034   5.111   6.662
 8637SOL     OW26809   2.070   0.751   0.417
 8637SOL    HW126810   1.980   0.712   0.439
 8637SOL    HW226811   2.058   0.826   0.351
 8638SOL     OW26812   2.088   3.586   0.425
 8638SOL    HW126813   2.038   3.501   0.437
 8638SOL    HW226814   2.024   3.660   0.405
 8639SOL     OW26815   5.462   2.528   1.821
 8639SOL    HW126816   5.421   2.437   1.831
 8639SOL    HW226817   5.394   2.590   1.781
 8640SOL     OW26818   4.598   3.934   0.242
 8640SOL    HW126819   4.624   3.901   0.333
 8640SOL    HW226820   4.643   4.021   0.224
 8641SOL     OW26821   6.655   3.980   3.630
 8641SOL    HW126822   6.680   3.963   3.725
 8641SOL    HW226823   6.667   3.896   3.577
 8642SOL     OW26824   4.445   0.362   2.203
 8642SOL    HW126825   4.498   0.442   2.176
 8642SOL    HW226826   4.460   0.288   2.137
 8643SOL     OW26827   4.954   6.994   6.982
 8643SOL    HW126828   4.870   0.011   7.021
 8643SOL    HW226829   4.980   0.024   6.901
 8644SOL     OW26830   5.511   2.400   4.973
 8644SOL    HW126831   5.530   2.494   5.000
 8644SOL    HW226832   5.536   2.339   5.048
 8645SOL     OW26833   5.787   4.904   1.294
 8645SOL    HW126834   5.829   4.992   1.314
 8645SOL    HW226835   5.811   4.838   1.365
 8646SOL     OW26836   4.871   1.043   1.115
 8646SOL    HW126837   4.953   1.083   1.074
 8646SOL    HW226838   4.797   1.042   1.048
 8647SOL     OW26839   3.780   4.967   6.906
 8647SOL    HW126840   3.798   5.042   6.969
 8647SOL    HW226841   3.744   5.004   6.821
 8648SOL     OW26842   5.907   1.080   4.516
 8648SOL    HW126843   5.894   1.047   4.609
 8648SOL    HW226844   5.901   1.179   4.514
 8649SOL     OW26845   6.238   4.527   5.748
 8649SOL    HW126846   6.150   4.496   5.786
 8649SOL    HW226847   6.289   4.449   5.712
 8650SOL     OW26848   2.097   4.833   3.976
 8650SOL    HW126849   2.058   4.797   3.891
 8650SOL    HW226850   2.110   4.931   3.968
 8651SOL     OW26851   3.842   1.018   0.550
 8651SOL    HW126852   3.805   1.042   0.640
 8651SOL    HW226853   3.941   1.030   0.550
 8652SOL     OW26854   1.617   4.043   3.511
 8652SOL    HW126855   1.589   4.018   3.418
 8652SOL    HW226856   1.681   4.119   3.507
 8653SOL     OW26857   6.924   2.200   6.320
 8653SOL    HW126858   6.971   2.208   6.408
 8653SOL    HW226859   6.972   2.134   6.263
 8654SOL     OW26860   0.398   6.099   2.763
 8654SOL    HW126861   0.418   6.090   2.860
 8654SOL    HW226862   0.324   6.165   2.749
 8655SOL     OW26863   5.965   0.275   3.965
 8655SOL    HW126864   6.052   0.315   3.992
 8655SOL    HW226865   5.961   0.179   3.992
 8656SOL     OW26866   6.114   1.065   1.044
 8656SOL    HW126867   6.056   1.038   0.968
 8656SOL    HW226868   6.194   1.005   1.049
 8657SOL     OW26869   4.064   5.116   6.224
 8657SOL    HW126870   3.977   5.067   6.219
 8657SOL    HW226871   4.085   5.154   6.134
 8658SOL     OW26872   4.785   5.222   0.070
 8658SOL    HW126873   4.829   5.134   0.054
 8658SOL    HW226874   4.686   5.211   0.065
 8659SOL     OW26875   4.763   0.692   3.147
 8659SOL    HW126876   4.760   0.592   3.154
 8659SOL    HW226877   4.841   0.720   3.092
 8660SOL     OW26878   5.776   3.798   0.408
 8660SOL    HW126879   5.825   3.736   0.470
 8660SOL    HW226880   5.709   3.746   0.355
 8661SOL     OW26881   6.000   4.300   2.049
 8661SOL    HW126882   5.936   4.250   2.107
 8661SOL    HW226883   6.056   4.360   2.105
 8662SOL     OW26884   5.605   6.576   1.790
 8662SOL    HW126885   5.684   6.524   1.757
 8662SOL    HW226886   5.597   6.565   1.889
 8663SOL     OW26887   2.483   5.829   0.386
 8663SOL    HW126888   2.525   5.818   0.476
 8663SOL    HW226889   2.549   5.867   0.322
 8664SOL     OW26890   4.514   5.179   0.065
 8664SOL    HW126891   4.497   5.091   0.020
 8664SOL    HW226892   4.483   5.174   0.160
 8665SOL     OW26893   5.145   5.879   5.744
 8665SOL    HW126894   5.121   5.835   5.830
 8665SOL    HW226895   5.112   5.823   5.668
 8666SOL     OW26896   5.428   1.928   5.095
 8666SOL    HW126897   5.446   1.939   5.193
 8666SOL    HW226898   5.414   1.832   5.074
 8667SOL     OW26899   5.080   1.677   3.091
 8667SOL    HW126900   5.075   1.733   3.174
 8667SOL    HW226901   5.003   1.699   3.031
 8668SOL     OW26902   5.191   2.378   3.658
 8668SOL    HW126903   5.133   2.406   3.582
 8668SOL    HW226904   5.225   2.459   3.705
 8669SOL     OW26905   3.724   0.292   6.234
 8669SOL    HW126906   3.692   0.234   6.309
 8669SOL    HW226907   3.651   0.353   6.205
 8670SOL     OW26908   3.794   5.455   5.408
 8670SOL    HW126909   3.817   5.530   5.346
 8670SOL    HW226910   3.835   5.472   5.498
 8671SOL     OW26911   5.340   0.650   3.801
 8671SOL    HW126912   5.280   0.597   3.741
 8671SOL    HW226913   5.435   0.624   3.784
 8672SOL     OW26914   2.401   5.647   4.892
 8672SOL    HW126915   2.499   5.663   4.879
 8672SOL    HW226916   2.361   5.614   4.807
 8673SOL     OW26917   0.312   0.932   0.102
 8673SOL    HW126918   0.278   0.844   0.136
 8673SOL    HW226919   0.293   0.939   0.005
 8674SOL     OW26920   6.971   6.103   2.372
 8674SOL    HW126921   7.003   6.141   2.285
 8674SOL    HW226922   7.006   6.010   2.383
 8675SOL     OW26923   3.668   2.133   4.426
 8675SOL    HW126924   3.734   2.167   4.494
 8675SOL    HW226925   3.577   2.129   4.468
 8676SOL     OW26926   2.991   0.584   2.909
 8676SOL    HW126927   2.983   0.548   3.002
 8676SOL    HW226928   2.937   0.668   2.900
 8677SOL     OW26929   2.526   5.500   6.448
 8677SOL    HW126930   2.608   5.455   6.413
 8677SOL    HW226931   2.465   5.520   6.371
 8678SOL     OW26932   0.560   0.027   0.186
 8678SOL    HW126933   0.511   0.058   0.267
 8678SOL    HW226934   0.494   0.002   0.115
 8679SOL     OW26935   5.994   1.988   4.292
 8679SOL    HW126936   5.939   2.014   4.371
 8679SOL    HW226937   6.023   2.070   4.244
 8680SOL     OW26938   1.111   3.652   1.421
 8680SOL    HW126939   1.154   3.601   1.347
 8680SOL    HW226940   1.179   3.713   1.463
 8681SOL     OW26941   4.852   4.759   6.806
 8681SOL    HW126942   4.910   4.828   6.763
 8681SOL    HW226943   4.871   4.757   6.905
 8682SOL     OW26944   3.754   6.503   3.139
 8682SOL    HW126945   3.673   6.521   3.083
 8682SOL    HW226946   3.728   6.501   3.235
 8683SOL     OW26947   1.418   2.540   2.317
 8683SOL    HW126948   1.500   2.596   2.308
 8683SOL    HW226949   1.435   2.467   2.383
 8684SOL     OW26950   0.636   2.803   4.498
 8684SOL    HW126951   0.705   2.778   4.565
 8684SOL    HW226952   0.546   2.773   4.530
 8685SOL     OW26953   1.203   2.035   5.933
 8685SOL    HW126954   1.236   1.944   5.909
 8685SOL    HW226955   1.172   2.035   6.028
 8686SOL     OW26956   6.669   2.111   1.953
 8686SOL    HW126957   6.717   2.036   1.907
 8686SOL    HW226958   6.603   2.073   2.019
 8687SOL     OW26959   3.671   6.175   2.721
 8687SOL    HW126960   3.658   6.244   2.650
 8687SOL    HW226961   3.761   6.189   2.764
 8688SOL     OW26962   2.627   6.636   0.278
 8688SOL    HW126963   2.676   6.653   0.364
 8688SOL    HW226964   2.534   6.606   0.299
 8689SOL     OW26965   3.619   6.284   0.289
 8689SOL    HW126966   3.599   6.201   0.339
 8689SOL    HW226967   3.560   6.291   0.208
 8690SOL     OW26968   1.717   2.407   3.804
 8690SOL    HW126969   1.634   2.376   3.850
 8690SOL    HW226970   1.692   2.449   3.716
 8691SOL     OW26971   4.027   2.643   6.491
 8691SOL    HW126972   3.993   2.568   6.549
 8691SOL    HW226973   4.062   2.605   6.405
 8692SOL     OW26974   3.764   2.147   2.649
 8692SOL    HW126975   3.679   2.153   2.598
 8692SOL    HW226976   3.744   2.135   2.746
 8693SOL     OW26977   5.432   1.820   1.121
 8693SOL    HW126978   5.451   1.905   1.071
 8693SOL    HW226979   5.334   1.801   1.118
 8694SOL     OW26980   4.720   6.934   6.152
 8694SOL    HW126981   4.793   6.975   6.097
 8694SOL    HW226982   4.704   6.990   6.234
 8695SOL     OW26983   4.681   2.302   5.720
 8695SOL    HW126984   4.662   2.240   5.796
 8695SOL    HW226985   4.609   2.293   5.652
 8696SOL     OW26986   3.255   5.610   1.056
 8696SOL    HW126987   3.167   5.620   1.010
 8696SOL    HW226988   3.329   5.623   0.989
 8697SOL     OW26989   6.481   3.893   0.698
 8697SOL    HW126990   6.414   3.871   0.626
 8697SOL    HW226991   6.563   3.932   0.656
 8698SOL     OW26992   5.420   6.008   3.847
 8698SOL    HW126993   5.476   6.053   3.778
 8698SOL    HW226994   5.324   6.011   3.820
 8699SOL     OW26995   0.777   2.215   5.591
 8699SOL    HW126996   0.821   2.136   5.632
 8699SOL    HW226997   0.837   2.295   5.599
 8700SOL     OW26998   2.133   0.700   4.896
 8700SOL    HW126999   2.129   0.689   4.995
 8700SOL    HW227000   2.043   0.726   4.862
 8701SOL     OW27001   1.021   0.769   6.019
 8701SOL    HW127002   0.973   0.813   6.095
 8701SOL    HW227003   1.117   0.757   6.043
 8702SOL     OW27004   5.593   4.741   0.222
 8702SOL    HW127005   5.641   4.653   0.227
 8702SOL    HW227006   5.578   4.765   0.126
 8703SOL     OW27007   3.020   5.682   1.446
 8703SOL    HW127008   2.935   5.631   1.435
 8703SOL    HW227009   3.084   5.629   1.502
 8704SOL     OW27010   6.175   3.670   2.616
 8704SOL    HW127011   6.249   3.658   2.682
 8704SOL    HW227012   6.131   3.759   2.630
 8705SOL     OW27013   5.430   0.872   6.517
 8705SOL    HW127014   5.507   0.869   6.454
 8705SOL    HW227015   5.397   0.780   6.534
 8706SOL     OW27016   4.963   2.241   5.747
 8706SOL    HW127017   4.967   2.143   5.761
 8706SOL    HW227018   4.868   2.268   5.731
 8707SOL     OW27019   4.720   2.459   0.351
 8707SOL    HW127020   4.720   2.547   0.399
 8707SOL    HW227021   4.774   2.393   0.402
 8708SOL     OW27022   3.837   1.116   1.928
 8708SOL    HW127023   3.933   1.138   1.911
 8708SOL    HW227024   3.787   1.118   1.841
 8709SOL     OW27025   6.476   5.052   0.060
 8709SOL    HW127026   6.385   5.054   0.102
 8709SOL    HW227027   6.471   5.002   6.996
 8710SOL     OW27028   2.154   2.876   3.065
 8710SOL    HW127029   2.064   2.905   3.098
 8710SOL    HW227030   2.223   2.898   3.134
 8711SOL     OW27031   6.855   6.237   2.565
 8711SOL    HW127032   6.886   6.181   2.487
 8711SOL    HW227033   6.903   6.324   2.564
 8712SOL     OW27034   3.932   2.173   3.913
 8712SOL    HW127035   3.892   2.087   3.882
 8712SOL    HW227036   3.865   2.247   3.902
 8713SOL     OW27037   6.896   4.175   3.625
 8713SOL    HW127038   6.874   4.186   3.722
 8713SOL    HW227039   6.824   4.122   3.580
 8714SOL     OW27040   1.056   1.073   5.733
 8714SOL    HW127041   1.108   1.043   5.653
 8714SOL    HW227042   1.006   0.995   5.771
 8715SOL     OW27043   5.672   0.776   1.037
 8715SOL    HW127044   5.623   0.861   1.015
 8715SOL    HW227045   5.648   0.706   0.970
 8716SOL     OW27046   1.196   1.822   1.178
 8716SOL    HW127047   1.119   1.858   1.231
 8716SOL    HW227048   1.176   1.729   1.149
 8717SOL     OW27049   4.130   3.698   2.393
 8717SOL    HW127050   4.223   3.710   2.429
 8717SOL    HW227051   4.089   3.617   2.435
 8718SOL     OW27052   0.810   2.036   5.312
 8718SOL    HW127053   0.740   2.069   5.375
 8718SOL    HW227054   0.808   1.936   5.309
 8719SOL     OW27055   2.025   0.410   5.646
 8719SOL    HW127056   2.085   0.483   5.615
 8719SOL    HW227057   2.020   0.411   5.746
 8720SOL     OW27058   7.008   5.453   5.553
 8720SOL    HW127059   6.967   5.541   5.577
 8720SOL    HW227060   6.935   5.385   5.540
 8721SOL     OW27061   5.732   2.010   4.063
 8721SOL    HW127062   5.813   1.956   4.086
 8721SOL    HW227063   5.746   2.105   4.092
 8722SOL     OW27064   4.012   0.676   0.976
 8722SOL    HW127065   4.089   0.628   1.019
 8722SOL    HW227066   4.029   0.775   0.979
 8723SOL     OW27067   5.757   5.929   1.044
 8723SOL    HW127068   5.759   6.029   1.054
 8723SOL    HW227069   5.678   5.903   0.989
 8724SOL     OW27070   5.811   0.014   4.658
 8724SOL    HW127071   5.793   6.953   4.709
 8724SOL    HW227072   5.832   0.088   4.722
 8725SOL     OW27073   1.902   0.890   6.819
 8725SOL    HW127074   1.897   0.859   6.914
 8725SOL    HW227075   1.992   0.870   6.782
 8726SOL     OW27076   6.388   0.220   1.402
 8726SOL    HW127077   6.317   0.170   1.453
 8726SOL    HW227078   6.362   0.316   1.396
 8727SOL     OW27079   6.525   6.676   1.984
 8727SOL    HW127080   6.493   6.626   1.903
 8727SOL    HW227081   6.616   6.712   1.966
 8728SOL     OW27082   4.103   0.402   4.896
 8728SOL    HW127083   4.198   0.434   4.900
 8728SOL    HW227084   4.101   0.306   4.869
 8729SOL     OW27085   5.072   5.707   3.516
 8729SOL    HW127086   5.056   5.627   3.458
 8729SOL    HW227087   4.998   5.714   3.584
 8730SOL     OW27088   6.862   5.421   2.924
 8730SOL    HW127089   6.811   5.504   2.948
 8730SOL    HW227090   6.869   5.413   2.825
 8731SOL     OW27091   2.104   1.867   3.346
 8731SOL    HW127092   2.063   1.782   3.312
 8731SOL    HW227093   2.046   1.944   3.320
 8732SOL     OW27094   5.506   4.142   1.914
 8732SOL    HW127095   5.411   4.112   1.906
 8732SOL    HW227096   5.526   4.166   2.009
 8733SOL     OW27097   1.342   6.135   3.129
 8733SOL    HW127098   1.266   6.165   3.071
 8733SOL    HW227099   1.334   6.038   3.148
 8734SOL     OW27100   1.290   4.907   1.661
 8734SOL    HW127101   1.267   4.899   1.564
 8734SOL    HW227102   1.386   4.880   1.675
 8735SOL     OW27103   0.703   1.877   0.044
 8735SOL    HW127104   0.633   1.865   6.996
 8735SOL    HW227105   0.783   1.821   0.022
 8736SOL     OW27106   0.486   6.432   0.136
 8736SOL    HW127107   0.426   6.512   0.148
 8736SOL    HW227108   0.561   6.457   0.075
 8737SOL     OW27109   3.920   6.879   6.438
 8737SOL    HW127110   3.962   6.956   6.389
 8737SOL    HW227111   3.875   6.912   6.521
 8738SOL     OW27112   1.261   3.889   4.696
 8738SOL    HW127113   1.355   3.913   4.674
 8738SOL    HW227114   1.231   3.940   4.776
 8739SOL     OW27115   6.505   4.800   6.607
 8739SOL    HW127116   6.564   4.720   6.618
 8739SOL    HW227117   6.560   4.878   6.575
 8740SOL     OW27118   3.965   0.670   6.192
 8740SOL    HW127119   4.051   0.622   6.172
 8740SOL    HW227120   3.985   0.757   6.238
 8741SOL     OW27121   2.000   1.880   1.494
 8741SOL    HW127122   1.967   1.960   1.444
 8741SOL    HW227123   1.928   1.812   1.502
 8742SOL     OW27124   4.995   6.117   1.786
 8742SOL    HW127125   4.931   6.101   1.862
 8742SOL    HW227126   4.977   6.050   1.714
 8743SOL     OW27127   2.151   6.643   2.417
 8743SOL    HW127128   2.088   6.592   2.359
 8743SOL    HW227129   2.237   6.657   2.369
 8744SOL     OW27130   3.916   2.446   5.975
 8744SOL    HW127131   3.953   2.484   5.890
 8744SOL    HW227132   3.820   2.422   5.963
 8745SOL     OW27133   6.100   2.463   5.448
 8745SOL    HW127134   6.011   2.416   5.444
 8745SOL    HW227135   6.172   2.397   5.469
 8746SOL     OW27136   4.290   4.143   5.603
 8746SOL    HW127137   4.361   4.199   5.647
 8746SOL    HW227138   4.316   4.126   5.508
 8747SOL     OW27139   0.607   2.540   3.535
 8747SOL    HW127140   0.521   2.589   3.552
 8747SOL    HW227141   0.684   2.602   3.548
 8748SOL     OW27142   1.067   0.376   6.759
 8748SOL    HW127143   1.123   0.356   6.679
 8748SOL    HW227144   1.076   0.302   6.826
 8749SOL     OW27145   2.825   0.374   4.544
 8749SOL    HW127146   2.861   0.429   4.620
 8749SOL    HW227147   2.747   0.320   4.577
 8750SOL     OW27148   2.400   2.814   5.290
 8750SOL    HW127149   2.305   2.799   5.317
 8750SOL    HW227150   2.407   2.897   5.235
 8751SOL     OW27151   6.880   0.313   2.024
 8751SOL    HW127152   6.950   0.363   2.075
 8751SOL    HW227153   6.803   0.292   2.084
 8752SOL     OW27154   3.219   4.023   0.250
 8752SOL    HW127155   3.180   4.056   0.335
 8752SOL    HW227156   3.311   4.061   0.238
 8753SOL     OW27157   4.839   1.219   4.678
 8753SOL    HW127158   4.938   1.223   4.685
 8753SOL    HW227159   4.812   1.135   4.632
 8754SOL     OW27160   0.702   1.861   5.553
 8754SOL    HW127161   0.781   1.911   5.589
 8754SOL    HW227162   0.620   1.918   5.558
 8755SOL     OW27163   2.788   1.621   6.849
 8755SOL    HW127164   2.799   1.624   6.750
 8755SOL    HW227165   2.878   1.615   6.893
 8756SOL     OW27166   2.155   2.692   3.423
 8756SOL    HW127167   2.200   2.756   3.486
 8756SOL    HW227168   2.061   2.723   3.407
 8757SOL     OW27169   6.171   6.337   6.057
 8757SOL    HW127170   6.160   6.435   6.040
 8757SOL    HW227171   6.215   6.294   5.978
 8758SOL     OW27172   5.527   6.302   2.335
 8758SOL    HW127173   5.473   6.376   2.294
 8758SOL    HW227174   5.526   6.312   2.434
 8759SOL     OW27175   4.408   1.502   6.370
 8759SOL    HW127176   4.396   1.535   6.277
 8759SOL    HW227177   4.321   1.507   6.419
 8760SOL     OW27178   2.089   1.726   4.385
 8760SOL    HW127179   2.126   1.636   4.409
 8760SOL    HW227180   2.030   1.717   4.305
 8761SOL     OW27181   5.093   0.471   0.955
 8761SOL    HW127182   5.172   0.530   0.969
 8761SOL    HW227183   5.056   0.485   0.863
 8762SOL     OW27184   1.302   3.261   2.803
 8762SOL    HW127185   1.370   3.203   2.758
 8762SOL    HW227186   1.343   3.308   2.880
 8763SOL     OW27187   6.190   6.389   5.095
 8763SOL    HW127188   6.113   6.452   5.096
 8763SOL    HW227189   6.272   6.437   5.066
 8764SOL     OW27190   4.936   1.770   3.862
 8764SOL    HW127191   4.954   1.683   3.908
 8764SOL    HW227192   5.019   1.825   3.860
 8765SOL     OW27193   5.901   6.740   4.794
 8765SOL    HW127194   5.850   6.783   4.868
 8765SOL    HW227195   5.998   6.733   4.819
 8766SOL     OW27196   3.536   4.931   3.525
 8766SOL    HW127197   3.576   4.984   3.600
 8766SOL    HW227198   3.500   4.844   3.560
 8767SOL     OW27199   4.378   0.274   2.480
 8767SOL    HW127200   4.281   0.264   2.504
 8767SOL    HW227201   4.385   0.295   2.382
 8768SOL     OW27202   2.145   3.637   0.093
 8768SOL    HW127203   2.141   3.584   0.178
 8768SOL    HW227204   2.237   3.675   0.083
 8769SOL     OW27205   0.412   0.506   5.330
 8769SOL    HW127206   0.492   0.447   5.342
 8769SOL    HW227207   0.406   0.571   5.406
 8770SOL     OW27208   4.951   3.791   2.171
 8770SOL    HW127209   4.948   3.886   2.202
 8770SOL    HW227210   4.951   3.730   2.250
 8771SOL     OW27211   1.990   1.386   6.313
 8771SOL    HW127212   2.064   1.345   6.366
 8771SOL    HW227213   2.027   1.462   6.258
 8772SOL     OW27214   5.998   0.332   6.856
 8772SOL    HW127215   6.048   0.259   6.809
 8772SOL    HW227216   6.058   0.377   6.921
 8773SOL     OW27217   3.936   2.171   3.390
 8773SOL    HW127218   3.957   2.266   3.414
 8773SOL    HW227219   3.875   2.133   3.459
 8774SOL     OW27220   1.377   1.657   0.426
 8774SOL    HW127221   1.430   1.647   0.510
 8774SOL    HW227222   1.296   1.714   0.444
 8775SOL     OW27223   5.710   0.398   3.969
 8775SOL    HW127224   5.653   0.342   3.908
 8775SOL    HW227225   5.794   0.348   3.991
 8776SOL     OW27226   3.812   2.898   4.861
 8776SOL    HW127227   3.852   2.819   4.906
 8776SOL    HW227228   3.715   2.881   4.845
 8777SOL     OW27229   0.314   5.093   1.627
 8777SOL    HW127230   0.283   5.128   1.538
 8777SOL    HW227231   0.379   5.158   1.667
 8778SOL     OW27232   0.218   1.694   3.627
 8778SOL    HW127233   0.218   1.782   3.579
 8778SOL    HW227234   0.244   1.709   3.723
 8779SOL     OW27235   1.673   5.364   2.692
 8779SOL    HW127236   1.733   5.428   2.643
 8779SOL    HW227237   1.709   5.271   2.682
 8780SOL     OW27238   1.883   5.624   3.697
 8780SOL    HW127239   1.857   5.546   3.754
 8780SOL    HW227240   1.845   5.708   3.735
 8781SOL     OW27241   6.913   0.899   3.293
 8781SOL    HW127242   6.952   0.991   3.288
 8781SOL    HW227243   6.951   0.851   3.372
 8782SOL     OW27244   5.910   0.915   2.063
 8782SOL    HW127245   5.901   0.935   1.965
 8782SOL    HW227246   5.994   0.863   2.079
 8783SOL     OW27247   6.052   3.880   3.630
 8783SOL    HW127248   6.149   3.886   3.650
 8783SOL    HW227249   6.019   3.787   3.650
 8784SOL     OW27250   5.308   4.440   5.188
 8784SOL    HW127251   5.338   4.465   5.096
 8784SOL    HW227252   5.383   4.395   5.236
 8785SOL     OW27253   5.436   3.869   0.525
 8785SOL    HW127254   5.443   3.935   0.450
 8785SOL    HW227255   5.343   3.869   0.561
 8786SOL     OW27256   2.184   6.980   6.768
 8786SOL    HW127257   2.097   6.940   6.796
 8786SOL    HW227258   2.169   0.020   6.691
 8787SOL     OW27259   1.555   2.985   2.290
 8787SOL    HW127260   1.589   2.991   2.384
 8787SOL    HW227261   1.591   3.062   2.237
 8788SOL     OW27262   6.872   1.984   5.444
 8788SOL    HW127263   6.939   2.057   5.432
 8788SOL    HW227264   6.812   1.980   5.364
 8789SOL     OW27265   6.042   0.126   6.626
 8789SOL    HW127266   5.982   0.057   6.587
 8789SOL    HW227267   6.136   0.110   6.595
 8790SOL     OW27268   6.810   1.304   0.092
 8790SOL    HW127269   6.758   1.228   0.130
 8790SOL    HW227270   6.900   1.309   0.136
 8791SOL     OW27271   5.197   6.939   5.777
 8791SOL    HW127272   5.203   6.865   5.710
 8791SOL    HW227273   5.111   6.988   5.766
 8792SOL     OW27274   3.796   6.932   3.200
 8792SOL    HW127275   3.816   7.018   3.248
 8792SOL    HW227276   3.819   6.855   3.258
 8793SOL     OW27277   2.308   5.954   4.676
 8793SOL    HW127278   2.402   5.971   4.707
 8793SOL    HW227279   2.266   6.040   4.648
 8794SOL     OW27280   3.390   6.909   3.083
 8794SOL    HW127281   3.408   7.005   3.101
 8794SOL    HW227282   3.469   6.868   3.037
 8795SOL     OW27283   1.550   6.623   5.273
 8795SOL    HW127284   1.609   6.548   5.304
 8795SOL    HW227285   1.455   6.591   5.268
 8796SOL     OW27286   4.626   1.745   5.451
 8796SOL    HW127287   4.658   1.840   5.452
 8796SOL    HW227288   4.533   1.742   5.414
 8797SOL     OW27289   1.841   6.368   6.603
 8797SOL    HW127290   1.753   6.355   6.647
 8797SOL    HW227291   1.914   6.363   6.672
 8798SOL     OW27292   5.803   4.086   5.864
 8798SOL    HW127293   5.758   4.010   5.818
 8798SOL    HW227294   5.884   4.113   5.812
 8799SOL     OW27295   2.368   4.376   3.898
 8799SOL    HW127296   2.382   4.351   3.802
 8799SOL    HW227297   2.333   4.470   3.902
 8800SOL     OW27298   4.983   3.996   5.690
 8800SOL    HW127299   4.906   3.978   5.628
 8800SOL    HW227300   5.044   4.063   5.649
 8801SOL     OW27301   2.258   1.570   4.135
 8801SOL    HW127302   2.268   1.623   4.051
 8801SOL    HW227303   2.327   1.600   4.201
 8802SOL     OW27304   1.156   0.098   1.211
 8802SOL    HW127305   1.229   0.075   1.276
 8802SOL    HW227306   1.091   0.022   1.206
 8803SOL     OW27307   1.640   4.820   6.434
 8803SOL    HW127308   1.703   4.748   6.464
 8803SOL    HW227309   1.693   4.902   6.412
 8804SOL     OW27310   4.231   1.116   1.658
 8804SOL    HW127311   4.171   1.074   1.726
 8804SOL    HW227312   4.176   1.159   1.587
 8805SOL     OW27313   1.655   0.323   3.759
 8805SOL    HW127314   1.560   0.351   3.773
 8805SOL    HW227315   1.711   0.402   3.735
 8806SOL     OW27316   1.997   5.527   0.932
 8806SOL    HW127317   2.070   5.542   0.865
 8806SOL    HW227318   1.909   5.520   0.885
 8807SOL     OW27319   6.230   5.352   6.102
 8807SOL    HW127320   6.169   5.325   6.176
 8807SOL    HW227321   6.315   5.299   6.108
 8808SOL     OW27322   5.568   1.456   0.582
 8808SOL    HW127323   5.599   1.551   0.570
 8808SOL    HW227324   5.480   1.444   0.537
 8809SOL     OW27325   5.461   3.537   1.679
 8809SOL    HW127326   5.374   3.584   1.664
 8809SOL    HW227327   5.445   3.451   1.727
 8810SOL     OW27328   5.755   1.490   4.677
 8810SOL    HW127329   5.665   1.516   4.712
 8810SOL    HW227330   5.802   1.571   4.643
 8811SOL     OW27331   2.647   1.749   4.061
 8811SOL    HW127332   2.659   1.839   4.019
 8811SOL    HW227333   2.598   1.759   4.148
 8812SOL     OW27334   0.759   0.968   0.257
 8812SOL    HW127335   0.730   1.062   0.272
 8812SOL    HW227336   0.688   0.919   0.204
 8813SOL     OW27337   0.827   5.342   1.349
 8813SOL    HW127338   0.922   5.369   1.366
 8813SOL    HW227339   0.812   5.335   1.250
 8814SOL     OW27340   0.115   0.510   6.759
 8814SOL    HW127341   0.195   0.570   6.754
 8814SOL    HW227342   0.063   0.530   6.842
 8815SOL     OW27343   6.609   5.541   1.357
 8815SOL    HW127344   6.562   5.531   1.445
 8815SOL    HW227345   6.559   5.606   1.300
 8816SOL     OW27346   0.980   6.825   1.284
 8816SOL    HW127347   1.077   6.817   1.261
 8816SOL    HW227348   0.925   6.801   1.205
 8817SOL     OW27349   0.724   6.221   5.683
 8817SOL    HW127350   0.820   6.192   5.676
 8817SOL    HW227351   0.719   6.320   5.680
 8818SOL     OW27352   0.124   3.688   3.497
 8818SOL    HW127353   0.123   3.776   3.543
 8818SOL    HW227354   0.050   3.683   3.430
 8819SOL     OW27355   4.335   6.600   4.227
 8819SOL    HW127356   4.399   6.523   4.213
 8819SOL    HW227357   4.326   6.619   4.324
 8820SOL     OW27358   1.986   2.602   4.175
 8820SOL    HW127359   1.996   2.695   4.208
 8820SOL    HW227360   1.893   2.589   4.140
 8821SOL     OW27361   2.071   0.038   6.506
 8821SOL    HW127362   2.044   6.968   6.481
 8821SOL    HW227363   2.104   0.086   6.424
 8822SOL     OW27364   0.537   0.531   3.002
 8822SOL    HW127365   0.567   0.613   2.952
 8822SOL    HW227366   0.618   0.477   3.027
 8823SOL     OW27367   1.856   0.150   1.201
 8823SOL    HW127368   1.843   0.052   1.218
 8823SOL    HW227369   1.768   0.195   1.189
 8824SOL     OW27370   2.564   3.885   0.969
 8824SOL    HW127371   2.543   3.819   0.897
 8824SOL    HW227372   2.566   3.977   0.930
 8825SOL     OW27373   1.497   0.934   2.588
 8825SOL    HW127374   1.514   1.028   2.558
 8825SOL    HW227375   1.421   0.896   2.535
 8826SOL     OW27376   6.132   2.111   0.233
 8826SOL    HW127377   6.179   2.166   0.165
 8826SOL    HW227378   6.046   2.156   0.258
 8827SOL     OW27379   2.742   1.011   3.408
 8827SOL    HW127380   2.689   0.964   3.337
 8827SOL    HW227381   2.839   1.002   3.388
 8828SOL     OW27382   3.933   5.546   3.762
 8828SOL    HW127383   3.967   5.452   3.769
 8828SOL    HW227384   3.878   5.555   3.679
 8829SOL     OW27385   0.001   3.548   0.222
 8829SOL    HW127386   6.989   3.454   0.222
 8829SOL    HW227387   0.065   3.560   0.299
 8830SOL     OW27388   6.558   1.344   6.928
 8830SOL    HW127389   6.615   1.286   6.986
 8830SOL    HW227390   6.527   1.423   6.980
 8831SOL     OW27391   5.548   1.180   3.622
 8831SOL    HW127392   5.541   1.189   3.522
 8831SOL    HW227393   5.519   1.088   3.649
 8832SOL     OW27394   0.222   6.691   1.939
 8832SOL    HW127395   0.204   6.769   1.880
 8832SOL    HW227396   0.321   6.677   1.946
 8833SOL     OW27397   1.654   5.596   5.065
 8833SOL    HW127398   1.662   5.546   5.151
 8833SOL    HW227399   1.744   5.630   5.038
 8834SOL     OW27400   5.527   3.045   4.383
 8834SOL    HW127401   5.566   2.954   4.369
 8834SOL    HW227402   5.600   3.111   4.397
 8835SOL     OW27403   6.225   0.180   5.285
 8835SOL    HW127404   6.225   0.278   5.266
 8835SOL    HW227405   6.222   0.130   5.198
 8836SOL     OW27406   4.166   0.906   0.750
 8836SOL    HW127407   4.166   0.930   0.847
 8836SOL    HW227408   4.154   0.807   0.740
 8837SOL     OW27409   0.975   0.453   2.400
 8837SOL    HW127410   0.939   0.361   2.415
 8837SOL    HW227411   1.066   0.446   2.360
 8838SOL     OW27412   2.797   5.148   3.608
 8838SOL    HW127413   2.792   5.126   3.510
 8838SOL    HW227414   2.708   5.130   3.650
 8839SOL     OW27415   6.054   6.194   3.089
 8839SOL    HW127416   6.080   6.286   3.060
 8839SOL    HW227417   6.011   6.146   3.013
 8840SOL     OW27418   6.274   2.385   2.274
 8840SOL    HW127419   6.307   2.457   2.214
 8840SOL    HW227420   6.214   2.424   2.344
 8841SOL     OW27421   1.057   1.336   4.997
 8841SOL    HW127422   1.071   1.418   5.052
 8841SOL    HW227423   1.110   1.261   5.036
 8842SOL     OW27424   3.502   3.010   1.190
 8842SOL    HW127425   3.410   2.971   1.194
 8842SOL    HW227426   3.496   3.108   1.173
 8843SOL     OW27427   1.326   2.861   5.508
 8843SOL    HW127428   1.268   2.910   5.573
 8843SOL    HW227429   1.277   2.851   5.421
 8844SOL     OW27430   6.086   1.330   6.156
 8844SOL    HW127431   6.032   1.305   6.236
 8844SOL    HW227432   6.040   1.295   6.074
 8845SOL     OW27433   4.197   3.895   0.005
 8845SOL    HW127434   4.245   3.941   0.080
 8845SOL    HW227435   4.214   3.944   6.942
 8846SOL     OW27436   2.042   5.113   3.606
 8846SOL    HW127437   2.118   5.161   3.650
 8846SOL    HW227438   2.007   5.168   3.530
 8847SOL     OW27439   2.735   0.580   2.171
 8847SOL    HW127440   2.697   0.583   2.263
 8847SOL    HW227441   2.733   0.672   2.131
 8848SOL     OW27442   2.340   1.329   1.096
 8848SOL    HW127443   2.300   1.380   1.020
 8848SOL    HW227444   2.361   1.236   1.066
 8849SOL     OW27445   1.847   5.710   2.746
 8849SOL    HW127446   1.870   5.704   2.649
 8849SOL    HW227447   1.914   5.658   2.799
 8850SOL     OW27448   2.467   1.745   0.116
 8850SOL    HW127449   2.522   1.806   0.059
 8850SOL    HW227450   2.428   1.672   0.059
 8851SOL     OW27451   1.428   4.853   2.397
 8851SOL    HW127452   1.421   4.869   2.495
 8851SOL    HW227453   1.405   4.758   2.377
 8852SOL     OW27454   1.183   1.971   5.633
 8852SOL    HW127455   1.256   2.016   5.685
 8852SOL    HW227456   1.208   1.969   5.536
 8853SOL     OW27457   2.933   0.808   1.681
 8853SOL    HW127458   2.838   0.806   1.650
 8853SOL    HW227459   2.985   0.872   1.624
 8854SOL     OW27460   1.585   2.813   4.988
 8854SOL    HW127461   1.525   2.733   4.989
 8854SOL    HW227462   1.598   2.845   5.082
 8855SOL     OW27463   6.222   5.754   1.571
 8855SOL    HW127464   6.185   5.668   1.606
 8855SOL    HW227465   6.150   5.805   1.524
 8856SOL     OW27466   6.327   5.602   6.111
 8856SOL    HW127467   6.252   5.667   6.097
 8856SOL    HW227468   6.294   5.509   6.093
 8857SOL     OW27469   6.664   1.876   5.606
 8857SOL    HW127470   6.741   1.909   5.551
 8857SOL    HW227471   6.603   1.952   5.627
 8858SOL     OW27472   0.445   4.965   5.437
 8858SOL    HW127473   0.406   4.965   5.529
 8858SOL    HW227474   0.380   5.005   5.373
 8859SOL     OW27475   1.023   0.787   3.509
 8859SOL    HW127476   1.058   0.835   3.590
 8859SOL    HW227477   0.938   0.739   3.533
 8860SOL     OW27478   7.003   2.729   1.024
 8860SOL    HW127479   0.056   2.783   1.063
 8860SOL    HW227480   0.016   2.643   0.987
 8861SOL     OW27481   3.825   1.484   0.942
 8861SOL    HW127482   3.763   1.558   0.917
 8861SOL    HW227483   3.919   1.512   0.922
 8862SOL     OW27484   4.772   6.080   4.398
 8862SOL    HW127485   4.711   6.014   4.353
 8862SOL    HW227486   4.823   6.034   4.470
 8863SOL     OW27487   1.823   4.255   3.498
 8863SOL    HW127488   1.771   4.297   3.423
 8863SOL    HW227489   1.920   4.279   3.489
 8864SOL     OW27490   5.122   3.441   6.249
 8864SOL    HW127491   5.209   3.397   6.272
 8864SOL    HW227492   5.048   3.374   6.255
 8865SOL     OW27493   2.856   1.598   5.746
 8865SOL    HW127494   2.869   1.507   5.786
 8865SOL    HW227495   2.770   1.637   5.779
 8866SOL     OW27496   5.511   6.127   2.566
 8866SOL    HW127497   5.500   6.159   2.660
 8866SOL    HW227498   5.608   6.111   2.547
 8867SOL     OW27499   6.471   3.468   2.974
 8867SOL    HW127500   6.395   3.532   2.991
 8867SOL    HW227501   6.487   3.461   2.876
 8868SOL     OW27502   0.144   3.295   2.698
 8868SOL    HW127503   0.138   3.256   2.606
 8868SOL    HW227504   0.114   3.227   2.764
 8869SOL     OW27505   4.018   5.464   4.989
 8869SOL    HW127506   3.937   5.460   4.930
 8869SOL    HW227507   4.087   5.524   4.947
 8870SOL     OW27508   1.810   0.001   2.043
 8870SOL    HW127509   1.887   6.971   2.007
 8870SOL    HW227510   1.781   6.984   2.130
 8871SOL     OW27511   1.844   0.943   2.966
 8871SOL    HW127512   1.908   0.904   2.899
 8871SOL    HW227513   1.777   0.873   2.992
 8872SOL     OW27514   0.509   4.384   6.247
 8872SOL    HW127515   0.421   4.403   6.203
 8872SOL    HW227516   0.566   4.467   6.246
 8873SOL     OW27517   1.961   0.268   2.132
 8873SOL    HW127518   1.907   0.185   2.148
 8873SOL    HW227519   1.900   0.347   2.134
 8874SOL     OW27520   1.904   5.080   0.753
 8874SOL    HW127521   1.995   5.044   0.734
 8874SOL    HW227522   1.890   5.165   0.701
 8875SOL     OW27523   6.859   2.957   3.776
 8875SOL    HW127524   6.867   3.055   3.759
 8875SOL    HW227525   6.838   2.942   3.873
 8876SOL     OW27526   3.025   0.550   6.011
 8876SOL    HW127527   2.967   0.567   5.932
 8876SOL    HW227528   3.004   0.461   6.051
 8877SOL     OW27529   1.220   3.602   1.736
 8877SOL    HW127530   1.214   3.515   1.687
 8877SOL    HW227531   1.247   3.674   1.673
 8878SOL     OW27532   3.701   4.611   0.571
 8878SOL    HW127533   3.779   4.553   0.548
 8878SOL    HW227534   3.671   4.660   0.490
 8879SOL     OW27535   6.411   4.726   2.668
 8879SOL    HW127536   6.472   4.675   2.728
 8879SOL    HW227537   6.361   4.663   2.609
 8880SOL     OW27538   4.488   6.599   3.895
 8880SOL    HW127539   4.516   6.667   3.827
 8880SOL    HW227540   4.389   6.608   3.912
 8881SOL     OW27541   4.470   5.335   3.926
 8881SOL    HW127542   4.564   5.355   3.897
 8881SOL    HW227543   4.409   5.337   3.847
 8882SOL     OW27544   3.987   1.090   0.259
 8882SOL    HW127545   4.087   1.087   0.255
 8882SOL    HW227546   3.959   1.120   0.351
 8883SOL     OW27547   0.185   6.684   6.378
 8883SOL    HW127548   0.146   6.645   6.295
 8883SOL    HW227549   0.154   6.632   6.458
 8884SOL     OW27550   5.566   4.250   4.879
 8884SOL    HW127551   5.658   4.224   4.850
 8884SOL    HW227552   5.502   4.234   4.804
 8885SOL     OW27553   5.495   5.421   0.109
 8885SOL    HW127554   5.594   5.436   0.104
 8885SOL    HW227555   5.472   5.332   0.070
 8886SOL     OW27556   3.898   5.281   6.685
 8886SOL    HW127557   3.868   5.345   6.615
 8886SOL    HW227558   3.827   5.211   6.699
 8887SOL     OW27559   4.436   0.094   0.284
 8887SOL    HW127560   4.454   0.183   0.241
 8887SOL    HW227561   4.372   0.106   0.360
 8888SOL     OW27562   2.146   1.434   3.710
 8888SOL    HW127563   2.205   1.408   3.634
 8888SOL    HW227564   2.183   1.397   3.795
 8889SOL     OW27565   6.830   6.678   6.094
 8889SOL    HW127566   6.858   6.760   6.043
 8889SOL    HW227567   6.756   6.703   6.157
 8890SOL     OW27568   6.863   6.297   0.367
 8890SOL    HW127569   6.891   6.201   0.372
 8890SOL    HW227570   6.764   6.302   0.349
 8891SOL     OW27571   5.638   4.411   6.762
 8891SOL    HW127572   5.552   4.366   6.786
 8891SOL    HW227573   5.671   4.465   6.839
 8892SOL     OW27574   3.253   5.039   3.578
 8892SOL    HW127575   3.236   4.995   3.490
 8892SOL    HW227576   3.262   5.137   3.566
 8893SOL     OW27577   1.673   5.058   4.839
 8893SOL    HW127578   1.739   5.125   4.872
 8893SOL    HW227579   1.593   5.106   4.802
 8894SOL     OW27580   4.874   2.269   0.510
 8894SOL    HW127581   4.940   2.310   0.447
 8894SOL    HW227582   4.896   2.295   0.604
 8895SOL     OW27583   0.890   3.125   0.777
 8895SOL    HW127584   0.845   3.049   0.823
 8895SOL    HW227585   0.887   3.111   0.678
 8896SOL     OW27586   0.668   2.375   4.527
 8896SOL    HW127587   0.681   2.276   4.536
 8896SOL    HW227588   0.750   2.415   4.485
 8897SOL     OW27589   1.396   3.889   3.544
 8897SOL    HW127590   1.492   3.917   3.544
 8897SOL    HW227591   1.350   3.927   3.464
 8898SOL     OW27592   4.960   3.584   2.732
 8898SOL    HW127593   5.053   3.584   2.696
 8898SOL    HW227594   4.896   3.609   2.658
 8899SOL     OW27595   6.745   4.670   6.384
 8899SOL    HW127596   6.772   4.746   6.443
 8899SOL    HW227597   6.685   4.608   6.434
 8900SOL     OW27598   5.861   1.744   3.459
 8900SOL    HW127599   5.796   1.691   3.514
 8900SOL    HW227600   5.851   1.841   3.480
 8901SOL     OW27601   0.732   2.300   3.630
 8901SOL    HW127602   0.752   2.246   3.548
 8901SOL    HW227603   0.702   2.391   3.604
 8902SOL     OW27604   1.186   4.646   0.046
 8902SOL    HW127605   1.240   4.568   0.077
 8902SOL    HW227606   1.245   4.727   0.036
 8903SOL     OW27607   1.799   1.456   4.807
 8903SOL    HW127608   1.825   1.551   4.793
 8903SOL    HW227609   1.703   1.443   4.783
 8904SOL     OW27610   0.357   1.126   2.444
 8904SOL    HW127611   0.426   1.154   2.511
 8904SOL    HW227612   0.401   1.073   2.371
 8905SOL     OW27613   1.626   3.090   2.552
 8905SOL    HW127614   1.670   3.002   2.570
 8905SOL    HW227615   1.694   3.156   2.519
 8906SOL     OW27616   0.657   6.891   0.650
 8906SOL    HW127617   0.608   6.862   0.568
 8906SOL    HW227618   0.612   6.853   0.731
 8907SOL     OW27619   3.360   2.549   5.300
 8907SOL    HW127620   3.316   2.466   5.266
 8907SOL    HW227621   3.300   2.627   5.284
 8908SOL     OW27622   1.259   4.957   0.506
 8908SOL    HW127623   1.248   5.049   0.469
 8908SOL    HW227624   1.290   4.963   0.602
 8909SOL     OW27625   2.673   1.429   6.356
 8909SOL    HW127626   2.677   1.435   6.456
 8909SOL    HW227627   2.669   1.332   6.329
 8910SOL     OW27628   0.853   2.323   5.052
 8910SOL    HW127629   0.890   2.325   5.144
 8910SOL    HW227630   0.866   2.412   5.008
 8911SOL     OW27631   5.299   1.738   3.880
 8911SOL    HW127632   5.347   1.821   3.850
 8911SOL    HW227633   5.250   1.698   3.803
 8912SOL     OW27634   3.927   3.673   5.305
 8912SOL    HW127635   3.865   3.604   5.267
 8912SOL    HW227636   3.950   3.648   5.399
 8913SOL     OW27637   5.406   5.171   7.015
 8913SOL    HW127638   5.349   5.137   0.067
 8913SOL    HW227639   5.349   5.194   6.937
 8914SOL     OW27640   5.517   6.380   4.773
 8914SOL    HW127641   5.534   6.371   4.871
 8914SOL    HW227642   5.541   6.472   4.743
 8915SOL     OW27643   0.925   1.296   4.133
 8915SOL    HW127644   0.838   1.308   4.181
 8915SOL    HW227645   0.968   1.211   4.163
 8916SOL     OW27646   5.777   1.630   6.514
 8916SOL    HW127647   5.773   1.536   6.480
 8916SOL    HW227648   5.770   1.694   6.437
 8917SOL     OW27649   5.998   1.942   0.497
 8917SOL    HW127650   5.904   1.972   0.479
 8917SOL    HW227651   6.057   2.022   0.509
 8918SOL     OW27652   1.648   5.609   1.202
 8918SOL    HW127653   1.656   5.578   1.296
 8918SOL    HW227654   1.710   5.686   1.186
 8919SOL     OW27655   5.450   4.470   6.516
 8919SOL    HW127656   5.513   4.483   6.593
 8919SOL    HW227657   5.368   4.424   6.548
 8920SOL     OW27658   0.144   1.040   6.418
 8920SOL    HW127659   0.081   1.096   6.472
 8920SOL    HW227660   0.140   1.070   6.322
 8921SOL     OW27661   0.922   2.826   1.173
 8921SOL    HW127662   0.951   2.740   1.217
 8921SOL    HW227663   0.979   2.901   1.207
 8922SOL     OW27664   3.516   6.510   3.031
 8922SOL    HW127665   3.436   6.564   3.007
 8922SOL    HW227666   3.507   6.418   2.992
 8923SOL     OW27667   1.647   2.122   5.635
 8923SOL    HW127668   1.561   2.112   5.684
 8923SOL    HW227669   1.724   2.105   5.697
 8924SOL     OW27670   5.348   5.515   4.508
 8924SOL    HW127671   5.263   5.477   4.472
 8924SOL    HW227672   5.407   5.441   4.541
 8925SOL     OW27673   1.142   0.964   2.718
 8925SOL    HW127674   1.095   0.921   2.641
 8925SOL    HW227675   1.201   0.897   2.763
 8926SOL     OW27676   5.964   3.854   5.675
 8926SOL    HW127677   6.060   3.829   5.668
 8926SOL    HW227678   5.914   3.781   5.724
 8927SOL     OW27679   6.558   2.318   5.408
 8927SOL    HW127680   6.467   2.285   5.385
 8927SOL    HW227681   6.567   2.414   5.380
 8928SOL     OW27682   2.609   0.332   5.321
 8928SOL    HW127683   2.538   0.390   5.281
 8928SOL    HW227684   2.570   0.242   5.342
 8929SOL     OW27685   6.215   2.539   5.005
 8929SOL    HW127686   6.274   2.592   5.065
 8929SOL    HW227687   6.120   2.545   5.036
 8930SOL     OW27688   0.963   3.753   2.900
 8930SOL    HW127689   0.939   3.661   2.869
 8930SOL    HW227690   0.971   3.813   2.820
 8931SOL     OW27691   3.527   2.846   1.565
 8931SOL    HW127692   3.482   2.870   1.651
 8931SOL    HW227693   3.502   2.753   1.538
 8932SOL     OW27694   0.477   1.793   3.073
 8932SOL    HW127695   0.506   1.760   3.162
 8932SOL    HW227696   0.485   1.893   3.070
 8933SOL     OW27697   3.427   2.652   6.703
 8933SOL    HW127698   3.424   2.603   6.616
 8933SOL    HW227699   3.499   2.612   6.761
 8934SOL     OW27700   3.766   5.574   4.162
 8934SOL    HW127701   3.722   5.491   4.126
 8934SOL    HW227702   3.745   5.583   4.259
 8935SOL     OW27703   6.903   5.531   0.886
 8935SOL    HW127704   6.937   5.623   0.866
 8935SOL    HW227705   6.817   5.516   0.838
 8936SOL     OW27706   1.581   3.600   0.793
 8936SOL    HW127707   1.587   3.500   0.796
 8936SOL    HW227708   1.518   3.628   0.721
 8937SOL     OW27709   0.383   6.634   5.054
 8937SOL    HW127710   0.290   6.649   5.020
 8937SOL    HW227711   0.385   6.551   5.110
 8938SOL     OW27712   0.063   5.491   1.188
 8938SOL    HW127713   0.014   5.476   1.273
 8938SOL    HW227714   0.005   5.542   1.124
 8939SOL     OW27715   4.989   2.386   4.564
 8939SOL    HW127716   5.009   2.465   4.621
 8939SOL    HW227717   5.039   2.307   4.598
 8940SOL     OW27718   6.885   1.045   4.200
 8940SOL    HW127719   6.924   0.968   4.251
 8940SOL    HW227720   6.846   1.111   4.265
 8941SOL     OW27721   5.901   2.164   5.684
 8941SOL    HW127722   5.852   2.079   5.665
 8941SOL    HW227723   5.985   2.144   5.733
 8942SOL     OW27724   6.768   3.038   5.527
 8942SOL    HW127725   6.783   3.130   5.491
 8942SOL    HW227726   6.852   3.006   5.571
 8943SOL     OW27727   5.392   4.279   0.462
 8943SOL    HW127728   5.361   4.366   0.424
 8943SOL    HW227729   5.341   4.204   0.420
 8944SOL     OW27730   5.115   5.436   6.012
 8944SOL    HW127731   5.104   5.446   6.111
 8944SOL    HW227732   5.046   5.372   5.978
 8945SOL     OW27733   2.271   0.487   4.185
 8945SOL    HW127734   2.333   0.416   4.150
 8945SOL    HW227735   2.182   0.477   4.141
 8946SOL     OW27736   3.206   2.004   4.997
 8946SOL    HW127737   3.191   1.974   4.902
 8946SOL    HW227738   3.164   2.093   5.011
 8947SOL     OW27739   1.909   3.730   5.221
 8947SOL    HW127740   1.929   3.666   5.295
 8947SOL    HW227741   1.984   3.730   5.156
 8948SOL     OW27742   5.415   5.584   3.487
 8948SOL    HW127743   5.509   5.555   3.470
 8948SOL    HW227744   5.401   5.675   3.448
 8949SOL     OW27745   2.427   0.095   6.639
 8949SOL    HW127746   2.502   0.082   6.575
 8949SOL    HW227747   2.341   0.071   6.593
 8950SOL     OW27748   4.787   3.068   5.638
 8950SOL    HW127749   4.764   2.976   5.606
 8950SOL    HW227750   4.801   3.128   5.559
 8951SOL     OW27751   1.615   2.508   5.303
 8951SOL    HW127752   1.538   2.550   5.254
 8951SOL    HW227753   1.617   2.410   5.283
 8952SOL     OW27754   1.063   1.108   2.232
 8952SOL    HW127755   1.054   1.012   2.203
 8952SOL    HW227756   0.990   1.130   2.296
 8953SOL     OW27757   1.299   3.867   0.120
 8953SOL    HW127758   1.329   3.960   0.101
 8953SOL    HW227759   1.200   3.867   0.136
 8954SOL     OW27760   0.101   6.057   5.457
 8954SOL    HW127761   0.096   6.138   5.397
 8954SOL    HW227762   0.124   5.977   5.402
 8955SOL     OW27763   6.680   4.167   3.378
 8955SOL    HW127764   6.591   4.186   3.337
 8955SOL    HW227765   6.710   4.075   3.353
 8956SOL     OW27766   6.989   1.171   6.603
 8956SOL    HW127767   6.973   1.208   6.695
 8956SOL    HW227768   6.983   1.071   6.606
 8957SOL     OW27769   3.351   4.767   1.629
 8957SOL    HW127770   3.382   4.746   1.721
 8957SOL    HW227771   3.376   4.861   1.605
 8958SOL     OW27772   0.799   0.269   4.405
 8958SOL    HW127773   0.859   0.190   4.419
 8958SOL    HW227774   0.835   0.326   4.331
 8959SOL     OW27775   1.345   4.590   1.013
 8959SOL    HW127776   1.262   4.641   1.039
 8959SOL    HW227777   1.353   4.590   0.913
 8960SOL     OW27778   4.593   5.118   2.681
 8960SOL    HW127779   4.539   5.178   2.740
 8960SOL    HW227780   4.553   5.027   2.680
 8961SOL     OW27781   1.634   1.822   4.354
 8961SOL    HW127782   1.616   1.901   4.295
 8961SOL    HW227783   1.686   1.851   4.434
 8962SOL     OW27784   5.798   6.736   2.793
 8962SOL    HW127785   5.807   6.828   2.831
 8962SOL    HW227786   5.701   6.712   2.785
 8963SOL     OW27787   4.871   6.438   4.056
 8963SOL    HW127788   4.841   6.533   4.065
 8963SOL    HW227789   4.969   6.436   4.033
 8964SOL     OW27790   5.644   4.489   2.472
 8964SOL    HW127791   5.561   4.543   2.464
 8964SOL    HW227792   5.678   4.466   2.381
 8965SOL     OW27793   1.689   4.784   1.049
 8965SOL    HW127794   1.784   4.807   1.029
 8965SOL    HW227795   1.686   4.692   1.089
 8966SOL     OW27796   1.982   3.048   5.530
 8966SOL    HW127797   2.031   3.125   5.570
 8966SOL    HW227798   2.038   3.006   5.459
 8967SOL     OW27799   3.242   6.494   1.707
 8967SOL    HW127800   3.341   6.490   1.693
 8967SOL    HW227801   3.216   6.435   1.784
 8968SOL     OW27802   5.212   5.372   3.001
 8968SOL    HW127803   5.117   5.372   2.971
 8968SOL    HW227804   5.271   5.403   2.927
 8969SOL     OW27805   5.947   0.990   3.535
 8969SOL    HW127806   6.045   1.005   3.552
 8969SOL    HW227807   5.927   1.010   3.439
 8970SOL     OW27808   3.398   2.723   0.825
 8970SOL    HW127809   3.363   2.738   0.917
 8970SOL    HW227810   3.430   2.810   0.787
 8971SOL     OW27811   3.665   6.005   2.491
 8971SOL    HW127812   3.565   6.004   2.493
 8971SOL    HW227813   3.700   6.038   2.579
 8972SOL     OW27814   4.721   6.221   0.125
 8972SOL    HW127815   4.701   6.255   0.033
 8972SOL    HW227816   4.799   6.270   0.163
 8973SOL     OW27817   0.864   4.050   2.022
 8973SOL    HW127818   0.876   4.142   1.986
 8973SOL    HW227819   0.916   3.985   1.965
 8974SOL     OW27820   0.806   4.528   6.137
 8974SOL    HW127821   0.765   4.468   6.068
 8974SOL    HW227822   0.850   4.472   6.207
 8975SOL     OW27823   2.410   0.835   0.101
 8975SOL    HW127824   2.372   0.773   0.032
 8975SOL    HW227825   2.394   0.796   0.192
 8976SOL     OW27826   1.288   5.173   5.049
 8976SOL    HW127827   1.275   5.086   5.096
 8976SOL    HW227828   1.351   5.161   4.973
 8977SOL     OW27829   6.198   1.508   6.586
 8977SOL    HW127830   6.277   1.500   6.647
 8977SOL    HW227831   6.127   1.563   6.630
 8978SOL     OW27832   6.075   5.997   6.920
 8978SOL    HW127833   6.102   5.906   6.887
 8978SOL    HW227834   6.032   6.047   6.845
 8979SOL     OW27835   1.706   3.609   4.554
 8979SOL    HW127836   1.741   3.646   4.640
 8979SOL    HW227837   1.665   3.683   4.500
 8980SOL     OW27838   2.782   3.759   5.698
 8980SOL    HW127839   2.780   3.833   5.765
 8980SOL    HW227840   2.862   3.701   5.715
 8981SOL     OW27841   4.285   1.381   4.963
 8981SOL    HW127842   4.290   1.451   5.034
 8981SOL    HW227843   4.294   1.290   5.004
 8982SOL     OW27844   1.984   3.071   0.392
 8982SOL    HW127845   1.969   3.169   0.406
 8982SOL    HW227846   1.896   3.025   0.381
 8983SOL     OW27847   3.106   6.097   6.602
 8983SOL    HW127848   3.186   6.041   6.582
 8983SOL    HW227849   3.118   6.143   6.691
 8984SOL     OW27850   1.588   6.805   2.852
 8984SOL    HW127851   1.616   6.839   2.941
 8984SOL    HW227852   1.587   6.705   2.853
 8985SOL     OW27853   3.757   2.207   0.451
 8985SOL    HW127854   3.730   2.239   0.360
 8985SOL    HW227855   3.753   2.283   0.515
 8986SOL     OW27856   3.751   4.963   3.102
 8986SOL    HW127857   3.697   4.992   3.024
 8986SOL    HW227858   3.797   4.876   3.082
 8987SOL     OW27859   4.061   6.114   3.167
 8987SOL    HW127860   4.037   6.196   3.115
 8987SOL    HW227861   4.083   6.040   3.104
 8988SOL     OW27862   0.975   5.532   4.044
 8988SOL    HW127863   1.045   5.515   4.114
 8988SOL    HW227864   0.891   5.564   4.088
 8989SOL     OW27865   4.317   3.223   6.798
 8989SOL    HW127866   4.290   3.261   6.886
 8989SOL    HW227867   4.324   3.297   6.730
 8990SOL     OW27868   0.502   4.740   4.093
 8990SOL    HW127869   0.512   4.708   4.187
 8990SOL    HW227870   0.590   4.777   4.061
 8991SOL     OW27871   1.024   3.468   4.564
 8991SOL    HW127872   1.071   3.420   4.638
 8991SOL    HW227873   0.944   3.416   4.536
 8992SOL     OW27874   5.147   1.762   1.112
 8992SOL    HW127875   5.054   1.756   1.076
 8992SOL    HW227876   5.165   1.683   1.171
 8993SOL     OW27877   3.808   3.173   0.255
 8993SOL    HW127878   3.877   3.197   0.187
 8993SOL    HW227879   3.743   3.108   0.214
 8994SOL     OW27880   1.593   4.734   4.633
 8994SOL    HW127881   1.628   4.642   4.620
 8994SOL    HW227882   1.663   4.790   4.679
 8995SOL     OW27883   6.778   2.068   0.266
 8995SOL    HW127884   6.861   2.117   0.238
 8995SOL    HW227885   6.776   2.061   0.366
 8996SOL     OW27886   5.379   3.939   6.527
 8996SOL    HW127887   5.392   4.038   6.517
 8996SOL    HW227888   5.282   3.918   6.538
 8997SOL     OW27889   4.748   1.105   5.768
 8997SOL    HW127890   4.759   1.195   5.727
 8997SOL    HW227891   4.653   1.076   5.760
 8998SOL     OW27892   5.840   2.997   4.542
 8998SOL    HW127893   5.757   3.053   4.542
 8998SOL    HW227894   5.817   2.905   4.512
 8999SOL     OW27895   5.302   6.653   6.351
 8999SOL    HW127896   5.354   6.737   6.339
 8999SOL    HW227897   5.267   6.648   6.444
 9000SOL     OW27898   1.893   3.016   2.284
 9000SOL    HW127899   1.830   2.974   2.349
 9000SOL    HW227900   1.871   2.985   2.192
 9001SOL     OW27901   0.692   5.240   1.590
 9001SOL    HW127902   0.752   5.172   1.632
 9001SOL    HW227903   0.731   5.269   1.503
 9002SOL     OW27904   1.813   4.460   5.272
 9002SOL    HW127905   1.776   4.530   5.332
 9002SOL    HW227906   1.885   4.499   5.215
 9003SOL     OW27907   5.185   3.627   1.238
 9003SOL    HW127908   5.232   3.547   1.201
 9003SOL    HW227909   5.243   3.671   1.306
 9004SOL     OW27910   4.579   5.006   0.933
 9004SOL    HW127911   4.623   5.058   0.859
 9004SOL    HW227912   4.588   4.908   0.914
 9005SOL     OW27913   6.417   1.693   5.765
 9005SOL    HW127914   6.425   1.786   5.730
 9005SOL    HW227915   6.353   1.641   5.709
 9006SOL     OW27916   3.236   6.331   1.039
 9006SOL    HW127917   3.145   6.289   1.038
 9006SOL    HW227918   3.234   6.413   1.097
 9007SOL     OW27919   2.813   1.420   2.197
 9007SOL    HW127920   2.715   1.433   2.186
 9007SOL    HW227921   2.832   1.385   2.289
 9008SOL     OW27922   6.636   4.893   2.734
 9008SOL    HW127923   6.559   4.876   2.796
 9008SOL    HW227924   6.608   4.960   2.664
 9009SOL     OW27925   3.499   5.639   0.867
 9009SOL    HW127926   3.542   5.663   0.954
 9009SOL    HW227927   3.571   5.616   0.801
 9010SOL     OW27928   2.153   6.160   4.511
 9010SOL    HW127929   2.130   6.257   4.515
 9010SOL    HW227930   2.251   6.150   4.494
 9011SOL     OW27931   4.236   0.873   1.337
 9011SOL    HW127932   4.186   0.787   1.332
 9011SOL    HW227933   4.316   0.863   1.397
 9012SOL     OW27934   2.235   5.506   0.182
 9012SOL    HW127935   2.222   5.573   0.255
 9012SOL    HW227936   2.321   5.525   0.135
 9013SOL     OW27937   0.936   0.648   5.681
 9013SOL    HW127938   0.925   0.725   5.744
 9013SOL    HW227939   0.917   0.679   5.588
 9014SOL     OW27940   6.414   2.744   0.754
 9014SOL    HW127941   6.444   2.752   0.849
 9014SOL    HW227942   6.328   2.694   0.750
 9015SOL     OW27943   4.734   2.086   1.574
 9015SOL    HW127944   4.724   2.069   1.672
 9015SOL    HW227945   4.774   2.176   1.560
 9016SOL     OW27946   5.820   5.557   6.660
 9016SOL    HW127947   5.907   5.509   6.659
 9016SOL    HW227948   5.767   5.529   6.740
 9017SOL     OW27949   4.379   1.200   4.054
 9017SOL    HW127950   4.436   1.145   4.115
 9017SOL    HW227951   4.416   1.293   4.048
 9018SOL     OW27952   2.453   3.664   5.656
 9018SOL    HW127953   2.497   3.652   5.568
 9018SOL    HW227954   2.356   3.643   5.649
 9019SOL     OW27955   0.769   4.703   2.751
 9019SOL    HW127956   0.785   4.611   2.716
 9019SOL    HW227957   0.698   4.701   2.821
 9020SOL     OW27958   7.013   4.354   0.895
 9020SOL    HW127959   0.074   4.404   0.872
 9020SOL    HW227960   6.970   4.396   0.975
 9021SOL     OW27961   6.367   0.865   3.192
 9021SOL    HW127962   6.330   0.781   3.153
 9021SOL    HW227963   6.383   0.853   3.290
 9022SOL     OW27964   3.466   1.491   6.896
 9022SOL    HW127965   3.502   1.578   6.861
 9022SOL    HW227966   3.382   1.508   6.947
 9023SOL     OW27967   4.010   3.730   1.693
 9023SOL    HW127968   4.097   3.751   1.737
 9023SOL    HW227969   3.957   3.814   1.683
 9024SOL     OW27970   1.053   4.509   5.233
 9024SOL    HW127971   1.132   4.464   5.274
 9024SOL    HW227972   1.069   4.608   5.232
 9025SOL     OW27973   6.877   5.746   0.608
 9025SOL    HW127974   6.851   5.803   0.686
 9025SOL    HW227975   6.803   5.748   0.540
 9026SOL     OW27976   3.695   2.323   0.718
 9026SOL    HW127977   3.620   2.366   0.769
 9026SOL    HW227978   3.715   2.233   0.758
 9027SOL     OW27979   0.603   3.166   3.070
 9027SOL    HW127980   0.608   3.082   3.125
 9027SOL    HW227981   0.515   3.167   3.021
 9028SOL     OW27982   3.734   3.079   5.045
 9028SOL    HW127983   3.699   3.040   5.131
 9028SOL    HW227984   3.754   3.005   4.981
 9029SOL     OW27985   4.044   6.891   5.059
 9029SOL    HW127986   4.137   6.875   5.026
 9029SOL    HW227987   4.030   6.840   5.144
 9030SOL     OW27988   2.261   1.776   3.938
 9030SOL    HW127989   2.352   1.758   3.898
 9030SOL    HW227990   2.263   1.862   3.988
 9031SOL     OW27991   4.127   6.836   4.437
 9031SOL    HW127992   4.091   6.921   4.400
 9031SOL    HW227993   4.072   6.808   4.516
 9032SOL     OW27994   4.698   3.822   1.015
 9032SOL    HW127995   4.631   3.838   1.087
 9032SOL    HW227996   4.684   3.887   0.941
 9033SOL     OW27997   0.315   4.907   2.562
 9033SOL    HW127998   0.351   4.815   2.546
 9033SOL    HW227999   0.226   4.901   2.607
 9034SOL     OW28000   3.634   6.075   4.720
 9034SOL    HW128001   3.537   6.052   4.729
 9034SOL    HW228002   3.646   6.137   4.643
 9035SOL     OW28003   2.361   5.784   6.862
 9035SOL    HW128004   2.283   5.768   6.802
 9035SOL    HW228005   2.399   5.696   6.891
 9036SOL     OW28006   1.702   3.913   5.548
 9036SOL    HW128007   1.755   3.972   5.487
 9036SOL    HW228008   1.627   3.871   5.497
 9037SOL     OW28009   1.114   3.088   3.885
 9037SOL    HW128010   1.088   2.992   3.894
 9037SOL    HW228011   1.190   3.107   3.947
 9038SOL     OW28012   4.795   2.815   6.953
 9038SOL    HW128013   4.817   2.895   6.897
 9038SOL    HW228014   4.802   2.733   6.896
 9039SOL     OW28015   3.121   4.920   6.485
 9039SOL    HW128016   3.172   5.002   6.512
 9039SOL    HW228017   3.085   4.875   6.566
 9040SOL     OW28018   2.664   2.296   2.248
 9040SOL    HW128019   2.747   2.326   2.200
 9040SOL    HW228020   2.689   2.231   2.320
 9041SOL     OW28021   1.647   2.321   1.100
 9041SOL    HW128022   1.627   2.233   1.056
 9041SOL    HW228023   1.695   2.305   1.187
 9042SOL     OW28024   3.938   0.243   4.425
 9042SOL    HW128025   3.898   0.187   4.498
 9042SOL    HW228026   3.865   0.278   4.366
 9043SOL     OW28027   2.442   1.556   6.293
 9043SOL    HW128028   2.364   1.499   6.267
 9043SOL    HW228029   2.517   1.497   6.324
 9044SOL     OW28030   0.347   1.228   0.053
 9044SOL    HW128031   0.400   1.274   0.124
 9044SOL    HW228032   0.302   1.148   0.093
 9045SOL     OW28033   3.527   0.417   2.927
 9045SOL    HW128034   3.525   0.321   2.955
 9045SOL    HW228035   3.438   0.459   2.943
 9046SOL     OW28036   3.945   3.831   2.645
 9046SOL    HW128037   4.014   3.853   2.576
 9046SOL    HW228038   3.990   3.794   2.726
 9047SOL     OW28039   0.897   3.734   4.915
 9047SOL    HW128040   0.879   3.807   4.849
 9047SOL    HW228041   0.984   3.751   4.960
 9048SOL     OW28042   6.223   2.397   6.263
 9048SOL    HW128043   6.206   2.340   6.343
 9048SOL    HW228044   6.144   2.456   6.247
 9049SOL     OW28045   4.204   6.526   5.603
 9049SOL    HW128046   4.159   6.539   5.691
 9049SOL    HW228047   4.135   6.528   5.530
 9050SOL     OW28048   0.262   3.263   1.192
 9050SOL    HW128049   0.212   3.287   1.275
 9050SOL    HW228050   0.202   3.215   1.129
 9051SOL     OW28051   2.402   0.397   2.003
 9051SOL    HW128052   2.311   0.358   1.986
 9051SOL    HW228053   2.391   0.490   2.038
 9052SOL     OW28054   2.056   3.236   4.046
 9052SOL    HW128055   2.060   3.150   3.996
 9052SOL    HW228056   1.962   3.255   4.072
 9053SOL     OW28057   1.468   1.458   0.940
 9053SOL    HW128058   1.524   1.423   0.865
 9053SOL    HW228059   1.527   1.506   1.005
 9054SOL     OW28060   1.994   6.066   4.868
 9054SOL    HW128061   1.974   5.970   4.849
 9054SOL    HW228062   2.081   6.072   4.917
 9055SOL     OW28063   6.364   3.087   4.418
 9055SOL    HW128064   6.317   3.012   4.465
 9055SOL    HW228065   6.328   3.096   4.325
 9056SOL     OW28066   6.633   1.685   2.060
 9056SOL    HW128067   6.675   1.756   2.117
 9056SOL    HW228068   6.600   1.611   2.118
 9057SOL     OW28069   4.643   2.408   4.788
 9057SOL    HW128070   4.593   2.453   4.861
 9057SOL    HW228071   4.580   2.353   4.732
 9058SOL     OW28072   1.259   0.443   1.010
 9058SOL    HW128073   1.191   0.412   1.076
 9058SOL    HW228074   1.214   0.501   0.942
 9059SOL     OW28075   1.207   2.229   2.953
 9059SOL    HW128076   1.139   2.299   2.930
 9059SOL    HW228077   1.161   2.151   2.996
 9060SOL     OW28078   5.794   2.689   4.497
 9060SOL    HW128079   5.780   2.598   4.458
 9060SOL    HW228080   5.762   2.758   4.432
 9061SOL     OW28081   3.296   5.205   2.454
 9061SOL    HW128082   3.357   5.237   2.526
 9061SOL    HW228083   3.293   5.272   2.381
 9062SOL     OW28084   1.326   5.947   1.675
 9062SOL    HW128085   1.262   5.988   1.610
 9062SOL    HW228086   1.306   5.981   1.767
 9063SOL     OW28087   2.708   0.534   3.350
 9063SOL    HW128088   2.701   0.604   3.421
 9063SOL    HW228089   2.647   0.557   3.274
 9064SOL     OW28090   6.594   3.685   6.294
 9064SOL    HW128091   6.592   3.756   6.223
 9064SOL    HW228092   6.589   3.595   6.251
 9065SOL     OW28093   3.576   6.830   0.466
 9065SOL    HW128094   3.617   6.778   0.541
 9065SOL    HW228095   3.541   6.768   0.397
 9066SOL     OW28096   5.184   0.137   0.619
 9066SOL    HW128097   5.109   0.077   0.646
 9066SOL    HW228098   5.150   0.208   0.558
 9067SOL     OW28099   1.530   0.223   3.470
 9067SOL    HW128100   1.615   0.220   3.418
 9067SOL    HW228101   1.510   0.318   3.495
 9068SOL     OW28102   0.855   0.136   4.696
 9068SOL    HW128103   0.832   0.039   4.695
 9068SOL    HW228104   0.824   0.178   4.611
 9069SOL     OW28105   1.251   3.117   6.654
 9069SOL    HW128106   1.203   3.170   6.724
 9069SOL    HW228107   1.184   3.062   6.603
 9070SOL     OW28108   2.163   4.033   4.755
 9070SOL    HW128109   2.065   4.036   4.775
 9070SOL    HW228110   2.214   4.053   4.839
 9071SOL     OW28111   6.460   6.031   1.109
 9071SOL    HW128112   6.446   6.038   1.010
 9071SOL    HW228113   6.407   6.103   1.155
 9072SOL     OW28114   6.700   3.487   1.021
 9072SOL    HW128115   6.773   3.421   1.002
 9072SOL    HW228116   6.719   3.573   0.974
 9073SOL     OW28117   1.681   6.941   1.829
 9073SOL    HW128118   1.740   6.947   1.748
 9073SOL    HW228119   1.733   6.966   1.910
 9074SOL     OW28120   1.639   0.709   2.660
 9074SOL    HW128121   1.732   0.717   2.626
 9074SOL    HW228122   1.592   0.797   2.654
 9075SOL     OW28123   6.535   0.551   2.079
 9075SOL    HW128124   6.593   0.616   2.129
 9075SOL    HW228125   6.441   0.584   2.079
 9076SOL     OW28126   0.624   1.033   6.421
 9076SOL    HW128127   0.593   0.945   6.384
 9076SOL    HW228128   0.547   1.081   6.463
 9077SOL     OW28129   4.327   6.552   1.920
 9077SOL    HW128130   4.279   6.605   1.991
 9077SOL    HW228131   4.290   6.576   1.830
 9078SOL     OW28132   4.003   3.300   5.194
 9078SOL    HW128133   4.081   3.347   5.236
 9078SOL    HW228134   4.026   3.203   5.182
 9079SOL     OW28135   3.057   0.617   4.407
 9079SOL    HW128136   3.089   0.522   4.398
 9079SOL    HW228137   2.959   0.620   4.386
 9080SOL     OW28138   5.250   2.488   6.801
 9080SOL    HW128139   5.288   2.519   6.888
 9080SOL    HW228140   5.218   2.394   6.810
 9081SOL     OW28141   5.445   6.253   2.791
 9081SOL    HW128142   5.392   6.332   2.759
 9081SOL    HW228143   5.517   6.285   2.853
 9082SOL     OW28144   2.123   0.333   3.377
 9082SOL    HW128145   2.125   0.267   3.453
 9082SOL    HW228146   2.158   0.421   3.409
 9083SOL     OW28147   4.665   4.844   5.567
 9083SOL    HW128148   4.614   4.761   5.587
 9083SOL    HW228149   4.618   4.895   5.495
 9084SOL     OW28150   3.517   3.616   2.749
 9084SOL    HW128151   3.611   3.615   2.783
 9084SOL    HW228152   3.492   3.524   2.719
 9085SOL     OW28153   2.336   1.157   0.722
 9085SOL    HW128154   2.296   1.075   0.681
 9085SOL    HW228155   2.358   1.223   0.650
 9086SOL     OW28156   0.861   4.004   0.529
 9086SOL    HW128157   0.767   3.971   0.517
 9086SOL    HW228158   0.908   4.005   0.441
 9087SOL     OW28159   5.022   2.973   2.603
 9087SOL    HW128160   5.009   2.919   2.519
 9087SOL    HW228161   5.106   3.026   2.596
 9088SOL     OW28162   6.311   0.357   0.254
 9088SOL    HW128163   6.249   0.297   0.303
 9088SOL    HW228164   6.400   0.313   0.244
 9089SOL     OW28165   5.040   6.378   6.131
 9089SOL    HW128166   5.050   6.476   6.117
 9089SOL    HW228167   5.114   6.330   6.085
 9090SOL     OW28168   6.090   0.538   4.860
 9090SOL    HW128169   6.036   0.602   4.914
 9090SOL    HW228170   6.154   0.490   4.919
 9091SOL     OW28171   3.002   3.951   6.610
 9091SOL    HW128172   2.929   3.901   6.563
 9091SOL    HW228173   2.961   4.013   6.677
 9092SOL     OW28174   6.773   1.742   6.881
 9092SOL    HW128175   6.744   1.774   6.972
 9092SOL    HW228176   6.861   1.695   6.888
 9093SOL     OW28177   1.494   6.310   5.499
 9093SOL    HW128178   1.444   6.226   5.478
 9093SOL    HW228179   1.430   6.381   5.528
 9094SOL     OW28180   0.632   3.102   2.594
 9094SOL    HW128181   0.603   3.156   2.514
 9094SOL    HW228182   0.559   3.102   2.662
 9095SOL     OW28183   4.651   4.926   5.804
 9095SOL    HW128184   4.668   4.890   5.712
 9095SOL    HW228185   4.648   5.026   5.800
 9096SOL     OW28186   6.804   5.078   3.195
 9096SOL    HW128187   6.883   5.084   3.256
 9096SOL    HW228188   6.761   4.988   3.204
 9097SOL     OW28189   0.657   2.474   6.276
 9097SOL    HW128190   0.748   2.510   6.292
 9097SOL    HW228191   0.604   2.477   6.362
 9098SOL     OW28192   2.144   2.293   4.969
 9098SOL    HW128193   2.136   2.197   4.943
 9098SOL    HW228194   2.237   2.311   5.001
 9099SOL     OW28195   2.340   3.099   5.800
 9099SOL    HW128196   2.283   3.020   5.778
 9099SOL    HW228197   2.434   3.082   5.769
 9100SOL     OW28198   1.456   4.178   2.366
 9100SOL    HW128199   1.384   4.137   2.310
 9100SOL    HW228200   1.416   4.239   2.434
 9101SOL     OW28201   3.012   1.187   2.274
 9101SOL    HW128202   2.935   1.140   2.230
 9101SOL    HW228203   2.977   1.250   2.343
 9102SOL     OW28204   4.736   6.609   2.834
 9102SOL    HW128205   4.648   6.563   2.826
 9102SOL    HW228206   4.789   6.593   2.751
 9103SOL     OW28207   6.101   1.961   6.659
 9103SOL    HW128208   6.006   1.982   6.638
 9103SOL    HW228209   6.147   1.927   6.577
 9104SOL     OW28210   0.399   0.748   0.592
 9104SOL    HW128211   0.444   0.823   0.543
 9104SOL    HW228212   0.363   0.782   0.678
 9105SOL     OW28213   2.125   0.127   5.575
 9105SOL    HW128214   2.062   0.201   5.556
 9105SOL    HW228215   2.105   0.088   5.665
 9106SOL     OW28216   0.800   4.190   0.084
 9106SOL    HW128217   0.834   4.172   7.014
 9106SOL    HW228218   0.825   4.283   0.111
 9107SOL     OW28219   2.670   0.872   6.241
 9107SOL    HW128220   2.572   0.860   6.229
 9107SOL    HW228221   2.718   0.789   6.214
 9108SOL     OW28222   5.061   5.128   5.259
 9108SOL    HW128223   5.147   5.076   5.249
 9108SOL    HW228224   5.080   5.225   5.246
 9109SOL     OW28225   5.414   3.048   2.115
 9109SOL    HW128226   5.497   3.080   2.069
 9109SOL    HW228227   5.437   3.022   2.209
 9110SOL     OW28228   1.551   5.650   5.417
 9110SOL    HW128229   1.563   5.654   5.516
 9110SOL    HW228230   1.639   5.633   5.373
 9111SOL     OW28231   4.925   2.861   5.455
 9111SOL    HW128232   5.019   2.889   5.436
 9111SOL    HW228233   4.925   2.796   5.531
 9112SOL     OW28234   1.776   5.150   3.051
 9112SOL    HW128235   1.777   5.135   2.952
 9112SOL    HW228236   1.714   5.084   3.094
 9113SOL     OW28237   5.187   2.128   3.114
 9113SOL    HW128238   5.201   2.042   3.064
 9113SOL    HW228239   5.089   2.151   3.112
 9114SOL     OW28240   1.539   6.063   4.981
 9114SOL    HW128241   1.607   6.059   5.054
 9114SOL    HW228242   1.494   6.152   4.981
 9115SOL     OW28243   5.578   5.049   3.428
 9115SOL    HW128244   5.506   5.116   3.445
 9115SOL    HW228245   5.654   5.094   3.381
 9116SOL     OW28246   0.784   6.518   3.247
 9116SOL    HW128247   0.819   6.429   3.217
 9116SOL    HW228248   0.766   6.514   3.346
 9117SOL     OW28249   4.161   0.955   7.009
 9117SOL    HW128250   4.139   0.933   6.914
 9117SOL    HW228251   4.198   0.874   0.032
 9118SOL     OW28252   6.060   3.973   0.444
 9118SOL    HW128253   5.967   3.942   0.461
 9118SOL    HW228254   6.082   4.048   0.506
 9119SOL     OW28255   3.738   6.117   0.893
 9119SOL    HW128256   3.684   6.086   0.971
 9119SOL    HW228257   3.686   6.100   0.809
 9120SOL     OW28258   6.440   2.664   5.784
 9120SOL    HW128259   6.341   2.660   5.771
 9120SOL    HW228260   6.474   2.573   5.805
 9121SOL     OW28261   3.855   0.346   5.827
 9121SOL    HW128262   3.885   0.346   5.922
 9121SOL    HW228263   3.777   0.284   5.816
 9122SOL     OW28264   2.547   4.505   1.765
 9122SOL    HW128265   2.632   4.480   1.719
 9122SOL    HW228266   2.527   4.601   1.749
 9123SOL     OW28267   1.222   0.691   3.313
 9123SOL    HW128268   1.152   0.745   3.360
 9123SOL    HW228269   1.264   0.627   3.378
 9124SOL     OW28270   3.477   5.270   1.408
 9124SOL    HW128271   3.561   5.220   1.426
 9124SOL    HW228272   3.421   5.219   1.343
 9125SOL     OW28273   3.425   6.743   0.242
 9125SOL    HW128274   3.408   6.806   0.318
 9125SOL    HW228275   3.442   6.794   0.158
 9126SOL     OW28276   4.215   5.010   0.435
 9126SOL    HW128277   4.155   5.050   0.505
 9126SOL    HW228278   4.196   4.912   0.427
 9127SOL     OW28279   6.832   3.271   5.363
 9127SOL    HW128280   6.873   3.357   5.333
 9127SOL    HW228281   6.860   3.198   5.301
 9128SOL     OW28282   6.021   3.104   4.699
 9128SOL    HW128283   6.002   3.201   4.686
 9128SOL    HW228284   5.973   3.051   4.630
 9129SOL     OW28285   2.240   1.797   0.516
 9129SOL    HW128286   2.184   1.839   0.444
 9129SOL    HW228287   2.322   1.852   0.531
 9130SOL     OW28288   3.021   4.274   5.520
 9130SOL    HW128289   2.950   4.222   5.473
 9130SOL    HW228290   3.038   4.359   5.470
 9131SOL     OW28291   5.893   3.031   0.724
 9131SOL    HW128292   5.983   3.011   0.686
 9131SOL    HW228293   5.888   3.001   0.819
 9132SOL     OW28294   1.081   3.977   3.353
 9132SOL    HW128295   1.077   4.042   3.429
 9132SOL    HW228296   1.087   3.884   3.390
 9133SOL     OW28297   4.458   0.766   0.982
 9133SOL    HW128298   4.483   0.801   1.072
 9133SOL    HW228299   4.446   0.843   0.919
 9134SOL     OW28300   4.564   5.247   1.203
 9134SOL    HW128301   4.595   5.342   1.198
 9134SOL    HW228302   4.640   5.188   1.231
 9135SOL     OW28303   0.954   6.189   1.902
 9135SOL    HW128304   0.896   6.257   1.947
 9135SOL    HW228305   0.896   6.122   1.855
 9136SOL     OW28306   5.847   4.662   6.452
 9136SOL    HW128307   5.835   4.690   6.547
 9136SOL    HW228308   5.783   4.712   6.394
 9137SOL     OW28309   4.280   6.060   6.973
 9137SOL    HW128310   4.325   5.989   6.920
 9137SOL    HW228311   4.343   6.094   0.021
 9138SOL     OW28312   3.056   2.914   0.695
 9138SOL    HW128313   3.020   2.977   0.626
 9138SOL    HW228314   3.109   2.842   0.649
 9139SOL     OW28315   0.002   0.217   1.313
 9139SOL    HW128316   6.937   0.257   1.285
 9139SOL    HW228317   0.001   0.119   1.294
 9140SOL     OW28318   0.605   4.398   2.528
 9140SOL    HW128319   0.544   4.442   2.595
 9140SOL    HW228320   0.565   4.312   2.498
 9141SOL     OW28321   6.582   5.377   6.312
 9141SOL    HW128322   6.656   5.415   6.256
 9141SOL    HW228323   6.616   5.357   6.404
 9142SOL     OW28324   1.278   3.680   2.693
 9142SOL    HW128325   1.354   3.617   2.711
 9142SOL    HW228326   1.248   3.722   2.779
 9143SOL     OW28327   0.177   3.484   3.100
 9143SOL    HW128328   0.100   3.503   3.038
 9143SOL    HW228329   0.219   3.571   3.127
 9144SOL     OW28330   2.842   4.942   5.437
 9144SOL    HW128331   2.793   4.921   5.353
 9144SOL    HW228332   2.778   4.942   5.514
 9145SOL     OW28333   1.354   6.710   6.334
 9145SOL    HW128334   1.347   6.697   6.433
 9145SOL    HW228335   1.342   6.623   6.287
 9146SOL     OW28336   5.624   3.775   3.448
 9146SOL    HW128337   5.548   3.721   3.413
 9146SOL    HW228338   5.589   3.845   3.511
 9147SOL     OW28339   5.156   0.263   4.085
 9147SOL    HW128340   5.131   0.348   4.131
 9147SOL    HW228341   5.103   0.254   4.000
 9148SOL     OW28342   6.350   6.873   1.603
 9148SOL    HW128343   6.259   6.843   1.632
 9148SOL    HW228344   6.403   6.902   1.683
 9149SOL     OW28345   6.423   4.342   1.252
 9149SOL    HW128346   6.359   4.305   1.185
 9149SOL    HW228347   6.426   4.281   1.332
 9150SOL     OW28348   3.042   3.586   7.000
 9150SOL    HW128349   3.083   3.531   6.927
 9150SOL    HW228350   2.988   3.661   6.960
 9151SOL     OW28351   1.614   3.518   3.651
 9151SOL    HW128352   1.592   3.519   3.749
 9151SOL    HW228353   1.637   3.610   3.621
 9152SOL     OW28354   1.824   3.943   3.829
 9152SOL    HW128355   1.897   3.893   3.783
 9152SOL    HW228356   1.756   3.879   3.864
 9153SOL     OW28357   0.015   3.136   6.598
 9153SOL    HW128358   0.086   3.067   6.582
 9153SOL    HW228359   6.971   3.100   6.663
 9154SOL     OW28360   6.126   4.899   3.190
 9154SOL    HW128361   6.183   4.885   3.271
 9154SOL    HW228362   6.185   4.915   3.111
 9155SOL     OW28363   0.661   5.749   2.844
 9155SOL    HW128364   0.620   5.667   2.884
 9155SOL    HW228365   0.635   5.828   2.899
 9156SOL     OW28366   6.616   4.129   6.944
 9156SOL    HW128367   6.545   4.074   6.988
 9156SOL    HW228368   6.683   4.069   6.901
 9157SOL     OW28369   3.175   4.823   6.034
 9157SOL    HW128370   3.168   4.817   5.934
 9157SOL    HW228371   3.149   4.735   6.074
 9158SOL     OW28372   0.318   3.642   3.849
 9158SOL    HW128373   0.302   3.582   3.771
 9158SOL    HW228374   0.287   3.597   3.933
 9159SOL     OW28375   3.558   0.710   3.273
 9159SOL    HW128376   3.655   0.715   3.247
 9159SOL    HW228377   3.551   0.716   3.373
 9160SOL     OW28378   0.223   4.523   6.555
 9160SOL    HW128379   0.285   4.581   6.502
 9160SOL    HW228380   0.240   4.536   6.652
 9161SOL     OW28381   6.151   3.876   1.701
 9161SOL    HW128382   6.211   3.904   1.626
 9161SOL    HW228383   6.065   3.927   1.696
 9162SOL     OW28384   5.028   1.988   2.059
 9162SOL    HW128385   4.955   1.949   2.115
 9162SOL    HW228386   5.001   2.079   2.028
 9163SOL     OW28387   1.344   2.440   3.112
 9163SOL    HW128388   1.277   2.368   3.096
 9163SOL    HW228389   1.339   2.508   3.039
 9164SOL     OW28390   2.524   0.584   6.526
 9164SOL    HW128391   2.469   0.508   6.561
 9164SOL    HW228392   2.473   0.669   6.539
 9165SOL     OW28393   5.274   2.709   5.622
 9165SOL    HW128394   5.370   2.735   5.631
 9165SOL    HW228395   5.216   2.789   5.638
 9166SOL     OW28396   5.076   5.324   1.813
 9166SOL    HW128397   5.104   5.256   1.881
 9166SOL    HW228398   4.977   5.315   1.797
 9167SOL     OW28399   1.617   0.754   5.441
 9167SOL    HW128400   1.693   0.785   5.497
 9167SOL    HW228401   1.589   0.663   5.469
 9168SOL     OW28402   6.906   6.143   4.711
 9168SOL    HW128403   6.832   6.164   4.775
 9168SOL    HW228404   6.872   6.148   4.617
 9169SOL     OW28405   6.264   6.278   0.687
 9169SOL    HW128406   6.223   6.209   0.628
 9169SOL    HW228407   6.192   6.336   0.726
 9170SOL     OW28408   1.571   1.294   5.683
 9170SOL    HW128409   1.634   1.360   5.724
 9170SOL    HW228410   1.477   1.313   5.713
 9171SOL     OW28411   3.118   4.969   0.675
 9171SOL    HW128412   3.129   4.977   0.576
 9171SOL    HW228413   3.033   5.014   0.703
 9172SOL     OW28414   5.079   1.518   4.271
 9172SOL    HW128415   5.157   1.485   4.217
 9172SOL    HW228416   5.104   1.604   4.315
 9173SOL     OW28417   6.284   2.788   4.263
 9173SOL    HW128418   6.244   2.697   4.252
 9173SOL    HW228419   6.303   2.804   4.360
 9174SOL     OW28420   0.252   5.537   0.121
 9174SOL    HW128421   0.200   5.596   0.060
 9174SOL    HW228422   0.228   5.556   0.216
 9175SOL     OW28423   1.495   0.089   6.683
 9175SOL    HW128424   1.506   0.187   6.673
 9175SOL    HW228425   1.521   0.043   6.598
 9176SOL     OW28426   1.192   1.767   2.357
 9176SOL    HW128427   1.193   1.852   2.304
 9176SOL    HW228428   1.162   1.786   2.450
 9177SOL     OW28429   0.156   4.453   3.858
 9177SOL    HW128430   0.123   4.377   3.803
 9177SOL    HW228431   0.238   4.492   3.816
 9178SOL     OW28432   1.198   6.519   0.645
 9178SOL    HW128433   1.175   6.531   0.548
 9178SOL    HW228434   1.297   6.511   0.655
 9179SOL     OW28435   4.286   6.234   5.118
 9179SOL    HW128436   4.378   6.235   5.156
 9179SOL    HW228437   4.291   6.213   5.020
 9180SOL     OW28438   0.335   1.377   4.093
 9180SOL    HW128439   0.349   1.385   4.192
 9180SOL    HW228440   0.262   1.311   4.075
 9181SOL     OW28441   3.628   1.947   3.733
 9181SOL    HW128442   3.637   2.007   3.813
 9181SOL    HW228443   3.553   1.882   3.749
 9182SOL     OW28444   1.709   1.064   3.188
 9182SOL    HW128445   1.731   1.161   3.192
 9182SOL    HW228446   1.747   1.024   3.104
 9183SOL     OW28447   6.121   2.751   5.851
 9183SOL    HW128448   6.050   2.820   5.859
 9183SOL    HW228449   6.083   2.667   5.814
 9184SOL     OW28450   3.860   3.166   1.426
 9184SOL    HW128451   3.798   3.089   1.410
 9184SOL    HW228452   3.877   3.214   1.340
 9185SOL     OW28453   0.916   0.280   6.396
 9185SOL    HW128454   0.874   0.267   6.485
 9185SOL    HW228455   0.894   0.202   6.337
 9186SOL     OW28456   5.504   0.438   5.810
 9186SOL    HW128457   5.467   0.492   5.887
 9186SOL    HW228458   5.456   0.351   5.805
 9187SOL     OW28459   5.204   1.554   0.251
 9187SOL    HW128460   5.134   1.487   0.227
 9187SOL    HW228461   5.189   1.638   0.199
 9188SOL     OW28462   0.793   0.220   2.148
 9188SOL    HW128463   0.886   0.230   2.113
 9188SOL    HW228464   0.738   0.298   2.121
 9189SOL     OW28465   3.543   1.560   3.786
 9189SOL    HW128466   3.598   1.524   3.862
 9189SOL    HW228467   3.515   1.653   3.806
 9190SOL     OW28468   5.792   3.965   5.202
 9190SOL    HW128469   5.755   4.045   5.249
 9190SOL    HW228470   5.717   3.902   5.178
 9191SOL     OW28471   5.229   6.179   6.612
 9191SOL    HW128472   5.184   6.213   6.694
 9191SOL    HW228473   5.280   6.095   6.634
 9192SOL     OW28474   6.443   4.526   5.340
 9192SOL    HW128475   6.345   4.518   5.322
 9192SOL    HW228476   6.460   4.516   5.438
 9193SOL     OW28477   3.449   2.853   3.614
 9193SOL    HW128478   3.544   2.845   3.646
 9193SOL    HW228479   3.387   2.845   3.691
 9194SOL     OW28480   2.891   5.228   3.007
 9194SOL    HW128481   2.902   5.132   3.035
 9194SOL    HW228482   2.970   5.281   3.038
 9195SOL     OW28483   0.338   3.228   2.981
 9195SOL    HW128484   0.295   3.309   3.020
 9195SOL    HW228485   0.267   3.165   2.949
 9196SOL     OW28486   4.843   0.329   3.516
 9196SOL    HW128487   4.858   0.308   3.613
 9196SOL    HW228488   4.888   0.415   3.493
 9197SOL     OW28489   3.526   3.009   6.159
 9197SOL    HW128490   3.593   2.951   6.206
 9197SOL    HW228491   3.451   3.029   6.222
 9198SOL     OW28492   5.937   3.060   5.451
 9198SOL    HW128493   6.001   2.984   5.438
 9198SOL    HW228494   5.985   3.147   5.441
 9199SOL     OW28495   1.209   4.070   6.646
 9199SOL    HW128496   1.269   4.023   6.710
 9199SOL    HW228497   1.205   4.019   6.560
 9200SOL     OW28498   6.368   0.111   0.566
 9200SOL    HW128499   6.355   0.045   0.640
 9200SOL    HW228500   6.454   0.159   0.580
 9201SOL     OW28501   0.431   3.713   2.262
 9201SOL    HW128502   0.426   3.618   2.230
 9201SOL    HW228503   0.506   3.760   2.217
 9202SOL     OW28504   3.164   5.484   4.288
 9202SOL    HW128505   3.264   5.494   4.288
 9202SOL    HW228506   3.134   5.453   4.378
 9203SOL     OW28507   5.162   0.939   5.402
 9203SOL    HW128508   5.086   0.999   5.378
 9203SOL    HW228509   5.146   0.901   5.493
 9204SOL     OW28510   5.106   3.925   3.043
 9204SOL    HW128511   5.035   3.908   2.974
 9204SOL    HW228512   5.089   3.867   3.123
 9205SOL     OW28513   5.267   2.426   2.283
 9205SOL    HW128514   5.317   2.351   2.240
 9205SOL    HW228515   5.171   2.399   2.295
 9206SOL     OW28516   0.680   6.282   3.630
 9206SOL    HW128517   0.741   6.212   3.594
 9206SOL    HW228518   0.709   6.372   3.598
 9207SOL     OW28519   4.123   6.406   0.445
 9207SOL    HW128520   4.194   6.409   0.515
 9207SOL    HW228521   4.140   6.478   0.377
 9208SOL     OW28522   5.145   3.546   1.997
 9208SOL    HW128523   5.104   3.553   1.907
 9208SOL    HW228524   5.089   3.487   2.055
 9209SOL     OW28525   4.088   1.195   2.464
 9209SOL    HW128526   4.187   1.203   2.477
 9209SOL    HW228527   4.069   1.121   2.400
 9210SOL     OW28528   1.446   6.997   1.150
 9210SOL    HW128529   1.453   0.031   1.067
 9210SOL    HW228530   1.384   6.921   1.133
 9211SOL     OW28531   5.042   1.571   6.436
 9211SOL    HW128532   5.128   1.610   6.467
 9211SOL    HW228533   4.966   1.617   6.482
 9212SOL     OW28534   5.517   3.679   4.240
 9212SOL    HW128535   5.488   3.591   4.279
 9212SOL    HW228536   5.507   3.676   4.141
 9213SOL     OW28537   5.887   6.623   3.472
 9213SOL    HW128538   5.898   6.718   3.444
 9213SOL    HW228539   5.846   6.620   3.563
 9214SOL     OW28540   2.694   2.107   4.596
 9214SOL    HW128541   2.739   2.183   4.551
 9214SOL    HW228542   2.628   2.142   4.662
 9215SOL     OW28543   0.438   3.793   2.930
 9215SOL    HW128544   0.487   3.880   2.925
 9215SOL    HW228545   0.482   3.726   2.872
 9216SOL     OW28546   1.859   5.737   4.925
 9216SOL    HW128547   1.955   5.735   4.899
 9216SOL    HW228548   1.808   5.791   4.858
 9217SOL     OW28549   4.420   1.250   6.232
 9217SOL    HW128550   4.500   1.202   6.267
 9217SOL    HW228551   4.413   1.339   6.276
 9218SOL     OW28552   6.101   5.758   6.099
 9218SOL    HW128553   6.008   5.733   6.071
 9218SOL    HW228554   6.123   5.848   6.062
 9219SOL     OW28555   3.680   2.825   5.202
 9219SOL    HW128556   3.584   2.845   5.183
 9219SOL    HW228557   3.690   2.727   5.221
 9220SOL     OW28558   1.791   6.002   3.381
 9220SOL    HW128559   1.814   6.043   3.293
 9220SOL    HW228560   1.744   6.070   3.437
 9221SOL     OW28561   2.505   1.053   6.503
 9221SOL    HW128562   2.555   1.028   6.587
 9221SOL    HW228563   2.570   1.090   6.436
 9222SOL     OW28564   1.259   3.546   3.310
 9222SOL    HW128565   1.249   3.574   3.214
 9222SOL    HW228566   1.336   3.482   3.318
 9223SOL     OW28567   0.870   3.803   4.401
 9223SOL    HW128568   0.794   3.740   4.412
 9223SOL    HW228569   0.948   3.773   4.456
 9224SOL     OW28570   1.980   4.032   4.137
 9224SOL    HW128571   2.000   4.128   4.158
 9224SOL    HW228572   2.054   3.974   4.173
 9225SOL     OW28573   4.585   7.013   6.772
 9225SOL    HW128574   4.519   0.018   6.843
 9225SOL    HW228575   4.635   6.933   6.803
 9226SOL     OW28576   0.793   0.966   0.534
 9226SOL    HW128577   0.711   1.017   0.561
 9226SOL    HW228578   0.781   0.931   0.441
 9227SOL     OW28579   2.581   5.344   0.683
 9227SOL    HW128580   2.650   5.415   0.686
 9227SOL    HW228581   2.571   5.310   0.590
 9228SOL     OW28582   3.072   2.871   5.776
 9228SOL    HW128583   3.014   2.803   5.821
 9228SOL    HW228584   3.148   2.895   5.836
 9229SOL     OW28585   6.942   4.546   6.757
 9229SOL    HW128586   6.920   4.491   6.677
 9229SOL    HW228587   7.007   4.618   6.731
 9230SOL     OW28588   4.764   1.584   4.178
 9230SOL    HW128589   4.673   1.597   4.217
 9230SOL    HW228590   4.826   1.654   4.214
 9231SOL     OW28591   0.251   5.485   4.249
 9231SOL    HW128592   0.167   5.489   4.302
 9231SOL    HW228593   0.326   5.525   4.303
 9232SOL     OW28594   1.206   5.544   1.801
 9232SOL    HW128595   1.196   5.533   1.702
 9232SOL    HW228596   1.296   5.584   1.820
 9233SOL     OW28597   0.905   0.217   0.016
 9233SOL    HW128598   0.944   0.264   0.095
 9233SOL    HW228599   0.806   0.230   0.015
 9234SOL     OW28600   2.248   4.581   0.828
 9234SOL    HW128601   2.275   4.560   0.922
 9234SOL    HW228602   2.153   4.612   0.827
 9235SOL     OW28603   2.581   2.476   4.161
 9235SOL    HW128604   2.485   2.452   4.148
 9235SOL    HW228605   2.593   2.574   4.148
 9236SOL     OW28606   2.322   3.810   6.399
 9236SOL    HW128607   2.337   3.724   6.350
 9236SOL    HW228608   2.253   3.864   6.350
 9237SOL     OW28609   6.266   5.214   3.746
 9237SOL    HW128610   6.345   5.153   3.749
 9237SOL    HW228611   6.237   5.228   3.651
 9238SOL     OW28612   1.766   3.252   5.435
 9238SOL    HW128613   1.793   3.178   5.496
 9238SOL    HW228614   1.801   3.233   5.343
 9239SOL     OW28615   0.631   4.841   0.124
 9239SOL    HW128616   0.602   4.846   0.028
 9239SOL    HW228617   0.578   4.907   0.178
 9240SOL     OW28618   4.630   2.438   2.801
 9240SOL    HW128619   4.634   2.531   2.838
 9240SOL    HW228620   4.589   2.377   2.869
 9241SOL     OW28621   5.595   6.889   0.966
 9241SOL    HW128622   5.580   6.935   1.053
 9241SOL    HW228623   5.592   6.790   0.980
 9242SOL     OW28624   1.198   2.234   0.939
 9242SOL    HW128625   1.205   2.276   0.848
 9242SOL    HW228626   1.246   2.147   0.940
 9243SOL     OW28627   1.051   0.513   0.409
 9243SOL    HW128628   0.988   0.577   0.366
 9243SOL    HW228629   0.999   0.444   0.459
 9244SOL     OW28630   4.487   6.528   4.807
 9244SOL    HW128631   4.387   6.528   4.801
 9244SOL    HW228632   4.521   6.435   4.793
 9245SOL     OW28633   0.926   4.481   2.841
 9245SOL    HW128634   0.885   4.531   2.917
 9245SOL    HW228635   1.020   4.514   2.827
 9246SOL     OW28636   6.978   0.837   4.889
 9246SOL    HW128637   6.903   0.904   4.898
 9246SOL    HW228638   6.951   0.751   4.933
 9247SOL     OW28639   3.914   5.834   3.523
 9247SOL    HW128640   3.966   5.875   3.597
 9247SOL    HW228641   3.847   5.769   3.561
 9248SOL     OW28642   2.828   0.748   5.401
 9248SOL    HW128643   2.851   0.836   5.441
 9248SOL    HW228644   2.819   0.758   5.302
 9249SOL     OW28645   3.691   4.976   1.833
 9249SOL    HW128646   3.606   4.977   1.781
 9249SOL    HW228647   3.681   4.915   1.912
 9250SOL     OW28648   0.200   2.983   3.955
 9250SOL    HW128649   0.232   3.024   4.041
 9250SOL    HW228650   0.160   2.893   3.974
 9251SOL     OW28651   3.012   3.018   0.954
 9251SOL    HW128652   3.032   2.975   0.866
 9251SOL    HW228653   2.949   3.094   0.940
 9252SOL     OW28654   5.427   0.247   5.550
 9252SOL    HW128655   5.362   0.322   5.541
 9252SOL    HW228656   5.519   0.278   5.524
 9253SOL     OW28657   0.940   4.828   5.425
 9253SOL    HW128658   1.008   4.799   5.357
 9253SOL    HW228659   0.853   4.845   5.379
 9254SOL     OW28660   6.590   4.959   3.324
 9254SOL    HW128661   6.597   5.059   3.321
 9254SOL    HW228662   6.663   4.922   3.382
 9255SOL     OW28663   6.768   4.648   0.455
 9255SOL    HW128664   6.726   4.634   0.545
 9255SOL    HW228665   6.833   4.573   0.437
 9256SOL     OW28666   1.533   6.449   1.544
 9256SOL    HW128667   1.550   6.535   1.495
 9256SOL    HW228668   1.595   6.443   1.623
 9257SOL     OW28669   0.223   5.686   4.069
 9257SOL    HW128670   0.197   5.608   4.126
 9257SOL    HW228671   0.165   5.764   4.091
 9258SOL     OW28672   3.453   4.603   0.704
 9258SOL    HW128673   3.550   4.610   0.682
 9258SOL    HW228674   3.399   4.645   0.631
 9259SOL     OW28675   2.203   1.943   6.660
 9259SOL    HW128676   2.186   2.018   6.596
 9259SOL    HW228677   2.255   1.976   6.738
 9260SOL     OW28678   5.213   3.421   4.606
 9260SOL    HW128679   5.231   3.339   4.660
 9260SOL    HW228680   5.288   3.487   4.619
 9261SOL     OW28681   4.118   2.284   1.884
 9261SOL    HW128682   4.128   2.378   1.850
 9261SOL    HW228683   4.098   2.223   1.807
 9262SOL     OW28684   6.285   5.983   3.638
 9262SOL    HW128685   6.321   6.067   3.596
 9262SOL    HW228686   6.315   5.977   3.733
 9263SOL     OW28687   2.078   3.652   3.982
 9263SOL    HW128688   1.981   3.655   4.005
 9263SOL    HW228689   2.100   3.564   3.940
 9264SOL     OW28690   4.532   3.817   6.924
 9264SOL    HW128691   4.437   3.842   6.941
 9264SOL    HW228692   4.543   3.793   6.827
 9265SOL     OW28693   5.219   2.117   0.234
 9265SOL    HW128694   5.258   2.129   0.325
 9265SOL    HW228695   5.253   2.032   0.193
 9266SOL     OW28696   0.147   4.107   1.009
 9266SOL    HW128697   0.130   4.121   1.107
 9266SOL    HW228698   0.093   4.172   0.956
 9267SOL     OW28699   0.613   1.070   4.146
 9267SOL    HW128700   0.515   1.061   4.163
 9267SOL    HW228701   0.664   1.021   4.217
 9268SOL     OW28702   0.472   6.647   1.972
 9268SOL    HW128703   0.515   6.710   2.035
 9268SOL    HW228704   0.502   6.553   1.992
 9269SOL     OW28705   3.895   0.341   0.817
 9269SOL    HW128706   3.929   0.421   0.766
 9269SOL    HW228707   3.938   0.339   0.908
 9270SOL     OW28708   2.344   0.785   5.710
 9270SOL    HW128709   2.380   0.864   5.661
 9270SOL    HW228710   2.418   0.721   5.730
 9271SOL     OW28711   1.297   0.219   5.721
 9271SOL    HW128712   1.237   0.237   5.800
 9271SOL    HW228713   1.244   0.223   5.637
 9272SOL     OW28714   6.842   6.308   5.827
 9272SOL    HW128715   6.923   6.250   5.821
 9272SOL    HW228716   6.763   6.260   5.787
 9273SOL     OW28717   4.463   5.159   4.606
 9273SOL    HW128718   4.405   5.186   4.528
 9273SOL    HW228719   4.447   5.222   4.682
 9274SOL     OW28720   0.987   3.242   0.360
 9274SOL    HW128721   1.033   3.328   0.338
 9274SOL    HW228722   1.035   3.166   0.316
 9275SOL     OW28723   0.676   6.543   0.952
 9275SOL    HW128724   0.628   6.500   1.029
 9275SOL    HW228725   0.757   6.489   0.930
 9276SOL     OW28726   3.434   4.966   0.113
 9276SOL    HW128727   3.458   5.055   0.150
 9276SOL    HW228728   3.512   4.905   0.120
 9277SOL     OW28729   4.935   4.837   2.290
 9277SOL    HW128730   4.970   4.769   2.355
 9277SOL    HW228731   4.907   4.919   2.340
 9278SOL     OW28732   0.479   0.958   4.494
 9278SOL    HW128733   0.531   0.875   4.517
 9278SOL    HW228734   0.438   0.948   4.403
 9279SOL     OW28735   4.468   5.544   1.708
 9279SOL    HW128736   4.453   5.640   1.732
 9279SOL    HW228737   4.380   5.496   1.704
 9280SOL     OW28738   1.481   1.118   2.827
 9280SOL    HW128739   1.573   1.111   2.787
 9280SOL    HW228740   1.420   1.053   2.782
 9281SOL     OW28741   3.344   4.829   0.323
 9281SOL    HW128742   3.377   4.880   0.243
 9281SOL    HW228743   3.410   4.837   0.397
 9282SOL     OW28744   3.540   0.161   4.827
 9282SOL    HW128745   3.605   0.222   4.872
 9282SOL    HW228746   3.477   0.216   4.771
 9283SOL     OW28747   4.317   6.517   0.052
 9283SOL    HW128748   4.223   6.501   0.020
 9283SOL    HW228749   4.381   6.503   6.999
 9284SOL     OW28750   3.162   4.206   5.139
 9284SOL    HW128751   3.133   4.289   5.188
 9284SOL    HW228752   3.230   4.157   5.193
 9285SOL     OW28753   6.862   4.196   2.561
 9285SOL    HW128754   6.927   4.247   2.505
 9285SOL    HW228755   6.912   4.141   2.628
 9286SOL     OW28756   4.738   5.564   1.773
 9286SOL    HW128757   4.809   5.518   1.718
 9286SOL    HW228758   4.648   5.537   1.738
 9287SOL     OW28759   3.186   4.612   6.355
 9287SOL    HW128760   3.150   4.588   6.264
 9287SOL    HW228761   3.138   4.692   6.389
 9288SOL     OW28762   4.483   1.941   3.568
 9288SOL    HW128763   4.402   1.901   3.526
 9288SOL    HW228764   4.565   1.893   3.537
 9289SOL     OW28765   4.594   6.901   6.523
 9289SOL    HW128766   4.523   6.836   6.547
 9289SOL    HW228767   4.620   6.955   6.604
 9290SOL     OW28768   5.596   0.280   4.707
 9290SOL    HW128769   5.680   0.238   4.742
 9290SOL    HW228770   5.591   0.375   4.736
 9291SOL     OW28771   1.445   5.027   5.634
 9291SOL    HW128772   1.345   5.039   5.638
 9291SOL    HW228773   1.488   5.098   5.690
 9292SOL     OW28774   1.790   1.703   6.094
 9292SOL    HW128775   1.811   1.782   6.152
 9292SOL    HW228776   1.692   1.703   6.072
 9293SOL     OW28777   4.711   2.928   5.891
 9293SOL    HW128778   4.705   2.966   5.798
 9293SOL    HW228779   4.706   3.002   5.958
 9294SOL     OW28780   4.564   1.530   0.304
 9294SOL    HW128781   4.647   1.507   0.253
 9294SOL    HW228782   4.487   1.478   0.268
 9295SOL     OW28783   0.856   1.176   5.576
 9295SOL    HW128784   0.844   1.151   5.480
 9295SOL    HW228785   0.941   1.138   5.611
 9296SOL     OW28786   2.470   4.476   0.404
 9296SOL    HW128787   2.516   4.388   0.392
 9296SOL    HW228788   2.378   4.460   0.440
 9297SOL     OW28789   5.910   6.716   3.105
 9297SOL    HW128790   5.866   6.636   3.066
 9297SOL    HW228791   5.952   6.770   3.033
 9298SOL     OW28792   1.225   6.027   5.933
 9298SOL    HW128793   1.182   6.077   6.009
 9298SOL    HW228794   1.251   5.936   5.964
 9299SOL     OW28795   2.360   2.683   4.671
 9299SOL    HW128796   2.283   2.634   4.711
 9299SOL    HW228797   2.367   2.659   4.574
 9300SOL     OW28798   1.738   6.205   6.037
 9300SOL    HW128799   1.755   6.221   5.940
 9300SOL    HW228800   1.737   6.106   6.054
 9301SOL     OW28801   0.231   3.882   5.130
 9301SOL    HW128802   0.164   3.840   5.191
 9301SOL    HW228803   0.295   3.813   5.098
 9302SOL     OW28804   2.069   3.702   4.762
 9302SOL    HW128805   2.104   3.759   4.837
 9302SOL    HW228806   1.970   3.708   4.759
 9303SOL     OW28807   2.372   4.907   0.966
 9303SOL    HW128808   2.407   4.813   0.974
 9303SOL    HW228809   2.286   4.915   1.016
 9304SOL     OW28810   5.066   4.932   0.409
 9304SOL    HW128811   5.159   4.915   0.376
 9304SOL    HW228812   5.050   5.031   0.411
 9305SOL     OW28813   2.775   1.576   1.555
 9305SOL    HW128814   2.734   1.629   1.481
 9305SOL    HW228815   2.733   1.603   1.642
 9306SOL     OW28816   0.488   5.347   4.592
 9306SOL    HW128817   0.572   5.353   4.538
 9306SOL    HW228818   0.457   5.440   4.616
 9307SOL     OW28819   2.822   2.844   1.698
 9307SOL    HW128820   2.753   2.772   1.698
 9307SOL    HW228821   2.908   2.807   1.734
 9308SOL     OW28822   1.898   3.935   1.739
 9308SOL    HW128823   1.958   3.956   1.815
 9308SOL    HW228824   1.953   3.908   1.660
 9309SOL     OW28825   4.557   5.703   5.427
 9309SOL    HW128826   4.614   5.785   5.422
 9309SOL    HW228827   4.612   5.623   5.408
 9310SOL     OW28828   4.924   5.941   6.318
 9310SOL    HW128829   4.985   6.019   6.308
 9310SOL    HW228830   4.898   5.907   6.227
 9311SOL     OW28831   4.817   3.398   1.627
 9311SOL    HW128832   4.756   3.471   1.659
 9311SOL    HW228833   4.816   3.322   1.691
 9312SOL     OW28834   0.617   2.302   1.153
 9312SOL    HW128835   0.552   2.358   1.205
 9312SOL    HW228836   0.694   2.359   1.124
 9313SOL     OW28837   0.788   6.979   1.904
 9313SOL    HW128838   0.826   6.888   1.924
 9313SOL    HW228839   0.718   7.001   1.972
 9314SOL     OW28840   4.954   2.748   0.132
 9314SOL    HW128841   4.891   2.767   0.057
 9314SOL    HW228842   4.969   2.832   0.184
 9315SOL     OW28843   5.770   0.916   6.615
 9315SOL    HW128844   5.860   0.958   6.604
 9315SOL    HW228845   5.746   0.866   6.532
 9316SOL     OW28846   4.028   1.086   5.537
 9316SOL    HW128847   4.044   0.989   5.523
 9316SOL    HW228848   4.028   1.133   5.449
 9317SOL     OW28849   3.858   6.040   3.335
 9317SOL    HW128850   3.891   5.961   3.388
 9317SOL    HW228851   3.929   6.069   3.271
 9318SOL     OW28852   5.140   5.805   1.124
 9318SOL    HW128853   5.178   5.887   1.167
 9318SOL    HW228854   5.149   5.728   1.187
 9319SOL     OW28855   2.247   4.486   0.588
 9319SOL    HW128856   2.244   4.507   0.686
 9319SOL    HW228857   2.154   4.471   0.555
 9320SOL     OW28858   6.592   6.630   6.251
 9320SOL    HW128859   6.559   6.543   6.214
 9320SOL    HW228860   6.645   6.614   6.334
 9321SOL     OW28861   0.274   3.347   4.913
 9321SOL    HW128862   0.217   3.429   4.913
 9321SOL    HW228863   0.365   3.369   4.949
 9322SOL     OW28864   5.671   4.320   6.049
 9322SOL    HW128865   5.647   4.415   6.030
 9322SOL    HW228866   5.724   4.284   5.973
 9323SOL     OW28867   1.596   2.755   3.684
 9323SOL    HW128868   1.686   2.715   3.664
 9323SOL    HW228869   1.530   2.725   3.616
 9324SOL     OW28870   0.428   3.997   1.452
 9324SOL    HW128871   0.524   3.995   1.421
 9324SOL    HW228872   0.371   3.948   1.386
 9325SOL     OW28873   1.185   5.146   2.621
 9325SOL    HW128874   1.233   5.231   2.601
 9325SOL    HW228875   1.247   5.081   2.664
 9326SOL     OW28876   4.089   4.382   0.566
 9326SOL    HW128877   4.086   4.480   0.586
 9326SOL    HW228878   4.054   4.331   0.645
 9327SOL     OW28879   4.460   0.708   3.436
 9327SOL    HW128880   4.414   0.672   3.355
 9327SOL    HW228881   4.404   0.780   3.477
 9328SOL     OW28882   2.866   6.055   4.415
 9328SOL    HW128883   2.816   6.060   4.328
 9328SOL    HW228884   2.936   5.984   4.408
 9329SOL     OW28885   0.446   5.479   6.628
 9329SOL    HW128886   0.437   5.481   6.727
 9329SOL    HW228887   0.470   5.571   6.594
 9330SOL     OW28888   6.075   6.066   6.255
 9330SOL    HW128889   6.016   6.098   6.181
 9330SOL    HW228890   6.084   5.967   6.249
 9331SOL     OW28891   1.379   3.247   4.497
 9331SOL    HW128892   1.474   3.273   4.511
 9331SOL    HW228893   1.330   3.323   4.453
 9332SOL     OW28894   4.620   5.427   0.791
 9332SOL    HW128895   4.702   5.482   0.802
 9332SOL    HW228896   4.539   5.482   0.814
 9333SOL     OW28897   3.550   4.995   0.465
 9333SOL    HW128898   3.640   5.008   0.423
 9333SOL    HW228899   3.562   4.971   0.562
 9334SOL     OW28900   5.353   6.248   5.561
 9334SOL    HW128901   5.274   6.222   5.616
 9334SOL    HW228902   5.352   6.347   5.546
 9335SOL     OW28903   2.444   2.642   1.413
 9335SOL    HW128904   2.450   2.696   1.329
 9335SOL    HW228905   2.358   2.663   1.459
 9336SOL     OW28906   6.837   0.758   5.488
 9336SOL    HW128907   6.745   0.766   5.450
 9336SOL    HW228908   6.902   0.740   5.414
 9337SOL     OW28909   3.168   0.434   6.390
 9337SOL    HW128910   3.094   0.442   6.457
 9337SOL    HW228911   3.225   0.516   6.392
 9338SOL     OW28912   6.320   6.050   0.027
 9338SOL    HW128913   6.361   5.965   0.058
 9338SOL    HW228914   6.231   6.031   7.008
 9339SOL     OW28915   6.185   4.779   5.461
 9339SOL    HW128916   6.260   4.810   5.403
 9339SOL    HW228917   6.218   4.709   5.524
 9340SOL     OW28918   3.900   6.260   2.303
 9340SOL    HW128919   3.835   6.321   2.348
 9340SOL    HW228920   3.939   6.306   2.223
 9341SOL     OW28921   5.431   3.981   0.021
 9341SOL    HW128922   5.451   4.005   6.949
 9341SOL    HW228923   5.511   3.935   0.061
 9342SOL     OW28924   2.735   0.068   4.115
 9342SOL    HW128925   2.733   0.073   4.215
 9342SOL    HW228926   2.794   7.015   4.086
 9343SOL     OW28927   4.769   4.262   1.877
 9343SOL    HW128928   4.701   4.260   1.951
 9343SOL    HW228929   4.738   4.325   1.805
 9344SOL     OW28930   5.993   5.444   4.920
 9344SOL    HW128931   6.053   5.477   4.847
 9344SOL    HW228932   5.987   5.344   4.915
 9345SOL     OW28933   0.131   6.644   0.707
 9345SOL    HW128934   0.048   6.670   0.658
 9345SOL    HW228935   0.135   6.692   0.794
 9346SOL     OW28936   5.473   6.798   1.616
 9346SOL    HW128937   5.538   6.722   1.611
 9346SOL    HW228938   5.424   6.794   1.703
 9347SOL     OW28939   4.296   5.828   0.615
 9347SOL    HW128940   4.355   5.907   0.629
 9347SOL    HW228941   4.317   5.758   0.683
 9348SOL     OW28942   1.958   5.938   2.016
 9348SOL    HW128943   1.894   5.894   2.079
 9348SOL    HW228944   1.932   5.916   1.922
 9349SOL     OW28945   6.175   5.094   1.556
 9349SOL    HW128946   6.128   5.116   1.642
 9349SOL    HW228947   6.107   5.077   1.484
 9350SOL     OW28948   0.141   0.974   5.119
 9350SOL    HW128949   0.237   0.950   5.108
 9350SOL    HW228950   0.087   0.932   5.046
 9351SOL     OW28951   2.999   1.387   5.864
 9351SOL    HW128952   3.064   1.420   5.932
 9351SOL    HW228953   3.046   1.324   5.801
 9352SOL     OW28954   3.308   2.445   6.169
 9352SOL    HW128955   3.228   2.474   6.117
 9352SOL    HW228956   3.388   2.499   6.140
 9353SOL     OW28957   0.999   4.024   1.410
 9353SOL    HW128958   0.907   4.063   1.410
 9353SOL    HW228959   0.999   3.937   1.361
 9354SOL     OW28960   5.590   1.895   1.376
 9354SOL    HW128961   5.641   1.980   1.361
 9354SOL    HW228962   5.519   1.887   1.305
 9355SOL     OW28963   6.732   6.843   3.609
 9355SOL    HW128964   6.651   6.828   3.666
 9355SOL    HW228965   6.809   6.791   3.646
 9356SOL     OW28966   4.396   5.177   2.205
 9356SOL    HW128967   4.362   5.269   2.225
 9356SOL    HW228968   4.495   5.174   2.220
 9357SOL     OW28969   3.099   3.094   1.327
 9357SOL    HW128970   3.005   3.120   1.349
 9357SOL    HW228971   3.154   3.176   1.311
 9358SOL     OW28972   6.341   4.434   2.146
 9358SOL    HW128973   6.349   4.531   2.122
 9358SOL    HW228974   6.417   4.383   2.106
 9359SOL     OW28975   6.904   4.154   6.363
 9359SOL    HW128976   6.995   4.123   6.389
 9359SOL    HW228977   6.847   4.074   6.341
 9360SOL     OW28978   2.360   0.742   6.079
 9360SOL    HW128979   2.301   0.774   6.005
 9360SOL    HW228980   2.426   0.676   6.043
 9361SOL     OW28981   2.876   6.250   1.934
 9361SOL    HW128982   2.892   6.151   1.932
 9361SOL    HW228983   2.934   6.291   2.004
 9362SOL     OW28984   2.364   1.258   2.168
 9362SOL    HW128985   2.384   1.185   2.103
 9362SOL    HW228986   2.273   1.245   2.207
 9363SOL     OW28987   3.302   6.069   3.047
 9363SOL    HW128988   3.222   6.128   3.059
 9363SOL    HW228989   3.366   6.084   3.123
 9364SOL     OW28990   4.447   2.845   6.612
 9364SOL    HW128991   4.475   2.817   6.520
 9364SOL    HW228992   4.470   2.774   6.678
 9365SOL     OW28993   2.657   1.702   5.089
 9365SOL    HW128994   2.675   1.605   5.103
 9365SOL    HW228995   2.667   1.724   4.992
 9366SOL     OW28996   3.488   2.138   0.584
 9366SOL    HW128997   3.437   2.146   0.670
 9366SOL    HW228998   3.584   2.159   0.600
 9367SOL     OW28999   6.867   5.937   3.222
 9367SOL    HW129000   6.839   5.842   3.209
 9367SOL    HW229001   6.892   5.951   3.317
 9368SOL     OW29002   3.268   2.197   1.668
 9368SOL    HW129003   3.353   2.148   1.685
 9368SOL    HW229004   3.216   2.150   1.596
 9369SOL     OW29005   6.794   1.556   5.580
 9369SOL    HW129006   6.884   1.592   5.557
 9369SOL    HW229007   6.737   1.553   5.498
 9370SOL     OW29008   6.103   0.765   2.752
 9370SOL    HW129009   6.173   0.701   2.719
 9370SOL    HW229010   6.030   0.713   2.797
 9371SOL     OW29011   1.118   5.656   0.562
 9371SOL    HW129012   1.114   5.671   0.464
 9371SOL    HW229013   1.157   5.565   0.580
 9372SOL     OW29014   5.593   6.665   3.576
 9372SOL    HW129015   5.540   6.708   3.502
 9372SOL    HW229016   5.624   6.575   3.546
 9373SOL     OW29017   4.278   1.288   3.087
 9373SOL    HW129018   4.182   1.304   3.110
 9373SOL    HW229019   4.291   1.304   2.989
 9374SOL     OW29020   5.639   2.526   0.271
 9374SOL    HW129021   5.714   2.461   0.257
 9374SOL    HW229022   5.673   2.605   0.322
 9375SOL     OW29023   6.626   0.895   2.855
 9375SOL    HW129024   6.626   0.986   2.816
 9375SOL    HW229025   6.661   0.829   2.788
 9376SOL     OW29026   3.032   3.635   0.649
 9376SOL    HW129027   3.086   3.687   0.582
 9376SOL    HW229028   2.940   3.673   0.654
 9377SOL     OW29029   6.587   5.319   4.040
 9377SOL    HW129030   6.558   5.223   4.035
 9377SOL    HW229031   6.672   5.326   4.093
 9378SOL     OW29032   2.753   0.042   6.694
 9378SOL    HW129033   2.768   0.082   6.604
 9378SOL    HW229034   2.749   0.115   6.763
 9379SOL     OW29035   4.609   4.501   3.963
 9379SOL    HW129036   4.525   4.538   3.922
 9379SOL    HW229037   4.596   4.490   4.061
 9380SOL     OW29038   6.534   6.949   5.810
 9380SOL    HW129039   6.632   6.952   5.791
 9380SOL    HW229040   6.491   6.880   5.752
 9381SOL     OW29041   2.652   2.739   5.312
 9381SOL    HW129042   2.694   2.807   5.372
 9381SOL    HW229043   2.558   2.767   5.291
 9382SOL     OW29044   4.187   0.545   2.998
 9382SOL    HW129045   4.191   0.599   3.082
 9382SOL    HW229046   4.277   0.541   2.955
 9383SOL     OW29047   3.308   6.959   4.442
 9383SOL    HW129048   3.286   0.011   4.505
 9383SOL    HW229049   3.374   6.898   4.486
 9384SOL     OW29050   5.019   5.994   2.467
 9384SOL    HW129051   4.952   5.956   2.531
 9384SOL    HW229052   4.981   5.991   2.375
 9385SOL     OW29053   3.778   1.313   3.374
 9385SOL    HW129054   3.845   1.349   3.440
 9385SOL    HW229055   3.689   1.354   3.391
 9386SOL     OW29056   3.720   6.428   5.117
 9386SOL    HW129057   3.778   6.357   5.157
 9386SOL    HW229058   3.671   6.391   5.038
 9387SOL     OW29059   3.325   6.570   1.150
 9387SOL    HW129060   3.416   6.611   1.141
 9387SOL    HW229061   3.260   6.641   1.180
 9388SOL     OW29062   0.683   6.711   2.829
 9388SOL    HW129063   0.771   6.683   2.789
 9388SOL    HW229064   0.609   6.685   2.767
 9389SOL     OW29065   2.408   0.734   5.130
 9389SOL    HW129066   2.462   0.815   5.105
 9389SOL    HW229067   2.466   0.652   5.122
 9390SOL     OW29068   4.327   5.896   3.039
 9390SOL    HW129069   4.405   5.844   3.075
 9390SOL    HW229070   4.358   5.986   3.010
 9391SOL     OW29071   1.508   1.370   5.440
 9391SOL    HW129072   1.412   1.381   5.465
 9391SOL    HW229073   1.560   1.339   5.519
 9392SOL     OW29074   0.679   6.539   5.097
 9392SOL    HW129075   0.655   6.504   5.007
 9392SOL    HW229076   0.773   6.512   5.120
 9393SOL     OW29077   4.118   1.937   5.399
 9393SOL    HW129078   4.020   1.916   5.391
 9393SOL    HW229079   4.159   1.936   5.308
 9394SOL     OW29080   6.264   2.625   3.024
 9394SOL    HW129081   6.322   2.686   2.971
 9394SOL    HW229082   6.169   2.632   2.991
 9395SOL     OW29083   3.001   2.616   0.298
 9395SOL    HW129084   3.055   2.616   0.383
 9395SOL    HW229085   2.905   2.598   0.320
 9396SOL     OW29086   6.836   6.781   4.689
 9396SOL    HW129087   6.910   6.799   4.755
 9396SOL    HW229088   6.759   6.739   4.737
 9397SOL     OW29089   1.890   0.738   0.031
 9397SOL    HW129090   1.940   0.657   0.061
 9397SOL    HW229091   1.811   0.753   0.091
 9398SOL     OW29092   2.479   1.075   6.973
 9398SOL    HW129093   2.496   1.015   0.029
 9398SOL    HW229094   2.550   1.145   6.968
 9399SOL     OW29095   6.672   2.117   6.265
 9399SOL    HW129096   6.675   2.021   6.237
 9399SOL    HW229097   6.760   2.143   6.305
 9400SOL     OW29098   5.267   3.350   1.718
 9400SOL    HW129099   5.176   3.317   1.745
 9400SOL    HW229100   5.329   3.273   1.707
 9401SOL     OW29101   2.405   6.613   3.684
 9401SOL    HW129102   2.436   6.708   3.679
 9401SOL    HW229103   2.319   6.609   3.735
 9402SOL     OW29104   2.456   5.257   6.571
 9402SOL    HW129105   2.521   5.193   6.612
 9402SOL    HW229106   2.504   5.341   6.544
 9403SOL     OW29107   5.395   1.517   3.389
 9403SOL    HW129108   5.351   1.606   3.376
 9403SOL    HW229109   5.480   1.513   3.337
 9404SOL     OW29110   0.562   4.834   6.874
 9404SOL    HW129111   0.632   4.767   6.851
 9404SOL    HW229112   0.482   4.786   6.912
 9405SOL     OW29113   5.857   6.763   1.549
 9405SOL    HW129114   5.857   6.834   1.479
 9405SOL    HW229115   5.843   6.673   1.506
 9406SOL     OW29116   0.006   2.202   5.382
 9406SOL    HW129117   6.985   2.208   5.292
 9406SOL    HW229118   0.092   2.254   5.379
 9407SOL     OW29119   3.070   6.575   3.376
 9407SOL    HW129120   3.048   6.671   3.362
 9407SOL    HW229121   3.015   6.538   3.451
 9408SOL     OW29122   4.057   1.215   6.547
 9408SOL    HW129123   4.003   1.134   6.524
 9408SOL    HW229124   3.997   1.289   6.577
 9409SOL     OW29125   4.978   4.171   4.031
 9409SOL    HW129126   5.047   4.197   3.963
 9409SOL    HW229127   4.901   4.126   3.985
 9410SOL     OW29128   3.672   6.200   2.094
 9410SOL    HW129129   3.752   6.250   2.128
 9410SOL    HW229130   3.597   6.211   2.160
 9411SOL     OW29131   4.090   5.262   0.893
 9411SOL    HW129132   4.185   5.241   0.867
 9411SOL    HW229133   4.064   5.350   0.852
 9412SOL     OW29134   0.758   2.989   1.698
 9412SOL    HW129135   0.811   2.916   1.654
 9412SOL    HW229136   0.821   3.052   1.744
 9413SOL     OW29137   4.160   5.810   5.449
 9413SOL    HW129138   4.095   5.855   5.388
 9413SOL    HW229139   4.160   5.856   5.538
 9414SOL     OW29140   2.917   1.529   2.644
 9414SOL    HW129141   3.007   1.561   2.616
 9414SOL    HW229142   2.873   1.598   2.702
 9415SOL     OW29143   1.421   6.879   2.644
 9415SOL    HW129144   1.387   6.790   2.612
 9415SOL    HW229145   1.469   6.866   2.731
 9416SOL     OW29146   0.689   1.524   1.475
 9416SOL    HW129147   0.780   1.557   1.454
 9416SOL    HW229148   0.678   1.516   1.574
 9417SOL     OW29149   3.172   6.519   5.302
 9417SOL    HW129150   3.074   6.504   5.286
 9417SOL    HW229151   3.194   6.494   5.397
 9418SOL     OW29152   2.456   5.590   0.936
 9418SOL    HW129153   2.531   5.580   0.870
 9418SOL    HW229154   2.485   5.555   1.025
 9419SOL     OW29155   3.499   6.792   5.482
 9419SOL    HW129156   3.485   6.746   5.569
 9419SOL    HW229157   3.521   6.724   5.411
 9420SOL     OW29158   6.949   1.638   4.592
 9420SOL    HW129159   6.911   1.611   4.681
 9420SOL    HW229160   7.014   1.713   4.605
 9421SOL     OW29161   2.253   5.221   5.250
 9421SOL    HW129162   2.317   5.287   5.210
 9421SOL    HW229163   2.299   5.133   5.262
 9422SOL     OW29164   5.482   0.077   2.483
 9422SOL    HW129165   5.427   0.101   2.403
 9422SOL    HW229166   5.517   0.160   2.526
 9423SOL     OW29167   4.394   0.675   3.148
 9423SOL    HW129168   4.386   0.773   3.129
 9423SOL    HW229169   4.442   0.630   3.072
 9424SOL     OW29170   4.995   0.094   5.696
 9424SOL    HW129171   5.004   0.119   5.600
 9424SOL    HW229172   4.928   0.153   5.740
 9425SOL     OW29173   0.566   3.178   5.841
 9425SOL    HW129174   0.632   3.186   5.916
 9425SOL    HW229175   0.486   3.234   5.860
 9426SOL     OW29176   2.865   1.892   0.456
 9426SOL    HW129177   2.771   1.882   0.423
 9426SOL    HW229178   2.926   1.904   0.378
 9427SOL     OW29179   3.011   4.912   4.940
 9427SOL    HW129180   2.988   4.859   5.021
 9427SOL    HW229181   2.939   4.981   4.924
 9428SOL     OW29182   5.969   6.849   2.496
 9428SOL    HW129183   5.883   6.899   2.498
 9428SOL    HW229184   6.038   6.901   2.547
 9429SOL     OW29185   1.378   3.819   2.254
 9429SOL    HW129186   1.457   3.861   2.208
 9429SOL    HW229187   1.393   3.721   2.264
 9430SOL     OW29188   6.453   6.669   2.271
 9430SOL    HW129189   6.498   6.711   2.191
 9430SOL    HW229190   6.360   6.705   2.279
 9431SOL     OW29191   6.247   4.125   0.261
 9431SOL    HW129192   6.279   4.127   0.166
 9431SOL    HW229193   6.157   4.082   0.265
 9432SOL     OW29194   6.225   0.050   3.765
 9432SOL    HW129195   6.248   7.000   3.831
 9432SOL    HW229196   6.132   0.038   3.733
 9433SOL     OW29197   3.433   4.928   4.678
 9433SOL    HW129198   3.370   4.931   4.601
 9433SOL    HW229199   3.385   4.895   4.760
 9434SOL     OW29200   5.613   4.585   3.493
 9434SOL    HW129201   5.693   4.616   3.442
 9434SOL    HW229202   5.553   4.531   3.433
 9435SOL     OW29203   1.611   1.126   4.479
 9435SOL    HW129204   1.665   1.055   4.434
 9435SOL    HW229205   1.517   1.094   4.492
 9436SOL     OW29206   1.323   3.404   1.356
 9436SOL    HW129207   1.419   3.376   1.357
 9436SOL    HW229208   1.286   3.402   1.449
 9437SOL     OW29209   1.286   5.874   3.225
 9437SOL    HW129210   1.380   5.845   3.208
 9437SOL    HW229211   1.224   5.821   3.166
 9438SOL     OW29212   0.963   6.385   1.367
 9438SOL    HW129213   1.012   6.332   1.298
 9438SOL    HW229214   0.999   6.479   1.368
 9439SOL     OW29215   6.665   2.986   2.243
 9439SOL    HW129216   6.671   3.058   2.174
 9439SOL    HW229217   6.712   3.015   2.326
 9440SOL     OW29218   4.827   6.186   4.864
 9440SOL    HW129219   4.885   6.218   4.939
 9440SOL    HW229220   4.863   6.100   4.828
 9441SOL     OW29221   1.262   5.571   5.461
 9441SOL    HW129222   1.301   5.583   5.370
 9441SOL    HW229223   1.245   5.474   5.477
 9442SOL     OW29224   6.463   1.894   0.219
 9442SOL    HW129225   6.383   1.839   0.193
 9442SOL    HW229226   6.455   1.986   0.178
 9443SOL     OW29227   2.062   4.442   1.231
 9443SOL    HW129228   2.093   4.400   1.146
 9443SOL    HW229229   2.048   4.371   1.300
 9444SOL     OW29230   0.381   3.242   6.786
 9444SOL    HW129231   0.300   3.217   6.838
 9444SOL    HW229232   0.456   3.180   6.809
 9445SOL     OW29233   5.000   3.386   2.153
 9445SOL    HW129234   5.043   3.298   2.132
 9445SOL    HW229235   4.950   3.378   2.239
 9446SOL     OW29236   6.564   6.596   3.034
 9446SOL    HW129237   6.537   6.535   2.959
 9446SOL    HW229238   6.506   6.578   3.114
 9447SOL     OW29239   5.607   3.242   2.630
 9447SOL    HW129240   5.528   3.292   2.667
 9447SOL    HW229241   5.589   3.144   2.633
 9448SOL     OW29242   5.233   6.190   6.000
 9448SOL    HW129243   5.214   6.095   6.026
 9448SOL    HW229244   5.213   6.203   5.903
 9449SOL     OW29245   6.805   5.266   5.532
 9449SOL    HW129246   6.712   5.297   5.515
 9449SOL    HW229247   6.825   5.187   5.475
 9450SOL     OW29248   2.723   5.019   4.931
 9450SOL    HW129249   2.704   4.937   4.877
 9450SOL    HW229250   2.715   4.998   5.028
 9451SOL     OW29251   4.857   5.895   6.045
 9451SOL    HW129252   4.871   5.986   6.008
 9451SOL    HW229253   4.931   5.835   6.016
 9452SOL     OW29254   2.093   3.465   0.777
 9452SOL    HW129255   2.088   3.525   0.857
 9452SOL    HW229256   2.036   3.503   0.704
 9453SOL     OW29257   1.872   3.987   3.059
 9453SOL    HW129258   1.846   3.890   3.060
 9453SOL    HW229259   1.790   4.042   3.042
 9454SOL     OW29260   1.385   4.246   6.222
 9454SOL    HW129261   1.309   4.251   6.287
 9454SOL    HW229262   1.404   4.337   6.186
 9455SOL     OW29263   3.339   1.295   2.784
 9455SOL    HW129264   3.277   1.263   2.713
 9455SOL    HW229265   3.429   1.313   2.745
 9456SOL     OW29266   0.406   4.367   0.996
 9456SOL    HW129267   0.427   4.292   1.058
 9456SOL    HW229268   0.397   4.332   0.903
 9457SOL     OW29269   1.961   3.871   6.512
 9457SOL    HW129270   1.959   3.822   6.599
 9457SOL    HW229271   1.871   3.863   6.467
 9458SOL     OW29272   0.504   4.926   5.952
 9458SOL    HW129273   0.570   4.998   5.971
 9458SOL    HW229274   0.542   4.838   5.982
 9459SOL     OW29275   6.281   5.160   1.997
 9459SOL    HW129276   6.341   5.112   1.933
 9459SOL    HW229277   6.321   5.159   2.088
 9460SOL     OW29278   7.004   2.436   5.087
 9460SOL    HW129279   6.924   2.403   5.138
 9460SOL    HW229280   0.058   2.446   5.150
 9461SOL     OW29281   6.808   1.086   3.104
 9461SOL    HW129282   6.804   1.102   3.202
 9461SOL    HW229283   6.716   1.091   3.065
 9462SOL     OW29284   1.910   2.983   3.167
 9462SOL    HW129285   1.855   3.064   3.150
 9462SOL    HW229286   1.919   2.968   3.265
 9463SOL     OW29287   0.003   0.667   0.736
 9463SOL    HW129288   0.017   0.731   0.812
 9463SOL    HW229289   6.978   0.586   0.770
 9464SOL     OW29290   5.650   6.509   6.493
 9464SOL    HW129291   5.612   6.600   6.511
 9464SOL    HW229292   5.575   6.444   6.480
 9465SOL     OW29293   0.107   0.446   3.086
 9465SOL    HW129294   0.017   0.451   3.129
 9465SOL    HW229295   0.096   0.448   2.986
 9466SOL     OW29296   2.950   3.325   5.536
 9466SOL    HW129297   2.938   3.244   5.593
 9466SOL    HW229298   2.907   3.310   5.447
 9467SOL     OW29299   1.657   2.627   1.379
 9467SOL    HW129300   1.642   2.569   1.459
 9467SOL    HW229301   1.651   2.723   1.407
 9468SOL     OW29302   5.719   2.816   6.066
 9468SOL    HW129303   5.796   2.761   6.034
 9468SOL    HW229304   5.671   2.854   5.988
 9469SOL     OW29305   6.210   5.426   2.278
 9469SOL    HW129306   6.138   5.365   2.311
 9469SOL    HW229307   6.185   5.521   2.301
 9470SOL     OW29308   5.086   2.752   6.714
 9470SOL    HW129309   5.005   2.699   6.686
 9470SOL    HW229310   5.125   2.710   6.796
 9471SOL     OW29311   6.637   2.569   5.395
 9471SOL    HW129312   6.629   2.628   5.476
 9471SOL    HW229313   6.659   2.625   5.315
 9472SOL     OW29314   6.771   4.000   4.576
 9472SOL    HW129315   6.694   3.990   4.513
 9472SOL    HW229316   6.826   3.916   4.574
 9473SOL     OW29317   3.697   6.698   5.187
 9473SOL    HW129318   3.708   6.758   5.108
 9473SOL    HW229319   3.693   6.603   5.157
 9474SOL     OW29320   5.794   4.553   1.942
 9474SOL    HW129321   5.732   4.604   1.882
 9474SOL    HW229322   5.849   4.489   1.888
 9475SOL     OW29323   3.490   3.458   0.914
 9475SOL    HW129324   3.492   3.419   1.006
 9475SOL    HW229325   3.547   3.540   0.910
 9476SOL     OW29326   3.186   3.179   4.850
 9476SOL    HW129327   3.135   3.255   4.809
 9476SOL    HW229328   3.240   3.213   4.928
 9477SOL     OW29329   0.843   3.285   1.171
 9477SOL    HW129330   0.878   3.320   1.258
 9477SOL    HW229331   0.797   3.198   1.186
 9478SOL     OW29332   5.177   3.655   5.879
 9478SOL    HW129333   5.159   3.688   5.972
 9478SOL    HW229334   5.247   3.584   5.882
 9479SOL     OW29335   6.017   5.696   6.365
 9479SOL    HW129336   5.946   5.626   6.371
 9479SOL    HW229337   6.053   5.698   6.271
 9480SOL     OW29338   4.212   4.492   6.541
 9480SOL    HW129339   4.217   4.588   6.514
 9480SOL    HW229340   4.188   4.436   6.462
 9481SOL     OW29341   6.526   4.004   1.944
 9481SOL    HW129342   6.548   3.976   2.038
 9481SOL    HW229343   6.611   4.016   1.892
 9482SOL     OW29344   5.924   0.834   3.109
 9482SOL    HW129345   5.992   0.907   3.102
 9482SOL    HW229346   5.959   0.762   3.169
 9483SOL     OW29347   1.803   1.724   0.671
 9483SOL    HW129348   1.817   1.781   0.752
 9483SOL    HW229349   1.871   1.650   0.670
 9484SOL     OW29350   6.180   1.481   3.651
 9484SOL    HW129351   6.111   1.515   3.587
 9484SOL    HW229352   6.138   1.417   3.715
 9485SOL     OW29353   1.494   0.359   1.745
 9485SOL    HW129354   1.445   0.282   1.703
 9485SOL    HW229355   1.465   0.445   1.703
 9486SOL     OW29356   2.151   5.240   0.854
 9486SOL    HW129357   2.123   5.183   0.931
 9486SOL    HW229358   2.070   5.275   0.807
 9487SOL     OW29359   3.144   4.044   3.376
 9487SOL    HW129360   3.193   4.100   3.443
 9487SOL    HW229361   3.156   4.084   3.285
 9488SOL     OW29362   1.904   6.360   1.139
 9488SOL    HW129363   1.965   6.382   1.216
 9488SOL    HW229364   1.855   6.275   1.160
 9489SOL     OW29365   3.593   4.329   0.966
 9489SOL    HW129366   3.639   4.286   1.043
 9489SOL    HW229367   3.578   4.426   0.985
 9490SOL     OW29368   5.587   0.203   1.190
 9490SOL    HW129369   5.657   0.210   1.261
 9490SOL    HW229370   5.577   0.291   1.144
 9491SOL     OW29371   6.913   4.805   4.917
 9491SOL    HW129372   6.904   4.879   4.851
 9491SOL    HW229373   6.967   4.837   4.995
 9492SOL     OW29374   3.283   3.669   2.482
 9492SOL    HW129375   3.346   3.591   2.477
 9492SOL    HW229376   3.260   3.700   2.390
 9493SOL     OW29377   4.754   5.040   3.870
 9493SOL    HW129378   4.748   4.942   3.887
 9493SOL    HW229379   4.684   5.087   3.924
 9494SOL     OW29380   5.232   3.889   0.759
 9494SOL    HW129381   5.254   3.983   0.783
 9494SOL    HW229382   5.150   3.888   0.701
 9495SOL     OW29383   6.456   2.132   3.595
 9495SOL    HW129384   6.419   2.143   3.503
 9495SOL    HW229385   6.475   2.035   3.613
 9496SOL     OW29386   5.217   4.357   6.604
 9496SOL    HW129387   5.149   4.287   6.624
 9496SOL    HW229388   5.172   4.446   6.598
 9497SOL     OW29389   3.935   4.232   1.023
 9497SOL    HW129390   4.032   4.212   1.011
 9497SOL    HW229391   3.924   4.319   1.070
 9498SOL     OW29392   4.730   6.977   5.615
 9498SOL    HW129393   4.731   0.046   5.655
 9498SOL    HW229394   4.737   6.909   5.688
 9499SOL     OW29395   2.084   3.848   5.855
 9499SOL    HW129396   2.155   3.828   5.922
 9499SOL    HW229397   2.103   3.798   5.770
 9500SOL     OW29398   3.683   6.664   1.638
 9500SOL    HW129399   3.716   6.571   1.656
 9500SOL    HW229400   3.705   6.689   1.544
 9501SOL     OW29401   3.614   2.102   4.836
 9501SOL    HW129402   3.574   2.153   4.760
 9501SOL    HW229403   3.713   2.098   4.824
 9502SOL     OW29404   6.902   2.258   4.902
 9502SOL    HW129405   6.803   2.270   4.894
 9502SOL    HW229406   6.942   2.341   4.942
 9503SOL     OW29407   6.993   1.086   1.120
 9503SOL    HW129408   0.068   1.063   1.112
 9503SOL    HW229409   6.959   1.053   1.208
 9504SOL     OW29410   6.588   2.678   1.120
 9504SOL    HW129411   6.571   2.582   1.098
 9504SOL    HW229412   6.671   2.685   1.175
 9505SOL     OW29413   5.904   4.071   3.740
 9505SOL    HW129414   5.890   4.157   3.690
 9505SOL    HW229415   5.945   4.003   3.679
 9506SOL     OW29416   0.114   3.170   6.865
 9506SOL    HW129417   0.081   3.160   6.771
 9506SOL    HW229418   0.060   3.239   6.912
 9507SOL     OW29419   2.212   1.150   4.252
 9507SOL    HW129420   2.269   1.119   4.176
 9507SOL    HW229421   2.165   1.235   4.225
 9508SOL     OW29422   5.349   2.587   0.428
 9508SOL    HW129423   5.439   2.543   0.436
 9508SOL    HW229424   5.358   2.672   0.377
 9509SOL     OW29425   1.364   6.665   5.580
 9509SOL    HW129426   1.293   6.609   5.537
 9509SOL    HW229427   1.331   6.759   5.591
 9510SOL     OW29428   0.267   3.794   2.012
 9510SOL    HW129429   0.359   3.756   2.009
 9510SOL    HW229430   0.248   3.843   1.927
 9511SOL     OW29431   0.755   1.961   0.313
 9511SOL    HW129432   0.668   1.964   0.363
 9511SOL    HW229433   0.738   1.927   0.220
 9512SOL     OW29434   6.537   1.892   3.694
 9512SOL    HW129435   6.626   1.847   3.698
 9512SOL    HW229436   6.465   1.823   3.684
 9513SOL     OW29437   1.787   3.748   4.773
 9513SOL    HW129438   1.803   3.846   4.772
 9513SOL    HW229439   1.777   3.717   4.867
 9514SOL     OW29440   1.585   3.671   6.851
 9514SOL    HW129441   1.561   3.758   6.894
 9514SOL    HW229442   1.587   3.599   6.921
 9515SOL     OW29443   1.189   5.800   0.052
 9515SOL    HW129444   1.242   5.736   7.019
 9515SOL    HW229445   1.174   5.884   0.001
 9516SOL     OW29446   4.901   3.324   4.089
 9516SOL    HW129447   4.875   3.302   4.182
 9516SOL    HW229448   4.977   3.265   4.060
 9517SOL     OW29449   1.235   5.009   1.121
 9517SOL    HW129450   1.332   5.012   1.143
 9517SOL    HW229451   1.182   5.032   1.202
 9518SOL     OW29452   1.720   2.268   6.277
 9518SOL    HW129453   1.766   2.214   6.348
 9518SOL    HW229454   1.766   2.255   6.189
 9519SOL     OW29455   2.989   3.276   3.259
 9519SOL    HW129456   2.994   3.205   3.188
 9519SOL    HW229457   2.960   3.362   3.218
 9520SOL     OW29458   6.811   1.212   4.423
 9520SOL    HW129459   6.839   1.125   4.464
 9520SOL    HW229460   6.888   1.276   4.426
 9521SOL     OW29461   3.036   5.057   1.815
 9521SOL    HW129462   3.019   4.958   1.819
 9521SOL    HW229463   2.948   5.106   1.822
 9522SOL     OW29464   4.305   5.244   2.602
 9522SOL    HW129465   4.374   5.314   2.583
 9522SOL    HW229466   4.316   5.169   2.537
 9523SOL     OW29467   2.422   5.391   5.133
 9523SOL    HW129468   2.422   5.368   5.036
 9523SOL    HW229469   2.464   5.480   5.147
 9524SOL     OW29470   1.549   3.342   1.892
 9524SOL    HW129471   1.479   3.374   1.955
 9524SOL    HW229472   1.633   3.394   1.906
 9525SOL     OW29473   2.150   1.623   5.866
 9525SOL    HW129474   2.221   1.600   5.800
 9525SOL    HW229475   2.129   1.720   5.860
 9526SOL     OW29476   5.421   4.933   0.661
 9526SOL    HW129477   5.483   4.862   0.629
 9526SOL    HW229478   5.387   4.909   0.752
 9527SOL     OW29479   2.618   6.751   4.408
 9527SOL    HW129480   2.543   6.793   4.357
 9527SOL    HW229481   2.675   6.698   4.346
 9528SOL     OW29482   6.157   1.333   1.719
 9528SOL    HW129483   6.087   1.326   1.790
 9528SOL    HW229484   6.175   1.242   1.682
 9529SOL     OW29485   5.632   3.765   1.027
 9529SOL    HW129486   5.555   3.807   0.979
 9529SOL    HW229487   5.597   3.714   1.106
 9530SOL     OW29488   1.260   5.297   4.395
 9530SOL    HW129489   1.274   5.199   4.404
 9530SOL    HW229490   1.306   5.344   4.471
 9531SOL     OW29491   3.948   4.914   2.852
 9531SOL    HW129492   4.022   4.944   2.792
 9531SOL    HW229493   3.985   4.865   2.930
 9532SOL     OW29494   6.443   5.114   1.525
 9532SOL    HW129495   6.463   5.191   1.465
 9532SOL    HW229496   6.344   5.106   1.537
 9533SOL     OW29497   0.910   5.965   4.293
 9533SOL    HW129498   0.957   6.038   4.341
 9533SOL    HW229499   0.826   6.000   4.251
 9534SOL     OW29500   6.242   3.923   5.221
 9534SOL    HW129501   6.193   3.838   5.241
 9534SOL    HW229502   6.181   3.986   5.174
 9535SOL     OW29503   2.204   1.821   5.437
 9535SOL    HW129504   2.131   1.759   5.467
 9535SOL    HW229505   2.293   1.778   5.452
 9536SOL     OW29506   3.610   3.069   4.658
 9536SOL    HW129507   3.600   3.146   4.721
 9536SOL    HW229508   3.520   3.032   4.637
 9537SOL     OW29509   2.824   1.555   4.026
 9537SOL    HW129510   2.775   1.642   4.032
 9537SOL    HW229511   2.896   1.553   4.095
 9538SOL     OW29512   4.288   0.969   4.382
 9538SOL    HW129513   4.254   1.062   4.372
 9538SOL    HW229514   4.224   0.916   4.438
 9539SOL     OW29515   3.082   3.155   4.280
 9539SOL    HW129516   2.984   3.166   4.292
 9539SOL    HW229517   3.102   3.131   4.185
 9540SOL     OW29518   4.780   5.491   4.106
 9540SOL    HW129519   4.758   5.504   4.010
 9540SOL    HW229520   4.807   5.396   4.122
 9541SOL     OW29521   1.424   0.956   5.553
 9541SOL    HW129522   1.464   0.867   5.532
 9541SOL    HW229523   1.462   1.025   5.491
 9542SOL     OW29524   5.546   4.784   4.975
 9542SOL    HW129525   5.534   4.747   4.883
 9542SOL    HW229526   5.595   4.871   4.970
 9543SOL     OW29527   2.850   0.535   5.799
 9543SOL    HW129528   2.778   0.468   5.779
 9543SOL    HW229529   2.904   0.552   5.717
 9544SOL     OW29530   4.805   3.965   3.988
 9544SOL    HW129531   4.845   3.919   3.909
 9544SOL    HW229532   4.710   3.933   4.000
 9545SOL     OW29533   0.115   5.747   2.119
 9545SOL    HW129534   0.209   5.771   2.141
 9545SOL    HW229535   0.110   5.715   2.024
 9546SOL     OW29536   3.782   1.952   5.653
 9546SOL    HW129537   3.836   1.884   5.702
 9546SOL    HW229538   3.807   1.950   5.556
 9547SOL     OW29539   2.579   5.729   3.952
 9547SOL    HW129540   2.637   5.793   3.902
 9547SOL    HW229541   2.499   5.707   3.896
 9548SOL     OW29542   0.792   5.876   4.633
 9548SOL    HW129543   0.849   5.928   4.569
 9548SOL    HW229544   0.848   5.809   4.680
 9549SOL     OW29545   3.309   0.591   2.528
 9549SOL    HW129546   3.356   0.644   2.457
 9549SOL    HW229547   3.375   0.532   2.575
 9550SOL     OW29548   6.166   2.638   0.709
 9550SOL    HW129549   6.142   2.549   0.748
 9550SOL    HW229550   6.093   2.669   0.648
 9551SOL     OW29551   6.111   3.269   6.163
 9551SOL    HW129552   6.155   3.241   6.078
 9551SOL    HW229553   6.176   3.260   6.239
 9552SOL     OW29554   2.213   0.145   5.874
 9552SOL    HW129555   2.215   0.232   5.824
 9552SOL    HW229556   2.298   0.095   5.857
 9553SOL     OW29557   5.349   1.895   0.122
 9553SOL    HW129558   5.440   1.936   0.113
 9553SOL    HW229559   5.333   1.834   0.043
 9554SOL     OW29560   2.126   6.838   3.685
 9554SOL    HW129561   2.123   6.777   3.606
 9554SOL    HW229562   2.033   6.848   3.723
 9555SOL     OW29563   0.389   1.457   3.228
 9555SOL    HW129564   0.462   1.424   3.169
 9555SOL    HW229565   0.428   1.485   3.316
 9556SOL     OW29566   1.935   4.625   1.419
 9556SOL    HW129567   2.026   4.624   1.377
 9556SOL    HW229568   1.910   4.532   1.449
 9557SOL     OW29569   4.863   6.982   1.520
 9557SOL    HW129570   4.873   6.982   1.619
 9557SOL    HW229571   4.917   0.034   1.481
 9558SOL     OW29572   5.452   6.506   5.327
 9558SOL    HW129573   5.436   6.535   5.422
 9558SOL    HW229574   5.516   6.429   5.326
 9559SOL     OW29575   1.107   3.937   6.898
 9559SOL    HW129576   1.057   3.866   6.949
 9559SOL    HW229577   1.174   3.980   6.958
 9560SOL     OW29578   2.309   0.909   2.449
 9560SOL    HW129579   2.284   0.826   2.399
 9560SOL    HW229580   2.228   0.964   2.465
 9561SOL     OW29581   0.400   0.753   1.483
 9561SOL    HW129582   0.449   0.840   1.492
 9561SOL    HW229583   0.303   0.768   1.504
 9562SOL     OW29584   2.511   6.524   3.970
 9562SOL    HW129585   2.537   6.446   4.027
 9562SOL    HW229586   2.459   6.589   4.024
 9563SOL     OW29587   0.187   6.359   0.027
 9563SOL    HW129588   0.254   6.294   0.062
 9563SOL    HW229589   0.131   6.393   0.102
 9564SOL     OW29590   2.293   1.573   0.678
 9564SOL    HW129591   2.269   1.662   0.641
 9564SOL    HW229592   2.393   1.567   0.687
 9565SOL     OW29593   3.244   1.504   4.641
 9565SOL    HW129594   3.252   1.512   4.541
 9565SOL    HW229595   3.336   1.502   4.681
 9566SOL     OW29596   2.690   5.757   0.026
 9566SOL    HW129597   2.665   5.815   0.103
 9566SOL    HW229598   2.752   5.808   6.988
 9567SOL     OW29599   5.948   4.094   0.793
 9567SOL    HW129600   5.902   4.014   0.754
 9567SOL    HW229601   6.001   4.065   0.873
 9568SOL     OW29602   4.366   1.360   0.200
 9568SOL    HW129603   4.357   1.395   0.107
 9568SOL    HW229604   4.339   1.263   0.202
 9569SOL     OW29605   0.248   0.829   1.935
 9569SOL    HW129606   0.170   0.818   1.873
 9569SOL    HW229607   0.298   0.743   1.941
 9570SOL     OW29608   0.225   2.857   0.726
 9570SOL    HW129609   0.218   2.902   0.637
 9570SOL    HW229610   0.236   2.759   0.713
 9571SOL     OW29611   2.861   2.664   5.902
 9571SOL    HW129612   2.903   2.585   5.947
 9571SOL    HW229613   2.771   2.639   5.866
 9572SOL     OW29614   1.851   4.945   2.601
 9572SOL    HW129615   1.824   4.986   2.514
 9572SOL    HW229616   1.924   4.878   2.584
 9573SOL     OW29617   6.799   1.190   6.247
 9573SOL    HW129618   6.850   1.123   6.193
 9573SOL    HW229619   6.780   1.270   6.191
 9574SOL     OW29620   3.529   2.832   2.239
 9574SOL    HW129621   3.512   2.735   2.219
 9574SOL    HW229622   3.556   2.879   2.155
 9575SOL     OW29623   6.486   1.032   1.775
 9575SOL    HW129624   6.493   1.094   1.697
 9575SOL    HW229625   6.576   0.994   1.796
 9576SOL     OW29626   1.573   2.266   0.067
 9576SOL    HW129627   1.506   2.202   0.103
 9576SOL    HW229628   1.612   2.320   0.142
 9577SOL     OW29629   0.490   6.310   6.014
 9577SOL    HW129630   0.496   6.392   5.958
 9577SOL    HW229631   0.402   6.265   5.999
 9578SOL     OW29632   1.544   2.675   2.616
 9578SOL    HW129633   1.450   2.646   2.601
 9578SOL    HW229634   1.602   2.595   2.633
 9579SOL     OW29635   0.092   6.043   3.021
 9579SOL    HW129636   0.034   5.997   2.954
 9579SOL    HW229637   0.079   6.142   3.016
 9580SOL     OW29638   5.332   3.778   1.426
 9580SOL    HW129639   5.280   3.752   1.507
 9580SOL    HW229640   5.382   3.863   1.443
 9581SOL     OW29641   0.729   6.816   6.553
 9581SOL    HW129642   0.704   6.859   6.640
 9581SOL    HW229643   0.650   6.766   6.517
 9582SOL     OW29644   3.955   6.012   4.733
 9582SOL    HW129645   3.962   5.923   4.687
 9582SOL    HW229646   3.865   6.051   4.716
 9583SOL     OW29647   2.959   4.285   1.506
 9583SOL    HW129648   2.914   4.240   1.429
 9583SOL    HW229649   3.014   4.218   1.556
 9584SOL     OW29650   0.996   5.010   5.982
 9584SOL    HW129651   0.970   4.951   6.058
 9584SOL    HW229652   1.095   5.008   5.970
 9585SOL     OW29653   5.241   6.630   2.995
 9585SOL    HW129654   5.219   6.675   3.082
 9585SOL    HW229655   5.257   6.699   2.925
 9586SOL     OW29656   4.486   5.450   2.517
 9586SOL    HW129657   4.518   5.528   2.571
 9586SOL    HW229658   4.560   5.385   2.506
 9587SOL     OW29659   1.171   0.053   1.872
 9587SOL    HW129660   1.161   6.991   1.820
 9587SOL    HW229661   1.260   0.053   1.917
 9588SOL     OW29662   6.100   6.152   0.486
 9588SOL    HW129663   6.117   6.186   0.394
 9588SOL    HW229664   6.004   6.123   0.494
 9589SOL     OW29665   1.460   3.994   6.807
 9589SOL    HW129666   1.424   4.059   6.874
 9589SOL    HW229667   1.553   3.969   6.833
 9590SOL     OW29668   6.299   2.594   1.644
 9590SOL    HW129669   6.356   2.578   1.563
 9590SOL    HW229670   6.288   2.509   1.695
 9591SOL     OW29671   3.717   5.534   6.273
 9591SOL    HW129672   3.742   5.495   6.362
 9591SOL    HW229673   3.773   5.493   6.201
 9592SOL     OW29674   3.356   5.058   1.229
 9592SOL    HW129675   3.438   5.013   1.266
 9592SOL    HW229676   3.275   5.006   1.255
 9593SOL     OW29677   0.966   1.578   6.176
 9593SOL    HW129678   0.987   1.578   6.078
 9593SOL    HW229679   0.995   1.491   6.216
 9594SOL     OW29680   2.540   5.965   4.821
 9594SOL    HW129681   2.571   5.872   4.801
 9594SOL    HW229682   2.523   5.974   4.919
 9595SOL     OW29683   0.310   2.512   3.861
 9595SOL    HW129684   0.404   2.488   3.838
 9595SOL    HW229685   0.283   2.463   3.944
 9596SOL     OW29686   0.789   5.216   0.262
 9596SOL    HW129687   0.785   5.121   0.293
 9596SOL    HW229688   0.861   5.265   0.311
 9597SOL     OW29689   0.039   4.477   1.561
 9597SOL    HW129690   6.968   4.449   1.541
 9597SOL    HW229691   0.061   4.454   1.655
 9598SOL     OW29692   2.096   4.301   3.535
 9598SOL    HW129693   2.164   4.328   3.467
 9598SOL    HW229694   2.139   4.299   3.626
 9599SOL     OW29695   2.885   0.367   3.668
 9599SOL    HW129696   2.886   0.311   3.751
 9599SOL    HW229697   2.829   0.323   3.599
 9600SOL     OW29698   3.096   0.572   6.639
 9600SOL    HW129699   3.167   0.618   6.694
 9600SOL    HW229700   3.093   0.475   6.663
 9601SOL     OW29701   5.328   4.571   0.402
 9601SOL    HW129702   5.315   4.613   0.312
 9601SOL    HW229703   5.248   4.516   0.425
 9602SOL     OW29704   5.399   3.791   6.296
 9602SOL    HW129705   5.418   3.804   6.393
 9602SOL    HW229706   5.385   3.879   6.252
 9603SOL     OW29707   4.546   0.249   6.612
 9603SOL    HW129708   4.514   0.328   6.664
 9603SOL    HW229709   4.628   0.211   6.654
 9604SOL     OW29710   4.995   0.068   1.052
 9604SOL    HW129711   4.973   7.010   1.107
 9604SOL    HW229712   4.955   0.057   0.960
 9605SOL     OW29713   1.506   5.444   3.632
 9605SOL    HW129714   1.425   5.397   3.597
 9605SOL    HW229715   1.573   5.456   3.558
 9606SOL     OW29716   1.682   6.631   6.488
 9606SOL    HW129717   1.724   6.631   6.398
 9606SOL    HW229718   1.754   6.635   6.558
 9607SOL     OW29719   2.634   1.425   6.938
 9607SOL    HW129720   2.707   1.492   6.922
 9607SOL    HW229721   2.651   1.377   0.001
 9608SOL     OW29722   0.134   4.382   1.825
 9608SOL    HW129723   0.146   4.283   1.834
 9608SOL    HW229724   0.214   4.421   1.780
 9609SOL     OW29725   3.248   3.166   0.414
 9609SOL    HW129726   3.233   3.265   0.424
 9609SOL    HW229727   3.175   3.117   0.461
 9610SOL     OW29728   1.686   4.666   3.321
 9610SOL    HW129729   1.589   4.676   3.299
 9610SOL    HW229730   1.714   4.739   3.383
 9611SOL     OW29731   1.032   6.302   0.706
 9611SOL    HW129732   1.071   6.377   0.651
 9611SOL    HW229733   0.943   6.330   0.742
 9612SOL     OW29734   0.253   3.232   1.918
 9612SOL    HW129735   0.222   3.326   1.907
 9612SOL    HW229736   0.349   3.225   1.890
 9613SOL     OW29737   4.651   6.536   3.568
 9613SOL    HW129738   4.640   6.611   3.634
 9613SOL    HW229739   4.733   6.484   3.591
 9614SOL     OW29740   3.882   2.078   1.817
 9614SOL    HW129741   3.879   2.025   1.902
 9614SOL    HW229742   3.831   2.163   1.829
 9615SOL     OW29743   2.352   0.767   1.518
 9615SOL    HW129744   2.296   0.708   1.576
 9615SOL    HW229745   2.362   0.726   1.427
 9616SOL     OW29746   3.422   4.075   1.244
 9616SOL    HW129747   3.493   4.042   1.183
 9616SOL    HW229748   3.432   4.174   1.256
 9617SOL     OW29749   1.888   2.756   3.383
 9617SOL    HW129750   1.904   2.842   3.430
 9617SOL    HW229751   1.798   2.757   3.339
 9618SOL     OW29752   2.691   0.140   0.525
 9618SOL    HW129753   2.703   0.103   0.433
 9618SOL    HW229754   2.761   0.103   0.586
 9619SOL     OW29755   2.124   0.449   6.571
 9619SOL    HW129756   2.044   0.397   6.600
 9619SOL    HW229757   2.112   0.478   6.476
 9620SOL     OW29758   4.523   6.953   5.970
 9620SOL    HW129759   4.555   7.002   5.890
 9620SOL    HW229760   4.596   6.948   6.038
 9621SOL     OW29761   1.865   2.913   2.029
 9621SOL    HW129762   1.770   2.935   2.009
 9621SOL    HW229763   1.888   2.824   1.991
 9622SOL     OW29764   0.179   1.556   0.418
 9622SOL    HW129765   0.126   1.638   0.439
 9622SOL    HW229766   0.195   1.504   0.502
 9623SOL     OW29767   2.734   3.674   5.420
 9623SOL    HW129768   2.812   3.611   5.416
 9623SOL    HW229769   2.723   3.707   5.514
 9624SOL     OW29770   6.671   4.277   3.053
 9624SOL    HW129771   6.759   4.321   3.038
 9624SOL    HW229772   6.679   4.209   3.125
 9625SOL     OW29773   4.830   5.586   7.000
 9625SOL    HW129774   4.929   5.585   7.013
 9625SOL    HW229775   4.806   5.530   6.921
 9626SOL     OW29776   4.708   5.146   0.751
 9626SOL    HW129777   4.794   5.135   0.702
 9626SOL    HW229778   4.680   5.242   0.747
 9627SOL     OW29779   0.444   5.532   5.501
 9627SOL    HW129780   0.430   5.471   5.579
 9627SOL    HW229781   0.541   5.553   5.493
 9628SOL     OW29782   5.007   4.965   0.879
 9628SOL    HW129783   5.058   4.966   0.793
 9628SOL    HW229784   5.070   4.946   0.954
 9629SOL     OW29785   1.110   0.372   1.218
 9629SOL    HW129786   1.120   0.413   1.308
 9629SOL    HW229787   1.098   0.273   1.227
 9630SOL     OW29788   6.258   6.943   4.463
 9630SOL    HW129789   6.173   6.925   4.413
 9630SOL    HW229790   6.237   6.997   4.545
 9631SOL     OW29791   0.073   6.686   6.676
 9631SOL    HW129792   0.043   6.613   6.737
 9631SOL    HW229793   0.066   6.774   6.723
 9632SOL     OW29794   1.720   0.347   3.035
 9632SOL    HW129795   1.645   0.341   3.102
 9632SOL    HW229796   1.689   0.401   2.956
 9633SOL     OW29797   4.853   5.232   6.226
 9633SOL    HW129798   4.893   5.156   6.174
 9633SOL    HW229799   4.796   5.287   6.166
 9634SOL     OW29800   1.679   6.351   3.948
 9634SOL    HW129801   1.636   6.348   4.038
 9634SOL    HW229802   1.738   6.271   3.936
 9635SOL     OW29803   1.731   6.039   5.186
 9635SOL    HW129804   1.799   6.110   5.167
 9635SOL    HW229805   1.776   5.963   5.233
 9636SOL     OW29806   4.296   1.574   5.600
 9636SOL    HW129807   4.260   1.548   5.690
 9636SOL    HW229808   4.239   1.535   5.528
 9637SOL     OW29809   2.726   2.545   6.273
 9637SOL    HW129810   2.798   2.475   6.274
 9637SOL    HW229811   2.647   2.511   6.223
 9638SOL     OW29812   0.231   3.623   6.312
 9638SOL    HW129813   0.149   3.666   6.351
 9638SOL    HW229814   0.309   3.685   6.323
 9639SOL     OW29815   3.861   1.527   2.143
 9639SOL    HW129816   3.885   1.615   2.103
 9639SOL    HW229817   3.774   1.496   2.105
 9640SOL     OW29818   1.988   2.309   3.798
 9640SOL    HW129819   1.903   2.357   3.822
 9640SOL    HW229820   2.002   2.233   3.862
 9641SOL     OW29821   4.242   6.619   0.649
 9641SOL    HW129822   4.238   6.692   0.582
 9641SOL    HW229823   4.150   6.598   0.682
 9642SOL     OW29824   3.214   6.937   4.800
 9642SOL    HW129825   3.155   6.862   4.771
 9642SOL    HW229826   3.212   7.010   4.733
 9643SOL     OW29827   5.354   4.928   4.036
 9643SOL    HW129828   5.277   4.984   4.007
 9643SOL    HW229829   5.426   4.932   3.968
 9644SOL     OW29830   1.079   4.143   6.128
 9644SOL    HW129831   1.039   4.122   6.217
 9644SOL    HW229832   1.136   4.066   6.098
 9645SOL     OW29833   2.753   5.292   4.805
 9645SOL    HW129834   2.740   5.197   4.833
 9645SOL    HW229835   2.692   5.313   4.728
 9646SOL     OW29836   3.153   5.029   2.315
 9646SOL    HW129837   3.122   5.077   2.232
 9646SOL    HW229838   3.206   5.092   2.371
 9647SOL     OW29839   6.196   5.022   1.208
 9647SOL    HW129840   6.222   5.036   1.112
 9647SOL    HW229841   6.277   4.993   1.260
 9648SOL     OW29842   4.303   1.178   0.899
 9648SOL    HW129843   4.346   1.268   0.889
 9648SOL    HW229844   4.204   1.188   0.887
 9649SOL     OW29845   2.924   0.122   0.069
 9649SOL    HW129846   2.872   0.085   0.146
 9649SOL    HW229847   2.881   0.206   0.037
 9650SOL     OW29848   6.374   5.205   2.242
 9650SOL    HW129849   6.464   5.247   2.234
 9650SOL    HW229850   6.310   5.272   2.281
 9651SOL     OW29851   6.940   1.980   5.836
 9651SOL    HW129852   6.980   1.939   5.918
 9651SOL    HW229853   6.851   1.939   5.818
 9652SOL     OW29854   1.575   4.412   1.329
 9652SOL    HW129855   1.618   4.386   1.416
 9652SOL    HW229856   1.508   4.343   1.303
 9653SOL     OW29857   4.272   4.864   4.998
 9653SOL    HW129858   4.344   4.901   4.939
 9653SOL    HW229859   4.267   4.765   4.986
 9654SOL     OW29860   3.038   2.432   0.977
 9654SOL    HW129861   2.943   2.463   0.983
 9654SOL    HW229862   3.053   2.385   0.890
 9655SOL     OW29863   0.380   1.159   6.533
 9655SOL    HW129864   0.367   1.258   6.529
 9655SOL    HW229865   0.302   1.114   6.490
 9656SOL     OW29866   2.341   0.676   2.015
 9656SOL    HW129867   2.356   0.738   2.092
 9656SOL    HW229868   2.411   0.693   1.945
 9657SOL     OW29869   5.329   0.767   4.308
 9657SOL    HW129870   5.307   0.743   4.213
 9657SOL    HW229871   5.262   0.725   4.369
 9658SOL     OW29872   0.041   1.911   2.756
 9658SOL    HW129873   7.003   1.981   2.793
 9658SOL    HW229874   0.136   1.934   2.774
 9659SOL     OW29875   6.514   4.403   0.538
 9659SOL    HW129876   6.552   4.396   0.446
 9659SOL    HW229877   6.414   4.408   0.532
 9660SOL     OW29878   0.506   5.706   0.553
 9660SOL    HW129879   0.514   5.773   0.627
 9660SOL    HW229880   0.440   5.635   0.579
 9661SOL     OW29881   4.499   5.439   1.456
 9661SOL    HW129882   4.434   5.425   1.382
 9661SOL    HW229883   4.449   5.459   1.541
 9662SOL     OW29884   6.608   3.147   4.583
 9662SOL    HW129885   6.527   3.123   4.530
 9662SOL    HW229886   6.583   3.209   4.658
 9663SOL     OW29887   1.647   5.618   4.079
 9663SOL    HW129888   1.656   5.536   4.135
 9663SOL    HW229889   1.564   5.612   4.023
 9664SOL     OW29890   4.895   0.044   2.750
 9664SOL    HW129891   4.945   0.067   2.666
 9664SOL    HW229892   4.870   0.129   2.797
 9665SOL     OW29893   5.809   4.869   5.718
 9665SOL    HW129894   5.741   4.931   5.678
 9665SOL    HW229895   5.898   4.914   5.720
 9666SOL     OW29896   5.900   3.995   1.674
 9666SOL    HW129897   5.846   4.035   1.600
 9666SOL    HW229898   5.843   3.984   1.755
 9667SOL     OW29899   4.020   3.248   4.529
 9667SOL    HW129900   3.983   3.160   4.558
 9667SOL    HW229901   4.066   3.292   4.607
 9668SOL     OW29902   6.659   1.757   6.212
 9668SOL    HW129903   6.618   1.676   6.255
 9668SOL    HW229904   6.741   1.783   6.262
 9669SOL     OW29905   0.749   1.264   0.917
 9669SOL    HW129906   0.706   1.324   0.851
 9669SOL    HW229907   0.770   1.315   1.000
 9670SOL     OW29908   4.214   4.562   5.691
 9670SOL    HW129909   4.168   4.511   5.763
 9670SOL    HW229910   4.250   4.648   5.728
 9671SOL     OW29911   0.298   4.996   6.115
 9671SOL    HW129912   0.245   5.050   6.050
 9671SOL    HW229913   0.377   4.955   6.069
 9672SOL     OW29914   1.011   6.909   5.066
 9672SOL    HW129915   0.972   7.001   5.070
 9672SOL    HW229916   1.023   6.882   4.970
 9673SOL     OW29917   4.075   4.623   7.015
 9673SOL    HW129918   4.110   4.711   0.027
 9673SOL    HW229919   4.141   4.584   6.951
 9674SOL     OW29920   2.652   6.192   2.676
 9674SOL    HW129921   2.589   6.252   2.628
 9674SOL    HW229922   2.743   6.233   2.678
 9675SOL     OW29923   5.970   0.852   2.496
 9675SOL    HW129924   6.005   0.914   2.426
 9675SOL    HW229925   6.012   0.875   2.584
 9676SOL     OW29926   1.413   3.709   5.645
 9676SOL    HW129927   1.469   3.677   5.722
 9676SOL    HW229928   1.365   3.792   5.672
 9677SOL     OW29929   2.498   4.459   5.931
 9677SOL    HW129930   2.564   4.385   5.921
 9677SOL    HW229931   2.408   4.430   5.897
 9678SOL     OW29932   3.425   4.141   2.838
 9678SOL    HW129933   3.522   4.128   2.818
 9678SOL    HW229934   3.371   4.133   2.755
 9679SOL     OW29935   0.572   2.258   1.936
 9679SOL    HW129936   0.586   2.248   2.035
 9679SOL    HW229937   0.475   2.257   1.916
 9680SOL     OW29938   5.683   6.975   3.368
 9680SOL    HW129939   5.764   6.917   3.379
 9680SOL    HW229940   5.640   6.954   3.280
 9681SOL     OW29941   2.389   0.653   1.248
 9681SOL    HW129942   2.292   0.647   1.225
 9681SOL    HW229943   2.434   0.717   1.186
 9682SOL     OW29944   5.218   5.575   3.179
 9682SOL    HW129945   5.309   5.614   3.165
 9682SOL    HW229946   5.197   5.511   3.105
 9683SOL     OW29947   4.281   5.514   0.571
 9683SOL    HW129948   4.243   5.587   0.515
 9683SOL    HW229949   4.365   5.480   0.529
 9684SOL     OW29950   0.452   3.613   5.343
 9684SOL    HW129951   0.504   3.551   5.284
 9684SOL    HW229952   0.510   3.690   5.369
 9685SOL     OW29953   2.421   2.811   1.209
 9685SOL    HW129954   2.399   2.813   1.112
 9685SOL    HW229955   2.486   2.884   1.230
 9686SOL     OW29956   6.418   1.629   0.829
 9686SOL    HW129957   6.377   1.600   0.915
 9686SOL    HW229958   6.359   1.697   0.785
 9687SOL     OW29959   1.851   0.664   2.485
 9687SOL    HW129960   1.868   0.762   2.474
 9687SOL    HW229961   1.777   0.636   2.423
 9688SOL     OW29962   6.799   2.044   3.166
 9688SOL    HW129963   6.778   2.026   3.070
 9688SOL    HW229964   6.725   2.099   3.206
 9689SOL     OW29965   1.592   0.004   0.266
 9689SOL    HW129966   1.626   0.098   0.275
 9689SOL    HW229967   1.520   0.001   0.197
 9690SOL     OW29968   5.780   4.824   6.716
 9690SOL    HW129969   5.768   4.824   6.816
 9690SOL    HW229970   5.876   4.844   6.695
 9691SOL     OW29971   2.423   4.764   1.698
 9691SOL    HW129972   2.454   4.859   1.694
 9691SOL    HW229973   2.325   4.762   1.718
 9692SOL     OW29974   2.056   5.120   3.099
 9692SOL    HW129975   1.961   5.127   3.072
 9692SOL    HW229976   2.115   5.138   3.020
 9693SOL     OW29977   0.096   5.664   1.853
 9693SOL    HW129978   0.076   5.700   1.762
 9693SOL    HW229979   0.041   5.582   1.869
 9694SOL     OW29980   1.831   1.538   6.506
 9694SOL    HW129981   1.886   1.494   6.435
 9694SOL    HW229982   1.735   1.538   6.478
 9695SOL     OW29983   5.768   4.404   1.229
 9695SOL    HW129984   5.864   4.384   1.209
 9695SOL    HW229985   5.710   4.331   1.192
 9696SOL     OW29986   4.041   2.500   1.676
 9696SOL    HW129987   4.031   2.493   1.576
 9696SOL    HW229988   4.138   2.504   1.699
 9697SOL     OW29989   0.517   5.188   0.017
 9697SOL    HW129990   0.590   5.256   0.015
 9697SOL    HW229991   0.493   5.161   6.947
 9698SOL     OW29992   6.217   0.767   5.404
 9698SOL    HW129993   6.226   0.771   5.305
 9698SOL    HW229994   6.233   0.858   5.442
 9699SOL     OW29995   0.728   3.521   6.116
 9699SOL    HW129996   0.821   3.526   6.080
 9699SOL    HW229997   0.662   3.532   6.042
 9700SOL     OW29998   3.708   4.913   5.570
 9700SOL    HW129999   3.791   4.858   5.583
 9700SOL    HW230000   3.697   4.933   5.473
 9701SOL     OW30001   4.037   5.899   5.169
 9701SOL    HW130002   4.130   5.883   5.137
 9701SOL    HW230003   4.011   5.994   5.153
 9702SOL     OW30004   5.375   0.735   0.191
 9702SOL    HW130005   5.313   0.811   0.174
 9702SOL    HW230006   5.458   0.747   0.138
 9703SOL     OW30007   3.426   5.979   4.292
 9703SOL    HW130008   3.511   5.952   4.246
 9703SOL    HW230009   3.368   5.899   4.304
 9704SOL     OW30010   3.142   0.216   2.678
 9704SOL    HW130011   3.223   0.235   2.623
 9704SOL    HW230012   3.061   0.246   2.627
 9705SOL     OW30013   4.962   4.756   0.043
 9705SOL    HW130014   5.037   4.730   0.104
 9705SOL    HW230015   4.875   4.730   0.085
 9706SOL     OW30016   6.655   2.071   0.641
 9706SOL    HW130017   6.568   2.077   0.690
 9706SOL    HW230018   6.673   1.975   0.617
 9707SOL     OW30019   0.570   4.257   1.920
 9707SOL    HW130020   0.530   4.197   1.989
 9707SOL    HW230021   0.645   4.210   1.874
 9708SOL     OW30022   1.757   2.314   3.199
 9708SOL    HW130023   1.781   2.217   3.195
 9708SOL    HW230024   1.662   2.324   3.230
 9709SOL     OW30025   0.900   5.885   3.671
 9709SOL    HW130026   0.915   5.822   3.594
 9709SOL    HW230027   0.930   5.841   3.756
 9710SOL     OW30028   0.344   0.738   2.648
 9710SOL    HW130029   0.325   0.807   2.578
 9710SOL    HW230030   0.261   0.720   2.700
 9711SOL     OW30031   1.261   3.741   6.038
 9711SOL    HW130032   1.322   3.676   5.992
 9711SOL    HW230033   1.166   3.709   6.028
 9712SOL     OW30034   5.439   2.941   5.076
 9712SOL    HW130035   5.449   2.877   5.151
 9712SOL    HW230036   5.450   2.893   4.989
 9713SOL     OW30037   0.232   4.676   2.781
 9713SOL    HW130038   0.191   4.744   2.721
 9713SOL    HW230039   0.166   4.603   2.798
 9714SOL     OW30040   1.776   1.720   1.507
 9714SOL    HW130041   1.779   1.741   1.605
 9714SOL    HW230042   1.713   1.645   1.490
 9715SOL     OW30043   6.988   5.509   4.605
 9715SOL    HW130044   6.932   5.501   4.523
 9715SOL    HW230045   0.032   5.583   4.593
 9716SOL     OW30046   3.688   2.104   6.926
 9716SOL    HW130047   3.763   2.104   6.860
 9716SOL    HW230048   3.620   2.172   6.900
 9717SOL     OW30049   5.756   5.877   4.346
 9717SOL    HW130050   5.672   5.927   4.323
 9717SOL    HW230051   5.735   5.804   4.410
 9718SOL     OW30052   4.324   2.515   1.714
 9718SOL    HW130053   4.388   2.460   1.660
 9718SOL    HW230054   4.333   2.611   1.687
 9719SOL     OW30055   0.810   2.151   0.019
 9719SOL    HW130056   0.765   2.084   6.983
 9719SOL    HW230057   0.744   2.188   0.085
 9720SOL     OW30058   0.538   6.123   1.684
 9720SOL    HW130059   0.607   6.188   1.714
 9720SOL    HW230060   0.447   6.157   1.708
 9721SOL     OW30061   0.842   2.733   2.013
 9721SOL    HW130062   0.781   2.804   2.048
 9721SOL    HW230063   0.789   2.652   1.988
 9722SOL     OW30064   0.704   0.311   3.653
 9722SOL    HW130065   0.634   0.370   3.693
 9722SOL    HW230066   0.729   0.240   3.718
 9723SOL     OW30067   0.990   6.443   2.867
 9723SOL    HW130068   0.976   6.535   2.831
 9723SOL    HW230069   0.902   6.406   2.898
 9724SOL     OW30070   3.091   2.768   1.724
 9724SOL    HW130071   3.076   2.672   1.699
 9724SOL    HW230072   3.158   2.808   1.662
 9725SOL     OW30073   4.325   3.295   6.193
 9725SOL    HW130074   4.256   3.268   6.261
 9725SOL    HW230075   4.283   3.353   6.124
 9726SOL     OW30076   5.160   0.634   4.827
 9726SOL    HW130077   5.227   0.705   4.852
 9726SOL    HW230078   5.208   0.553   4.795
 9727SOL     OW30079   1.333   3.991   5.439
 9727SOL    HW130080   1.342   4.000   5.538
 9727SOL    HW230081   1.381   3.909   5.408
 9728SOL     OW30082   1.728   6.543   6.939
 9728SOL    HW130083   1.721   6.451   6.901
 9728SOL    HW230084   1.823   6.562   6.965
 9729SOL     OW30085   1.393   4.502   2.871
 9729SOL    HW130086   1.302   4.532   2.903
 9729SOL    HW230087   1.397   4.403   2.871
 9730SOL     OW30088   0.412   3.107   2.729
 9730SOL    HW130089   0.351   3.029   2.740
 9730SOL    HW230090   0.390   3.176   2.798
 9731SOL     OW30091   4.231   4.995   0.888
 9731SOL    HW130092   4.140   5.029   0.912
 9731SOL    HW230093   4.223   4.904   0.848
 9732SOL     OW30094   6.571   6.073   2.984
 9732SOL    HW130095   6.592   6.161   2.941
 9732SOL    HW230096   6.572   6.084   3.083
 9733SOL     OW30097   5.784   5.089   4.469
 9733SOL    HW130098   5.828   5.016   4.523
 9733SOL    HW230099   5.812   5.178   4.506
 9734SOL     OW30100   5.408   1.637   4.129
 9734SOL    HW130101   5.381   1.721   4.081
 9734SOL    HW230102   5.361   1.559   4.088
 9735SOL     OW30103   1.989   4.621   2.800
 9735SOL    HW130104   2.056   4.692   2.817
 9735SOL    HW230105   2.010   4.540   2.855
 9736SOL     OW30106   5.064   1.177   6.517
 9736SOL    HW130107   5.124   1.122   6.459
 9736SOL    HW230108   4.973   1.185   6.475
 9737SOL     OW30109   4.471   2.543   4.964
 9737SOL    HW130110   4.500   2.639   4.958
 9737SOL    HW230111   4.383   2.538   5.010
 9738SOL     OW30112   1.944   0.455   2.651
 9738SOL    HW130113   1.860   0.402   2.646
 9738SOL    HW230114   1.931   0.542   2.602
 9739SOL     OW30115   0.597   5.062   1.295
 9739SOL    HW130116   0.693   5.036   1.282
 9739SOL    HW230117   0.582   5.153   1.257
 9740SOL     OW30118   6.018   3.623   3.330
 9740SOL    HW130119   5.954   3.700   3.333
 9740SOL    HW230120   6.107   3.653   3.365
 9741SOL     OW30121   4.423   0.944   2.642
 9741SOL    HW130122   4.441   1.038   2.613
 9741SOL    HW230123   4.349   0.944   2.710
 9742SOL     OW30124   4.491   0.311   3.135
 9742SOL    HW130125   4.394   0.326   3.154
 9742SOL    HW230126   4.539   0.288   3.219
 9743SOL     OW30127   1.782   2.593   5.802
 9743SOL    HW130128   1.818   2.675   5.846
 9743SOL    HW230129   1.766   2.612   5.705
 9744SOL     OW30130   0.908   0.633   2.087
 9744SOL    HW130131   0.899   0.646   1.988
 9744SOL    HW230132   0.854   0.555   2.116
 9745SOL     OW30133   0.558   2.598   5.535
 9745SOL    HW130134   0.470   2.594   5.583
 9745SOL    HW230135   0.578   2.509   5.495
 9746SOL     OW30136   5.147   1.579   5.012
 9746SOL    HW130137   5.065   1.602   5.064
 9746SOL    HW230138   5.227   1.588   5.071
 9747SOL     OW30139   1.597   1.569   1.136
 9747SOL    HW130140   1.611   1.668   1.141
 9747SOL    HW230141   1.682   1.522   1.159
 9748SOL     OW30142   0.882   6.869   5.317
 9748SOL    HW130143   0.789   6.832   5.307
 9748SOL    HW230144   0.934   6.853   5.233
 9749SOL     OW30145   1.446   2.632   5.668
 9749SOL    HW130146   1.476   2.705   5.607
 9749SOL    HW230147   1.490   2.644   5.758
 9750SOL     OW30148   5.722   5.264   3.844
 9750SOL    HW130149   5.774   5.202   3.785
 9750SOL    HW230150   5.662   5.320   3.788
 9751SOL     OW30151   2.157   1.981   1.011
 9751SOL    HW130152   2.249   1.974   0.973
 9751SOL    HW230153   2.159   2.042   1.091
 9752SOL     OW30154   4.837   0.862   6.093
 9752SOL    HW130155   4.931   0.827   6.095
 9752SOL    HW230156   4.787   0.827   6.173
 9753SOL     OW30157   6.442   6.321   4.841
 9753SOL    HW130158   6.395   6.409   4.834
 9753SOL    HW230159   6.379   6.248   4.817
 9754SOL     OW30160   1.077   1.594   6.860
 9754SOL    HW130161   1.133   1.515   6.836
 9754SOL    HW230162   1.041   1.636   6.777
 9755SOL     OW30163   4.336   3.759   5.267
 9755SOL    HW130164   4.413   3.822   5.262
 9755SOL    HW230165   4.255   3.803   5.229
 9756SOL     OW30166   5.752   3.012   0.089
 9756SOL    HW130167   5.728   3.086   0.026
 9756SOL    HW230168   5.831   2.962   0.054
 9757SOL     OW30169   5.149   3.156   3.804
 9757SOL    HW130170   5.103   3.086   3.750
 9757SOL    HW230171   5.182   3.229   3.744
 9758SOL     OW30172   1.921   6.973   5.767
 9758SOL    HW130173   1.869   7.012   5.844
 9758SOL    HW230174   1.992   6.913   5.803
 9759SOL     OW30175   2.117   7.005   0.926
 9759SOL    HW130176   2.036   6.950   0.945
 9759SOL    HW230177   2.187   6.986   0.995
 9760SOL     OW30178   5.060   4.333   5.155
 9760SOL    HW130179   5.084   4.254   5.099
 9760SOL    HW230180   5.142   4.387   5.173
 9761SOL     OW30181   5.751   5.151   1.744
 9761SOL    HW130182   5.697   5.116   1.820
 9761SOL    HW230183   5.692   5.166   1.665
 9762SOL     OW30184   2.543   1.880   4.535
 9762SOL    HW130185   2.625   1.931   4.561
 9762SOL    HW230186   2.481   1.874   4.614
 9763SOL     OW30187   4.672   1.379   2.036
 9763SOL    HW130188   4.738   1.354   1.965
 9763SOL    HW230189   4.584   1.335   2.018
 9764SOL     OW30190   1.599   2.016   3.288
 9764SOL    HW130191   1.582   2.113   3.272
 9764SOL    HW230192   1.573   1.992   3.381
 9765SOL     OW30193   6.667   2.083   5.270
 9765SOL    HW130194   6.745   2.098   5.208
 9765SOL    HW230195   6.645   2.167   5.318
 9766SOL     OW30196   2.692   0.678   2.425
 9766SOL    HW130197   2.788   0.649   2.426
 9766SOL    HW230198   2.673   0.736   2.504
 9767SOL     OW30199   5.209   1.809   4.809
 9767SOL    HW130200   5.286   1.825   4.747
 9767SOL    HW230201   5.238   1.748   4.883
 9768SOL     OW30202   4.904   2.222   1.963
 9768SOL    HW130203   4.826   2.266   1.919
 9768SOL    HW230204   4.970   2.291   1.994
 9769SOL     OW30205   1.273   2.382   1.166
 9769SOL    HW130206   1.260   2.337   1.077
 9769SOL    HW230207   1.363   2.425   1.168
 9770SOL     OW30208   5.876   5.601   6.012
 9770SOL    HW130209   5.953   5.540   5.995
 9770SOL    HW230210   5.791   5.557   5.980
 9771SOL     OW30211   4.503   4.321   0.925
 9771SOL    HW130212   4.433   4.376   0.970
 9771SOL    HW230213   4.530   4.246   0.985
 9772SOL     OW30214   6.951   6.855   1.756
 9772SOL    HW130215   6.984   6.919   1.826
 9772SOL    HW230216   7.009   6.773   1.757
 9773SOL     OW30217   5.809   6.050   3.810
 9773SOL    HW130218   5.864   6.047   3.727
 9773SOL    HW230219   5.714   6.072   3.786
 9774SOL     OW30220   5.860   5.118   3.641
 9774SOL    HW130221   5.944   5.095   3.690
 9774SOL    HW230222   5.840   5.046   3.574
 9775SOL     OW30223   2.201   2.159   4.632
 9775SOL    HW130224   2.120   2.217   4.620
 9775SOL    HW230225   2.171   2.064   4.644
 9776SOL     OW30226   0.003   5.532   4.279
 9776SOL    HW130227   6.938   5.489   4.299
 9776SOL    HW230228   7.019   5.631   4.297
 9777SOL     OW30229   6.094   4.981   6.059
 9777SOL    HW130230   6.085   4.889   6.021
 9777SOL    HW230231   6.124   5.044   5.988
 9778SOL     OW30232   4.874   7.017   3.157
 9778SOL    HW130233   4.861   6.973   3.246
 9778SOL    HW230234   4.788   7.014   3.105
 9779SOL     OW30235   2.535   1.404   4.796
 9779SOL    HW130236   2.619   1.353   4.816
 9779SOL    HW230237   2.503   1.381   4.704
 9780SOL     OW30238   1.849   2.910   0.838
 9780SOL    HW130239   1.874   2.999   0.799
 9780SOL    HW230240   1.750   2.897   0.829
 9781SOL     OW30241   1.762   4.483   4.618
 9781SOL    HW130242   1.816   4.399   4.625
 9781SOL    HW230243   1.762   4.514   4.523
 9782SOL     OW30244   6.797   0.266   0.981
 9782SOL    HW130245   6.806   0.302   1.074
 9782SOL    HW230246   6.702   0.243   0.963
 9783SOL     OW30247   6.288   0.889   1.426
 9783SOL    HW130248   6.282   0.789   1.436
 9783SOL    HW230249   6.379   0.914   1.395
 9784SOL     OW30250   4.160   1.306   3.500
 9784SOL    HW130251   4.247   1.270   3.533
 9784SOL    HW230252   4.123   1.245   3.430
 9785SOL     OW30253   0.146   3.072   2.883
 9785SOL    HW130254   0.058   3.056   2.926
 9785SOL    HW230255   0.171   2.993   2.827
 9786SOL     OW30256   1.892   4.810   6.198
 9786SOL    HW130257   1.845   4.722   6.197
 9786SOL    HW230258   1.893   4.848   6.105
 9787SOL     OW30259   5.066   3.254   1.871
 9787SOL    HW130260   5.106   3.208   1.950
 9787SOL    HW230261   4.973   3.222   1.857
 9788SOL     OW30262   0.218   6.977   4.142
 9788SOL    HW130263   0.200   7.012   4.234
 9788SOL    HW230264   0.214   0.029   4.076
 9789SOL     OW30265   2.281   5.079   5.852
 9789SOL    HW130266   2.276   5.112   5.758
 9789SOL    HW230267   2.333   4.994   5.855
 9790SOL     OW30268   5.683   1.728   4.163
 9790SOL    HW130269   5.702   1.770   4.251
 9790SOL    HW230270   5.585   1.706   4.157
 9791SOL     OW30271   1.324   1.682   1.478
 9791SOL    HW130272   1.282   1.652   1.564
 9791SOL    HW230273   1.305   1.779   1.463
 9792SOL     OW30274   4.699   5.138   1.756
 9792SOL    HW130275   4.628   5.149   1.686
 9792SOL    HW230276   4.722   5.041   1.764
 9793SOL     OW30277   5.222   6.095   2.786
 9793SOL    HW130278   5.210   6.051   2.875
 9793SOL    HW230279   5.300   6.157   2.790
 9794SOL     OW30280   5.020   3.184   6.105
 9794SOL    HW130281   4.950   3.213   6.171
 9794SOL    HW230282   4.980   3.183   6.013
 9795SOL     OW30283   1.195   2.943   4.359
 9795SOL    HW130284   1.133   3.022   4.360
 9795SOL    HW230285   1.289   2.976   4.348
 9796SOL     OW30286   2.922   5.256   0.903
 9796SOL    HW130287   2.898   5.235   0.998
 9796SOL    HW230288   3.010   5.303   0.901
 9797SOL     OW30289   4.387   3.512   6.888
 9797SOL    HW130290   4.418   3.493   6.795
 9797SOL    HW230291   4.442   3.460   6.953
 9798SOL     OW30292   2.140   0.273   1.042
 9798SOL    HW130293   2.041   0.273   1.053
 9798SOL    HW230294   2.181   0.217   1.113
 9799SOL     OW30295   3.267   2.955   2.712
 9799SOL    HW130296   3.294   2.921   2.622
 9799SOL    HW230297   3.312   2.902   2.783
 9800SOL     OW30298   4.269   6.057   6.510
 9800SOL    HW130299   4.354   6.005   6.503
 9800SOL    HW230300   4.206   6.027   6.439
 9801SOL     OW30301   5.132   5.547   0.502
 9801SOL    HW130302   5.154   5.483   0.429
 9801SOL    HW230303   5.075   5.621   0.465
 9802SOL     OW30304   0.704   3.337   1.442
 9802SOL    HW130305   0.632   3.373   1.382
 9802SOL    HW230306   0.760   3.413   1.475
 9803SOL     OW30307   6.055   6.837   6.666
 9803SOL    HW130308   6.090   6.757   6.617
 9803SOL    HW230309   6.129   6.877   6.721
 9804SOL     OW30310   0.280   5.031   3.684
 9804SOL    HW130311   0.335   5.112   3.701
 9804SOL    HW230312   0.307   4.958   3.747
 9805SOL     OW30313   1.365   5.303   6.789
 9805SOL    HW130314   1.452   5.295   6.740
 9805SOL    HW230315   1.380   5.292   6.887
 9806SOL     OW30316   0.655   2.523   1.650
 9806SOL    HW130317   0.734   2.531   1.710
 9806SOL    HW230318   0.678   2.560   1.560
 9807SOL     OW30319   4.219   1.591   0.380
 9807SOL    HW130320   4.244   1.494   0.379
 9807SOL    HW230321   4.193   1.618   0.472
 9808SOL     OW30322   5.927   1.523   5.052
 9808SOL    HW130323   5.834   1.519   5.017
 9808SOL    HW230324   5.974   1.437   5.031
 9809SOL     OW30325   1.120   1.782   5.263
 9809SOL    HW130326   1.133   1.698   5.211
 9809SOL    HW230327   1.055   1.841   5.215
 9810SOL     OW30328   2.507   1.361   3.322
 9810SOL    HW130329   2.461   1.338   3.236
 9810SOL    HW230330   2.526   1.459   3.324
 9811SOL     OW30331   0.096   6.185   3.423
 9811SOL    HW130332   0.001   6.205   3.400
 9811SOL    HW230333   0.129   6.253   3.488
 9812SOL     OW30334   4.543   2.183   5.924
 9812SOL    HW130335   4.453   2.217   5.949
 9812SOL    HW230336   4.535   2.090   5.889
 9813SOL     OW30337   6.115   5.620   0.254
 9813SOL    HW130338   6.184   5.549   0.252
 9813SOL    HW230339   6.044   5.596   0.321
 9814SOL     OW30340   6.553   0.075   5.418
 9814SOL    HW130341   6.518   0.015   5.490
 9814SOL    HW230342   6.477   0.107   5.362
 9815SOL     OW30343   6.739   3.497   1.400
 9815SOL    HW130344   6.827   3.535   1.371
 9815SOL    HW230345   6.689   3.567   1.452
 9816SOL     OW30346   6.626   0.446   0.111
 9816SOL    HW130347   6.578   0.467   0.026
 9816SOL    HW230348   6.655   0.531   0.156
 9817SOL     OW30349   3.170   5.854   1.822
 9817SOL    HW130350   3.242   5.806   1.773
 9817SOL    HW230351   3.210   5.926   1.879
 9818SOL     OW30352   1.799   1.172   3.449
 9818SOL    HW130353   1.758   1.106   3.386
 9818SOL    HW230354   1.899   1.169   3.439
 9819SOL     OW30355   5.841   3.491   4.838
 9819SOL    HW130356   5.838   3.417   4.905
 9819SOL    HW230357   5.908   3.469   4.767
 9820SOL     OW30358   2.743   1.984   6.216
 9820SOL    HW130359   2.820   2.043   6.192
 9820SOL    HW230360   2.735   1.978   6.316
 9821SOL     OW30361   4.274   1.841   1.922
 9821SOL    HW130362   4.192   1.865   1.869
 9821SOL    HW230363   4.350   1.824   1.859
 9822SOL     OW30364   4.219   5.951   4.574
 9822SOL    HW130365   4.147   6.016   4.552
 9822SOL    HW230366   4.204   5.916   4.667
 9823SOL     OW30367   1.077   0.813   2.289
 9823SOL    HW130368   1.014   0.775   2.221
 9823SOL    HW230369   1.151   0.747   2.305
 9824SOL     OW30370   1.913   6.702   5.742
 9824SOL    HW130371   1.971   6.758   5.683
 9824SOL    HW230372   1.916   6.607   5.711
 9825SOL     OW30373   5.146   6.172   5.708
 9825SOL    HW130374   5.058   6.219   5.717
 9825SOL    HW230375   5.131   6.073   5.706
 9826SOL     OW30376   3.310   6.889   5.214
 9826SOL    HW130377   3.375   6.962   5.194
 9826SOL    HW230378   3.358   6.801   5.214
 9827SOL     OW30379   1.908   5.709   2.486
 9827SOL    HW130380   1.828   5.765   2.462
 9827SOL    HW230381   1.983   5.730   2.424
 9828SOL     OW30382   4.260   1.702   4.930
 9828SOL    HW130383   4.259   1.677   5.026
 9828SOL    HW230384   4.315   1.784   4.917
 9829SOL     OW30385   4.615   6.060   5.607
 9829SOL    HW130386   4.575   6.138   5.654
 9829SOL    HW230387   4.584   5.975   5.649
 9830SOL     OW30388   5.756   2.192   2.536
 9830SOL    HW130389   5.813   2.109   2.535
 9830SOL    HW230390   5.807   2.266   2.579
 9831SOL     OW30391   0.840   4.051   2.338
 9831SOL    HW130392   0.831   4.074   2.241
 9831SOL    HW230393   0.915   3.985   2.349
 9832SOL     OW30394   4.848   4.077   4.770
 9832SOL    HW130395   4.916   4.120   4.710
 9832SOL    HW230396   4.871   3.981   4.784
 9833SOL     OW30397   3.359   4.082   4.316
 9833SOL    HW130398   3.406   4.079   4.404
 9833SOL    HW230399   3.408   4.143   4.254
 9834SOL     OW30400   2.430   5.518   5.774
 9834SOL    HW130401   2.416   5.587   5.845
 9834SOL    HW230402   2.342   5.478   5.748
 9835SOL     OW30403   3.629   4.237   5.148
 9835SOL    HW130404   3.705   4.261   5.208
 9835SOL    HW230405   3.662   4.179   5.074
 9836SOL     OW30406   0.944   3.469   5.731
 9836SOL    HW130407   1.024   3.410   5.736
 9836SOL    HW230408   0.866   3.423   5.774
 9837SOL     OW30409   5.557   1.825   1.647
 9837SOL    HW130410   5.642   1.838   1.697
 9837SOL    HW230411   5.572   1.843   1.550
 9838SOL     OW30412   0.691   5.943   1.149
 9838SOL    HW130413   0.668   5.847   1.167
 9838SOL    HW230414   0.664   5.999   1.227
 9839SOL     OW30415   4.344   1.256   2.355
 9839SOL    HW130416   4.351   1.211   2.266
 9839SOL    HW230417   4.309   1.349   2.342
 9840SOL     OW30418   5.889   1.841   6.881
 9840SOL    HW130419   5.921   1.802   6.967
 9840SOL    HW230420   5.794   1.816   6.865
 9841SOL     OW30421   0.293   5.700   3.545
 9841SOL    HW130422   0.375   5.758   3.541
 9841SOL    HW230423   0.253   5.706   3.636
 9842SOL     OW30424   3.390   2.178   0.346
 9842SOL    HW130425   3.434   2.170   0.435
 9842SOL    HW230426   3.440   2.123   0.279
 9843SOL     OW30427   6.925   6.280   0.839
 9843SOL    HW130428   6.933   6.195   0.890
 9843SOL    HW230429   6.988   6.348   0.877
 9844SOL     OW30430   4.819   0.295   4.567
 9844SOL    HW130431   4.826   0.328   4.473
 9844SOL    HW230432   4.911   0.280   4.603
 9845SOL     OW30433   1.614   2.601   1.855
 9845SOL    HW130434   1.701   2.625   1.897
 9845SOL    HW230435   1.631   2.560   1.765
 9846SOL     OW30436   5.361   1.333   1.514
 9846SOL    HW130437   5.397   1.252   1.468
 9846SOL    HW230438   5.435   1.378   1.565
 9847SOL     OW30439   3.768   3.527   0.525
 9847SOL    HW130440   3.834   3.514   0.599
 9847SOL    HW230441   3.692   3.463   0.536
 9848SOL     OW30442   3.583   3.311   5.107
 9848SOL    HW130443   3.668   3.357   5.133
 9848SOL    HW230444   3.604   3.224   5.063
 9849SOL     OW30445   0.814   1.217   6.369
 9849SOL    HW130446   0.863   1.199   6.284
 9849SOL    HW230447   0.750   1.142   6.387
 9850SOL     OW30448   0.626   0.679   4.144
 9850SOL    HW130449   0.602   0.589   4.107
 9850SOL    HW230450   0.619   0.748   4.071
 9851SOL     OW30451   3.864   4.953   4.197
 9851SOL    HW130452   3.770   4.964   4.228
 9851SOL    HW230453   3.864   4.931   4.099
 9852SOL     OW30454   1.398   1.333   6.292
 9852SOL    HW130455   1.455   1.276   6.234
 9852SOL    HW230456   1.396   1.426   6.257
 9853SOL     OW30457   0.344   4.122   4.111
 9853SOL    HW130458   0.348   4.090   4.205
 9853SOL    HW230459   0.282   4.201   4.105
 9854SOL     OW30460   0.723   5.621   6.235
 9854SOL    HW130461   0.707   5.534   6.189
 9854SOL    HW230462   0.637   5.671   6.245
 9855SOL     OW30463   1.308   3.402   0.813
 9855SOL    HW130464   1.276   3.309   0.831
 9855SOL    HW230465   1.330   3.447   0.900
 9856SOL     OW30466   5.531   4.096   3.310
 9856SOL    HW130467   5.507   4.136   3.221
 9856SOL    HW230468   5.497   4.002   3.313
 9857SOL     OW30469   4.705   1.817   3.491
 9857SOL    HW130470   4.778   1.884   3.501
 9857SOL    HW230471   4.728   1.752   3.418
 9858SOL     OW30472   0.063   5.862   2.393
 9858SOL    HW130473   0.076   5.773   2.350
 9858SOL    HW230474   0.151   5.896   2.426
 9859SOL     OW30475   0.378   5.606   4.470
 9859SOL    HW130476   0.312   5.596   4.544
 9859SOL    HW230477   0.448   5.673   4.496
 9860SOL     OW30478   1.775   2.644   5.521
 9860SOL    HW130479   1.709   2.611   5.454
 9860SOL    HW230480   1.800   2.739   5.498
 9861SOL     OW30481   3.300   1.417   4.372
 9861SOL    HW130482   3.235   1.408   4.297
 9861SOL    HW230483   3.391   1.439   4.336
 9862SOL     OW30484   1.949   4.863   0.931
 9862SOL    HW130485   1.948   4.928   0.854
 9862SOL    HW230486   2.017   4.893   0.998
 9863SOL     OW30487   3.056   6.011   1.246
 9863SOL    HW130488   3.044   6.015   1.345
 9863SOL    HW230489   2.986   5.953   1.206
 9864SOL     OW30490   3.052   6.175   5.210
 9864SOL    HW130491   2.960   6.208   5.190
 9864SOL    HW230492   3.117   6.220   5.150
 9865SOL     OW30493   0.689   6.481   5.586
 9865SOL    HW130494   0.642   6.496   5.673
 9865SOL    HW230495   0.783   6.514   5.593
 9866SOL     OW30496   6.412   4.444   4.513
 9866SOL    HW130497   6.482   4.395   4.564
 9866SOL    HW230498   6.374   4.384   4.442
 9867SOL     OW30499   5.059   2.011   1.611
 9867SOL    HW130500   5.101   1.957   1.683
 9867SOL    HW230501   4.986   1.958   1.567
 9868SOL     OW30502   1.167   4.576   2.961
 9868SOL    HW130503   1.109   4.535   3.032
 9868SOL    HW230504   1.192   4.669   2.988
 9869SOL     OW30505   6.770   2.630   1.356
 9869SOL    HW130506   6.838   2.594   1.421
 9869SOL    HW230507   6.749   2.725   1.380
 9870SOL     OW30508   3.286   1.310   1.817
 9870SOL    HW130509   3.305   1.216   1.844
 9870SOL    HW230510   3.187   1.323   1.808
 9871SOL     OW30511   6.952   3.550   5.238
 9871SOL    HW130512   6.976   3.646   5.255
 9871SOL    HW230513   0.013   3.495   5.234
 9872SOL     OW30514   1.757   4.839   5.437
 9872SOL    HW130515   1.811   4.879   5.364
 9872SOL    HW230516   1.810   4.837   5.521
 9873SOL     OW30517   2.599   1.984   5.750
 9873SOL    HW130518   2.583   1.983   5.849
 9873SOL    HW230519   2.658   2.062   5.727
 9874SOL     OW30520   7.022   2.572   4.857
 9874SOL    HW130521   6.937   2.601   4.813
 9874SOL    HW230522   7.003   2.544   4.951
 9875SOL     OW30523   6.633   5.775   0.481
 9875SOL    HW130524   6.567   5.783   0.556
 9875SOL    HW230525   6.644   5.864   0.437
 9876SOL     OW30526   2.053   6.334   3.032
 9876SOL    HW130527   2.134   6.276   3.037
 9876SOL    HW230528   2.052   6.397   3.110
 9877SOL     OW30529   1.068   5.149   4.856
 9877SOL    HW130530   1.046   5.067   4.804
 9877SOL    HW230531   1.158   5.138   4.899
 9878SOL     OW30532   1.926   3.136   0.113
 9878SOL    HW130533   1.933   3.063   0.180
 9878SOL    HW230534   1.880   3.102   0.030
 9879SOL     OW30535   0.561   4.659   5.937
 9879SOL    HW130536   0.596   4.567   5.957
 9879SOL    HW230537   0.496   4.654   5.861
 9880SOL     OW30538   2.996   1.924   0.234
 9880SOL    HW130539   3.091   1.916   0.266
 9880SOL    HW230540   2.996   1.935   0.134
 9881SOL     OW30541   5.315   0.402   4.862
 9881SOL    HW130542   5.291   0.369   4.954
 9881SOL    HW230543   5.301   0.328   4.796
 9882SOL     OW30544   4.083   3.372   4.296
 9882SOL    HW130545   4.117   3.303   4.232
 9882SOL    HW230546   4.043   3.326   4.375
 9883SOL     OW30547   2.082   6.895   1.381
 9883SOL    HW130548   2.032   6.889   1.467
 9883SOL    HW230549   2.173   6.934   1.398
 9884SOL     OW30550   2.115   3.568   6.514
 9884SOL    HW130551   2.099   3.647   6.574
 9884SOL    HW230552   2.210   3.568   6.483
 9885SOL     OW30553   6.694   3.442   4.099
 9885SOL    HW130554   6.719   3.440   4.196
 9885SOL    HW230555   6.677   3.349   4.067
 9886SOL     OW30556   4.920   6.366   1.642
 9886SOL    HW130557   4.983   6.345   1.568
 9886SOL    HW230558   4.920   6.292   1.709
 9887SOL     OW30559   3.735   6.877   0.716
 9887SOL    HW130560   3.659   6.827   0.757
 9887SOL    HW230561   3.810   6.815   0.697
 9888SOL     OW30562   5.960   5.247   2.322
 9888SOL    HW130563   5.882   5.309   2.327
 9888SOL    HW230564   5.973   5.202   2.410
 9889SOL     OW30565   0.582   4.999   3.276
 9889SOL    HW130566   0.524   4.934   3.324
 9889SOL    HW230567   0.554   5.093   3.299
 9890SOL     OW30568   6.776   4.084   1.845
 9890SOL    HW130569   6.805   4.175   1.875
 9890SOL    HW230570   6.855   4.033   1.811
 9891SOL     OW30571   5.093   4.675   0.920
 9891SOL    HW130572   5.094   4.579   0.892
 9891SOL    HW230573   5.181   4.698   0.963
 9892SOL     OW30574   2.011   5.401   3.968
 9892SOL    HW130575   2.067   5.437   3.893
 9892SOL    HW230576   2.065   5.399   4.052
 9893SOL     OW30577   6.166   5.159   3.356
 9893SOL    HW130578   6.108   5.192   3.281
 9893SOL    HW230579   6.193   5.064   3.337
 9894SOL     OW30580   3.743   2.726   5.680
 9894SOL    HW130581   3.763   2.805   5.622
 9894SOL    HW230582   3.658   2.684   5.650
 9895SOL     OW30583   5.242   2.790   6.474
 9895SOL    HW130584   5.323   2.832   6.515
 9895SOL    HW230585   5.182   2.756   6.546
 9896SOL     OW30586   4.075   4.163   0.391
 9896SOL    HW130587   4.173   4.164   0.373
 9896SOL    HW230588   4.053   4.229   0.462
 9897SOL     OW30589   5.771   2.025   2.833
 9897SOL    HW130590   5.817   2.041   2.745
 9897SOL    HW230591   5.796   1.934   2.867
 9898SOL     OW30592   1.583   5.235   5.775
 9898SOL    HW130593   1.509   5.265   5.834
 9898SOL    HW230594   1.613   5.310   5.717
 9899SOL     OW30595   5.273   4.483   2.560
 9899SOL    HW130596   5.324   4.415   2.613
 9899SOL    HW230597   5.281   4.573   2.603
 9900SOL     OW30598   1.451   2.287   4.141
 9900SOL    HW130599   1.479   2.380   4.167
 9900SOL    HW230600   1.459   2.277   4.042
 9901SOL     OW30601   2.936   2.102   6.101
 9901SOL    HW130602   3.002   2.032   6.074
 9901SOL    HW230603   2.881   2.129   6.022
 9902SOL     OW30604   3.728   3.797   0.603
 9902SOL    HW130605   3.679   3.841   0.528
 9902SOL    HW230606   3.752   3.703   0.577
 9903SOL     OW30607   4.049   1.291   2.043
 9903SOL    HW130608   4.006   1.373   2.082
 9903SOL    HW230609   4.145   1.311   2.023
 9904SOL     OW30610   6.233   2.098   0.498
 9904SOL    HW130611   6.299   2.026   0.517
 9904SOL    HW230612   6.228   2.113   0.399
 9905SOL     OW30613   1.414   6.815   6.054
 9905SOL    HW130614   1.386   6.769   6.138
 9905SOL    HW230615   1.342   6.878   6.025
 9906SOL     OW30616   2.349   3.528   6.372
 9906SOL    HW130617   2.379   3.441   6.412
 9906SOL    HW230618   2.412   3.555   6.299
 9907SOL     OW30619   2.428   5.872   3.068
 9907SOL    HW130620   2.510   5.820   3.093
 9907SOL    HW230621   2.428   5.960   3.116
 9908SOL     OW30622   0.682   3.637   6.519
 9908SOL    HW130623   0.665   3.735   6.504
 9908SOL    HW230624   0.781   3.621   6.520
 9909SOL     OW30625   3.266   1.108   2.984
 9909SOL    HW130626   3.327   1.156   2.922
 9909SOL    HW230627   3.265   1.010   2.962
 9910SOL     OW30628   6.487   4.729   0.865
 9910SOL    HW130629   6.394   4.710   0.833
 9910SOL    HW230630   6.551   4.666   0.821
 9911SOL     OW30631   3.965   5.144   3.113
 9911SOL    HW130632   3.887   5.085   3.096
 9911SOL    HW230633   4.031   5.096   3.172
 9912SOL     OW30634   5.199   0.289   1.565
 9912SOL    HW130635   5.295   0.290   1.537
 9912SOL    HW230636   5.158   0.377   1.543
 9913SOL     OW30637   5.345   2.637   2.810
 9913SOL    HW130638   5.357   2.578   2.729
 9913SOL    HW230639   5.291   2.588   2.878
 9914SOL     OW30640   0.758   0.428   5.130
 9914SOL    HW130641   0.725   0.491   5.060
 9914SOL    HW230642   0.853   0.449   5.151
 9915SOL     OW30643   5.070   3.097   4.087
 9915SOL    HW130644   5.142   3.097   4.156
 9915SOL    HW230645   5.109   3.110   3.996
 9916SOL     OW30646   2.279   2.704   2.563
 9916SOL    HW130647   2.293   2.802   2.549
 9916SOL    HW230648   2.363   2.655   2.538
 9917SOL     OW30649   3.209   4.086   5.640
 9917SOL    HW130650   3.118   4.118   5.613
 9917SOL    HW230651   3.220   3.990   5.614
 9918SOL     OW30652   2.212   2.181   5.840
 9918SOL    HW130653   2.203   2.116   5.764
 9918SOL    HW230654   2.214   2.274   5.804
 9919SOL     OW30655   0.887   5.697   2.614
 9919SOL    HW130656   0.892   5.700   2.514
 9919SOL    HW230657   0.794   5.720   2.643
 9920SOL     OW30658   3.715   6.272   1.325
 9920SOL    HW130659   3.641   6.292   1.389
 9920SOL    HW230660   3.790   6.226   1.373
 9921SOL     OW30661   5.717   0.247   3.211
 9921SOL    HW130662   5.790   0.186   3.241
 9921SOL    HW230663   5.648   0.194   3.161
 9922SOL     OW30664   4.207   4.758   0.746
 9922SOL    HW130665   4.198   4.660   0.762
 9922SOL    HW230666   4.121   4.795   0.713
 9923SOL     OW30667   6.520   2.404   5.887
 9923SOL    HW130668   6.597   2.380   5.828
 9923SOL    HW230669   6.540   2.376   5.981
 9924SOL     OW30670   6.818   0.608   2.863
 9924SOL    HW130671   6.831   0.665   2.944
 9924SOL    HW230672   6.780   0.663   2.789
 9925SOL     OW30673   2.940   3.052   5.644
 9925SOL    HW130674   2.889   2.998   5.577
 9925SOL    HW230675   2.994   2.991   5.702
 9926SOL     OW30676   1.098   1.217   0.499
 9926SOL    HW130677   1.173   1.282   0.504
 9926SOL    HW230678   1.078   1.181   0.591
 9927SOL     OW30679   6.993   1.809   2.492
 9927SOL    HW130680   0.046   1.848   2.545
 9927SOL    HW230681   6.907   1.842   2.528
 9928SOL     OW30682   0.068   3.923   2.136
 9928SOL    HW130683   0.140   3.866   2.097
 9928SOL    HW230684   0.110   4.001   2.183
 9929SOL     OW30685   2.837   4.518   0.103
 9929SOL    HW130686   2.764   4.496   0.039
 9929SOL    HW230687   2.892   4.593   0.066
 9930SOL     OW30688   6.879   0.075   6.136
 9930SOL    HW130689   6.929   0.138   6.077
 9930SOL    HW230690   6.936   7.018   6.156
 9931SOL     OW30691   1.609   5.717   5.681
 9931SOL    HW130692   1.555   5.797   5.708
 9931SOL    HW230693   1.687   5.707   5.742
 9932SOL     OW30694   1.350   1.517   0.181
 9932SOL    HW130695   1.358   1.567   0.268
 9932SOL    HW230696   1.316   1.579   0.111
 9933SOL     OW30697   2.304   1.802   3.127
 9933SOL    HW130698   2.355   1.882   3.161
 9933SOL    HW230699   2.220   1.833   3.083
 9934SOL     OW30700   5.455   1.670   5.963
 9934SOL    HW130701   5.392   1.719   6.022
 9934SOL    HW230702   5.547   1.707   5.973
 9935SOL     OW30703   3.128   2.154   0.432
 9935SOL    HW130704   3.224   2.164   0.406
 9935SOL    HW230705   3.121   2.093   0.511
 9936SOL     OW30706   5.992   5.917   5.435
 9936SOL    HW130707   6.071   5.866   5.401
 9936SOL    HW230708   5.941   5.954   5.357
 9937SOL     OW30709   0.425   0.074   3.043
 9937SOL    HW130710   0.374   0.151   3.082
 9937SOL    HW230711   0.463   0.019   3.117
 9938SOL     OW30712   6.937   0.565   4.311
 9938SOL    HW130713   6.901   0.497   4.374
 9938SOL    HW230714   6.988   0.520   4.238
 9939SOL     OW30715   2.321   4.101   1.095
 9939SOL    HW130716   2.361   4.075   1.007
 9939SOL    HW230717   2.323   4.023   1.157
 9940SOL     OW30718   0.721   0.275   2.881
 9940SOL    HW130719   0.808   0.320   2.864
 9940SOL    HW230720   0.724   0.182   2.846
 9941SOL     OW30721   4.343   4.774   5.838
 9941SOL    HW130722   4.442   4.760   5.836
 9941SOL    HW230723   4.313   4.783   5.932
 9942SOL     OW30724   4.315   5.040   3.764
 9942SOL    HW130725   4.385   5.107   3.738
 9942SOL    HW230726   4.343   4.992   3.847
 9943SOL     OW30727   2.573   3.908   6.771
 9943SOL    HW130728   2.606   3.984   6.717
 9943SOL    HW230729   2.574   3.933   6.868
 9944SOL     OW30730   1.373   4.850   0.098
 9944SOL    HW130731   1.449   4.859   0.034
 9944SOL    HW230732   1.402   4.879   0.189
 9945SOL     OW30733   5.855   4.176   0.204
 9945SOL    HW130734   5.847   4.228   0.118
 9945SOL    HW230735   5.903   4.090   0.186
 9946SOL     OW30736   5.466   1.401   2.731
 9946SOL    HW130737   5.484   1.471   2.662
 9946SOL    HW230738   5.471   1.310   2.690
 9947SOL     OW30739   1.788   1.467   4.155
 9947SOL    HW130740   1.728   1.486   4.233
 9947SOL    HW230741   1.752   1.389   4.104
 9948SOL     OW30742   6.390   0.662   4.603
 9948SOL    HW130743   6.351   0.748   4.570
 9948SOL    HW230744   6.319   0.591   4.602
 9949SOL     OW30745   6.615   4.313   4.626
 9949SOL    HW130746   6.628   4.274   4.717
 9949SOL    HW230747   6.654   4.405   4.622
 9950SOL     OW30748   6.621   5.202   5.926
 9950SOL    HW130749   6.706   5.230   5.880
 9950SOL    HW230750   6.576   5.132   5.871
 9951SOL     OW30751   0.722   2.545   2.678
 9951SOL    HW130752   0.761   2.625   2.722
 9951SOL    HW230753   0.634   2.523   2.721
 9952SOL     OW30754   0.323   4.380   1.476
 9952SOL    HW130755   0.272   4.458   1.511
 9952SOL    HW230756   0.359   4.326   1.553
 9953SOL     OW30757   5.932   2.192   3.143
 9953SOL    HW130758   5.930   2.187   3.043
 9953SOL    HW230759   5.952   2.101   3.180
 9954SOL     OW30760   3.021   1.819   5.758
 9954SOL    HW130761   3.051   1.845   5.850
 9954SOL    HW230762   2.966   1.736   5.762
 9955SOL     OW30763   5.263   3.332   1.094
 9955SOL    HW130764   5.296   3.254   1.040
 9955SOL    HW230765   5.198   3.300   1.163
 9956SOL     OW30766   2.100   3.938   3.519
 9956SOL    HW130767   2.055   4.011   3.467
 9956SOL    HW230768   2.159   3.979   3.589
 9957SOL     OW30769   5.675   7.018   1.686
 9957SOL    HW130770   5.602   6.953   1.666
 9957SOL    HW230771   5.718   0.024   1.601
 9958SOL     OW30772   4.120   4.768   6.471
 9958SOL    HW130773   4.209   4.801   6.503
 9958SOL    HW230774   4.047   4.819   6.518
 9959SOL     OW30775   4.057   4.437   1.194
 9959SOL    HW130776   4.064   4.391   1.282
 9959SOL    HW230777   4.072   4.535   1.206
 9960SOL     OW30778   6.565   6.983   6.877
 9960SOL    HW130779   6.473   6.975   6.839
 9960SOL    HW230780   6.578   0.053   6.912
 9961SOL     OW30781   2.170   4.870   2.429
 9961SOL    HW130782   2.234   4.793   2.425
 9961SOL    HW230783   2.166   4.914   2.339
 9962SOL     OW30784   3.034   6.168   2.550
 9962SOL    HW130785   3.099   6.184   2.624
 9962SOL    HW230786   2.971   6.095   2.575
 9963SOL     OW30787   1.404   1.616   6.215
 9963SOL    HW130788   1.404   1.668   6.300
 9963SOL    HW230789   1.431   1.677   6.140
 9964SOL     OW30790   4.835   4.173   5.485
 9964SOL    HW130791   4.755   4.206   5.535
 9964SOL    HW230792   4.906   4.243   5.485
 9965SOL     OW30793   2.806   5.440   5.018
 9965SOL    HW130794   2.897   5.411   5.049
 9965SOL    HW230795   2.778   5.382   4.941
 9966SOL     OW30796   3.526   5.015   2.120
 9966SOL    HW130797   3.512   4.945   2.050
 9966SOL    HW230798   3.624   5.024   2.138
 9967SOL     OW30799   6.841   6.674   3.082
 9967SOL    HW130800   6.744   6.653   3.067
 9967SOL    HW230801   6.857   6.771   3.068
 9968SOL     OW30802   3.905   6.222   0.706
 9968SOL    HW130803   3.945   6.150   0.650
 9968SOL    HW230804   3.849   6.180   0.778
 9969SOL     OW30805   1.380   5.091   3.873
 9969SOL    HW130806   1.454   5.159   3.870
 9969SOL    HW230807   1.296   5.132   3.838
 9970SOL     OW30808   6.207   4.482   1.476
 9970SOL    HW130809   6.198   4.430   1.390
 9970SOL    HW230810   6.118   4.519   1.502
 9971SOL     OW30811   1.395   3.562   2.317
 9971SOL    HW130812   1.491   3.554   2.294
 9971SOL    HW230813   1.363   3.478   2.360
 9972SOL     OW30814   3.638   4.053   0.461
 9972SOL    HW130815   3.657   4.143   0.500
 9972SOL    HW230816   3.584   4.063   0.377
 9973SOL     OW30817   3.926   1.741   3.524
 9973SOL    HW130818   3.943   1.644   3.541
 9973SOL    HW230819   3.994   1.796   3.572
 9974SOL     OW30820   0.198   1.943   3.493
 9974SOL    HW130821   0.109   1.960   3.450
 9974SOL    HW230822   0.254   2.025   3.490
 9975SOL     OW30823   1.196   5.125   6.465
 9975SOL    HW130824   1.116   5.097   6.412
 9975SOL    HW230825   1.251   5.044   6.487
 9976SOL     OW30826   2.427   4.790   6.183
 9976SOL    HW130827   2.358   4.720   6.202
 9976SOL    HW230828   2.439   4.847   6.264
 9977SOL     OW30829   5.447   5.589   4.982
 9977SOL    HW130830   5.460   5.686   5.003
 9977SOL    HW230831   5.350   5.573   4.960
 9978SOL     OW30832   0.271   2.373   6.186
 9978SOL    HW130833   0.308   2.410   6.101
 9978SOL    HW230834   0.173   2.353   6.174
 9979SOL     OW30835   5.220   3.067   5.252
 9979SOL    HW130836   5.164   3.117   5.187
 9979SOL    HW230837   5.257   2.985   5.208
 9980SOL     OW30838   1.059   0.764   6.863
 9980SOL    HW130839   0.965   0.798   6.873
 9980SOL    HW230840   1.067   0.676   6.910
 9981SOL     OW30841   0.471   2.147   1.294
 9981SOL    HW130842   0.526   2.205   1.234
 9981SOL    HW230843   0.403   2.204   1.341
 9982SOL     OW30844   2.424   1.732   4.762
 9982SOL    HW130845   2.404   1.659   4.827
 9982SOL    HW230846   2.517   1.766   4.778
 9983SOL     OW30847   6.760   3.124   1.853
 9983SOL    HW130848   6.738   3.195   1.786
 9983SOL    HW230849   6.808   3.164   1.931
 9984SOL     OW30850   6.837   5.978   1.534
 9984SOL    HW130851   6.887   5.952   1.617
 9984SOL    HW230852   6.889   6.046   1.484
 9985SOL     OW30853   4.367   5.224   0.849
 9985SOL    HW130854   4.339   5.136   0.812
 9985SOL    HW230855   4.441   5.262   0.793
 9986SOL     OW30856   5.038   4.388   6.898
 9986SOL    HW130857   5.096   4.349   6.969
 9986SOL    HW230858   4.965   4.323   6.875
 9987SOL     OW30859   5.355   2.887   1.487
 9987SOL    HW130860   5.407   2.971   1.502
 9987SOL    HW230861   5.416   2.817   1.450
 9988SOL     OW30862   5.931   6.124   4.392
 9988SOL    HW130863   5.974   6.132   4.482
 9988SOL    HW230864   5.867   6.047   4.392
 9989SOL     OW30865   6.576   4.628   2.151
 9989SOL    HW130866   6.546   4.713   2.195
 9989SOL    HW230867   6.602   4.561   2.221
 9990SOL     OW30868   0.482   6.928   3.257
 9990SOL    HW130869   0.389   6.905   3.285
 9990SOL    HW230870   0.542   6.932   3.338
 9991SOL     OW30871   1.378   4.081   3.959
 9991SOL    HW130872   1.352   4.055   4.052
 9991SOL    HW230873   1.450   4.150   3.964
 9992SOL     OW30874   3.356   4.909   0.833
 9992SOL    HW130875   3.273   4.909   0.777
 9992SOL    HW230876   3.436   4.919   0.773
 9993SOL     OW30877   3.767   6.605   3.684
 9993SOL    HW130878   3.744   6.662   3.604
 9993SOL    HW230879   3.773   6.663   3.765
 9994SOL     OW30880   6.922   4.240   4.561
 9994SOL    HW130881   6.888   4.283   4.645
 9994SOL    HW230882   6.888   4.146   4.556
 9995SOL     OW30883   2.524   0.606   4.655
 9995SOL    HW130884   2.449   0.592   4.718
 9995SOL    HW230885   2.542   0.521   4.604
 9996SOL     OW30886   2.111   4.008   0.674
 9996SOL    HW130887   2.073   4.091   0.714
 9996SOL    HW230888   2.169   4.033   0.596
 9997SOL     OW30889   6.188   1.797   4.072
 9997SOL    HW130890   6.196   1.856   4.152
 9997SOL    HW230891   6.091   1.776   4.056
 9998SOL     OW30892   4.985   3.489   3.118
 9998SOL    HW130893   4.926   3.488   3.037
 9998SOL    HW230894   5.030   3.400   3.128
 9999SOL     OW30895   0.337   6.741   3.696
 9999SOL    HW130896   0.304   6.739   3.791
 9999SOL    HW230897   0.271   6.696   3.636
10000SOL     OW30898   5.255   1.669   1.488
10000SOL    HW130899   5.283   1.617   1.408
10000SOL    HW230900   5.322   1.741   1.507
10001SOL     OW30901   2.870   6.366   2.766
10001SOL    HW130902   2.917   6.390   2.681
10001SOL    HW230903   2.831   6.449   2.807
10002SOL     OW30904   2.384   1.325   0.503
10002SOL    HW130905   2.323   1.404   0.509
10002SOL    HW230906   2.419   1.317   0.410
10003SOL     OW30907   2.285   1.895   2.733
10003SOL    HW130908   2.253   1.873   2.826
10003SOL    HW230909   2.338   1.979   2.736
10004SOL     OW30910   5.404   4.454   4.935
10004SOL    HW130911   5.441   4.527   4.879
10004SOL    HW230912   5.477   4.390   4.959
10005SOL     OW30913   2.926   5.788   3.601
10005SOL    HW130914   2.955   5.883   3.589
10005SOL    HW230915   2.976   5.748   3.678
10006SOL     OW30916   5.660   0.416   5.442
10006SOL    HW130917   5.722   0.341   5.465
10006SOL    HW230918   5.681   0.496   5.498
10007SOL     OW30919   0.841   3.978   4.739
10007SOL    HW130920   0.892   3.968   4.653
10007SOL    HW230921   0.743   3.984   4.718
10008SOL     OW30922   3.400   1.819   3.809
10008SOL    HW130923   3.400   1.916   3.833
10008SOL    HW230924   3.358   1.767   3.883
10009SOL     OW30925   2.409   4.258   1.812
10009SOL    HW130926   2.367   4.262   1.722
10009SOL    HW230927   2.468   4.338   1.826
10010SOL     OW30928   2.897   4.733   6.625
10010SOL    HW130929   2.825   4.669   6.652
10010SOL    HW230930   2.884   4.758   6.529
10011SOL     OW30931   0.488   4.138   0.495
10011SOL    HW130932   0.410   4.183   0.451
10011SOL    HW230933   0.573   4.186   0.471
10012SOL     OW30934   5.119   0.542   2.185
10012SOL    HW130935   5.213   0.555   2.154
10012SOL    HW230936   5.081   0.630   2.214
10013SOL     OW30937   1.829   5.255   4.969
10013SOL    HW130938   1.831   5.300   5.058
10013SOL    HW230939   1.840   5.323   4.896
10014SOL     OW30940   0.516   6.645   2.609
10014SOL    HW130941   0.463   6.566   2.579
10014SOL    HW230942   0.561   6.687   2.531
10015SOL     OW30943   3.771   5.525   6.584
10015SOL    HW130944   3.863   5.510   6.548
10015SOL    HW230945   3.749   5.623   6.579
10016SOL     OW30946   1.664   0.657   4.452
10016SOL    HW130947   1.703   0.663   4.360
10016SOL    HW230948   1.676   0.745   4.498
10017SOL     OW30949   2.857   1.895   2.911
10017SOL    HW130950   2.807   1.833   2.850
10017SOL    HW230951   2.793   1.956   2.957
10018SOL     OW30952   6.896   4.185   5.867
10018SOL    HW130953   6.939   4.270   5.898
10018SOL    HW230954   6.812   4.207   5.818
10019SOL     OW30955   0.175   1.341   2.921
10019SOL    HW130956   0.083   1.333   2.883
10019SOL    HW230957   0.221   1.420   2.880
10020SOL     OW30958   6.868   1.084   1.622
10020SOL    HW130959   6.822   1.007   1.666
10020SOL    HW230960   6.953   1.104   1.669
10021SOL     OW30961   1.569   3.469   1.615
10021SOL    HW130962   1.625   3.423   1.546
10021SOL    HW230963   1.585   3.426   1.704
10022SOL     OW30964   2.108   6.222   6.986
10022SOL    HW130965   2.161   6.138   6.976
10022SOL    HW230966   2.051   6.216   0.046
10023SOL     OW30967   2.756   6.698   5.678
10023SOL    HW130968   2.748   6.654   5.767
10023SOL    HW230969   2.848   6.737   5.669
10024SOL     OW30970   1.721   4.816   2.826
10024SOL    HW130971   1.804   4.769   2.858
10024SOL    HW230972   1.747   4.890   2.764
10025SOL     OW30973   1.507   3.805   1.799
10025SOL    HW130974   1.509   3.761   1.709
10025SOL    HW230975   1.436   3.762   1.855
10026SOL     OW30976   5.006   1.287   2.768
10026SOL    HW130977   4.913   1.310   2.739
10026SOL    HW230978   5.071   1.343   2.718
10027SOL     OW30979   1.578   3.059   4.866
10027SOL    HW130980   1.615   2.979   4.912
10027SOL    HW230981   1.479   3.050   4.859
10028SOL     OW30982   3.331   0.973   1.587
10028SOL    HW130983   3.412   0.980   1.528
10028SOL    HW230984   3.360   0.975   1.683
10029SOL     OW30985   6.988   2.608   4.311
10029SOL    HW130986   6.983   2.646   4.219
10029SOL    HW230987   0.027   2.664   4.366
10030SOL     OW30988   2.645   6.879   4.667
10030SOL    HW130989   2.660   6.809   4.736
10030SOL    HW230990   2.652   6.839   4.575
10031SOL     OW30991   4.174   5.214   4.857
10031SOL    HW130992   4.264   5.256   4.859
10031SOL    HW230993   4.175   5.128   4.908
10032SOL     OW30994   3.473   6.584   5.692
10032SOL    HW130995   3.486   6.485   5.699
10032SOL    HW230996   3.419   6.616   5.770
10033SOL     OW30997   4.456   1.251   3.469
10033SOL    HW130998   4.459   1.319   3.396
10033SOL    HW230999   4.508   1.285   3.548
10034SOL     OW31000   1.841   0.846   3.608
10034SOL    HW131001   1.826   0.828   3.511
10034SOL    HW231002   1.807   0.769   3.662
10035SOL     OW31003   5.950   3.939   0.080
10035SOL    HW131004   6.023   3.958   0.014
10035SOL    HW231005   5.976   3.861   0.137
10036SOL     OW31006   6.560   0.473   6.853
10036SOL    HW131007   6.496   0.546   6.878
10036SOL    HW231008   6.624   0.507   6.784
10037SOL     OW31009   6.413   0.131   5.956
10037SOL    HW131010   6.406   0.060   5.885
10037SOL    HW231011   6.466   0.208   5.921
10038SOL     OW31012   4.603   6.500   6.671
10038SOL    HW131013   4.510   6.465   6.660
10038SOL    HW231014   4.650   6.499   6.583
10039SOL     OW31015   5.069   5.801   4.835
10039SOL    HW131016   5.120   5.866   4.778
10039SOL    HW231017   4.984   5.777   4.790
10040SOL     OW31018   4.392   6.256   0.775
10040SOL    HW131019   4.296   6.280   0.790
10040SOL    HW231020   4.432   6.322   0.712
10041SOL     OW31021   6.585   5.022   5.214
10041SOL    HW131022   6.539   5.019   5.302
10041SOL    HW231023   6.579   5.116   5.177
10042SOL     OW31024   0.509   1.125   5.399
10042SOL    HW131025   0.595   1.118   5.349
10042SOL    HW231026   0.528   1.122   5.498
10043SOL     OW31027   0.608   0.641   2.612
10043SOL    HW131028   0.643   0.671   2.701
10043SOL    HW231029   0.509   0.655   2.609
10044SOL     OW31030   2.802   1.523   4.497
10044SOL    HW131031   2.703   1.512   4.489
10044SOL    HW231032   2.824   1.560   4.587
10045SOL     OW31033   4.709   0.285   4.124
10045SOL    HW131034   4.722   0.187   4.141
10045SOL    HW231035   4.657   0.298   4.039
10046SOL     OW31036   0.044   1.681   1.776
10046SOL    HW131037   0.038   1.760   1.716
10046SOL    HW231038   7.011   1.697   1.858
10047SOL     OW31039   6.151   2.989   5.168
10047SOL    HW131040   6.180   2.895   5.147
10047SOL    HW231041   6.055   3.001   5.140
10048SOL     OW31042   3.070   1.706   1.652
10048SOL    HW131043   3.040   1.638   1.586
10048SOL    HW231044   3.147   1.758   1.614
10049SOL     OW31045   0.810   0.810   6.977
10049SOL    HW131046   0.748   0.888   6.966
10049SOL    HW231047   0.758   0.725   6.975
10050SOL     OW31048   5.613   3.085   4.765
10050SOL    HW131049   5.540   3.141   4.804
10050SOL    HW231050   5.670   3.141   4.705
10051SOL     OW31051   0.178   3.085   4.761
10051SOL    HW131052   0.184   3.160   4.826
10051SOL    HW231053   0.120   3.012   4.798
10052SOL     OW31054   1.975   2.836   1.708
10052SOL    HW131055   2.066   2.853   1.746
10052SOL    HW231056   1.978   2.754   1.652
10053SOL     OW31057   3.928   4.784   2.229
10053SOL    HW131058   3.904   4.814   2.322
10053SOL    HW231059   3.873   4.704   2.206
10054SOL     OW31060   4.476   5.801   6.356
10054SOL    HW131061   4.430   5.819   6.269
10054SOL    HW231062   4.429   5.728   6.405
10055SOL     OW31063   6.378   2.322   4.943
10055SOL    HW131064   6.318   2.283   4.874
10055SOL    HW231065   6.329   2.393   4.994
10056SOL     OW31066   5.906   5.018   0.939
10056SOL    HW131067   5.964   4.960   0.996
10056SOL    HW231068   5.830   4.964   0.902
10057SOL     OW31069   3.624   1.679   4.157
10057SOL    HW131070   3.571   1.686   4.242
10057SOL    HW231071   3.583   1.609   4.099
10058SOL     OW31072   7.009   3.816   5.319
10058SOL    HW131073   6.910   3.828   5.330
10058SOL    HW231074   0.034   3.877   5.382
10059SOL     OW31075   5.343   6.340   1.172
10059SOL    HW131076   5.305   6.271   1.233
10059SOL    HW231077   5.280   6.355   1.096
10060SOL     OW31078   2.291   1.765   2.481
10060SOL    HW131079   2.332   1.816   2.557
10060SOL    HW231080   2.203   1.804   2.457
10061SOL     OW31081   5.014   1.274   4.402
10061SOL    HW131082   5.077   1.351   4.393
10061SOL    HW231083   4.921   1.303   4.380
10062SOL     OW31084   6.509   6.850   4.673
10062SOL    HW131085   6.505   6.874   4.770
10062SOL    HW231086   6.561   6.920   4.624
10063SOL     OW31087   1.357   1.925   3.156
10063SOL    HW131088   1.456   1.934   3.162
10063SOL    HW231089   1.323   1.986   3.084
10064SOL     OW31090   5.961   5.685   5.564
10064SOL    HW131091   5.966   5.780   5.533
10064SOL    HW231092   5.869   5.665   5.598
10065SOL     OW31093   1.464   0.645   1.931
10065SOL    HW131094   1.437   0.581   2.003
10065SOL    HW231095   1.382   0.683   1.889
10066SOL     OW31096   1.421   1.217   4.143
10066SOL    HW131097   1.389   1.205   4.049
10066SOL    HW231098   1.521   1.229   4.143
10067SOL     OW31099   5.365   4.733   5.203
10067SOL    HW131100   5.420   4.744   5.121
10067SOL    HW231101   5.305   4.654   5.193
10068SOL     OW31102   5.408   3.042   3.953
10068SOL    HW131103   5.362   3.115   4.004
10068SOL    HW231104   5.367   2.954   3.976
10069SOL     OW31105   2.064   6.513   3.621
10069SOL    HW131106   1.970   6.518   3.656
10069SOL    HW231107   2.079   6.585   3.554
10070SOL     OW31108   0.346   6.934   4.720
10070SOL    HW131109   0.297   6.849   4.700
10070SOL    HW231110   0.440   6.926   4.688
10071SOL     OW31111   4.632   5.032   4.138
10071SOL    HW131112   4.604   4.943   4.173
10071SOL    HW231113   4.560   5.099   4.154
10072SOL     OW31114   1.234   6.700   4.241
10072SOL    HW131115   1.158   6.650   4.200
10072SOL    HW231116   1.301   6.723   4.170
10073SOL     OW31117   6.438   3.964   4.989
10073SOL    HW131118   6.464   3.872   5.019
10073SOL    HW231119   6.359   3.995   5.041
10074SOL     OW31120   0.563   0.317   6.080
10074SOL    HW131121   0.657   0.296   6.055
10074SOL    HW231122   0.501   0.288   6.007
10075SOL     OW31123   1.481   2.300   2.468
10075SOL    HW131124   1.572   2.258   2.466
10075SOL    HW231125   1.445   2.297   2.561
10076SOL     OW31126   5.788   0.640   4.003
10076SOL    HW131127   5.815   0.675   3.913
10076SOL    HW231128   5.753   0.547   3.993
10077SOL     OW31129   3.492   2.277   6.838
10077SOL    HW131130   3.435   2.251   6.760
10077SOL    HW231131   3.538   2.363   6.819
10078SOL     OW31132   6.416   6.594   4.096
10078SOL    HW131133   6.442   6.506   4.056
10078SOL    HW231134   6.472   6.612   4.177
10079SOL     OW31135   1.427   2.782   1.867
10079SOL    HW131136   1.387   2.811   1.954
10079SOL    HW231137   1.499   2.715   1.885
10080SOL     OW31138   3.278   2.031   6.337
10080SOL    HW131139   3.369   1.998   6.311
10080SOL    HW231140   3.272   2.129   6.319
10081SOL     OW31141   0.371   7.018   6.455
10081SOL    HW131142   0.346   6.986   6.546
10081SOL    HW231143   0.290   0.030   6.408
10082SOL     OW31144   6.829   2.591   2.724
10082SOL    HW131145   6.787   2.680   2.706
10082SOL    HW231146   6.927   2.597   2.710
10083SOL     OW31147   4.996   0.879   3.417
10083SOL    HW131148   5.009   0.909   3.323
10083SOL    HW231149   4.898   0.879   3.438
10084SOL     OW31150   3.953   0.334   6.088
10084SOL    HW131151   3.881   0.324   6.157
10084SOL    HW231152   4.013   0.409   6.113
10085SOL     OW31153   0.127   5.134   2.794
10085SOL    HW131154   0.224   5.125   2.819
10085SOL    HW231155   0.118   5.206   2.725
10086SOL     OW31156   5.725   5.362   2.357
10086SOL    HW131157   5.659   5.436   2.374
10086SOL    HW231158   5.677   5.279   2.331
10087SOL     OW31159   0.973   1.034   4.261
10087SOL    HW131160   1.035   0.970   4.307
10087SOL    HW231161   0.879   1.010   4.283
10088SOL     OW31162   6.948   6.854   5.918
10088SOL    HW131163   6.910   6.806   5.839
10088SOL    HW231164   6.925   6.951   5.912
10089SOL     OW31165   2.529   1.795   2.953
10089SOL    HW131166   2.447   1.779   3.008
10089SOL    HW231167   2.570   1.882   2.979
10090SOL     OW31168   0.244   5.056   1.088
10090SOL    HW131169   0.188   4.996   1.145
10090SOL    HW231170   0.311   5.001   1.038
10091SOL     OW31171   1.161   3.336   4.773
10091SOL    HW131172   1.195   3.253   4.729
10091SOL    HW231173   1.101   3.311   4.849
10092SOL     OW31174   1.514   3.538   5.130
10092SOL    HW131175   1.450   3.499   5.063
10092SOL    HW231176   1.521   3.477   5.209
10093SOL     OW31177   1.441   4.832   4.371
10093SOL    HW131178   1.475   4.859   4.281
10093SOL    HW231179   1.517   4.801   4.428
10094SOL     OW31180   2.629   6.353   1.915
10094SOL    HW131181   2.570   6.275   1.937
10094SOL    HW231182   2.725   6.326   1.921
10095SOL     OW31183   6.422   1.450   5.339
10095SOL    HW131184   6.349   1.456   5.407
10095SOL    HW231185   6.484   1.528   5.349
10096SOL     OW31186   6.379   4.902   2.998
10096SOL    HW131187   6.442   4.846   3.052
10096SOL    HW231188   6.391   4.998   3.023
10097SOL     OW31189   0.881   1.205   6.694
10097SOL    HW131190   0.843   1.144   6.626
10097SOL    HW231191   0.938   1.153   6.758
10098SOL     OW31192   2.164   6.931   5.391
10098SOL    HW131193   2.162   6.846   5.444
10098SOL    HW231194   2.124   7.005   5.445
10099SOL     OW31195   6.704   5.029   6.461
10099SOL    HW131196   6.734   5.124   6.456
10099SOL    HW231197   6.663   5.002   6.374
10100SOL     OW31198   5.276   0.040   4.461
10100SOL    HW131199   5.339   6.989   4.486
10100SOL    HW231200   5.312   0.089   4.381
10101SOL     OW31201   5.645   4.605   1.681
10101SOL    HW131202   5.606   4.522   1.720
10101SOL    HW231203   5.659   4.592   1.583
10102SOL     OW31204   2.129   0.706   2.390
10102SOL    HW131205   2.080   0.679   2.307
10102SOL    HW231206   2.063   0.715   2.466
10103SOL     OW31207   2.711   1.104   4.905
10103SOL    HW131208   2.661   1.104   4.818
10103SOL    HW231209   2.809   1.092   4.886
10104SOL     OW31210   1.050   3.458   5.212
10104SOL    HW131211   0.986   3.458   5.135
10104SOL    HW231212   1.061   3.552   5.245
10105SOL     OW31213   1.047   1.382   6.444
10105SOL    HW131214   1.103   1.337   6.514
10105SOL    HW231215   0.979   1.318   6.409
10106SOL     OW31216   5.217   4.930   1.120
10106SOL    HW131217   5.289   4.906   1.185
10106SOL    HW231218   5.179   5.020   1.143
10107SOL     OW31219   6.901   1.624   6.436
10107SOL    HW131220   6.931   1.532   6.412
10107SOL    HW231221   6.823   1.618   6.498
10108SOL     OW31222   6.622   6.214   7.012
10108SOL    HW131223   6.625   6.286   0.059
10108SOL    HW231224   6.547   6.231   6.950
10109SOL     OW31225   3.641   6.374   2.518
10109SOL    HW131226   3.607   6.309   2.450
10109SOL    HW231227   3.568   6.438   2.542
10110SOL     OW31228   3.966   6.578   4.926
10110SOL    HW131229   3.889   6.637   4.952
10110SOL    HW231230   3.978   6.506   4.993
10111SOL     OW31231   6.324   3.166   4.169
10111SOL    HW131232   6.346   3.253   4.126
10111SOL    HW231233   6.268   3.111   4.106
10112SOL     OW31234   5.388   3.889   4.660
10112SOL    HW131235   5.441   3.809   4.634
10112SOL    HW231236   5.402   3.908   4.758
10113SOL     OW31237   3.678   1.304   6.503
10113SOL    HW131238   3.745   1.326   6.574
10113SOL    HW231239   3.662   1.384   6.446
10114SOL     OW31240   5.409   0.265   0.808
10114SOL    HW131241   5.417   0.200   0.733
10114SOL    HW231242   5.333   0.239   0.867
10115SOL     OW31243   3.115   2.132   3.279
10115SOL    HW131244   3.126   2.117   3.378
10115SOL    HW231245   3.165   2.061   3.229
10116SOL     OW31246   0.703   6.253   0.320
10116SOL    HW131247   0.703   6.258   0.220
10116SOL    HW231248   0.616   6.286   0.355
10117SOL     OW31249   6.572   0.224   4.680
10117SOL    HW131250   6.610   0.184   4.763
10117SOL    HW231251   6.594   0.166   4.601
10118SOL     OW31252   0.106   4.947   3.102
10118SOL    HW131253   0.088   5.010   3.177
10118SOL    HW231254   0.059   4.979   3.020
10119SOL     OW31255   1.728   6.436   4.923
10119SOL    HW131256   1.718   6.449   4.824
10119SOL    HW231257   1.809   6.486   4.955
10120SOL     OW31258   0.487   3.321   4.250
10120SOL    HW131259   0.438   3.357   4.170
10120SOL    HW231260   0.474   3.383   4.327
10121SOL     OW31261   6.541   4.993   5.538
10121SOL    HW131262   6.531   4.990   5.637
10121SOL    HW231263   6.569   4.903   5.505
10122SOL     OW31264   5.341   3.140   0.735
10122SOL    HW131265   5.264   3.194   0.700
10122SOL    HW231266   5.425   3.193   0.728
10123SOL     OW31267   6.482   6.219   0.513
10123SOL    HW131268   6.551   6.168   0.564
10123SOL    HW231269   6.424   6.270   0.577
10124SOL     OW31270   1.878   3.738   6.739
10124SOL    HW131271   1.793   3.785   6.762
10124SOL    HW231272   1.867   3.640   6.752
10125SOL     OW31273   1.585   1.159   2.464
10125SOL    HW131274   1.679   1.191   2.474
10125SOL    HW231275   1.528   1.233   2.430
10126SOL     OW31276   6.718   6.643   6.475
10126SOL    HW131277   6.740   6.738   6.455
10126SOL    HW231278   6.803   6.590   6.482
10127SOL     OW31279   2.790   5.308   5.752
10127SOL    HW131280   2.861   5.359   5.801
10127SOL    HW231281   2.790   5.213   5.783
10128SOL     OW31282   0.948   1.910   1.271
10128SOL    HW131283   0.882   1.838   1.251
10128SOL    HW231284   0.901   1.997   1.281
10129SOL     OW31285   4.776   2.779   4.320
10129SOL    HW131286   4.687   2.745   4.350
10129SOL    HW231287   4.791   2.752   4.225
10130SOL     OW31288   2.269   4.414   2.432
10130SOL    HW131289   2.285   4.316   2.429
10130SOL    HW231290   2.185   4.436   2.382
10131SOL     OW31291   0.577   1.065   3.359
10131SOL    HW131292   0.553   1.162   3.355
10131SOL    HW231293   0.648   1.051   3.428
10132SOL     OW31294   2.190   6.520   3.256
10132SOL    HW131295   2.281   6.557   3.241
10132SOL    HW231296   2.135   6.586   3.307
10133SOL     OW31297   4.654   6.220   1.868
10133SOL    HW131298   4.561   6.186   1.882
10133SOL    HW231299   4.652   6.320   1.861
10134SOL     OW31300   6.935   0.118   3.891
10134SOL    HW131301   0.008   0.144   3.908
10134SOL    HW231302   6.909   0.046   3.955
10135SOL     OW31303   5.212   3.328   3.593
10135SOL    HW131304   5.184   3.265   3.521
10135SOL    HW231305   5.217   3.421   3.556
10136SOL     OW31306   5.545   0.349   2.594
10136SOL    HW131307   5.612   0.420   2.573
10136SOL    HW231308   5.452   0.385   2.580
10137SOL     OW31309   6.484   4.864   4.218
10137SOL    HW131310   6.539   4.812   4.152
10137SOL    HW231311   6.541   4.889   4.296
10138SOL     OW31312   4.275   2.250   1.173
10138SOL    HW131313   4.253   2.315   1.101
10138SOL    HW231314   4.367   2.212   1.158
10139SOL     OW31315   3.955   3.297   2.801
10139SOL    HW131316   3.901   3.220   2.835
10139SOL    HW231317   3.931   3.316   2.706
10140SOL     OW31318   6.630   5.866   5.730
10140SOL    HW131319   6.553   5.840   5.788
10140SOL    HW231320   6.640   5.800   5.655
10141SOL     OW31321   3.225   1.338   4.110
10141SOL    HW131322   3.126   1.323   4.118
10141SOL    HW231323   3.255   1.311   4.018
10142SOL     OW31324   5.892   6.605   4.520
10142SOL    HW131325   5.951   6.681   4.547
10142SOL    HW231326   5.796   6.630   4.536
10143SOL     OW31327   4.797   0.522   0.722
10143SOL    HW131328   4.789   0.564   0.812
10143SOL    HW231329   4.832   0.429   0.732
10144SOL     OW31330   4.402   6.749   6.625
10144SOL    HW131331   4.306   6.757   6.597
10144SOL    HW231332   4.441   6.666   6.586
10145SOL     OW31333   3.896   6.113   6.269
10145SOL    HW131334   3.921   6.202   6.232
10145SOL    HW231335   3.978   6.063   6.294
10146SOL     OW31336   3.750   5.255   5.037
10146SOL    HW131337   3.819   5.241   4.965
10146SOL    HW231338   3.726   5.166   5.077
10147SOL     OW31339   5.006   4.785   4.630
10147SOL    HW131340   4.939   4.724   4.587
10147SOL    HW231341   4.958   4.856   4.681
10148SOL     OW31342   5.739   5.236   6.727
10148SOL    HW131343   5.705   5.164   6.788
10148SOL    HW231344   5.836   5.221   6.709
10149SOL     OW31345   5.194   1.984   0.837
10149SOL    HW131346   5.231   1.931   0.761
10149SOL    HW231347   5.106   1.946   0.866
10150SOL     OW31348   4.656   3.518   0.414
10150SOL    HW131349   4.723   3.451   0.382
10150SOL    HW231350   4.700   3.580   0.479
10151SOL     OW31351   0.921   6.612   6.535
10151SOL    HW131352   0.882   6.704   6.528
10151SOL    HW231353   0.976   6.594   6.453
10152SOL     OW31354   1.305   6.388   4.407
10152SOL    HW131355   1.355   6.453   4.464
10152SOL    HW231356   1.277   6.310   4.462
10153SOL     OW31357   5.146   5.819   4.121
10153SOL    HW131358   5.230   5.794   4.170
10153SOL    HW231359   5.093   5.737   4.100
10154SOL     OW31360   6.102   0.112   4.582
10154SOL    HW131361   6.032   0.042   4.595
10154SOL    HW231362   6.083   0.161   4.496
10155SOL     OW31363   4.343   1.815   5.458
10155SOL    HW131364   4.265   1.876   5.452
10155SOL    HW231365   4.325   1.744   5.526
10156SOL     OW31366   6.301   0.225   2.225
10156SOL    HW131367   6.274   0.300   2.286
10156SOL    HW231368   6.399   0.228   2.208
10157SOL     OW31369   5.941   2.831   6.227
10157SOL    HW131370   5.842   2.835   6.239
10157SOL    HW231371   5.965   2.866   6.136
10158SOL     OW31372   4.530   3.290   0.577
10158SOL    HW131373   4.556   3.375   0.530
10158SOL    HW231374   4.453   3.308   0.638
10159SOL     OW31375   2.750   3.370   6.477
10159SOL    HW131376   2.753   3.467   6.451
10159SOL    HW231377   2.788   3.315   6.402
10160SOL     OW31378   1.846   3.308   2.289
10160SOL    HW131379   1.929   3.325   2.235
10160SOL    HW231380   1.871   3.266   2.376
10161SOL     OW31381   3.492   3.593   6.710
10161SOL    HW131382   3.427   3.660   6.745
10161SOL    HW231383   3.524   3.622   6.620
10162SOL     OW31384   2.583   4.691   0.560
10162SOL    HW131385   2.495   4.737   0.575
10162SOL    HW231386   2.569   4.611   0.502
10163SOL     OW31387   5.050   5.394   6.295
10163SOL    HW131388   5.014   5.486   6.275
10163SOL    HW231389   4.979   5.326   6.277
10164SOL     OW31390   5.689   3.244   4.577
10164SOL    HW131391   5.626   3.298   4.633
10164SOL    HW231392   5.779   3.286   4.578
10165SOL     OW31393   0.624   1.699   3.651
10165SOL    HW131394   0.540   1.743   3.682
10165SOL    HW231395   0.608   1.601   3.636
10166SOL     OW31396   3.277   1.131   2.291
10166SOL    HW131397   3.177   1.140   2.290
10166SOL    HW231398   3.306   1.084   2.374
10167SOL     OW31399   3.694   2.367   6.548
10167SOL    HW131400   3.778   2.374   6.493
10167SOL    HW231401   3.645   2.284   6.523
10168SOL     OW31402   6.110   4.268   5.470
10168SOL    HW131403   6.018   4.308   5.472
10168SOL    HW231404   6.132   4.240   5.377
10169SOL     OW31405   5.815   3.936   3.140
10169SOL    HW131406   5.808   4.034   3.161
10169SOL    HW231407   5.888   3.896   3.195
10170SOL     OW31408   1.044   4.343   5.928
10170SOL    HW131409   0.950   4.368   5.950
10170SOL    HW231410   1.081   4.284   6.000
10171SOL     OW31411   6.276   3.609   5.523
10171SOL    HW131412   6.302   3.656   5.607
10171SOL    HW231413   6.192   3.556   5.538
10172SOL     OW31414   6.194   0.098   4.153
10172SOL    HW131415   6.239   0.182   4.183
10172SOL    HW231416   6.251   0.051   4.086
10173SOL     OW31417   0.658   3.001   0.915
10173SOL    HW131418   0.680   2.916   0.963
10173SOL    HW231419   0.633   3.071   0.982
10174SOL     OW31420   5.403   5.331   2.543
10174SOL    HW131421   5.318   5.283   2.520
10174SOL    HW231422   5.479   5.266   2.545
10175SOL     OW31423   6.631   2.388   3.665
10175SOL    HW131424   6.576   2.321   3.615
10175SOL    HW231425   6.704   2.421   3.605
10176SOL     OW31426   1.568   3.707   5.909
10176SOL    HW131427   1.548   3.704   6.007
10176SOL    HW231428   1.656   3.664   5.891
10177SOL     OW31429   1.694   1.266   0.253
10177SOL    HW131430   1.631   1.307   0.187
10177SOL    HW231431   1.788   1.291   0.230
10178SOL     OW31432   0.106   1.900   5.028
10178SOL    HW131433   0.124   1.802   5.030
10178SOL    HW231434   0.105   1.932   4.933
10179SOL     OW31435   1.014   1.482   5.866
10179SOL    HW131436   1.021   1.578   5.838
10179SOL    HW231437   0.932   1.442   5.826
10180SOL     OW31438   3.533   0.163   0.125
10180SOL    HW131439   3.586   0.156   0.210
10180SOL    HW231440   3.594   0.186   0.049
10181SOL     OW31441   5.163   3.127   2.090
10181SOL    HW131442   5.125   3.101   2.179
10181SOL    HW231443   5.257   3.095   2.083
10182SOL     OW31444   5.581   0.979   1.991
10182SOL    HW131445   5.610   0.934   2.076
10182SOL    HW231446   5.517   1.052   2.013
10183SOL     OW31447   0.513   2.050   6.564
10183SOL    HW131448   0.574   2.099   6.627
10183SOL    HW231449   0.456   2.115   6.515
10184SOL     OW31450   3.637   0.894   6.416
10184SOL    HW131451   3.668   0.808   6.374
10184SOL    HW231452   3.566   0.935   6.358
10185SOL     OW31453   5.299   5.808   1.776
10185SOL    HW131454   5.243   5.753   1.838
10185SOL    HW231455   5.383   5.836   1.822
10186SOL     OW31456   5.807   3.499   3.181
10186SOL    HW131457   5.757   3.430   3.233
10186SOL    HW231458   5.877   3.540   3.239
10187SOL     OW31459   0.519   2.718   0.791
10187SOL    HW131460   0.485   2.810   0.815
10187SOL    HW231461   0.557   2.675   0.873
10188SOL     OW31462   3.041   5.687   0.940
10188SOL    HW131463   2.993   5.646   0.862
10188SOL    HW231464   3.007   5.779   0.956
10189SOL     OW31465   1.328   0.570   5.767
10189SOL    HW131466   1.369   0.481   5.785
10189SOL    HW231467   1.279   0.602   5.848
10190SOL     OW31468   4.564   3.038   1.469
10190SOL    HW131469   4.563   3.133   1.437
10190SOL    HW231470   4.512   3.032   1.555
10191SOL     OW31471   5.075   4.779   6.172
10191SOL    HW131472   5.077   4.811   6.267
10191SOL    HW231473   5.004   4.709   6.163
10192SOL     OW31474   4.992   1.623   5.859
10192SOL    HW131475   4.945   1.651   5.942
10192SOL    HW231476   5.009   1.525   5.862
10193SOL     OW31477   4.201   3.520   1.833
10193SOL    HW131478   4.230   3.425   1.835
10193SOL    HW231479   4.145   3.540   1.914
10194SOL     OW31480   5.927   4.491   5.275
10194SOL    HW131481   5.895   4.473   5.369
10194SOL    HW231482   5.851   4.479   5.212
10195SOL     OW31483   5.985   5.086   1.358
10195SOL    HW131484   6.052   5.068   1.286
10195SOL    HW231485   5.947   5.177   1.346
10196SOL     OW31486   4.414   1.616   3.771
10196SOL    HW131487   4.419   1.654   3.679
10196SOL    HW231488   4.463   1.676   3.835
10197SOL     OW31489   6.822   1.883   4.928
10197SOL    HW131490   6.745   1.931   4.886
10197SOL    HW231491   6.802   1.865   5.024
10198SOL     OW31492   3.035   0.457   1.447
10198SOL    HW131493   2.957   0.499   1.400
10198SOL    HW231494   3.040   0.492   1.540
10199SOL     OW31495   2.515   2.838   5.894
10199SOL    HW131496   2.505   2.742   5.918
10199SOL    HW231497   2.599   2.874   5.935
10200SOL     OW31498   4.623   1.532   1.006
10200SOL    HW131499   4.600   1.533   1.103
10200SOL    HW231500   4.643   1.625   0.975
10201SOL     OW31501   1.398   4.298   1.056
10201SOL    HW131502   1.309   4.253   1.061
10201SOL    HW231503   1.386   4.397   1.063
10202SOL     OW31504   4.160   2.736   6.831
10202SOL    HW131505   4.256   2.762   6.837
10202SOL    HW231506   4.137   2.719   6.735
10203SOL     OW31507   6.369   2.826   3.670
10203SOL    HW131508   6.422   2.907   3.693
10203SOL    HW231509   6.430   2.756   3.632
10204SOL     OW31510   5.343   6.860   6.572
10204SOL    HW131511   5.283   6.781   6.565
10204SOL    HW231512   5.366   6.893   6.480
10205SOL     OW31513   1.454   1.156   0.764
10205SOL    HW131514   1.492   1.072   0.805
10205SOL    HW231515   1.354   1.152   0.765
10206SOL     OW31516   0.258   0.787   6.513
10206SOL    HW131517   0.204   0.716   6.468
10206SOL    HW231518   0.220   0.877   6.491
10207SOL     OW31519   1.048   1.639   6.576
10207SOL    HW131520   1.056   1.563   6.512
10207SOL    HW231521   0.966   1.692   6.555
10208SOL     OW31522   5.735   4.922   4.149
10208SOL    HW131523   5.713   4.832   4.111
10208SOL    HW231524   5.832   4.924   4.175
10209SOL     OW31525   6.560   6.859   6.123
10209SOL    HW131526   6.545   6.773   6.171
10209SOL    HW231527   6.490   6.871   6.052
10210SOL     OW31528   5.017   6.728   1.476
10210SOL    HW131529   4.939   6.790   1.474
10210SOL    HW231530   5.021   6.684   1.566
10211SOL     OW31531   3.778   6.786   3.918
10211SOL    HW131532   3.699   6.835   3.955
10211SOL    HW231533   3.800   6.709   3.977
10212SOL     OW31534   0.819   0.385   5.597
10212SOL    HW131535   0.887   0.451   5.565
10212SOL    HW231536   0.746   0.377   5.529
10213SOL     OW31537   4.315   2.788   1.335
10213SOL    HW131538   4.318   2.885   1.310
10213SOL    HW231539   4.332   2.777   1.432
10214SOL     OW31540   0.912   2.008   1.611
10214SOL    HW131541   0.903   2.053   1.699
10214SOL    HW231542   0.829   2.024   1.557
10215SOL     OW31543   4.064   3.203   3.425
10215SOL    HW131544   4.076   3.178   3.329
10215SOL    HW231545   3.975   3.247   3.437
10216SOL     OW31546   6.726   0.713   0.995
10216SOL    HW131547   6.637   0.716   0.950
10216SOL    HW231548   6.780   0.792   0.968
10217SOL     OW31549   2.764   1.263   3.313
10217SOL    HW131550   2.673   1.305   3.307
10217SOL    HW231551   2.754   1.164   3.320
10218SOL     OW31552   1.301   2.891   2.085
10218SOL    HW131553   1.352   2.923   2.164
10218SOL    HW231554   1.210   2.862   2.114
10219SOL     OW31555   0.267   1.657   2.648
10219SOL    HW131556   0.170   1.638   2.660
10219SOL    HW231557   0.299   1.717   2.722
10220SOL     OW31558   3.721   2.691   1.307
10220SOL    HW131559   3.713   2.710   1.209
10220SOL    HW231560   3.696   2.773   1.359
10221SOL     OW31561   0.871   5.853   3.170
10221SOL    HW131562   0.923   5.835   3.087
10221SOL    HW231563   0.891   5.945   3.203
10222SOL     OW31564   2.881   3.286   5.286
10222SOL    HW131565   2.783   3.263   5.290
10222SOL    HW231566   2.903   3.321   5.195
10223SOL     OW31567   0.689   4.393   1.221
10223SOL    HW131568   0.713   4.469   1.161
10223SOL    HW231569   0.743   4.399   1.306
10224SOL     OW31570   6.540   2.979   4.147
10224SOL    HW131571   6.465   3.040   4.174
10224SOL    HW231572   6.507   2.916   4.076
10225SOL     OW31573   2.204   4.779   5.537
10225SOL    HW131574   2.157   4.706   5.488
10225SOL    HW231575   2.150   4.863   5.529
10226SOL     OW31576   3.273   0.777   6.744
10226SOL    HW131577   3.207   0.824   6.803
10226SOL    HW231578   3.340   0.843   6.710
10227SOL     OW31579   4.712   4.168   0.190
10227SOL    HW131580   4.705   4.136   0.095
10227SOL    HW231581   4.807   4.196   0.208
10228SOL     OW31582   6.895   0.042   0.840
10228SOL    HW131583   6.889   0.136   0.873
10228SOL    HW231584   6.834   7.006   0.893
10229SOL     OW31585   1.182   2.321   5.000
10229SOL    HW131586   1.240   2.271   4.936
10229SOL    HW231587   1.238   2.357   5.075
10230SOL     OW31588   6.044   5.670   2.974
10230SOL    HW131589   6.072   5.656   3.069
10230SOL    HW231590   6.037   5.582   2.927
10231SOL     OW31591   1.411   5.771   5.019
10231SOL    HW131592   1.465   5.698   4.978
10231SOL    HW231593   1.443   5.860   4.985
10232SOL     OW31594   2.563   0.797   2.912
10232SOL    HW131595   2.500   0.762   2.843
10232SOL    HW231596   2.657   0.779   2.883
10233SOL     OW31597   4.087   3.841   5.201
10233SOL    HW131598   4.026   3.775   5.246
10233SOL    HW231599   4.042   3.878   5.119
10234SOL     OW31600   6.290   6.888   1.097
10234SOL    HW131601   6.245   6.865   1.184
10234SOL    HW231602   6.220   6.917   1.031
10235SOL     OW31603   1.778   1.991   2.131
10235SOL    HW131604   1.805   2.051   2.055
10235SOL    HW231605   1.742   2.047   2.206
10236SOL     OW31606   2.318   6.943   0.327
10236SOL    HW131607   2.389   6.957   0.259
10236SOL    HW231608   2.270   6.857   0.308
10237SOL     OW31609   6.811   3.797   0.189
10237SOL    HW131610   6.881   3.741   0.144
10237SOL    HW231611   6.746   3.737   0.236
10238SOL     OW31612   3.843   4.508   1.478
10238SOL    HW131613   3.824   4.567   1.556
10238SOL    HW231614   3.800   4.419   1.491
10239SOL     OW31615   1.303   2.988   4.821
10239SOL    HW131616   1.271   2.956   4.910
10239SOL    HW231617   1.318   2.909   4.762
10240SOL     OW31618   2.872   5.955   2.514
10240SOL    HW131619   2.791   5.989   2.466
10240SOL    HW231620   2.861   5.857   2.532
10241SOL     OW31621   5.291   1.878   2.129
10241SOL    HW131622   5.303   1.860   2.032
10241SOL    HW231623   5.220   1.948   2.142
10242SOL     OW31624   6.992   1.750   0.482
10242SOL    HW131625   6.979   1.849   0.478
10242SOL    HW231626   6.903   1.705   0.475
10243SOL     OW31627   2.390   4.653   1.434
10243SOL    HW131628   2.454   4.578   1.418
10243SOL    HW231629   2.382   4.669   1.532
10244SOL     OW31630   2.218   4.198   0.428
10244SOL    HW131631   2.146   4.268   0.424
10244SOL    HW231632   2.188   4.116   0.378
10245SOL     OW31633   3.459   4.643   1.420
10245SOL    HW131634   3.419   4.682   1.503
10245SOL    HW231635   3.393   4.583   1.376
10246SOL     OW31636   2.960   3.512   4.504
10246SOL    HW131637   2.919   3.493   4.415
10246SOL    HW231638   2.975   3.610   4.514
10247SOL     OW31639   0.670   4.156   6.340
10247SOL    HW131640   0.768   4.174   6.333
10247SOL    HW231641   0.620   4.217   6.278
10248SOL     OW31642   1.071   0.621   2.629
10248SOL    HW131643   1.038   0.714   2.609
10248SOL    HW231644   1.054   0.562   2.550
10249SOL     OW31645   2.565   4.829   0.012
10249SOL    HW131646   2.624   4.897   0.056
10249SOL    HW231647   2.575   4.741   0.058
10250SOL     OW31648   6.660   3.686   0.828
10250SOL    HW131649   6.627   3.777   0.803
10250SOL    HW231650   6.733   3.659   0.766
10251SOL     OW31651   2.079   1.364   4.197
10251SOL    HW131652   1.983   1.389   4.205
10251SOL    HW231653   2.136   1.446   4.208
10252SOL     OW31654   4.428   3.606   6.099
10252SOL    HW131655   4.348   3.554   6.068
10252SOL    HW231656   4.499   3.543   6.129
10253SOL     OW31657   3.382   6.439   0.658
10253SOL    HW131658   3.466   6.450   0.603
10253SOL    HW231659   3.369   6.342   0.678
10254SOL     OW31660   4.493   1.377   5.708
10254SOL    HW131661   4.449   1.303   5.759
10254SOL    HW231662   4.423   1.443   5.678
10255SOL     OW31663   2.380   7.004   0.817
10255SOL    HW131664   2.436   6.972   0.894
10255SOL    HW231665   2.284   7.006   0.845
10256SOL     OW31666   4.642   0.843   2.162
10256SOL    HW131667   4.740   0.864   2.155
10256SOL    HW231668   4.615   0.840   2.258
10257SOL     OW31669   2.282   4.633   3.962
10257SOL    HW131670   2.368   4.668   4.001
10257SOL    HW231671   2.219   4.709   3.948
10258SOL     OW31672   3.865   2.037   3.622
10258SOL    HW131673   3.783   1.986   3.649
10258SOL    HW231674   3.942   1.974   3.613
10259SOL     OW31675   0.656   4.008   3.564
10259SOL    HW131676   0.699   4.059   3.638
10259SOL    HW231677   0.637   3.914   3.594
10260SOL     OW31678   0.888   1.099   3.471
10260SOL    HW131679   0.987   1.106   3.463
10260SOL    HW231680   0.845   1.140   3.390
10261SOL     OW31681   6.980   4.867   0.503
10261SOL    HW131682   6.932   4.780   0.513
10261SOL    HW231683   6.914   4.942   0.505
10262SOL     OW31684   3.504   6.895   6.369
10262SOL    HW131685   3.559   6.934   6.295
10262SOL    HW231686   3.423   6.850   6.330
10263SOL     OW31687   6.054   0.511   0.402
10263SOL    HW131688   6.101   0.429   0.433
10263SOL    HW231689   6.067   0.521   0.303
10264SOL     OW31690   5.799   5.513   6.378
10264SOL    HW131691   5.816   5.541   6.473
10264SOL    HW231692   5.724   5.567   6.340
10265SOL     OW31693   3.163   2.830   0.184
10265SOL    HW131694   3.100   2.752   0.181
10265SOL    HW231695   3.189   2.847   0.279
10266SOL     OW31696   3.420   2.845   2.906
10266SOL    HW131697   3.409   2.751   2.939
10266SOL    HW231698   3.482   2.894   2.967
10267SOL     OW31699   5.365   1.399   0.961
10267SOL    HW131700   5.278   1.422   0.917
10267SOL    HW231701   5.435   1.386   0.892
10268SOL     OW31702   5.769   6.590   2.335
10268SOL    HW131703   5.682   6.617   2.375
10268SOL    HW231704   5.797   6.501   2.372
10269SOL     OW31705   1.159   2.599   6.428
10269SOL    HW131706   1.208   2.526   6.475
10269SOL    HW231707   1.209   2.624   6.345
10270SOL     OW31708   3.355   5.905   2.537
10270SOL    HW131709   3.348   5.805   2.542
10270SOL    HW231710   3.295   5.939   2.464
10271SOL     OW31711   2.703   3.280   0.111
10271SOL    HW131712   2.629   3.297   0.175
10271SOL    HW231713   2.695   3.187   0.074
10272SOL     OW31714   1.058   0.595   3.990
10272SOL    HW131715   0.999   0.665   4.030
10272SOL    HW231716   1.149   0.633   3.976
10273SOL     OW31717   2.873   4.751   4.222
10273SOL    HW131718   2.790   4.708   4.255
10273SOL    HW231719   2.918   4.801   4.296
10274SOL     OW31720   0.727   4.394   5.926
10274SOL    HW131721   0.651   4.341   5.888
10274SOL    HW231722   0.764   4.455   5.856
10275SOL     OW31723   0.041   0.705   2.088
10275SOL    HW131724   0.127   0.733   2.047
10275SOL    HW231725   0.054   0.619   2.138
10276SOL     OW31726   4.517   5.833   5.732
10276SOL    HW131727   4.471   5.750   5.698
10276SOL    HW231728   4.456   5.882   5.793
10277SOL     OW31729   1.392   6.883   4.669
10277SOL    HW131730   1.424   6.857   4.760
10277SOL    HW231731   1.343   6.970   4.675
10278SOL     OW31732   0.890   0.799   4.102
10278SOL    HW131733   0.911   0.882   4.155
10278SOL    HW231734   0.794   0.775   4.114
10279SOL     OW31735   2.711   5.381   4.291
10279SOL    HW131736   2.730   5.284   4.278
10279SOL    HW231737   2.729   5.430   4.206
10280SOL     OW31738   5.256   3.756   0.082
10280SOL    HW131739   5.309   3.731   0.163
10280SOL    HW231740   5.314   3.807   0.018
10281SOL     OW31741   0.040   2.399   3.432
10281SOL    HW131742   0.002   2.406   3.340
10281SOL    HW231743   0.024   2.485   3.481
10282SOL     OW31744   5.500   3.338   3.650
10282SOL    HW131745   5.405   3.327   3.619
10282SOL    HW231746   5.519   3.270   3.721
10283SOL     OW31747   0.985   2.760   0.885
10283SOL    HW131748   1.051   2.689   0.862
10283SOL    HW231749   0.972   2.763   0.985
10284SOL     OW31750   6.181   2.123   3.841
10284SOL    HW131751   6.225   2.186   3.777
10284SOL    HW231752   6.207   2.147   3.934
10285SOL     OW31753   3.987   6.366   3.083
10285SOL    HW131754   4.058   6.434   3.068
10285SOL    HW231755   3.899   6.411   3.093
10286SOL     OW31756   3.029   0.587   3.577
10286SOL    HW131757   2.974   0.514   3.617
10286SOL    HW231758   3.116   0.550   3.545
10287SOL     OW31759   1.783   5.752   2.166
10287SOL    HW131760   1.753   5.802   2.247
10287SOL    HW231761   1.704   5.728   2.110
10288SOL     OW31762   4.116   0.068   4.312
10288SOL    HW131763   4.105   0.061   4.213
10288SOL    HW231764   4.038   0.119   4.350
10289SOL     OW31765   2.556   5.938   0.814
10289SOL    HW131766   2.592   5.905   0.726
10289SOL    HW231767   2.633   5.954   0.876
10290SOL     OW31768   3.063   3.230   2.990
10290SOL    HW131769   3.068   3.199   2.895
10290SOL    HW231770   3.058   3.330   2.992
10291SOL     OW31771   3.510   1.394   3.091
10291SOL    HW131772   3.469   1.415   3.180
10291SOL    HW231773   3.487   1.465   3.025
10292SOL     OW31774   0.670   1.287   6.017
10292SOL    HW131775   0.697   1.322   5.927
10292SOL    HW231776   0.681   1.359   6.086
10293SOL     OW31777   0.508   3.322   3.741
10293SOL    HW131778   0.432   3.322   3.675
10293SOL    HW231779   0.591   3.354   3.696
10294SOL     OW31780   4.313   1.661   2.498
10294SOL    HW131781   4.289   1.638   2.592
10294SOL    HW231782   4.321   1.760   2.489
10295SOL     OW31783   1.153   2.906   5.277
10295SOL    HW131784   1.068   2.959   5.268
10295SOL    HW231785   1.200   2.903   5.189
10296SOL     OW31786   5.943   1.655   6.107
10296SOL    HW131787   5.959   1.588   6.034
10296SOL    HW231788   6.023   1.658   6.167
10297SOL     OW31789   2.333   1.343   0.079
10297SOL    HW131790   2.342   1.411   0.006
10297SOL    HW231791   2.279   1.266   0.046
10298SOL     OW31792   1.346   4.562   1.871
10298SOL    HW131793   1.443   4.581   1.886
10298SOL    HW231794   1.290   4.631   1.917
10299SOL     OW31795   3.944   5.726   2.393
10299SOL    HW131796   3.892   5.759   2.313
10299SOL    HW231797   4.021   5.670   2.362
10300SOL     OW31798   1.865   4.251   2.049
10300SOL    HW131799   1.826   4.242   2.141
10300SOL    HW231800   1.947   4.307   2.053
10301SOL     OW31801   4.831   1.567   5.450
10301SOL    HW131802   4.814   1.504   5.374
10301SOL    HW231803   4.755   1.632   5.458
10302SOL     OW31804   2.105   5.764   4.485
10302SOL    HW131805   2.188   5.735   4.437
10302SOL    HW231806   2.081   5.856   4.455
10303SOL     OW31807   1.153   5.213   3.740
10303SOL    HW131808   1.124   5.132   3.689
10303SOL    HW231809   1.117   5.208   3.833
10304SOL     OW31810   5.841   0.199   0.804
10304SOL    HW131811   5.867   0.193   0.901
10304SOL    HW231812   5.773   0.128   0.784
10305SOL     OW31813   2.641   4.238   5.670
10305SOL    HW131814   2.599   4.309   5.613
10305SOL    HW231815   2.662   4.158   5.614
10306SOL     OW31816   5.627   5.847   0.389
10306SOL    HW131817   5.707   5.836   0.330
10306SOL    HW231818   5.590   5.757   0.412
10307SOL     OW31819   3.063   1.341   4.773
10307SOL    HW131820   3.017   1.317   4.688
10307SOL    HW231821   3.123   1.420   4.758
10308SOL     OW31822   2.347   4.260   2.110
10308SOL    HW131823   2.391   4.212   2.034
10308SOL    HW231824   2.366   4.212   2.196
10309SOL     OW31825   6.701   1.374   6.615
10309SOL    HW131826   6.771   1.325   6.666
10309SOL    HW231827   6.724   1.472   6.613
10310SOL     OW31828   3.073   3.759   0.326
10310SOL    HW131829   3.117   3.780   0.413
10310SOL    HW231830   3.127   3.797   0.250
10311SOL     OW31831   6.343   5.777   0.342
10311SOL    HW131832   6.416   5.759   0.277
10311SOL    HW231833   6.259   5.732   0.311
10312SOL     OW31834   5.074   6.848   2.333
10312SOL    HW131835   5.104   6.876   2.242
10312SOL    HW231836   4.995   6.788   2.326
10313SOL     OW31837   3.756   5.851   2.089
10313SOL    HW131838   3.713   5.890   2.008
10313SOL    HW231839   3.777   5.924   2.154
10314SOL     OW31840   6.534   0.199   0.188
10314SOL    HW131841   6.558   0.290   0.154
10314SOL    HW231842   6.600   0.132   0.152
10315SOL     OW31843   5.964   6.343   4.200
10315SOL    HW131844   5.944   6.265   4.260
10315SOL    HW231845   5.878   6.378   4.162
10316SOL     OW31846   6.706   2.696   6.191
10316SOL    HW131847   6.750   2.614   6.226
10316SOL    HW231848   6.727   2.774   6.251
10317SOL     OW31849   3.999   6.372   6.178
10317SOL    HW131850   3.930   6.438   6.207
10317SOL    HW231851   4.075   6.373   6.243
10318SOL     OW31852   4.748   1.051   6.571
10318SOL    HW131853   4.821   1.007   6.623
10318SOL    HW231854   4.688   1.101   6.634
10319SOL     OW31855   0.944   3.882   5.489
10319SOL    HW131856   0.863   3.920   5.444
10319SOL    HW231857   0.974   3.943   5.562
10320SOL     OW31858   0.708   6.391   2.904
10320SOL    HW131859   0.668   6.370   2.814
10320SOL    HW231860   0.661   6.471   2.943
10321SOL     OW31861   5.847   1.714   2.029
10321SOL    HW131862   5.928   1.659   2.050
10321SOL    HW231863   5.777   1.698   2.099
10322SOL     OW31864   4.270   4.773   4.446
10322SOL    HW131865   4.303   4.749   4.537
10322SOL    HW231866   4.221   4.860   4.451
10323SOL     OW31867   5.829   4.823   5.232
10323SOL    HW131868   5.756   4.874   5.187
10323SOL    HW231869   5.888   4.886   5.282
10324SOL     OW31870   3.553   3.048   2.698
10324SOL    HW131871   3.522   3.023   2.606
10324SOL    HW231872   3.507   2.991   2.766
10325SOL     OW31873   6.826   4.781   2.172
10325SOL    HW131874   6.817   4.785   2.271
10325SOL    HW231875   6.752   4.835   2.130
10326SOL     OW31876   5.933   4.050   6.520
10326SOL    HW131877   5.978   4.131   6.483
10326SOL    HW231878   6.000   3.975   6.525
10327SOL     OW31879   2.426   3.096   1.488
10327SOL    HW131880   2.475   3.078   1.403
10327SOL    HW231881   2.470   3.171   1.537
10328SOL     OW31882   6.299   3.214   0.732
10328SOL    HW131883   6.303   3.311   0.757
10328SOL    HW231884   6.367   3.163   0.786
10329SOL     OW31885   2.233   1.114   3.092
10329SOL    HW131886   2.275   1.205   3.100
10329SOL    HW231887   2.284   1.060   3.024
10330SOL     OW31888   4.093   0.954   1.832
10330SOL    HW131889   4.135   0.863   1.827
10330SOL    HW231890   4.032   0.957   1.911
10331SOL     OW31891   6.777   6.316   6.189
10331SOL    HW131892   6.754   6.221   6.166
10331SOL    HW231893   6.753   6.376   6.112
10332SOL     OW31894   6.793   0.023   0.183
10332SOL    HW131895   6.738   7.008   0.258
10332SOL    HW231896   6.817   6.972   0.120
10333SOL     OW31897   0.566   5.182   4.989
10333SOL    HW131898   0.563   5.098   4.935
10333SOL    HW231899   0.477   5.227   4.988
10334SOL     OW31900   3.326   0.677   4.354
10334SOL    HW131901   3.317   0.740   4.277
10334SOL    HW231902   3.236   0.646   4.383
10335SOL     OW31903   1.727   3.947   6.953
10335SOL    HW131904   1.758   3.914   0.019
10335SOL    HW231905   1.773   4.034   6.931
10336SOL     OW31906   6.237   0.271   1.808
10336SOL    HW131907   6.183   0.211   1.867
10336SOL    HW231908   6.334   0.257   1.825
10337SOL     OW31909   0.567   5.691   6.527
10337SOL    HW131910   0.667   5.690   6.520
10337SOL    HW231911   0.529   5.743   6.451
10338SOL     OW31912   1.730   6.137   2.380
10338SOL    HW131913   1.692   6.218   2.424
10338SOL    HW231914   1.701   6.135   2.284
10339SOL     OW31915   5.625   3.629   6.170
10339SOL    HW131916   5.660   3.609   6.261
10339SOL    HW231917   5.545   3.689   6.177
10340SOL     OW31918   1.454   3.149   0.063
10340SOL    HW131919   1.431   3.129   6.990
10340SOL    HW231920   1.510   3.232   0.067
10341SOL     OW31921   2.103   3.659   2.201
10341SOL    HW131922   2.136   3.602   2.126
10341SOL    HW231923   2.102   3.606   2.285
10342SOL     OW31924   1.968   0.390   4.087
10342SOL    HW131925   1.941   0.293   4.083
10342SOL    HW231926   1.910   0.438   4.152
10343SOL     OW31927   3.149   5.001   6.774
10343SOL    HW131928   3.173   4.904   6.768
10343SOL    HW231929   3.204   5.053   6.707
10344SOL     OW31930   4.221   3.639   0.342
10344SOL    HW131931   4.123   3.647   0.361
10344SOL    HW231932   4.237   3.638   0.243
10345SOL     OW31933   2.033   2.435   5.841
10345SOL    HW131934   1.950   2.485   5.817
10345SOL    HW231935   2.083   2.412   5.758
10346SOL     OW31936   0.035   5.785   1.170
10346SOL    HW131937   0.055   5.883   1.169
10346SOL    HW231938   7.004   5.762   1.251
10347SOL     OW31939   4.371   1.007   3.168
10347SOL    HW131940   4.362   1.098   3.209
10347SOL    HW231941   4.463   0.997   3.131
10348SOL     OW31942   6.353   2.557   0.489
10348SOL    HW131943   6.409   2.636   0.514
10348SOL    HW231944   6.301   2.527   0.570
10349SOL     OW31945   1.269   0.801   6.640
10349SOL    HW131946   1.209   0.775   6.715
10349SOL    HW231947   1.361   0.766   6.657
10350SOL     OW31948   2.941   5.491   5.374
10350SOL    HW131949   2.996   5.557   5.425
10350SOL    HW231950   2.974   5.486   5.280
10351SOL     OW31951   4.566   5.209   6.792
10351SOL    HW131952   4.587   5.113   6.771
10351SOL    HW231953   4.490   5.212   6.857
10352SOL     OW31954   3.224   0.852   6.469
10352SOL    HW131955   3.291   0.785   6.438
10352SOL    HW231956   3.161   0.809   6.533
10353SOL     OW31957   6.916   2.997   4.878
10353SOL    HW131958   6.915   3.031   4.785
10353SOL    HW231959   6.843   2.929   4.890
10354SOL     OW31960   6.153   1.712   2.420
10354SOL    HW131961   6.095   1.631   2.433
10354SOL    HW231962   6.166   1.758   2.508
10355SOL     OW31963   2.363   6.777   1.647
10355SOL    HW131964   2.376   6.687   1.688
10355SOL    HW231965   2.387   6.848   1.714
10356SOL     OW31966   0.368   4.882   5.719
10356SOL    HW131967   0.276   4.915   5.741
10356SOL    HW231968   0.432   4.911   5.790
10357SOL     OW31969   1.907   2.902   6.635
10357SOL    HW131970   1.835   2.863   6.693
10357SOL    HW231971   1.879   2.896   6.539
10358SOL     OW31972   0.593   2.667   3.096
10358SOL    HW131973   0.533   2.715   3.033
10358SOL    HW231974   0.640   2.593   3.048
10359SOL     OW31975   1.221   1.448   0.786
10359SOL    HW131976   1.313   1.458   0.823
10359SOL    HW231977   1.216   1.490   0.696
10360SOL     OW31978   4.953   5.026   3.291
10360SOL    HW131979   4.932   4.976   3.375
10360SOL    HW231980   4.868   5.051   3.245
10361SOL     OW31981   2.521   6.429   2.592
10361SOL    HW131982   2.473   6.472   2.669
10361SOL    HW231983   2.570   6.498   2.540
10362SOL     OW31984   1.814   4.889   4.694
10362SOL    HW131985   1.904   4.926   4.668
10362SOL    HW231986   1.766   4.956   4.750
10363SOL     OW31987   5.108   0.827   2.718
10363SOL    HW131988   5.047   0.836   2.639
10363SOL    HW231989   5.103   0.733   2.753
10364SOL     OW31990   3.016   3.519   1.592
10364SOL    HW131991   2.989   3.570   1.674
10364SOL    HW231992   2.934   3.493   1.541
10365SOL     OW31993   3.669   5.464   0.219
10365SOL    HW131994   3.642   5.404   0.295
10365SOL    HW231995   3.768   5.468   0.213
10366SOL     OW31996   2.480   0.288   4.075
10366SOL    HW131997   2.514   0.201   4.038
10366SOL    HW231998   2.529   0.311   4.159
10367SOL     OW31999   5.530   2.284   2.418
10367SOL    HW132000   5.545   2.325   2.328
10367SOL    HW232001   5.617   2.252   2.455
10368SOL     OW32002   2.444   1.096   0.986
10368SOL    HW132003   2.444   0.997   0.973
10368SOL    HW232004   2.456   1.142   0.898
10369SOL     OW32005   3.924   0.944   6.725
10369SOL    HW132006   3.916   0.978   6.632
10369SOL    HW232007   3.913   1.019   6.790
10370SOL     OW32008   4.749   1.192   4.929
10370SOL    HW132009   4.710   1.100   4.923
10370SOL    HW232010   4.796   1.214   4.844
10371SOL     OW32011   3.855   5.729   5.377
10371SOL    HW132012   3.838   5.779   5.292
10371SOL    HW232013   3.769   5.718   5.427
10372SOL     OW32014   2.015   0.797   5.407
10372SOL    HW132015   2.085   0.868   5.396
10372SOL    HW232016   1.952   0.824   5.480
10373SOL     OW32017   1.994   6.558   4.967
10373SOL    HW132018   2.038   6.469   4.958
10373SOL    HW232019   2.012   6.595   5.059
10374SOL     OW32020   3.293   1.948   3.101
10374SOL    HW132021   3.367   1.914   3.159
10374SOL    HW232022   3.246   1.872   3.057
10375SOL     OW32023   4.735   2.041   6.971
10375SOL    HW132024   4.730   1.941   6.966
10375SOL    HW232025   4.800   2.067   0.019
10376SOL     OW32026   1.055   6.705   3.843
10376SOL    HW132027   1.015   6.720   3.934
10376SOL    HW232028   1.142   6.657   3.852
10377SOL     OW32029   6.964   0.777   3.681
10377SOL    HW132030   0.013   0.816   3.624
10377SOL    HW232031   6.926   0.696   3.636
10378SOL     OW32032   6.978   1.006   6.109
10378SOL    HW132033   6.977   0.906   6.115
10378SOL    HW232034   0.046   1.037   6.080
10379SOL     OW32035   4.944   0.351   5.084
10379SOL    HW132036   5.039   0.367   5.112
10379SOL    HW232037   4.882   0.381   5.156
10380SOL     OW32038   5.363   0.762   2.699
10380SOL    HW132039   5.356   0.857   2.728
10380SOL    HW232040   5.409   0.709   2.770
10381SOL     OW32041   5.046   5.706   5.926
10381SOL    HW132042   5.069   5.622   5.975
10381SOL    HW232043   4.960   5.693   5.877
10382SOL     OW32044   2.582   5.184   6.017
10382SOL    HW132045   2.569   5.126   5.937
10382SOL    HW232046   2.580   5.280   5.988
10383SOL     OW32047   0.772   3.574   0.908
10383SOL    HW132048   0.759   3.591   1.006
10383SOL    HW232049   0.720   3.492   0.882
10384SOL     OW32050   0.234   0.199   0.896
10384SOL    HW132051   0.282   0.115   0.872
10384SOL    HW232052   0.162   0.217   0.830
10385SOL     OW32053   5.352   6.946   6.289
10385SOL    HW132054   5.369   0.021   6.306
10385SOL    HW232055   5.280   6.936   6.221
10386SOL     OW32056   6.579   3.771   5.130
10386SOL    HW132057   6.525   3.703   5.180
10386SOL    HW232058   6.632   3.826   5.194
10387SOL     OW32059   3.079   1.873   2.761
10387SOL    HW132060   3.066   1.890   2.663
10387SOL    HW232061   2.996   1.900   2.810
10388SOL     OW32062   1.355   5.218   4.141
10388SOL    HW132063   1.288   5.265   4.200
10388SOL    HW232064   1.345   5.250   4.047
10389SOL     OW32065   0.416   5.176   2.860
10389SOL    HW132066   0.451   5.172   2.766
10389SOL    HW232067   0.461   5.105   2.915
10390SOL     OW32068   1.490   4.134   2.827
10390SOL    HW132069   1.422   4.062   2.817
10390SOL    HW232070   1.561   4.124   2.757
10391SOL     OW32071   1.406   6.008   6.581
10391SOL    HW132072   1.498   6.011   6.543
10391SOL    HW232073   1.375   6.100   6.604
10392SOL     OW32074   6.320   4.145   0.646
10392SOL    HW132075   6.264   4.202   0.585
10392SOL    HW232076   6.414   4.142   0.611
10393SOL     OW32077   0.672   1.386   4.187
10393SOL    HW132078   0.675   1.424   4.094
10393SOL    HW232079   0.577   1.372   4.214
10394SOL     OW32080   1.925   6.901   6.850
10394SOL    HW132081   1.932   6.913   6.949
10394SOL    HW232082   1.867   6.972   6.811
10395SOL     OW32083   6.830   0.970   3.947
10395SOL    HW132084   6.884   0.990   4.028
10395SOL    HW232085   6.784   1.054   3.916
10396SOL     OW32086   1.114   0.635   3.076
10396SOL    HW132087   1.160   0.677   3.154
10396SOL    HW232088   1.175   0.565   3.036
10397SOL     OW32089   3.935   0.524   3.367
10397SOL    HW132090   3.999   0.450   3.350
10397SOL    HW232091   3.889   0.548   3.281
10398SOL     OW32092   6.529   3.049   0.909
10398SOL    HW132093   6.487   2.968   0.949
10398SOL    HW232094   6.608   3.077   0.965
10399SOL     OW32095   4.651   2.013   5.425
10399SOL    HW132096   4.674   2.106   5.453
10399SOL    HW232097   4.693   1.993   5.337
10400SOL     OW32098   2.429   5.417   3.122
10400SOL    HW132099   2.417   5.515   3.106
10400SOL    HW232100   2.518   5.388   3.088
10401SOL     OW32101   6.581   5.754   2.436
10401SOL    HW132102   6.669   5.731   2.478
10401SOL    HW232103   6.583   5.850   2.407
10402SOL     OW32104   0.443   2.743   5.073
10402SOL    HW132105   0.433   2.833   5.116
10402SOL    HW232106   0.403   2.673   5.132
10403SOL     OW32107   5.070   1.567   2.512
10403SOL    HW132108   4.983   1.616   2.504
10403SOL    HW232109   5.106   1.578   2.605
10404SOL     OW32110   0.978   6.712   4.105
10404SOL    HW132111   0.931   6.778   4.163
10404SOL    HW232112   0.920   6.632   4.091
10405SOL     OW32113   1.375   5.870   5.732
10405SOL    HW132114   1.325   5.916   5.805
10405SOL    HW232115   1.371   5.925   5.648
10406SOL     OW32116   1.815   4.749   5.687
10406SOL    HW132117   1.716   4.750   5.702
10406SOL    HW232118   1.862   4.768   5.774
10407SOL     OW32119   1.322   1.416   5.818
10407SOL    HW132120   1.398   1.435   5.880
10407SOL    HW232121   1.243   1.383   5.870
10408SOL     OW32122   4.518   5.010   3.430
10408SOL    HW132123   4.507   5.072   3.508
10408SOL    HW232124   4.510   5.062   3.345
10409SOL     OW32125   0.183   3.497   1.901
10409SOL    HW132126   0.134   3.529   1.982
10409SOL    HW232127   0.222   3.576   1.854
10410SOL     OW32128   4.107   0.933   1.029
10410SOL    HW132129   4.186   0.954   1.086
10410SOL    HW232130   4.031   0.993   1.054
10411SOL     OW32131   2.086   4.617   3.296
10411SOL    HW132132   2.048   4.647   3.209
10411SOL    HW232133   2.178   4.655   3.307
10412SOL     OW32134   0.888   2.571   6.991
10412SOL    HW132135   0.830   2.542   0.045
10412SOL    HW232136   0.894   2.497   6.924
10413SOL     OW32137   0.277   1.764   6.984
10413SOL    HW132138   0.319   1.674   6.975
10413SOL    HW232139   0.215   1.764   0.040
10414SOL     OW32140   4.958   6.504   6.662
10414SOL    HW132141   4.981   6.524   6.757
10414SOL    HW232142   4.937   6.407   6.652
10415SOL     OW32143   0.615   5.332   3.585
10415SOL    HW132144   0.691   5.383   3.547
10415SOL    HW232145   0.623   5.328   3.684
10416SOL     OW32146   6.303   2.260   5.260
10416SOL    HW132147   6.294   2.272   5.161
10416SOL    HW232148   6.215   2.278   5.304
10417SOL     OW32149   4.240   5.054   2.794
10417SOL    HW132150   4.244   5.141   2.745
10417SOL    HW232151   4.221   5.070   2.891
10418SOL     OW32152   6.743   4.043   6.093
10418SOL    HW132153   6.776   4.105   6.022
10418SOL    HW232154   6.794   3.957   6.090
10419SOL     OW32155   3.359   0.820   5.228
10419SOL    HW132156   3.308   0.754   5.284
10419SOL    HW232157   3.408   0.883   5.288
10420SOL     OW32158   6.487   3.204   3.014
10420SOL    HW132159   6.493   3.302   2.998
10420SOL    HW232160   6.405   3.184   3.069
10421SOL     OW32161   0.738   4.377   3.456
10421SOL    HW132162   0.642   4.352   3.465
10421SOL    HW232163   0.781   4.317   3.388
10422SOL     OW32164   0.074   3.912   4.572
10422SOL    HW132165   0.008   3.838   4.587
10422SOL    HW232166   0.052   3.960   4.487
10423SOL     OW32167   3.398   4.972   3.829
10423SOL    HW132168   3.312   4.960   3.880
10423SOL    HW232169   3.378   4.985   3.732
10424SOL     OW32170   3.718   0.662   6.316
10424SOL    HW132171   3.807   0.671   6.271
10424SOL    HW232172   3.652   0.625   6.252
10425SOL     OW32173   2.197   0.813   0.834
10425SOL    HW132174   2.280   0.825   0.889
10425SOL    HW232175   2.119   0.800   0.895
10426SOL     OW32176   5.549   2.666   5.697
10426SOL    HW132177   5.628   2.605   5.689
10426SOL    HW232178   5.581   2.757   5.726
10427SOL     OW32179   5.038   5.976   5.074
10427SOL    HW132180   5.051   5.917   4.995
10427SOL    HW232181   5.126   5.990   5.120
10428SOL     OW32182   1.675   1.424   3.360
10428SOL    HW132183   1.688   1.349   3.426
10428SOL    HW232184   1.692   1.389   3.267
10429SOL     OW32185   0.971   3.450   2.501
10429SOL    HW132186   1.049   3.500   2.463
10429SOL    HW232187   0.998   3.405   2.586
10430SOL     OW32188   3.646   0.025   3.516
10430SOL    HW132189   3.743   0.049   3.526
10430SOL    HW232190   3.603   0.089   3.452
10431SOL     OW32191   3.029   2.024   3.833
10431SOL    HW132192   3.065   2.059   3.747
10431SOL    HW232193   3.040   1.924   3.836
10432SOL     OW32194   6.680   6.467   5.993
10432SOL    HW132195   6.716   6.552   6.030
10432SOL    HW232196   6.741   6.434   5.921
10433SOL     OW32197   1.979   6.746   2.058
10433SOL    HW132198   2.018   6.735   1.967
10433SOL    HW232199   1.915   6.672   2.076
10434SOL     OW32200   4.936   6.569   5.810
10434SOL    HW132201   4.897   6.517   5.886
10434SOL    HW232202   5.034   6.546   5.802
10435SOL     OW32203   0.801   2.245   6.344
10435SOL    HW132204   0.747   2.324   6.317
10435SOL    HW232205   0.854   2.267   6.426
10436SOL     OW32206   0.827   4.264   5.010
10436SOL    HW132207   0.782   4.270   4.921
10436SOL    HW232208   0.888   4.185   5.012
10437SOL     OW32209   5.688   5.005   5.444
10437SOL    HW132210   5.660   5.017   5.539
10437SOL    HW232211   5.787   5.000   5.438
10438SOL     OW32212   6.963   6.501   6.277
10438SOL    HW132213   6.911   6.419   6.253
10438SOL    HW232214   6.944   6.574   6.212
10439SOL     OW32215   0.180   6.938   4.454
10439SOL    HW132216   0.192   6.850   4.500
10439SOL    HW232217   0.231   7.008   4.504
10440SOL     OW32218   0.074   1.638   6.601
10440SOL    HW132219   0.161   1.625   6.555
10440SOL    HW232220   0.001   1.649   6.532
10441SOL     OW32221   3.724   2.131   0.893
10441SOL    HW132222   3.651   2.079   0.937
10441SOL    HW232223   3.810   2.117   0.944
10442SOL     OW32224   2.791   1.455   5.467
10442SOL    HW132225   2.862   1.387   5.452
10442SOL    HW232226   2.790   1.482   5.563
10443SOL     OW32227   6.785   0.764   3.076
10443SOL    HW132228   6.736   0.814   3.005
10443SOL    HW232229   6.828   0.829   3.138
10444SOL     OW32230   3.903   5.860   4.224
10444SOL    HW132231   3.946   5.793   4.285
10444SOL    HW232232   3.944   5.852   4.133
10445SOL     OW32233   1.826   4.323   2.541
10445SOL    HW132234   1.914   4.343   2.498
10445SOL    HW232235   1.840   4.265   2.621
10446SOL     OW32236   1.855   4.276   5.027
10446SOL    HW132237   1.923   4.218   5.072
10446SOL    HW232238   1.871   4.372   5.051
10447SOL     OW32239   0.058   1.651   2.857
10447SOL    HW132240   0.038   1.740   2.818
10447SOL    HW232241   0.116   1.662   2.938
10448SOL     OW32242   2.226   6.467   2.823
10448SOL    HW132243   2.173   6.518   2.755
10448SOL    HW232244   2.167   6.443   2.900
10449SOL     OW32245   3.318   5.925   6.581
10449SOL    HW132246   3.378   5.888   6.510
10449SOL    HW232247   3.273   5.851   6.629
10450SOL     OW32248   6.353   0.068   6.231
10450SOL    HW132249   6.343   0.069   6.132
10450SOL    HW232250   6.444   0.035   6.255
10451SOL     OW32251   1.969   0.729   3.984
10451SOL    HW132252   2.015   0.722   4.072
10451SOL    HW232253   1.992   0.648   3.929
10452SOL     OW32254   6.962   4.029   4.077
10452SOL    HW132255   0.023   4.030   4.023
10452SOL    HW232256   6.898   3.963   4.038
10453SOL     OW32257   4.484   5.731   3.180
10453SOL    HW132258   4.404   5.672   3.192
10453SOL    HW232259   4.495   5.789   3.260
10454SOL     OW32260   6.651   1.598   5.844
10454SOL    HW132261   6.555   1.622   5.831
10454SOL    HW232262   6.693   1.579   5.755
10455SOL     OW32263   6.303   6.674   4.472
10455SOL    HW132264   6.285   6.772   4.477
10455SOL    HW232265   6.229   6.629   4.421
10456SOL     OW32266   0.153   5.293   6.994
10456SOL    HW132267   0.066   5.314   6.951
10456SOL    HW232268   0.155   5.330   0.064
10457SOL     OW32269   4.046   2.449   0.301
10457SOL    HW132270   4.080   2.543   0.298
10457SOL    HW232271   4.102   2.391   0.241
10458SOL     OW32272   6.451   6.766   6.497
10458SOL    HW132273   6.397   6.710   6.560
10458SOL    HW232274   6.548   6.748   6.512
10459SOL     OW32275   0.144   5.727   0.615
10459SOL    HW132276   0.182   5.672   0.689
10459SOL    HW232277   0.044   5.728   0.622
10460SOL     OW32278   0.106   3.731   0.764
10460SOL    HW132279   0.173   3.693   0.701
10460SOL    HW232280   0.151   3.796   0.825
10461SOL     OW32281   0.335   5.179   4.746
10461SOL    HW132282   0.401   5.247   4.713
10461SOL    HW232283   0.243   5.215   4.736
10462SOL     OW32284   4.294   1.733   1.161
10462SOL    HW132285   4.252   1.816   1.197
10462SOL    HW232286   4.310   1.744   1.063
10463SOL     OW32287   4.640   2.699   6.011
10463SOL    HW132288   4.658   2.791   5.976
10463SOL    HW232289   4.669   2.631   5.944
10464SOL     OW32290   5.780   5.188   2.826
10464SOL    HW132291   5.857   5.179   2.889
10464SOL    HW232292   5.700   5.220   2.876
10465SOL     OW32293   6.093   3.228   1.997
10465SOL    HW132294   6.045   3.140   1.989
10465SOL    HW232295   6.072   3.284   1.916
10466SOL     OW32296   5.483   4.809   6.674
10466SOL    HW132297   5.448   4.826   6.766
10466SOL    HW232298   5.583   4.820   6.674
10467SOL     OW32299   2.136   2.767   6.663
10467SOL    HW132300   2.204   2.819   6.715
10467SOL    HW232301   2.048   2.815   6.667
10468SOL     OW32302   2.739   4.840   3.710
10468SOL    HW132303   2.745   4.791   3.797
10468SOL    HW232304   2.831   4.861   3.676
10469SOL     OW32305   5.914   1.698   5.266
10469SOL    HW132306   5.926   1.672   5.170
10469SOL    HW232307   5.861   1.627   5.313
10470SOL     OW32308   2.244   2.545   4.148
10470SOL    HW132309   2.261   2.447   4.146
10470SOL    HW232310   2.147   2.562   4.169
10471SOL     OW32311   2.729   0.624   0.284
10471SOL    HW132312   2.741   0.546   0.347
10471SOL    HW232313   2.703   0.705   0.336
10472SOL     OW32314   3.865   5.088   0.608
10472SOL    HW132315   3.840   5.183   0.622
10472SOL    HW232316   3.876   5.071   0.510
10473SOL     OW32317   5.330   5.240   6.562
10473SOL    HW132318   5.364   5.163   6.508
10473SOL    HW232319   5.234   5.224   6.585
10474SOL     OW32320   5.219   1.023   4.056
10474SOL    HW132321   5.152   1.035   3.983
10474SOL    HW232322   5.253   0.929   4.055
10475SOL     OW32323   1.681   6.224   1.857
10475SOL    HW132324   1.595   6.194   1.815
10475SOL    HW232325   1.711   6.309   1.814
10476SOL     OW32326   3.821   6.463   0.616
10476SOL    HW132327   3.853   6.385   0.671
10476SOL    HW232328   3.860   6.457   0.524
10477SOL     OW32329   6.831   6.529   4.064
10477SOL    HW132330   6.762   6.492   4.126
10477SOL    HW232331   6.909   6.466   4.059
10478SOL     OW32332   5.856   6.544   0.554
10478SOL    HW132333   5.939   6.590   0.586
10478SOL    HW232334   5.793   6.532   0.632
10479SOL     OW32335   6.982   2.161   2.888
10479SOL    HW132336   6.904   2.100   2.904
10479SOL    HW232337   6.952   2.256   2.895
10480SOL     OW32338   1.237   7.014   2.250
10480SOL    HW132339   1.232   0.037   2.339
10480SOL    HW232340   1.331   7.016   2.217
10481SOL     OW32341   0.861   0.235   3.417
10481SOL    HW132342   0.819   0.258   3.329
10481SOL    HW232343   0.819   0.289   3.489
10482SOL     OW32344   5.723   4.310   4.175
10482SOL    HW132345   5.750   4.286   4.082
10482SOL    HW232346   5.669   4.394   4.174
10483SOL     OW32347   5.869   5.269   0.242
10483SOL    HW132348   5.809   5.306   0.313
10483SOL    HW232349   5.952   5.233   0.283
10484SOL     OW32350   6.220   1.530   1.313
10484SOL    HW132351   6.184   1.447   1.271
10484SOL    HW232352   6.315   1.544   1.285
10485SOL     OW32353   4.315   4.038   6.021
10485SOL    HW132354   4.245   4.109   6.014
10485SOL    HW232355   4.304   3.989   6.107
10486SOL     OW32356   6.508   2.882   0.526
10486SOL    HW132357   6.463   2.964   0.493
10486SOL    HW232358   6.471   2.857   0.616
10487SOL     OW32359   5.824   6.380   1.732
10487SOL    HW132360   5.794   6.296   1.687
10487SOL    HW232361   5.905   6.361   1.787
10488SOL     OW32362   2.731   2.805   6.272
10488SOL    HW132363   2.741   2.857   6.187
10488SOL    HW232364   2.745   2.708   6.253
10489SOL     OW32365   0.528   6.026   6.188
10489SOL    HW132366   0.484   6.056   6.273
10489SOL    HW232367   0.555   6.105   6.135
10490SOL     OW32368   6.528   1.323   3.424
10490SOL    HW132369   6.552   1.228   3.401
10490SOL    HW232370   6.436   1.343   3.392
10491SOL     OW32371   2.129   3.950   6.250
10491SOL    HW132372   2.077   3.944   6.165
10491SOL    HW232373   2.066   3.960   6.327
10492SOL     OW32374   4.942   3.691   5.267
10492SOL    HW132375   4.892   3.660   5.186
10492SOL    HW232376   5.033   3.650   5.268
10493SOL     OW32377   3.503   0.482   1.189
10493SOL    HW132378   3.592   0.498   1.147
10493SOL    HW232379   3.491   0.543   1.267
10494SOL     OW32380   5.529   1.924   4.363
10494SOL    HW132381   5.443   1.960   4.327
10494SOL    HW232382   5.598   1.996   4.365
10495SOL     OW32383   1.739   6.963   0.756
10495SOL    HW132384   1.709   0.000   0.830
10495SOL    HW232385   1.838   6.975   0.742
10496SOL     OW32386   6.743   6.674   0.240
10496SOL    HW132387   6.829   6.656   0.288
10496SOL    HW232388   6.762   6.730   0.159
10497SOL     OW32389   1.273   0.146   0.970
10497SOL    HW132390   1.301   0.241   0.985
10497SOL    HW232391   1.224   0.113   1.050
10498SOL     OW32392   2.541   0.058   6.904
10498SOL    HW132393   2.482   0.064   6.823
10498SOL    HW232394   2.621   0.117   6.892
10499SOL     OW32395   2.550   6.289   3.041
10499SOL    HW132396   2.565   6.342   2.958
10499SOL    HW232397   2.638   6.271   3.085
10500SOL     OW32398   0.359   2.097   5.838
10500SOL    HW132399   0.428   2.093   5.909
10500SOL    HW232400   0.361   2.187   5.794
10501SOL     OW32401   2.299   4.651   2.737
10501SOL    HW132402   2.300   4.656   2.637
10501SOL    HW232403   2.385   4.611   2.769
10502SOL     OW32404   2.965   0.011   0.640
10502SOL    HW132405   2.967   0.039   0.736
10502SOL    HW232406   3.046   0.047   0.594
10503SOL     OW32407   4.204   3.159   0.163
10503SOL    HW132408   4.174   3.252   0.142
10503SOL    HW232409   4.124   3.099   0.167
10504SOL     OW32410   1.710   3.005   0.336
10504SOL    HW132411   1.680   3.100   0.348
10504SOL    HW232412   1.636   2.944   0.364
10505SOL     OW32413   6.132   6.048   1.023
10505SOL    HW132414   6.198   6.101   1.076
10505SOL    HW232415   6.059   6.016   1.083
10506SOL     OW32416   0.040   4.597   6.363
10506SOL    HW132417   0.092   4.548   6.432
10506SOL    HW232418   6.968   4.564   6.362
10507SOL     OW32419   1.784   0.583   6.518
10507SOL    HW132420   1.786   0.587   6.618
10507SOL    HW232421   1.823   0.667   6.481
10508SOL     OW32422   5.985   5.336   3.205
10508SOL    HW132423   5.944   5.309   3.292
10508SOL    HW232424   5.943   5.421   3.173
10509SOL     OW32425   0.930   6.602   6.835
10509SOL    HW132426   0.982   6.670   6.886
10509SOL    HW232427   0.968   6.593   6.743
10510SOL     OW32428   5.624   5.272   6.433
10510SOL    HW132429   5.599   5.263   6.530
10510SOL    HW232430   5.675   5.357   6.420
10511SOL     OW32431   4.478   3.043   0.823
10511SOL    HW132432   4.496   2.946   0.804
10511SOL    HW232433   4.423   3.081   0.748
10512SOL     OW32434   4.510   0.731   6.690
10512SOL    HW132435   4.493   0.828   6.709
10512SOL    HW232436   4.437   0.695   6.632
10513SOL     OW32437   0.144   2.007   6.254
10513SOL    HW132438   0.243   2.001   6.248
10513SOL    HW232439   0.118   2.034   6.347
10514SOL     OW32440   6.380   4.347   0.856
10514SOL    HW132441   6.309   4.410   0.823
10514SOL    HW232442   6.403   4.283   0.783
10515SOL     OW32443   6.450   1.666   2.728
10515SOL    HW132444   6.487   1.582   2.769
10515SOL    HW232445   6.419   1.728   2.799
10516SOL     OW32446   4.624   1.125   6.348
10516SOL    HW132447   4.660   1.104   6.257
10516SOL    HW232448   4.694   1.105   6.416
10517SOL     OW32449   6.732   1.936   2.494
10517SOL    HW132450   6.759   1.924   2.399
10517SOL    HW232451   6.659   1.871   2.517
10518SOL     OW32452   1.152   5.019   0.128
10518SOL    HW132453   1.085   4.945   0.136
10518SOL    HW232454   1.243   4.980   0.115
10519SOL     OW32455   3.472   2.903   5.723
10519SOL    HW132456   3.475   2.814   5.678
10519SOL    HW232457   3.417   2.896   5.807
10520SOL     OW32458   2.755   2.926   6.645
10520SOL    HW132459   2.851   2.909   6.670
10520SOL    HW232460   2.717   2.843   6.605
10521SOL     OW32461   6.532   6.324   1.043
10521SOL    HW132462   6.533   6.424   1.036
10521SOL    HW232463   6.618   6.292   1.082
10522SOL     OW32464   6.475   0.807   0.168
10522SOL    HW132465   6.402   0.860   0.125
10522SOL    HW232466   6.438   0.754   0.245
10523SOL     OW32467   0.395   5.572   5.215
10523SOL    HW132468   0.451   5.654   5.202
10523SOL    HW232469   0.406   5.539   5.309
10524SOL     OW32470   1.793   6.889   4.470
10524SOL    HW132471   1.826   6.970   4.421
10524SOL    HW232472   1.702   6.865   4.436
10525SOL     OW32473   2.923   6.320   5.409
10525SOL    HW132474   2.916   6.312   5.508
10525SOL    HW232475   2.997   6.262   5.375
10526SOL     OW32476   0.247   0.889   2.216
10526SOL    HW132477   0.340   0.912   2.245
10526SOL    HW232478   0.243   0.885   2.116
10527SOL     OW32479   1.382   2.436   4.464
10527SOL    HW132480   1.416   2.475   4.378
10527SOL    HW232481   1.383   2.336   4.458
10528SOL     OW32482   1.148   4.331   4.876
10528SOL    HW132483   1.060   4.319   4.922
10528SOL    HW232484   1.135   4.387   4.794
10529SOL     OW32485   0.598   5.798   3.197
10529SOL    HW132486   0.565   5.821   3.289
10529SOL    HW232487   0.694   5.825   3.189
10530SOL     OW32488   2.555   1.902   6.000
10530SOL    HW132489   2.618   1.920   6.076
10530SOL    HW232490   2.476   1.851   6.033
10531SOL     OW32491   2.178   3.644   4.463
10531SOL    HW132492   2.172   3.548   4.434
10531SOL    HW232493   2.148   3.652   4.558
10532SOL     OW32494   2.330   2.848   0.163
10532SOL    HW132495   2.288   2.763   0.194
10532SOL    HW232496   2.417   2.862   0.211
10533SOL     OW32497   3.271   1.162   4.503
10533SOL    HW132498   3.202   1.111   4.452
10533SOL    HW232499   3.274   1.257   4.470
10534SOL     OW32500   6.999   5.806   0.893
10534SOL    HW132501   7.007   5.793   0.992
10534SOL    HW232502   0.054   5.859   0.860
10535SOL     OW32503   6.871   1.195   2.341
10535SOL    HW132504   6.899   1.118   2.283
10535SOL    HW232505   6.920   1.277   2.313
10536SOL     OW32506   4.445   0.487   2.903
10536SOL    HW132507   4.466   0.427   2.980
10536SOL    HW232508   4.487   0.450   2.820
10537SOL     OW32509   3.123   5.322   3.094
10537SOL    HW132510   3.213   5.280   3.102
10537SOL    HW232511   3.127   5.416   3.127
10538SOL     OW32512   4.279   3.389   6.583
10538SOL    HW132513   4.229   3.335   6.515
10538SOL    HW232514   4.367   3.417   6.545
10539SOL     OW32515   0.622   3.922   6.445
10539SOL    HW132516   0.667   4.003   6.406
10539SOL    HW232517   0.546   3.951   6.503
10540SOL     OW32518   1.548   0.515   5.539
10540SOL    HW132519   1.455   0.478   5.539
10540SOL    HW232520   1.590   0.498   5.628
10541SOL     OW32521   3.725   3.885   1.319
10541SOL    HW132522   3.687   3.826   1.247
10541SOL    HW232523   3.672   3.873   1.403
10542SOL     OW32524   0.309   1.424   0.692
10542SOL    HW132525   0.255   1.342   0.674
10542SOL    HW232526   0.404   1.407   0.667
10543SOL     OW32527   0.146   1.496   5.796
10543SOL    HW132528   0.120   1.504   5.892
10543SOL    HW232529   0.133   1.402   5.765
10544SOL     OW32530   2.499   1.965   2.475
10544SOL    HW132531   2.413   1.993   2.432
10544SOL    HW232532   2.570   1.955   2.405
10545SOL     OW32533   6.886   6.968   2.222
10545SOL    HW132534   6.922   7.021   2.144
10545SOL    HW232535   6.837   0.007   2.284
10546SOL     OW32536   1.686   6.802   5.118
10546SOL    HW132537   1.626   6.745   5.174
10546SOL    HW232538   1.672   6.898   5.143
10547SOL     OW32539   4.793   1.183   2.254
10547SOL    HW132540   4.815   1.267   2.204
10547SOL    HW232541   4.821   1.103   2.200
10548SOL     OW32542   5.428   3.618   4.592
10548SOL    HW132543   5.456   3.547   4.527
10548SOL    HW232544   5.349   3.667   4.556
10549SOL     OW32545   6.941   0.509   2.423
10549SOL    HW132546   6.977   0.603   2.429
10549SOL    HW232547   6.902   0.483   2.511
10550SOL     OW32548   4.747   6.506   4.346
10550SOL    HW132549   4.746   6.454   4.261
10550SOL    HW232550   4.719   6.600   4.328
10551SOL     OW32551   1.409   2.597   4.973
10551SOL    HW132552   1.418   2.539   4.892
10551SOL    HW232553   1.379   2.542   5.050
10552SOL     OW32554   4.197   1.671   5.193
10552SOL    HW132555   4.201   1.612   5.273
10552SOL    HW232556   4.275   1.734   5.193
10553SOL     OW32557   0.533   4.943   0.771
10553SOL    HW132558   0.500   4.890   0.849
10553SOL    HW232559   0.618   4.989   0.795
10554SOL     OW32560   6.038   4.889   6.956
10554SOL    HW132561   5.985   4.961   7.002
10554SOL    HW232562   6.077   4.828   0.002
10555SOL     OW32563   2.959   1.952   1.668
10555SOL    HW132564   2.981   1.854   1.677
10555SOL    HW232565   2.913   1.968   1.581
10556SOL     OW32566   2.157   3.470   4.891
10556SOL    HW132567   2.211   3.401   4.842
10556SOL    HW232568   2.153   3.554   4.837
10557SOL     OW32569   0.597   2.377   3.282
10557SOL    HW132570   0.594   2.434   3.364
10557SOL    HW232571   0.507   2.337   3.265
10558SOL     OW32572   4.837   6.696   5.251
10558SOL    HW132573   4.860   6.774   5.193
10558SOL    HW232574   4.760   6.719   5.310
10559SOL     OW32575   4.098   1.566   0.957
10559SOL    HW132576   4.198   1.578   0.957
10559SOL    HW232577   4.059   1.611   1.037
10560SOL     OW32578   1.906   4.889   5.182
10560SOL    HW132579   1.954   4.973   5.155
10560SOL    HW232580   1.865   4.847   5.101
10561SOL     OW32581   1.954   5.019   0.418
10561SOL    HW132582   1.881   4.963   0.455
10561SOL    HW232583   1.945   5.025   0.318
10562SOL     OW32584   4.988   6.970   0.753
10562SOL    HW132585   5.025   6.884   0.789
10562SOL    HW232586   4.893   6.980   0.783
10563SOL     OW32587   1.958   0.946   4.591
10563SOL    HW132588   1.950   0.926   4.689
10563SOL    HW232589   2.035   1.008   4.576
10564SOL     OW32590   5.767   0.175   1.486
10564SOL    HW132591   5.843   0.177   1.421
10564SOL    HW232592   5.782   0.244   1.557
10565SOL     OW32593   6.910   1.505   5.280
10565SOL    HW132594   7.008   1.495   5.298
10565SOL    HW232595   6.887   1.462   5.192
10566SOL     OW32596   3.798   3.774   6.585
10566SOL    HW132597   3.807   3.853   6.525
10566SOL    HW232598   3.811   3.690   6.533
10567SOL     OW32599   1.863   3.451   4.361
10567SOL    HW132600   1.799   3.479   4.433
10567SOL    HW232601   1.957   3.457   4.397
10568SOL     OW32602   5.584   1.383   2.418
10568SOL    HW132603   5.591   1.478   2.448
10568SOL    HW232604   5.674   1.351   2.388
10569SOL     OW32605   6.509   3.599   2.345
10569SOL    HW132606   6.434   3.665   2.348
10569SOL    HW232607   6.520   3.566   2.251
10570SOL     OW32608   1.681   4.567   2.621
10570SOL    HW132609   1.739   4.647   2.612
10570SOL    HW232610   1.737   4.484   2.622
10571SOL     OW32611   6.655   5.469   3.558
10571SOL    HW132612   6.616   5.471   3.650
10571SOL    HW232613   6.746   5.510   3.559
10572SOL     OW32614   5.555   3.596   3.097
10572SOL    HW132615   5.575   3.693   3.082
10572SOL    HW232616   5.641   3.545   3.105
10573SOL     OW32617   6.007   6.204   3.384
10573SOL    HW132618   6.005   6.298   3.349
10573SOL    HW232619   6.004   6.140   3.307
10574SOL     OW32620   1.776   1.884   3.675
10574SOL    HW132621   1.767   1.809   3.741
10574SOL    HW232622   1.807   1.847   3.588
10575SOL     OW32623   0.566   0.828   3.903
10575SOL    HW132624   0.482   0.815   3.850
10575SOL    HW232625   0.605   0.917   3.882
10576SOL     OW32626   0.918   6.421   5.136
10576SOL    HW132627   0.852   6.358   5.096
10576SOL    HW232628   0.994   6.435   5.073
10577SOL     OW32629   1.523   3.260   6.344
10577SOL    HW132630   1.579   3.321   6.401
10577SOL    HW232631   1.540   3.281   6.248
10578SOL     OW32632   6.228   0.782   5.137
10578SOL    HW132633   6.199   0.877   5.149
10578SOL    HW232634   6.277   0.773   5.051
10579SOL     OW32635   3.909   1.198   0.830
10579SOL    HW132636   3.954   1.236   0.911
10579SOL    HW232637   3.814   1.228   0.827
10580SOL     OW32638   6.770   6.845   6.766
10580SOL    HW132639   6.866   6.851   6.792
10580SOL    HW232640   6.715   6.902   6.827
10581SOL     OW32641   5.963   0.030   3.202
10581SOL    HW132642   5.977   0.020   3.103
10581SOL    HW232643   6.028   0.097   3.238
10582SOL     OW32644   3.889   4.718   6.842
10582SOL    HW132645   3.861   4.814   6.851
10582SOL    HW232646   3.968   4.701   6.900
10583SOL     OW32647   3.891   0.691   6.817
10583SOL    HW132648   3.854   0.642   6.738
10583SOL    HW232649   3.922   0.781   6.788
10584SOL     OW32650   5.229   6.037   1.232
10584SOL    HW132651   5.166   6.115   1.246
10584SOL    HW232652   5.309   6.049   1.291
10585SOL     OW32653   1.569   3.350   5.765
10585SOL    HW132654   1.665   3.324   5.767
10585SOL    HW232655   1.533   3.338   5.672
10586SOL     OW32656   2.615   5.950   5.846
10586SOL    HW132657   2.537   5.888   5.841
10586SOL    HW232658   2.699   5.899   5.825
10587SOL     OW32659   5.902   3.640   0.566
10587SOL    HW132660   6.001   3.646   0.555
10587SOL    HW232661   5.871   3.550   0.538
10588SOL     OW32662   1.126   4.442   1.996
10588SOL    HW132663   1.101   4.530   2.036
10588SOL    HW232664   1.203   4.455   1.933
10589SOL     OW32665   6.113   2.239   4.158
10589SOL    HW132666   6.195   2.291   4.183
10589SOL    HW232667   6.073   2.277   4.075
10590SOL     OW32668   0.970   6.741   2.466
10590SOL    HW132669   0.959   6.838   2.487
10590SOL    HW232670   1.020   6.731   2.380
10591SOL     OW32671   1.826   1.901   5.755
10591SOL    HW132672   1.835   1.965   5.679
10591SOL    HW232673   1.777   1.820   5.724
10592SOL     OW32674   6.117   1.461   6.893
10592SOL    HW132675   6.032   1.451   6.841
10592SOL    HW232676   6.194   1.471   6.829
10593SOL     OW32677   2.592   6.417   0.934
10593SOL    HW132678   2.637   6.505   0.949
10593SOL    HW232679   2.495   6.423   0.959
10594SOL     OW32680   6.424   1.458   3.779
10594SOL    HW132681   6.344   1.483   3.724
10594SOL    HW232682   6.507   1.488   3.731
10595SOL     OW32683   3.378   6.846   6.009
10595SOL    HW132684   3.381   6.940   6.044
10595SOL    HW232685   3.470   6.807   6.010
10596SOL     OW32686   3.829   6.764   1.855
10596SOL    HW132687   3.796   6.859   1.852
10596SOL    HW232688   3.790   6.714   1.778
10597SOL     OW32689   2.805   1.070   4.443
10597SOL    HW132690   2.875   1.003   4.467
10597SOL    HW232691   2.733   1.070   4.513
10598SOL     OW32692   2.186   2.504   6.581
10598SOL    HW132693   2.278   2.492   6.545
10598SOL    HW232694   2.168   2.601   6.598
10599SOL     OW32695   6.164   1.373   0.130
10599SOL    HW132696   6.219   1.407   0.206
10599SOL    HW232697   6.170   1.438   0.053
10600SOL     OW32698   2.424   3.291   6.488
10600SOL    HW132699   2.375   3.316   6.572
10600SOL    HW232700   2.505   3.239   6.512
10601SOL     OW32701   3.270   5.996   6.185
10601SOL    HW132702   3.179   5.997   6.228
10601SOL    HW232703   3.260   5.980   6.087
10602SOL     OW32704   4.940   1.481   1.778
10602SOL    HW132705   4.942   1.527   1.689
10602SOL    HW232706   4.873   1.407   1.776
10603SOL     OW32707   1.250   6.377   3.423
10603SOL    HW132708   1.346   6.359   3.398
10603SOL    HW232709   1.221   6.313   3.494
10604SOL     OW32710   6.201   4.187   4.637
10604SOL    HW132711   6.202   4.103   4.690
10604SOL    HW232712   6.201   4.266   4.699
10605SOL     OW32713   0.773   4.932   0.413
10605SOL    HW132714   0.696   4.883   0.453
10605SOL    HW232715   0.856   4.875   0.418
10606SOL     OW32716   6.881   0.732   1.379
10606SOL    HW132717   6.898   0.814   1.324
10606SOL    HW232718   6.917   0.652   1.330
10607SOL     OW32719   3.955   4.858   5.978
10607SOL    HW132720   3.875   4.902   6.019
10607SOL    HW232721   3.977   4.904   5.892
10608SOL     OW32722   5.905   1.704   4.602
10608SOL    HW132723   5.971   1.759   4.653
10608SOL    HW232724   5.940   1.688   4.509
10609SOL     OW32725   3.624   5.976   1.104
10609SOL    HW132726   3.624   5.877   1.094
10609SOL    HW232727   3.577   6.001   1.190
10610SOL     OW32728   0.987   4.091   6.421
10610SOL    HW132729   1.069   4.034   6.420
10610SOL    HW232730   0.931   4.068   6.500
10611SOL     OW32731   5.686   3.178   6.878
10611SOL    HW132732   5.667   3.277   6.872
10611SOL    HW232733   5.710   3.143   6.788
10612SOL     OW32734   2.610   0.062   6.393
10612SOL    HW132735   2.658   0.039   6.308
10612SOL    HW232736   2.591   7.001   6.444
10613SOL     OW32737   6.869   0.591   5.806
10613SOL    HW132738   6.783   0.620   5.848
10613SOL    HW232739   6.945   0.637   5.852
10614SOL     OW32740   6.922   0.833   4.379
10614SOL    HW132741   6.938   0.740   4.348
10614SOL    HW232742   6.824   0.850   4.385
10615SOL     OW32743   4.433   5.383   5.606
10615SOL    HW132744   4.387   5.471   5.595
10615SOL    HW232745   4.473   5.355   5.519
10616SOL     OW32746   3.010   6.433   0.348
10616SOL    HW132747   3.002   6.357   0.412
10616SOL    HW232748   3.101   6.474   0.355
10617SOL     OW32749   2.075   2.754   0.464
10617SOL    HW132750   2.121   2.776   0.550
10617SOL    HW232751   1.984   2.717   0.483
10618SOL     OW32752   6.267   2.644   0.237
10618SOL    HW132753   6.273   2.628   0.336
10618SOL    HW232754   6.244   2.740   0.220
10619SOL     OW32755   0.808   3.879   3.123
10619SOL    HW132756   0.744   3.808   3.152
10619SOL    HW232757   0.871   3.842   3.055
10620SOL     OW32758   1.729   6.232   5.770
10620SOL    HW132759   1.670   6.302   5.729
10620SOL    HW232760   1.705   6.143   5.732
10621SOL     OW32761   1.456   5.798   6.810
10621SOL    HW132762   1.422   5.883   6.769
10621SOL    HW232763   1.517   5.752   6.745
10622SOL     OW32764   4.499   0.829   1.917
10622SOL    HW132765   4.577   0.875   1.874
10622SOL    HW232766   4.524   0.799   2.009
10623SOL     OW32767   5.235   2.617   3.818
10623SOL    HW132768   5.265   2.687   3.884
10623SOL    HW232769   5.217   2.660   3.730
10624SOL     OW32770   1.415   1.323   5.012
10624SOL    HW132771   1.478   1.309   5.089
10624SOL    HW232772   1.340   1.257   5.018
10625SOL     OW32773   0.516   4.424   6.935
10625SOL    HW132774   0.511   4.482   7.017
10625SOL    HW232775   0.526   4.328   6.963
10626SOL     OW32776   1.426   2.322   1.426
10626SOL    HW132777   1.385   2.254   1.486
10626SOL    HW232778   1.373   2.328   1.341
10627SOL     OW32779   6.560   6.047   2.568
10627SOL    HW132780   6.607   6.041   2.480
10627SOL    HW232781   6.566   5.958   2.614
10628SOL     OW32782   6.314   5.226   5.223
10628SOL    HW132783   6.272   5.151   5.173
10628SOL    HW232784   6.401   5.251   5.180
10629SOL     OW32785   2.467   4.896   5.924
10629SOL    HW132786   2.460   4.867   6.019
10629SOL    HW232787   2.515   4.826   5.871
10630SOL     OW32788   6.151   0.369   3.494
10630SOL    HW132789   6.063   0.368   3.446
10630SOL    HW232790   6.136   0.389   3.590
10631SOL     OW32791   0.841   0.053   3.944
10631SOL    HW132792   0.862   7.015   3.867
10631SOL    HW232793   0.856   0.148   3.916
10632SOL     OW32794   6.328   2.554   4.492
10632SOL    HW132795   6.237   2.590   4.471
10632SOL    HW232796   6.341   2.552   4.591
10633SOL     OW32797   2.523   4.778   1.206
10633SOL    HW132798   2.548   4.871   1.178
10633SOL    HW232799   2.503   4.776   1.304
10634SOL     OW32800   2.648   5.738   0.592
10634SOL    HW132801   2.710   5.742   0.514
10634SOL    HW232802   2.685   5.675   0.661
10635SOL     OW32803   3.306   1.168   0.979
10635SOL    HW132804   3.227   1.219   1.014
10635SOL    HW232805   3.315   1.182   0.881
10636SOL     OW32806   0.405   1.934   1.100
10636SOL    HW132807   0.441   1.991   1.027
10636SOL    HW232808   0.421   1.979   1.188
10637SOL     OW32809   3.410   4.079   5.212
10637SOL    HW132810   3.466   4.028   5.277
10637SOL    HW232811   3.459   4.162   5.184
10638SOL     OW32812   0.551   6.830   4.155
10638SOL    HW132813   0.588   6.908   4.205
10638SOL    HW232814   0.456   6.849   4.130
10639SOL     OW32815   0.932   1.511   4.802
10639SOL    HW132816   0.834   1.490   4.795
10639SOL    HW232817   0.980   1.436   4.846
10640SOL     OW32818   4.845   0.597   0.004
10640SOL    HW132819   4.751   0.629   0.018
10640SOL    HW232820   4.886   0.576   0.093
10641SOL     OW32821   5.021   1.722   0.061
10641SOL    HW132822   4.992   1.814   0.088
10641SOL    HW232823   5.078   1.729   7.001
10642SOL     OW32824   0.033   2.211   1.188
10642SOL    HW132825   7.009   2.137   1.237
10642SOL    HW232826   0.130   2.213   1.216
10643SOL     OW32827   2.261   4.017   5.419
10643SOL    HW132828   2.310   4.030   5.333
10643SOL    HW232829   2.192   3.946   5.408
10644SOL     OW32830   4.715   1.454   3.710
10644SOL    HW132831   4.687   1.490   3.800
10644SOL    HW232832   4.668   1.505   3.638
10645SOL     OW32833   0.883   0.998   4.847
10645SOL    HW132834   0.828   1.037   4.773
10645SOL    HW232835   0.930   1.071   4.895
10646SOL     OW32836   0.300   2.640   5.667
10646SOL    HW132837   0.217   2.617   5.615
10646SOL    HW232838   0.295   2.600   5.758
10647SOL     OW32839   6.525   5.139   0.356
10647SOL    HW132840   6.598   5.207   0.365
10647SOL    HW232841   6.504   5.126   0.259
10648SOL     OW32842   5.172   3.115   6.325
10648SOL    HW132843   5.200   3.025   6.357
10648SOL    HW232844   5.126   3.107   6.236
10649SOL     OW32845   0.277   5.080   5.052
10649SOL    HW132846   0.276   5.151   4.982
10649SOL    HW232847   0.285   5.123   5.142
10650SOL     OW32848   2.198   6.552   3.839
10650SOL    HW132849   2.149   6.547   3.752
10650SOL    HW232850   2.229   6.461   3.866
10651SOL     OW32851   4.424   6.613   5.768
10651SOL    HW132852   4.351   6.600   5.702
10651SOL    HW232853   4.393   6.582   5.858
10652SOL     OW32854   3.226   0.044   5.784
10652SOL    HW132855   3.311   0.097   5.794
10652SOL    HW232856   3.169   0.058   5.865
10653SOL     OW32857   4.736   4.445   4.490
10653SOL    HW132858   4.677   4.433   4.411
10653SOL    HW232859   4.815   4.501   4.465
10654SOL     OW32860   2.454   0.392   1.231
10654SOL    HW132861   2.458   0.384   1.330
10654SOL    HW232862   2.401   0.474   1.207
10655SOL     OW32863   2.791   5.902   1.730
10655SOL    HW132864   2.809   5.804   1.722
10655SOL    HW232865   2.849   5.941   1.801
10656SOL     OW32866   6.062   2.469   0.204
10656SOL    HW132867   6.146   2.522   0.214
10656SOL    HW232868   6.000   2.517   0.141
10657SOL     OW32869   5.881   6.701   1.034
10657SOL    HW132870   5.791   6.663   1.057
10657SOL    HW232871   5.874   6.754   0.950
10658SOL     OW32872   1.222   4.666   4.504
10658SOL    HW132873   1.229   4.635   4.599
10658SOL    HW232874   1.310   4.703   4.474
10659SOL     OW32875   5.659   7.021   0.741
10659SOL    HW132876   5.572   0.041   0.717
10659SOL    HW232877   5.644   6.953   0.813
10660SOL     OW32878   4.177   3.727   5.911
10660SOL    HW132879   4.201   3.704   5.816
10660SOL    HW232880   4.170   3.827   5.920
10661SOL     OW32881   0.468   6.751   1.733
10661SOL    HW132882   0.462   6.847   1.760
10661SOL    HW232883   0.480   6.694   1.814
10662SOL     OW32884   6.937   1.316   0.668
10662SOL    HW132885   7.015   1.262   0.638
10662SOL    HW232886   6.945   1.333   0.767
10663SOL     OW32887   0.441   0.727   1.216
10663SOL    HW132888   0.414   0.753   1.308
10663SOL    HW232889   0.448   0.627   1.211
10664SOL     OW32890   1.986   4.630   0.283
10664SOL    HW132891   1.957   4.548   0.333
10664SOL    HW232892   1.912   4.661   0.224
10665SOL     OW32893   0.211   1.950   0.289
10665SOL    HW132894   0.174   1.880   0.229
10665SOL    HW232895   0.146   1.970   0.363
10666SOL     OW32896   3.034   5.880   6.938
10666SOL    HW132897   2.942   5.896   6.901
10666SOL    HW232898   3.045   5.932   0.000
10667SOL     OW32899   3.873   1.824   5.353
10667SOL    HW132900   3.886   1.778   5.265
10667SOL    HW232901   3.868   1.756   5.426
10668SOL     OW32902   1.457   1.739   6.453
10668SOL    HW132903   1.544   1.787   6.441
10668SOL    HW232904   1.474   1.644   6.480
10669SOL     OW32905   1.278   0.139   0.515
10669SOL    HW132906   1.366   0.092   0.526
10669SOL    HW232907   1.217   0.114   0.590
10670SOL     OW32908   5.565   4.551   5.924
10670SOL    HW132909   5.523   4.540   5.834
10670SOL    HW232910   5.497   4.585   5.989
10671SOL     OW32911   2.430   2.562   2.862
10671SOL    HW132912   2.341   2.599   2.833
10671SOL    HW232913   2.434   2.560   2.962
10672SOL     OW32914   0.452   2.488   0.424
10672SOL    HW132915   0.438   2.586   0.435
10672SOL    HW232916   0.541   2.462   0.463
10673SOL     OW32917   2.650   3.161   5.346
10673SOL    HW132918   2.648   3.084   5.410
10673SOL    HW232919   2.586   3.142   5.271
10674SOL     OW32920   3.847   3.910   1.038
10674SOL    HW132921   3.946   3.926   1.036
10674SOL    HW232922   3.806   3.947   0.955
10675SOL     OW32923   0.084   0.039   5.681
10675SOL    HW132924   0.008   0.028   5.745
10675SOL    HW232925   0.112   0.135   5.679
10676SOL     OW32926   6.159   0.329   6.217
10676SOL    HW132927   6.224   0.339   6.141
10676SOL    HW232928   6.082   0.390   6.203
10677SOL     OW32929   0.488   0.483   1.536
10677SOL    HW132930   0.476   0.454   1.441
10677SOL    HW232931   0.482   0.583   1.540
10678SOL     OW32932   2.372   5.672   2.365
10678SOL    HW132933   2.465   5.683   2.399
10678SOL    HW232934   2.323   5.607   2.424
10679SOL     OW32935   5.925   5.288   4.082
10679SOL    HW132936   5.849   5.292   4.018
10679SOL    HW232937   6.009   5.320   4.038
10680SOL     OW32938   1.077   3.121   2.217
10680SOL    HW132939   1.151   3.088   2.277
10680SOL    HW232940   1.013   3.175   2.270
10681SOL     OW32941   6.432   2.668   6.226
10681SOL    HW132942   6.414   2.638   6.320
10681SOL    HW232943   6.530   2.662   6.207
10682SOL     OW32944   0.615   1.841   2.458
10682SOL    HW132945   0.542   1.885   2.510
10682SOL    HW232946   0.673   1.911   2.416
10683SOL     OW32947   1.748   2.145   4.528
10683SOL    HW132948   1.796   2.222   4.571
10683SOL    HW232949   1.813   2.070   4.515
10684SOL     OW32950   6.191   4.293   0.453
10684SOL    HW132951   6.226   4.234   0.380
10684SOL    HW232952   6.098   4.323   0.430
10685SOL     OW32953   0.449   3.707   3.404
10685SOL    HW132954   0.418   3.771   3.473
10685SOL    HW232955   0.415   3.615   3.425
10686SOL     OW32956   2.958   6.039   0.236
10686SOL    HW132957   3.037   5.979   0.224
10686SOL    HW232958   2.936   6.084   0.150
10687SOL     OW32959   6.766   4.741   2.464
10687SOL    HW132960   6.725   4.650   2.457
10687SOL    HW232961   6.721   4.791   2.539
10688SOL     OW32962   6.675   5.205   2.227
10688SOL    HW132963   6.735   5.145   2.280
10688SOL    HW232964   6.728   5.249   2.154
10689SOL     OW32965   7.010   0.464   2.767
10689SOL    HW132966   0.036   0.516   2.697
10689SOL    HW232967   6.940   0.521   2.809
10690SOL     OW32968   4.658   5.155   2.262
10690SOL    HW132969   4.735   5.132   2.202
10690SOL    HW232970   4.688   5.217   2.334
10691SOL     OW32971   6.710   1.220   1.196
10691SOL    HW132972   6.794   1.166   1.205
10691SOL    HW232973   6.647   1.173   1.134
10692SOL     OW32974   3.834   5.737   3.916
10692SOL    HW132975   3.780   5.694   3.989
10692SOL    HW232976   3.869   5.667   3.854
10693SOL     OW32977   0.061   1.366   1.480
10693SOL    HW132978   6.993   1.391   1.445
10693SOL    HW232979   0.053   1.334   1.574
10694SOL     OW32980   4.158   6.023   1.655
10694SOL    HW132981   4.223   6.096   1.675
10694SOL    HW232982   4.096   6.053   1.583
10695SOL     OW32983   6.972   2.357   4.411
10695SOL    HW132984   6.957   2.454   4.395
10695SOL    HW232985   6.960   2.306   4.326
10696SOL     OW32986   0.133   6.019   1.267
10696SOL    HW132987   0.117   6.051   1.361
10696SOL    HW232988   0.229   5.995   1.256
10697SOL     OW32989   0.673   6.300   4.423
10697SOL    HW132990   0.621   6.383   4.448
10697SOL    HW232991   0.645   6.225   4.483
10698SOL     OW32992   2.952   0.184   3.445
10698SOL    HW132993   3.004   0.233   3.515
10698SOL    HW232994   2.953   0.235   3.360
10699SOL     OW32995   3.886   1.736   2.827
10699SOL    HW132996   3.891   1.643   2.861
10699SOL    HW232997   3.881   1.735   2.727
10700SOL     OW32998   6.981   6.362   1.166
10700SOL    HW132999   6.925   6.433   1.208
10700SOL    HW233000   0.009   6.401   1.089
10701SOL     OW33001   3.255   6.554   0.338
10701SOL    HW133002   3.306   6.491   0.397
10701SOL    HW233003   3.318   6.608   0.283
10702SOL     OW33004   6.009   2.862   0.200
10702SOL    HW133005   6.066   2.917   0.261
10702SOL    HW233006   6.024   2.890   0.106
10703SOL     OW33007   3.626   4.014   3.628
10703SOL    HW133008   3.684   3.981   3.554
10703SOL    HW233009   3.539   3.965   3.627
10704SOL     OW33010   5.131   0.119   1.777
10704SOL    HW133011   5.153   0.138   1.873
10704SOL    HW233012   5.153   0.198   1.721
10705SOL     OW33013   0.947   2.910   5.938
10705SOL    HW133014   0.854   2.937   5.912
10705SOL    HW233015   0.966   2.819   5.901
10706SOL     OW33016   3.532   0.712   1.684
10706SOL    HW133017   3.478   0.645   1.736
10706SOL    HW233018   3.520   0.802   1.724
10707SOL     OW33019   5.940   6.867   5.844
10707SOL    HW133020   5.947   6.767   5.841
10707SOL    HW233021   5.932   6.897   5.939
10708SOL     OW33022   4.671   1.057   0.919
10708SOL    HW133023   4.601   1.002   0.874
10708SOL    HW233024   4.654   1.154   0.900
10709SOL     OW33025   6.381   6.754   5.672
10709SOL    HW133026   6.387   6.730   5.575
10709SOL    HW233027   6.408   6.675   5.727
10710SOL     OW33028   6.024   5.633   3.840
10710SOL    HW133029   6.061   5.686   3.764
10710SOL    HW233030   5.927   5.615   3.825
10711SOL     OW33031   1.410   7.007   4.176
10711SOL    HW133032   1.403   0.084   4.167
10711SOL    HW233033   1.405   6.965   4.085
10712SOL     OW33034   3.527   1.508   5.288
10712SOL    HW133035   3.537   1.584   5.224
10712SOL    HW233036   3.517   1.544   5.381
10713SOL     OW33037   1.602   5.929   1.574
10713SOL    HW133038   1.610   5.848   1.516
10713SOL    HW233039   1.508   5.937   1.607
10714SOL     OW33040   0.740   5.292   5.513
10714SOL    HW133041   0.727   5.388   5.487
10714SOL    HW233042   0.825   5.283   5.563
10715SOL     OW33043   4.593   2.048   3.855
10715SOL    HW133044   4.692   2.064   3.851
10715SOL    HW233045   4.559   2.022   3.765
10716SOL     OW33046   6.749   0.661   4.075
10716SOL    HW133047   6.736   0.664   4.174
10716SOL    HW233048   6.842   0.691   4.053
10717SOL     OW33049   6.828   0.676   1.637
10717SOL    HW133050   6.856   0.711   1.547
10717SOL    HW233051   6.856   0.580   1.645
10718SOL     OW33052   6.433   5.229   6.529
10718SOL    HW133053   6.467   5.244   6.622
10718SOL    HW233054   6.467   5.142   6.495
10719SOL     OW33055   5.928   0.934   1.804
10719SOL    HW133056   5.990   0.995   1.755
10719SOL    HW233057   5.938   0.841   1.768
10720SOL     OW33058   0.373   3.655   6.582
10720SOL    HW133059   0.473   3.652   6.583
10720SOL    HW233060   0.336   3.564   6.601
10721SOL     OW33061   5.495   2.656   4.239
10721SOL    HW133062   5.502   2.556   4.228
10721SOL    HW233063   5.459   2.676   4.330
10722SOL     OW33064   6.715   3.922   0.545
10722SOL    HW133065   6.701   3.912   0.447
10722SOL    HW233066   6.780   3.852   0.576
10723SOL     OW33067   5.513   4.027   6.792
10723SOL    HW133068   5.483   4.007   6.699
10723SOL    HW233069   5.612   4.018   6.798
10724SOL     OW33070   4.138   6.750   6.551
10724SOL    HW133071   4.063   6.774   6.490
10724SOL    HW233072   4.103   6.701   6.631
10725SOL     OW33073   0.654   5.990   5.001
10725SOL    HW133074   0.713   5.911   4.980
10725SOL    HW233075   0.606   5.972   5.087
10726SOL     OW33076   5.365   0.374   4.448
10726SOL    HW133077   5.452   0.409   4.480
10726SOL    HW233078   5.304   0.450   4.428
10727SOL     OW33079   2.662   5.739   6.207
10727SOL    HW133080   2.623   5.829   6.223
10727SOL    HW233081   2.726   5.716   6.280
10728SOL     OW33082   4.656   6.931   3.005
10728SOL    HW133083   4.664   6.837   3.036
10728SOL    HW233084   4.662   6.934   2.905
10729SOL     OW33085   6.062   2.377   2.769
10729SOL    HW133086   6.064   2.467   2.813
10729SOL    HW233087   5.968   2.347   2.758
10730SOL     OW33088   1.644   6.981   2.539
10730SOL    HW133089   1.581   6.936   2.601
10730SOL    HW233090   1.738   6.951   2.557
10731SOL     OW33091   3.387   6.857   7.002
10731SOL    HW133092   3.433   6.879   6.916
10731SOL    HW233093   3.350   6.941   0.020
10732SOL     OW33094   6.281   5.877   3.115
10732SOL    HW133095   6.184   5.887   3.095
10732SOL    HW233096   6.316   5.794   3.071
10733SOL     OW33097   6.565   1.032   6.115
10733SOL    HW133098   6.590   1.118   6.071
10733SOL    HW233099   6.472   1.038   6.150
10734SOL     OW33100   1.846   0.835   5.625
10734SOL    HW133101   1.831   0.766   5.696
10734SOL    HW233102   1.821   0.925   5.662
10735SOL     OW33103   1.247   5.292   1.899
10735SOL    HW133104   1.327   5.268   1.843
10735SOL    HW233105   1.232   5.390   1.895
10736SOL     OW33106   6.664   0.119   3.789
10736SOL    HW133107   6.763   0.116   3.804
10736SOL    HW233108   6.642   0.080   3.700
10737SOL     OW33109   6.645   1.376   1.425
10737SOL    HW133110   6.651   1.327   1.338
10737SOL    HW233111   6.733   1.420   1.443
10738SOL     OW33112   2.993   0.889   2.123
10738SOL    HW133113   3.011   0.929   2.034
10738SOL    HW233114   3.023   0.793   2.124
10739SOL     OW33115   5.904   1.981   2.565
10739SOL    HW133116   5.899   1.883   2.546
10739SOL    HW233117   5.994   2.004   2.599
10740SOL     OW33118   1.975   6.911   6.236
10740SOL    HW133119   2.021   6.951   6.157
10740SOL    HW233120   1.931   6.983   6.289
10741SOL     OW33121   1.897   2.483   3.000
10741SOL    HW133122   1.853   2.573   2.994
10741SOL    HW233123   1.857   2.431   3.076
10742SOL     OW33124   5.997   5.917   2.842
10742SOL    HW133125   6.017   5.858   2.920
10742SOL    HW233126   6.076   5.919   2.781
10743SOL     OW33127   3.466   0.715   5.567
10743SOL    HW133128   3.547   0.769   5.547
10743SOL    HW233129   3.444   0.721   5.664
10744SOL     OW33130   1.829   0.299   0.593
10744SOL    HW133131   1.887   0.223   0.621
10744SOL    HW233132   1.859   0.383   0.639
10745SOL     OW33133   2.130   4.955   1.108
10745SOL    HW133134   2.161   4.880   1.166
10745SOL    HW233135   2.101   5.032   1.165
10746SOL     OW33136   1.646   6.267   6.749
10746SOL    HW133137   1.575   6.256   6.819
10746SOL    HW233138   1.706   6.187   6.752
10747SOL     OW33139   6.608   1.804   4.080
10747SOL    HW133140   6.579   1.847   3.994
10747SOL    HW233141   6.540   1.737   4.108
10748SOL     OW33142   3.947   5.955   1.274
10748SOL    HW133143   4.020   6.020   1.255
10748SOL    HW233144   3.896   5.936   1.190
10749SOL     OW33145   6.606   4.754   3.113
10749SOL    HW133146   6.614   4.775   3.211
10749SOL    HW233147   6.626   4.657   3.098
10750SOL     OW33148   5.066   2.700   4.228
10750SOL    HW133149   5.048   2.739   4.319
10750SOL    HW233150   4.986   2.714   4.170
10751SOL     OW33151   1.136   4.152   5.221
10751SOL    HW133152   1.057   4.129   5.164
10751SOL    HW233153   1.141   4.088   5.298
10752SOL     OW33154   5.884   5.677   0.922
10752SOL    HW133155   5.843   5.754   0.971
10752SOL    HW233156   5.979   5.666   0.950
10753SOL     OW33157   4.720   6.219   4.031
10753SOL    HW133158   4.780   6.142   4.051
10753SOL    HW233159   4.770   6.305   4.043
10754SOL     OW33160   1.619   3.003   1.914
10754SOL    HW133161   1.617   3.077   1.982
10754SOL    HW233162   1.526   2.969   1.899
10755SOL     OW33163   6.404   3.384   1.076
10755SOL    HW133164   6.333   3.443   1.114
10755SOL    HW233165   6.481   3.439   1.046
10756SOL     OW33166   0.209   2.979   0.479
10756SOL    HW133167   0.257   3.066   0.494
10756SOL    HW233168   0.117   2.997   0.446
10757SOL     OW33169   6.620   4.516   1.330
10757SOL    HW133170   6.628   4.602   1.279
10757SOL    HW233171   6.549   4.459   1.288
10758SOL     OW33172   0.455   6.707   6.844
10758SOL    HW133173   0.391   6.739   6.915
10758SOL    HW233174   0.404   6.671   6.766
10759SOL     OW33175   2.370   2.081   6.275
10759SOL    HW133176   2.294   2.097   6.337
10759SOL    HW233177   2.414   1.994   6.298
10760SOL     OW33178   0.354   5.297   0.192
10760SOL    HW133179   0.319   5.387   0.168
10760SOL    HW233180   0.420   5.267   0.123
10761SOL     OW33181   0.565   1.725   6.265
10761SOL    HW133182   0.478   1.694   6.227
10761SOL    HW233183   0.574   1.692   6.359
10762SOL     OW33184   3.742   6.669   5.653
10762SOL    HW133185   3.657   6.617   5.653
10762SOL    HW233186   3.802   6.633   5.581
10763SOL     OW33187   5.351   0.162   3.010
10763SOL    HW133188   5.254   0.139   3.000
10763SOL    HW233189   5.362   0.261   3.005
10764SOL     OW33190   4.398   1.089   5.432
10764SOL    HW133191   4.445   1.001   5.436
10764SOL    HW233192   4.422   1.137   5.348
10765SOL     OW33193   6.790   1.981   2.922
10765SOL    HW133194   6.705   2.008   2.877
10765SOL    HW233195   6.798   1.882   2.922
10766SOL     OW33196   1.623   4.456   6.694
10766SOL    HW133197   1.632   4.372   6.641
10766SOL    HW233198   1.535   4.499   6.676
10767SOL     OW33199   1.813   5.552   0.738
10767SOL    HW133200   1.713   5.547   0.737
10767SOL    HW233201   1.842   5.643   0.712
10768SOL     OW33202   5.862   6.023   0.485
10768SOL    HW133203   5.785   6.078   0.517
10768SOL    HW233204   5.837   5.976   0.400
10769SOL     OW33205   3.030   3.384   5.070
10769SOL    HW133206   3.127   3.381   5.047
10769SOL    HW233207   2.982   3.444   5.006
10770SOL     OW33208   5.044   0.007   4.167
10770SOL    HW133209   4.986   0.061   4.229
10770SOL    HW233210   5.109   0.068   4.122
10771SOL     OW33211   5.420   5.930   5.779
10771SOL    HW133212   5.446   5.985   5.700
10771SOL    HW233213   5.320   5.922   5.783
10772SOL     OW33214   6.031   4.606   3.071
10772SOL    HW133215   6.114   4.638   3.118
10772SOL    HW233216   6.037   4.627   2.974
10773SOL     OW33217   6.554   4.721   1.161
10773SOL    HW133218   6.525   4.709   1.066
10773SOL    HW233219   6.500   4.793   1.203
10774SOL     OW33220   1.196   2.628   0.784
10774SOL    HW133221   1.155   2.538   0.776
10774SOL    HW233222   1.237   2.654   0.696
10775SOL     OW33223   1.696   4.327   1.563
10775SOL    HW133224   1.731   4.253   1.505
10775SOL    HW233225   1.709   4.302   1.659
10776SOL     OW33226   0.716   1.601   2.788
10776SOL    HW133227   0.672   1.690   2.805
10776SOL    HW233228   0.815   1.611   2.797
10777SOL     OW33229   3.118   1.210   2.591
10777SOL    HW133230   3.066   1.260   2.522
10777SOL    HW233231   3.055   1.168   2.656
10778SOL     OW33232   6.332   6.388   3.887
10778SOL    HW133233   6.390   6.461   3.851
10778SOL    HW233234   6.271   6.356   3.815
10779SOL     OW33235   5.421   3.992   4.269
10779SOL    HW133236   5.452   3.901   4.240
10779SOL    HW233237   5.500   4.052   4.279
10780SOL     OW33238   1.136   5.654   4.966
10780SOL    HW133239   1.220   5.707   4.977
10780SOL    HW233240   1.151   5.561   4.998
10781SOL     OW33241   5.743   2.356   4.771
10781SOL    HW133242   5.742   2.358   4.871
10781SOL    HW233243   5.681   2.284   4.739
10782SOL     OW33244   0.888   2.981   5.206
10782SOL    HW133245   0.894   2.883   5.186
10782SOL    HW233246   0.833   3.026   5.135
10783SOL     OW33247   1.137   2.241   2.631
10783SOL    HW133248   1.135   2.229   2.730
10783SOL    HW233249   1.077   2.316   2.605
10784SOL     OW33250   3.522   6.220   2.355
10784SOL    HW133251   3.427   6.251   2.351
10784SOL    HW233252   3.525   6.120   2.355
10785SOL     OW33253   1.952   6.100   2.683
10785SOL    HW133254   1.879   6.065   2.624
10785SOL    HW233255   2.039   6.057   2.658
10786SOL     OW33256   4.784   1.614   2.164
10786SOL    HW133257   4.723   1.547   2.122
10786SOL    HW233258   4.878   1.596   2.134
10787SOL     OW33259   3.375   1.358   3.334
10787SOL    HW133260   3.367   1.259   3.324
10787SOL    HW233261   3.414   1.379   3.423
10788SOL     OW33262   0.971   4.472   0.631
10788SOL    HW133263   0.976   4.450   0.729
10788SOL    HW233264   0.904   4.544   0.617
10789SOL     OW33265   6.466   1.528   0.090
10789SOL    HW133266   6.554   1.539   0.135
10789SOL    HW233267   6.393   1.539   0.157
10790SOL     OW33268   0.252   2.370   4.346
10790SOL    HW133269   0.302   2.299   4.397
10790SOL    HW233270   0.174   2.401   4.400
10791SOL     OW33271   2.209   1.536   3.147
10791SOL    HW133272   2.110   1.550   3.138
10791SOL    HW233273   2.257   1.622   3.130
10792SOL     OW33274   3.932   2.124   1.118
10792SOL    HW133275   3.991   2.189   1.069
10792SOL    HW233276   3.873   2.174   1.180
10793SOL     OW33277   4.949   1.686   5.182
10793SOL    HW133278   4.908   1.676   5.273
10793SOL    HW233279   5.029   1.746   5.188
10794SOL     OW33280   4.356   3.517   1.089
10794SOL    HW133281   4.352   3.420   1.069
10794SOL    HW233282   4.263   3.555   1.091
10795SOL     OW33283   6.674   3.360   3.330
10795SOL    HW133284   6.592   3.351   3.386
10795SOL    HW233285   6.737   3.425   3.372
10796SOL     OW33286   6.767   6.822   0.025
10796SOL    HW133287   6.832   6.861   6.982
10796SOL    HW233288   6.679   6.809   7.003
10797SOL     OW33289   4.264   3.852   0.494
10797SOL    HW133290   4.248   3.763   0.451
10797SOL    HW233291   4.349   3.848   0.547
10798SOL     OW33292   2.757   0.005   6.183
10798SOL    HW133293   2.724   0.059   6.105
10798SOL    HW233294   2.857   0.004   6.181
10799SOL     OW33295   3.198   1.616   2.567
10799SOL    HW133296   3.231   1.653   2.653
10799SOL    HW233297   3.273   1.611   2.501
10800SOL     OW33298   1.587   0.277   5.874
10800SOL    HW133299   1.535   0.257   5.791
10800SOL    HW233300   1.669   0.219   5.876
10801SOL     OW33301   2.823   6.202   5.934
10801SOL    HW133302   2.816   6.268   6.008
10801SOL    HW233303   2.736   6.197   5.885
10802SOL     OW33304   0.549   3.985   5.014
10802SOL    HW133305   0.533   4.083   5.025
10802SOL    HW233306   0.560   3.942   5.104
10803SOL     OW33307   6.355   4.837   5.285
10803SOL    HW133308   6.444   4.803   5.253
10803SOL    HW233309   6.309   4.884   5.210
10804SOL     OW33310   5.225   4.762   2.289
10804SOL    HW133311   5.164   4.714   2.351
10804SOL    HW233312   5.174   4.797   2.211
10805SOL     OW33313   4.356   6.766   0.891
10805SOL    HW133314   4.318   6.755   0.799
10805SOL    HW233315   4.447   6.807   0.885
10806SOL     OW33316   5.132   4.052   0.110
10806SOL    HW133317   5.068   3.981   0.079
10806SOL    HW233318   5.218   4.043   0.062
10807SOL     OW33319   4.264   5.954   3.580
10807SOL    HW133320   4.170   5.943   3.610
10807SOL    HW233321   4.267   5.963   3.480
10808SOL     OW33322   0.013   2.810   6.492
10808SOL    HW133323   0.090   2.871   6.510
10808SOL    HW233324   0.043   2.715   6.502
10809SOL     OW33325   2.159   0.926   3.345
10809SOL    HW133326   2.233   0.992   3.358
10809SOL    HW233327   2.150   0.903   3.248
10810SOL     OW33328   6.790   1.753   5.193
10810SOL    HW133329   6.723   1.696   5.240
10810SOL    HW233330   6.882   1.727   5.222
10811SOL     OW33331   4.859   4.482   5.254
10811SOL    HW133332   4.929   4.419   5.219
10811SOL    HW233333   4.776   4.474   5.198
10812SOL     OW33334   6.404   2.556   2.518
10812SOL    HW133335   6.310   2.524   2.520
10812SOL    HW233336   6.457   2.502   2.453
10813SOL     OW33337   2.831   6.198   1.655
10813SOL    HW133338   2.819   6.213   1.753
10813SOL    HW233339   2.925   6.171   1.636
10814SOL     OW33340   1.925   6.846   4.954
10814SOL    HW133341   1.910   6.751   4.927
10814SOL    HW233342   1.881   6.907   4.888
10815SOL     OW33343   5.385   3.399   3.013
10815SOL    HW133344   5.395   3.318   3.072
10815SOL    HW233345   5.461   3.461   3.030
10816SOL     OW33346   1.498   1.241   2.120
10816SOL    HW133347   1.515   1.308   2.192
10816SOL    HW233348   1.574   1.242   2.055
10817SOL     OW33349   4.636   7.013   2.045
10817SOL    HW133350   4.680   6.973   1.965
10817SOL    HW233351   4.581   6.944   2.092
10818SOL     OW33352   4.588   3.080   6.666
10818SOL    HW133353   4.535   2.997   6.650
10818SOL    HW233354   4.529   3.151   6.704
10819SOL     OW33355   6.871   4.407   6.529
10819SOL    HW133356   6.799   4.446   6.471
10819SOL    HW233357   6.905   4.323   6.488
10820SOL     OW33358   0.373   6.516   4.564
10820SOL    HW133359   0.467   6.548   4.567
10820SOL    HW233360   0.370   6.426   4.519
10821SOL     OW33361   6.868   0.432   0.788
10821SOL    HW133362   6.857   0.360   0.857
10821SOL    HW233363   6.777   0.459   0.754
10822SOL     OW33364   0.408   4.098   2.089
10822SOL    HW133365   0.322   4.111   2.138
10822SOL    HW233366   0.449   4.011   2.116
10823SOL     OW33367   1.909   6.862   0.999
10823SOL    HW133368   1.917   6.764   0.981
10823SOL    HW233369   1.864   6.877   1.087
10824SOL     OW33370   5.266   0.680   2.451
10824SOL    HW133371   5.325   0.722   2.382
10824SOL    HW233372   5.299   0.705   2.542
10825SOL     OW33373   3.545   1.552   0.909
10825SOL    HW133374   3.530   1.516   1.001
10825SOL    HW233375   3.515   1.647   0.906
10826SOL     OW33376   6.995   3.023   2.601
10826SOL    HW133377   6.933   3.038   2.524
10826SOL    HW233378   6.942   3.012   2.684
10827SOL     OW33379   6.805   2.922   4.033
10827SOL    HW133380   6.723   2.910   4.089
10827SOL    HW233381   6.875   2.969   4.087
10828SOL     OW33382   1.141   5.748   0.824
10828SOL    HW133383   1.137   5.704   0.734
10828SOL    HW233384   1.226   5.801   0.831
10829SOL     OW33385   3.245   3.872   1.930
10829SOL    HW133386   3.316   3.942   1.922
10829SOL    HW233387   3.269   3.809   2.004
10830SOL     OW33388   5.033   2.840   4.448
10830SOL    HW133389   5.052   2.898   4.526
10830SOL    HW233390   4.941   2.860   4.413
10831SOL     OW33391   5.477   1.428   3.023
10831SOL    HW133392   5.389   1.417   3.068
10831SOL    HW233393   5.466   1.411   2.925
10832SOL     OW33394   0.754   1.596   0.409
10832SOL    HW133395   0.692   1.624   0.335
10832SOL    HW233396   0.819   1.670   0.427
10833SOL     OW33397   3.194   0.358   4.317
10833SOL    HW133398   3.235   0.287   4.374
10833SOL    HW233399   3.256   0.381   4.242
10834SOL     OW33400   1.069   1.836   4.874
10834SOL    HW133401   1.054   1.934   4.866
10834SOL    HW233402   1.130   1.806   4.801
10835SOL     OW33403   6.220   1.401   2.171
10835SOL    HW133404   6.279   1.352   2.107
10835SOL    HW233405   6.189   1.486   2.129
10836SOL     OW33406   1.900   1.880   6.299
10836SOL    HW133407   1.964   1.955   6.283
10836SOL    HW233408   1.944   1.810   6.355
10837SOL     OW33409   7.022   4.621   0.630
10837SOL    HW133410   6.984   4.537   0.591
10837SOL    HW233411   0.039   4.602   0.719
10838SOL     OW33412   5.901   6.973   6.479
10838SOL    HW133413   5.952   6.914   6.542
10838SOL    HW233414   5.812   6.994   6.518
10839SOL     OW33415   1.630   2.523   0.255
10839SOL    HW133416   1.661   2.617   0.244
10839SOL    HW233417   1.639   2.496   0.351
10840SOL     OW33418   3.978   5.348   1.730
10840SOL    HW133419   3.971   5.425   1.667
10840SOL    HW233420   3.908   5.355   1.800
10841SOL     OW33421   3.933   5.412   6.141
10841SOL    HW133422   3.966   5.447   6.054
10841SOL    HW233423   3.953   5.314   6.148
10842SOL     OW33424   6.506   3.209   1.559
10842SOL    HW133425   6.573   3.137   1.576
10842SOL    HW233426   6.503   3.230   1.461
10843SOL     OW33427   0.395   1.659   2.138
10843SOL    HW133428   0.464   1.690   2.072
10843SOL    HW233429   0.432   1.584   2.193
10844SOL     OW33430   4.895   0.289   3.779
10844SOL    HW133431   4.973   0.226   3.782
10844SOL    HW233432   4.814   0.244   3.818
10845SOL     OW33433   1.852   1.773   1.226
10845SOL    HW133434   1.803   1.730   1.302
10845SOL    HW233435   1.873   1.868   1.250
10846SOL     OW33436   3.981   2.055   1.475
10846SOL    HW133437   3.917   2.103   1.416
10846SOL    HW233438   4.073   2.091   1.461
10847SOL     OW33439   4.118   2.500   6.206
10847SOL    HW133440   4.190   2.564   6.182
10847SOL    HW233441   4.056   2.489   6.129
10848SOL     OW33442   1.097   0.666   6.383
10848SOL    HW133443   1.120   0.750   6.333
10848SOL    HW233444   1.045   0.689   6.465
10849SOL     OW33445   3.249   5.088   4.138
10849SOL    HW133446   3.254   5.028   4.058
10849SOL    HW233447   3.182   5.160   4.122
10850SOL     OW33448   5.155   6.332   0.962
10850SOL    HW133449   5.160   6.276   0.879
10850SOL    HW233450   5.061   6.365   0.974
10851SOL     OW33451   3.560   2.131   6.545
10851SOL    HW133452   3.486   2.160   6.605
10851SOL    HW233453   3.546   2.036   6.518
10852SOL     OW33454   0.801   0.452   6.704
10852SOL    HW133455   0.731   0.381   6.702
10852SOL    HW233456   0.873   0.426   6.769
10853SOL     OW33457   2.500   1.526   4.526
10853SOL    HW133458   2.510   1.606   4.585
10853SOL    HW233459   2.405   1.494   4.529
10854SOL     OW33460   6.646   6.594   6.774
10854SOL    HW133461   6.562   6.608   6.827
10854SOL    HW233462   6.688   6.683   6.755
10855SOL     OW33463   1.170   6.084   1.482
10855SOL    HW133464   1.097   6.108   1.418
10855SOL    HW233465   1.258   6.118   1.447
10856SOL     OW33466   6.095   0.007   6.963
10856SOL    HW133467   6.111   6.933   6.940
10856SOL    HW233468   6.180   0.058   6.957
10857SOL     OW33469   5.940   1.701   4.041
10857SOL    HW133470   5.938   1.607   4.007
10857SOL    HW233471   5.861   1.717   4.101
10858SOL     OW33472   2.290   3.125   0.253
10858SOL    HW133473   2.196   3.119   0.287
10858SOL    HW233474   2.324   3.033   0.232
10859SOL     OW33475   0.744   4.500   2.339
10859SOL    HW133476   0.694   4.462   2.417
10859SOL    HW233477   0.685   4.499   2.258
10860SOL     OW33478   6.213   2.231   7.006
10860SOL    HW133479   6.234   2.326   6.982
10860SOL    HW233480   6.120   2.210   6.978
10861SOL     OW33481   3.435   2.913   1.795
10861SOL    HW133482   3.356   2.909   1.856
10861SOL    HW233483   3.495   2.834   1.813
10862SOL     OW33484   3.591   3.040   5.509
10862SOL    HW133485   3.684   3.004   5.512
10862SOL    HW233486   3.533   2.988   5.571
10863SOL     OW33487   2.324   1.471   2.466
10863SOL    HW133488   2.417   1.433   2.461
10863SOL    HW233489   2.328   1.569   2.449
10864SOL     OW33490   2.786   4.886   1.988
10864SOL    HW133491   2.802   4.787   1.989
10864SOL    HW233492   2.844   4.929   2.057
10865SOL     OW33493   4.140   1.583   3.238
10865SOL    HW133494   4.103   1.506   3.187
10865SOL    HW233495   4.067   1.650   3.254
10866SOL     OW33496   0.036   3.769   3.238
10866SOL    HW133497   0.133   3.743   3.240
10866SOL    HW233498   7.012   3.717   3.166
10867SOL     OW33499   3.974   3.233   0.471
10867SOL    HW133500   3.976   3.333   0.483
10867SOL    HW233501   3.918   3.211   0.391
10868SOL     OW33502   1.082   1.761   4.142
10868SOL    HW133503   1.153   1.728   4.205
10868SOL    HW233504   1.069   1.695   4.068
10869NA      NA33505   7.008   2.346   5.913
10870NA      NA33506   4.265   4.658   5.252
10871NA      NA33507   0.961   5.150   2.650
10872NA      NA33508   5.619   4.427   3.660
10873NA      NA33509   4.349   2.298   5.178
10874NA      NA33510   2.333   5.228   0.686
10875NA      NA33511   1.208   5.317   6.617
10876NA      NA33512   3.339   4.670   0.924
10877NA      NA33513   4.395   5.100   1.078
10878NA      NA33514   3.278   1.087   6.431
10879NA      NA33515   5.659   6.150   2.207
10880NA      NA33516   1.613   6.774   5.464
10881NA      NA33517   4.263   5.085   2.012
10882NA      NA33518   3.402   3.124   6.562
   7.02256   7.02256   7.02256
