Generated by trjconv : CNT in water t=  79.00000
33518
    1C        C    1   2.839   2.765   4.745
    1C        C    2   2.893   2.714   4.865
    1C        C    3   2.837   2.766   4.982
    1C        C    4   2.844   2.771   4.257
    1C        C    5   2.894   2.720   4.378
    1C        C    6   2.841   2.767   4.501
    1C        C    7   3.006   2.637   4.624
    1C        C    8   2.889   2.715   4.623
    1C        C    9   3.069   2.596   4.743
    1C        C   10   3.002   2.623   4.864
    1C        C   11   3.180   2.487   4.972
    1C        C   12   3.062   2.563   4.976
    1C        C   13   2.848   2.771   3.771
    1C        C   14   2.899   2.719   3.892
    1C        C   15   2.845   2.769   4.013
    1C        C   16   3.013   2.640   4.136
    1C        C   17   2.900   2.725   4.135
    1C        C   18   3.074   2.609   4.260
    1C        C   19   3.012   2.643   4.382
    1C        C   20   3.203   2.550   4.502
    1C        C   21   3.071   2.601   4.503
    1C        C   22   3.275   2.534   4.622
    1C        C   23   3.203   2.548   4.743
    1C        C   24   3.411   2.487   4.867
    1C        C   25   3.268   2.500   4.860
    1C        C   26   3.491   2.478   4.982
    1C        C   27   2.851   2.769   3.282
    1C        C   28   2.904   2.720   3.403
    1C        C   29   2.851   2.767   3.526
    1C        C   30   3.016   2.641   3.648
    1C        C   31   2.900   2.721   3.650
    1C        C   32   3.076   2.604   3.770
    1C        C   33   3.013   2.636   3.893
    1C        C   34   3.207   2.550   4.015
    1C        C   35   3.076   2.603   4.015
    1C        C   36   3.273   2.532   4.139
    1C        C   37   3.206   2.557   4.260
    1C        C   38   3.414   2.510   4.381
    1C        C   39   3.274   2.533   4.381
    1C        C   40   3.486   2.500   4.502
    1C        C   41   3.414   2.509   4.624
    1C        C   42   3.626   2.481   4.741
    1C        C   43   3.484   2.490   4.745
    1C        C   44   3.702   2.483   4.860
    1C        C   45   3.630   2.474   4.980
    1C        C   46   2.839   2.754   2.791
    1C        C   47   2.896   2.713   2.913
    1C        C   48   2.847   2.765   3.035
    1C        C   49   3.014   2.638   3.159
    1C        C   50   2.901   2.722   3.159
    1C        C   51   3.077   2.602   3.280
    1C        C   52   3.018   2.637   3.404
    1C        C   53   3.211   2.552   3.527
    1C        C   54   3.080   2.605   3.527
    1C        C   55   3.277   2.531   3.650
    1C        C   56   3.209   2.555   3.771
    1C        C   57   3.417   2.516   3.892
    1C        C   58   3.278   2.539   3.893
    1C        C   59   3.484   2.511   4.016
    1C        C   60   3.413   2.515   4.138
    1C        C   61   3.626   2.503   4.256
    1C        C   62   3.484   2.502   4.259
    1C        C   63   3.697   2.504   4.378
    1C        C   64   3.627   2.493   4.500
    1C        C   65   3.832   2.542   4.620
    1C        C   66   3.699   2.497   4.621
    1C        C   67   3.906   2.558   4.739
    1C        C   68   3.837   2.523   4.858
    1C        C   69   4.049   2.582   4.973
    1C        C   70   3.919   2.529   4.971
    1C        C   71   2.821   2.730   2.303
    1C        C   72   2.882   2.693   2.425
    1C        C   73   2.830   2.744   2.546
    1C        C   74   3.009   2.631   2.673
    1C        C   75   2.890   2.706   2.669
    1C        C   76   3.071   2.594   2.794
    1C        C   77   3.013   2.634   2.916
    1C        C   78   3.207   2.546   3.034
    1C        C   79   3.078   2.602   3.038
    1C        C   80   3.275   2.526   3.157
    1C        C   81   3.207   2.548   3.279
    1C        C   82   3.411   2.500   3.400
    1C        C   83   3.272   2.525   3.402
    1C        C   84   3.483   2.495   3.522
    1C        C   85   3.415   2.501   3.645
    1C        C   86   3.625   2.502   3.767
    1C        C   87   3.484   2.501   3.768
    1C        C   88   3.695   2.511   3.890
    1C        C   89   3.626   2.507   4.013
    1C        C   90   3.834   2.548   4.134
    1C        C   91   3.697   2.515   4.134
    1C        C   92   3.900   2.575   4.256
    1C        C   93   3.831   2.547   4.377
    1C        C   94   4.025   2.634   4.497
    1C        C   95   3.900   2.568   4.498
    1C        C   96   4.089   2.669   4.617
    1C        C   97   4.031   2.626   4.738
    1C        C   98   4.199   2.756   4.862
    1C        C   99   4.099   2.653   4.860
    1C        C  100   4.210   2.840   4.973
    1C        C  101   2.818   2.726   2.066
    1C        C  102   2.990   2.592   2.189
    1C        C  103   2.873   2.673   2.183
    1C        C  104   3.064   2.574   2.309
    1C        C  105   3.001   2.618   2.428
    1C        C  106   3.196   2.533   2.550
    1C        C  107   3.068   2.593   2.550
    1C        C  108   3.268   2.519   2.670
    1C        C  109   3.200   2.536   2.792
    1C        C  110   3.413   2.496   2.913
    1C        C  111   3.274   2.521   2.912
    1C        C  112   3.484   2.490   3.034
    1C        C  113   3.414   2.502   3.156
    1C        C  114   3.625   2.498   3.276
    1C        C  115   3.484   2.495   3.279
    1C        C  116   3.694   2.512   3.399
    1C        C  117   3.624   2.502   3.521
    1C        C  118   3.832   2.538   3.643
    1C        C  119   3.694   2.511   3.644
    1C        C  120   3.897   2.566   3.766
    1C        C  121   3.832   2.544   3.889
    1C        C  122   4.025   2.637   4.009
    1C        C  123   3.899   2.572   4.011
    1C        C  124   4.088   2.672   4.131
    1C        C  125   4.027   2.635   4.253
    1C        C  126   4.195   2.763   4.374
    1C        C  127   4.086   2.672   4.376
    1C        C  128   4.251   2.810   4.495
    1C        C  129   4.197   2.761   4.616
    1C        C  130   4.323   2.931   4.740
    1C        C  131   4.243   2.813   4.739
    1C        C  132   4.348   3.004   4.858
    1C        C  133   4.280   2.961   4.972
    1C        C  134   3.172   2.472   2.079
    1C        C  135   3.038   2.511   2.081
    1C        C  136   3.260   2.476   2.188
    1C        C  137   3.195   2.519   2.305
    1C        C  138   3.402   2.479   2.426
    1C        C  139   3.264   2.507   2.429
    1C        C  140   3.475   2.474   2.547
    1C        C  141   3.407   2.492   2.669
    1C        C  142   3.623   2.487   2.789
    1C        C  143   3.481   2.486   2.789
    1C        C  144   3.695   2.495   2.910
    1C        C  145   3.626   2.487   3.033
    1C        C  146   3.834   2.525   3.154
    1C        C  147   3.697   2.493   3.155
    1C        C  148   3.901   2.554   3.276
    1C        C  149   3.833   2.539   3.398
    1C        C  150   4.026   2.626   3.521
    1C        C  151   3.899   2.563   3.521
    1C        C  152   4.082   2.667   3.644
    1C        C  153   4.021   2.633   3.766
    1C        C  154   4.194   2.763   3.885
    1C        C  155   4.082   2.677   3.886
    1C        C  156   4.249   2.805   4.008
    1C        C  157   4.202   2.755   4.132
    1C        C  158   4.340   2.920   4.250
    1C        C  159   4.248   2.812   4.253
    1C        C  160   4.376   2.982   4.372
    1C        C  161   4.330   2.927   4.494
    1C        C  162   4.431   3.111   4.613
    1C        C  163   4.363   2.987   4.617
    1C        C  164   4.468   3.178   4.732
    1C        C  165   4.428   3.121   4.855
    1C        C  166   4.513   3.315   4.970
    1C        C  167   4.474   3.182   4.972
    1C        C  168   3.472   2.441   2.069
    1C        C  169   3.399   2.452   2.189
    1C        C  170   3.618   2.460   2.305
    1C        C  171   3.476   2.461   2.307
    1C        C  172   3.691   2.477   2.425
    1C        C  173   3.616   2.483   2.544
    1C        C  174   3.825   2.531   2.666
    1C        C  175   3.689   2.492   2.664
    1C        C  176   3.894   2.557   2.786
    1C        C  177   3.832   2.528   2.910
    1C        C  178   4.022   2.623   3.028
    1C        C  179   3.899   2.553   3.032
    1C        C  180   4.083   2.656   3.151
    1C        C  181   4.025   2.622   3.275
    1C        C  182   4.194   2.750   3.395
    1C        C  183   4.086   2.659   3.397
    1C        C  184   4.242   2.805   3.516
    1C        C  185   4.190   2.759   3.639
    1C        C  186   4.336   2.913   3.760
    1C        C  187   4.247   2.803   3.760
    1C        C  188   4.377   2.971   3.883
    1C        C  189   4.337   2.915   4.006
    1C        C  190   4.441   3.103   4.125
    1C        C  191   4.376   2.978   4.127
    1C        C  192   4.470   3.170   4.246
    1C        C  193   4.442   3.107   4.370
    1C        C  194   4.499   3.312   4.489
    1C        C  195   4.461   3.176   4.491
    1C        C  196   4.513   3.383   4.610
    1C        C  197   4.507   3.315   4.734
    1C        C  198   4.550   3.531   4.848
    1C        C  199   4.527   3.390   4.853
    1C        C  200   4.589   3.619   4.954
    1C        C  201   3.609   2.414   2.072
    1C        C  202   3.822   2.511   2.179
    1C        C  203   3.690   2.457   2.183
    1C        C  204   3.894   2.541   2.299
    1C        C  205   3.828   2.512   2.421
    1C        C  206   4.015   2.617   2.539
    1C        C  207   3.891   2.549   2.542
    1C        C  208   4.080   2.650   2.660
    1C        C  209   4.022   2.618   2.784
    1C        C  210   4.193   2.746   2.903
    1C        C  211   4.081   2.660   2.905
    1C        C  212   4.242   2.794   3.026
    1C        C  213   4.194   2.744   3.149
    1C        C  214   4.331   2.907   3.268
    1C        C  215   4.242   2.797   3.271
    1C        C  216   4.367   2.972   3.388
    1C        C  217   4.330   2.915   3.513
    1C        C  218   4.430   3.099   3.636
    1C        C  219   4.370   2.971   3.636
    1C        C  220   4.459   3.167   3.757
    1C        C  221   4.434   3.100   3.879
    1C        C  222   4.494   3.305   4.002
    1C        C  223   4.461   3.168   4.000
    1C        C  224   4.509   3.377   4.123
    1C        C  225   4.504   3.307   4.246
    1C        C  226   4.517   3.522   4.364
    1C        C  227   4.514   3.380   4.366
    1C        C  228   4.516   3.595   4.485
    1C        C  229   4.514   3.524   4.607
    1C        C  230   4.492   3.738   4.728
    1C        C  231   4.523   3.599   4.726
    1C        C  232   4.490   3.815   4.847
    1C        C  233   4.545   3.752   4.959
    1C        C  234   4.016   2.607   2.058
    1C        C  235   3.892   2.544   2.062
    1C        C  236   4.080   2.649   2.175
    1C        C  237   4.017   2.611   2.296
    1C        C  238   4.197   2.729   2.418
    1C        C  239   4.080   2.648   2.418
    1C        C  240   4.248   2.783   2.538
    1C        C  241   4.191   2.737   2.659
    1C        C  242   4.334   2.899   2.781
    1C        C  243   4.245   2.790   2.779
    1C        C  244   4.371   2.963   2.902
    1C        C  245   4.335   2.901   3.024
    1C        C  246   4.431   3.091   3.142
    1C        C  247   4.371   2.963   3.145
    1C        C  248   4.454   3.159   3.264
    1C        C  249   4.425   3.101   3.390
    1C        C  250   4.497   3.298   3.509
    1C        C  251   4.448   3.166   3.513
    1C        C  252   4.508   3.369   3.631
    1C        C  253   4.495   3.304   3.755
    1C        C  254   4.518   3.513   3.875
    1C        C  255   4.506   3.372   3.878
    1C        C  256   4.511   3.585   3.997
    1C        C  257   4.512   3.518   4.121
    1C        C  258   4.487   3.731   4.240
    1C        C  259   4.512   3.592   4.242
    1C        C  260   4.464   3.799   4.361
    1C        C  261   4.490   3.734   4.484
    1C        C  262   4.424   3.938   4.600
    1C        C  263   4.468   3.803   4.605
    1C        C  264   4.398   4.006   4.721
    1C        C  265   4.432   3.944   4.844
    1C        C  266   4.312   4.126   4.958
    1C        C  267   4.391   4.011   4.960
    1C        C  268   4.255   2.774   2.055
    1C        C  269   4.195   2.731   2.173
    1C        C  270   4.343   2.882   2.295
    1C        C  271   4.250   2.774   2.296
    1C        C  272   4.379   2.952   2.412
    1C        C  273   4.335   2.895   2.534
    1C        C  274   4.437   3.080   2.658
    1C        C  275   4.369   2.956   2.657
    1C        C  276   4.465   3.152   2.776
    1C        C  277   4.435   3.089   2.899
    1C        C  278   4.499   3.292   3.019
    1C        C  279   4.463   3.156   3.021
    1C        C  280   4.504   3.363   3.141
    1C        C  281   4.492   3.295   3.264
    1C        C  282   4.511   3.507   3.382
    1C        C  283   4.508   3.366   3.385
    1C        C  284   4.507   3.576   3.506
    1C        C  285   4.514   3.510   3.630
    1C        C  286   4.489   3.721   3.749
    1C        C  287   4.515   3.582   3.752
    1C        C  288   4.469   3.791   3.870
    1C        C  289   4.486   3.724   3.993
    1C        C  290   4.419   3.926   4.113
    1C        C  291   4.472   3.795   4.115
    1C        C  292   4.391   3.994   4.234
    1C        C  293   4.422   3.933   4.358
    1C        C  294   4.323   4.124   4.478
    1C        C  295   4.393   4.001   4.478
    1C        C  296   4.279   4.182   4.599
    1C        C  297   4.326   4.128   4.720
    1C        C  298   4.196   4.308   4.835
    1C        C  299   4.281   4.193   4.839
    1C        C  300   4.170   4.397   4.944
    1C        C  301   4.346   2.879   2.058
    1C        C  302   4.468   3.061   2.175
    1C        C  303   4.397   2.937   2.175
    1C        C  304   4.479   3.140   2.292
    1C        C  305   4.443   3.077   2.414
    1C        C  306   4.504   3.279   2.533
    1C        C  307   4.471   3.142   2.536
    1C        C  308   4.515   3.355   2.652
    1C        C  309   4.503   3.288   2.776
    1C        C  310   4.527   3.500   2.897
    1C        C  311   4.521   3.359   2.896
    1C        C  312   4.521   3.574   3.017
    1C        C  313   4.515   3.504   3.140
    1C        C  314   4.488   3.718   3.260
    1C        C  315   4.512   3.578   3.260
    1C        C  316   4.474   3.786   3.383
    1C        C  317   4.487   3.716   3.505
    1C        C  318   4.428   3.922   3.625
    1C        C  319   4.474   3.788   3.626
    1C        C  320   4.400   3.988   3.747
    1C        C  321   4.426   3.926   3.871
    1C        C  322   4.313   4.110   3.988
    1C        C  323   4.386   3.989   3.991
    1C        C  324   4.278   4.167   4.112
    1C        C  325   4.316   4.114   4.237
    1C        C  326   4.181   4.281   4.350
    1C        C  327   4.282   4.182   4.356
    1C        C  328   4.128   4.332   4.470
    1C        C  329   4.185   4.288   4.591
    1C        C  330   4.019   4.426   4.713
    1C        C  331   4.135   4.343   4.711
    1C        C  332   3.964   4.485   4.829
    1C        C  333   4.053   4.474   4.937
    1C        C  334   4.547   3.262   2.058
    1C        C  335   4.532   3.123   2.063
    1C        C  336   4.535   3.348   2.169
    1C        C  337   4.515   3.278   2.290
    1C        C  338   4.527   3.491   2.408
    1C        C  339   4.520   3.349   2.411
    1C        C  340   4.520   3.565   2.528
    1C        C  341   4.516   3.496   2.652
    1C        C  342   4.492   3.707   2.771
    1C        C  343   4.517   3.568   2.773
    1C        C  344   4.476   3.780   2.891
    1C        C  345   4.493   3.713   3.014
    1C        C  346   4.421   3.914   3.134
    1C        C  347   4.472   3.782   3.135
    1C        C  348   4.397   3.980   3.256
    1C        C  349   4.435   3.921   3.379
    1C        C  350   4.319   4.099   3.499
    1C        C  351   4.400   3.983   3.501
    1C        C  352   4.277   4.158   3.620
    1C        C  353   4.316   4.101   3.743
    1C        C  354   4.178   4.267   3.860
    1C        C  355   4.274   4.162   3.863
    1C        C  356   4.125   4.313   3.982
    1C        C  357   4.178   4.267   4.105
    1C        C  358   4.011   4.401   4.227
    1C        C  359   4.128   4.321   4.225
    1C        C  360   3.947   4.441   4.347
    1C        C  361   4.013   4.414   4.469
    1C        C  362   3.826   4.512   4.592
    1C        C  363   3.955   4.455   4.591
    1C        C  364   3.759   4.542   4.712
    1C        C  365   3.832   4.534   4.833
    1C        C  366   3.622   4.589   4.949
    1C        C  367   3.759   4.566   4.948
    1C        C  368   4.492   3.560   2.053
    1C        C  369   4.523   3.488   2.169
    1C        C  370   4.503   3.704   2.288
    1C        C  371   4.525   3.564   2.288
    1C        C  372   4.481   3.775   2.408
    1C        C  373   4.494   3.703   2.529
    1C        C  374   4.420   3.905   2.645
    1C        C  375   4.479   3.776   2.649
    1C        C  376   4.397   3.974   2.766
    1C        C  377   4.430   3.914   2.890
    1C        C  378   4.320   4.098   3.009
    1C        C  379   4.396   3.978   3.011
    1C        C  380   4.275   4.152   3.131
    1C        C  381   4.317   4.096   3.254
    1C        C  382   4.175   4.254   3.374
    1C        C  383   4.270   4.150   3.376
    1C        C  384   4.121   4.305   3.495
    1C        C  385   4.177   4.259   3.616
    1C        C  386   4.005   4.383   3.740
    1C        C  387   4.128   4.313   3.737
    1C        C  388   3.942   4.419   3.861
    1C        C  389   4.008   4.393   3.984
    1C        C  390   3.816   4.484   4.105
    1C        C  391   3.947   4.431   4.105
    1C        C  392   3.750   4.512   4.226
    1C        C  393   3.816   4.493   4.349
    1C        C  394   3.613   4.550   4.472
    1C        C  395   3.752   4.525   4.471
    1C        C  396   3.543   4.562   4.594
    1C        C  397   3.619   4.561   4.713
    1C        C  398   3.407   4.544   4.836
    1C        C  399   3.546   4.573   4.833
    1C        C  400   3.339   4.509   4.953
    1C        C  401   4.500   3.698   2.049
    1C        C  402   4.459   3.912   2.165
    1C        C  403   4.493   3.775   2.166
    1C        C  404   4.414   3.975   2.283
    1C        C  405   4.438   3.910   2.406
    1C        C  406   4.327   4.097   2.521
    1C        C  407   4.397   3.975   2.525
    1C        C  408   4.279   4.149   2.643
    1C        C  409   4.317   4.090   2.766
    1C        C  410   4.173   4.250   2.886
    1C        C  411   4.271   4.148   2.887
    1C        C  412   4.121   4.297   3.008
    1C        C  413   4.175   4.252   3.131
    1C        C  414   3.998   4.372   3.251
    1C        C  415   4.118   4.298   3.252
    1C        C  416   3.940   4.409   3.374
    1C        C  417   4.002   4.380   3.498
    1C        C  418   3.809   4.470   3.617
    1C        C  419   3.939   4.414   3.619
    1C        C  420   3.744   4.496   3.740
    1C        C  421   3.813   4.477   3.862
    1C        C  422   3.608   4.531   3.983
    1C        C  423   3.746   4.502   3.983
    1C        C  424   3.540   4.537   4.107
    1C        C  425   3.610   4.534   4.229
    1C        C  426   3.400   4.547   4.352
    1C        C  427   3.541   4.551   4.351
    1C        C  428   3.328   4.542   4.474
    1C        C  429   3.402   4.556   4.594
    1C        C  430   3.194   4.518   4.719
    1C        C  431   3.332   4.551   4.717
    1C        C  432   3.122   4.496   4.840
    1C        C  433   3.201   4.495   4.956
    1C        C  434   4.382   4.117   2.048
    1C        C  435   4.444   3.991   2.050
    1C        C  436   4.303   4.160   2.160
    1C        C  437   4.334   4.093   2.281
    1C        C  438   4.182   4.251   2.398
    1C        C  439   4.281   4.151   2.398
    1C        C  440   4.123   4.294   2.519
    1C        C  441   4.175   4.243   2.641
    1C        C  442   4.003   4.370   2.765
    1C        C  443   4.120   4.292   2.762
    1C        C  444   3.941   4.409   2.886
    1C        C  445   4.004   4.375   3.007
    1C        C  446   3.809   4.467   3.127
    1C        C  447   3.937   4.406   3.128
    1C        C  448   3.745   4.488   3.251
    1C        C  449   3.811   4.466   3.375
    1C        C  450   3.604   4.522   3.494
    1C        C  451   3.742   4.495   3.495
    1C        C  452   3.536   4.534   3.617
    1C        C  453   3.606   4.526   3.739
    1C        C  454   3.395   4.543   3.863
    1C        C  455   3.536   4.538   3.861
    1C        C  456   3.325   4.532   3.986
    1C        C  457   3.399   4.535   4.107
    1C        C  458   3.192   4.506   4.232
    1C        C  459   3.330   4.536   4.230
    1C        C  460   3.125   4.483   4.354
    1C        C  461   3.190   4.512   4.476
    1C        C  462   2.994   4.435   4.599
    1C        C  463   3.124   4.492   4.599
    1C        C  464   2.928   4.403   4.719
    1C        C  465   2.990   4.442   4.841
    1C        C  466   2.805   4.335   4.955
    1C        C  467   2.904   4.434   4.955
    1C        C  468   4.125   4.284   2.037
    1C        C  469   4.186   4.242   2.156
    1C        C  470   4.003   4.363   2.278
    1C        C  471   4.125   4.290   2.275
    1C        C  472   3.937   4.393   2.399
    1C        C  473   4.002   4.367   2.521
    1C        C  474   3.811   4.462   2.640
    1C        C  475   3.940   4.404   2.643
    1C        C  476   3.742   4.483   2.761
    1C        C  477   3.810   4.463   2.883
    1C        C  478   3.604   4.516   3.006
    1C        C  479   3.742   4.487   3.005
    1C        C  480   3.534   4.524   3.128
    1C        C  481   3.606   4.510   3.250
    1C        C  482   3.393   4.534   3.374
    1C        C  483   3.535   4.527   3.371
    1C        C  484   3.325   4.525   3.497
    1C        C  485   3.395   4.535   3.619
    1C        C  486   3.187   4.501   3.741
    1C        C  487   3.324   4.536   3.741
    1C        C  488   3.125   4.471   3.864
    1C        C  489   3.188   4.500   3.987
    1C        C  490   2.997   4.419   4.112
    1C        C  491   3.121   4.487   4.111
    1C        C  492   2.936   4.386   4.234
    1C        C  493   2.999   4.420   4.356
    1C        C  494   2.829   4.299   4.482
    1C        C  495   2.934   4.393   4.478
    1C        C  496   2.774   4.251   4.603
    1C        C  497   2.821   4.309   4.723
    1C        C  498   2.663   4.164   4.841
    1C        C  499   2.752   4.274   4.841
    1C        C  500   2.598   4.113   4.954
    1C        C  501   4.006   4.355   2.040
    1C        C  502   3.813   4.459   2.155
    1C        C  503   3.937   4.393   2.157
    1C        C  504   3.742   4.474   2.276
    1C        C  505   3.807   4.448   2.399
    1C        C  506   3.601   4.506   2.519
    1C        C  507   3.739   4.477   2.520
    1C        C  508   3.529   4.513   2.641
    1C        C  509   3.602   4.506   2.761
    1C        C  510   3.392   4.521   2.886
    1C        C  511   3.533   4.521   2.883
    1C        C  512   3.321   4.515   3.008
    1C        C  513   3.393   4.526   3.130
    1C        C  514   3.185   4.496   3.253
    1C        C  515   3.322   4.528   3.252
    1C        C  516   3.120   4.470   3.376
    1C        C  517   3.187   4.494   3.498
    1C        C  518   2.994   4.407   3.623
    1C        C  519   3.119   4.473   3.620
    1C        C  520   2.935   4.372   3.747
    1C        C  521   2.997   4.410   3.868
    1C        C  522   2.833   4.279   3.993
    1C        C  523   2.941   4.371   3.992
    1C        C  524   2.787   4.231   4.118
    1C        C  525   2.833   4.290   4.238
    1C        C  526   2.692   4.132   4.360
    1C        C  527   2.781   4.243   4.361
    1C        C  528   2.649   4.078   4.483
    1C        C  529   2.680   4.145   4.603
    1C        C  530   2.579   3.959   4.725
    1C        C  531   2.633   4.090   4.724
    1C        C  532   2.541   3.899   4.848
    1C        C  533   2.531   3.990   4.958
    1C        C  534   3.615   4.550   2.038
    1C        C  535   3.747   4.504   2.040
    1C        C  536   3.533   4.533   2.154
    1C        C  537   3.602   4.502   2.274
    1C        C  538   3.391   4.508   2.398
    1C        C  539   3.532   4.511   2.396
    1C        C  540   3.319   4.508   2.519
    1C        C  541   3.388   4.514   2.642
    1C        C  542   3.180   4.486   2.765
    1C        C  543   3.319   4.512   2.766
    1C        C  544   3.114   4.461   2.887
    1C        C  545   3.183   4.485   3.008
    1C        C  546   2.991   4.405   3.133
    1C        C  547   3.117   4.469   3.132
    1C        C  548   2.936   4.365   3.257
    1C        C  549   2.996   4.403   3.379
    1C        C  550   2.830   4.273   3.501
    1C        C  551   2.934   4.369   3.501
    1C        C  552   2.780   4.228   3.625
    1C        C  553   2.827   4.282   3.748
    1C        C  554   2.700   4.116   3.871
    1C        C  555   2.781   4.231   3.871
    1C        C  556   2.661   4.058   3.994
    1C        C  557   2.699   4.121   4.115
    1C        C  558   2.593   3.942   4.244
    1C        C  559   2.658   4.067   4.239
    1C        C  560   2.571   3.878   4.368
    1C        C  561   2.589   3.950   4.489
    1C        C  562   2.530   3.743   4.610
    1C        C  563   2.559   3.881   4.608
    1C        C  564   2.520   3.680   4.736
    1C        C  565   2.517   3.758   4.854
    1C        C  566   2.520   3.545   4.969
    1C        C  567   2.517   3.684   4.973
    1C        C  568   3.326   4.471   2.039
    1C        C  569   3.392   4.514   2.155
    1C        C  570   3.180   4.476   2.279
    1C        C  571   3.319   4.506   2.276
    1C        C  572   3.110   4.460   2.401
    1C        C  573   3.179   4.487   2.521
    1C        C  574   2.985   4.405   2.643
    1C        C  575   3.111   4.468   2.643
    1C        C  576   2.926   4.367   2.766
    1C        C  577   2.985   4.403   2.889
    1C        C  578   2.826   4.269   3.012
    1C        C  579   2.928   4.366   3.013
    1C        C  580   2.779   4.216   3.134
    1C        C  581   2.833   4.269   3.254
    1C        C  582   2.699   4.108   3.384
    1C        C  583   2.785   4.221   3.378
    1C        C  584   2.660   4.053   3.507
    1C        C  585   2.692   4.118   3.629
    1C        C  586   2.594   3.929   3.752
    1C        C  587   2.658   4.055   3.751
    1C        C  588   2.568   3.867   3.876
    1C        C  589   2.594   3.934   3.998
    1C        C  590   2.534   3.737   4.126
    1C        C  591   2.567   3.874   4.123
    1C        C  592   2.518   3.670   4.249
    1C        C  593   2.528   3.744   4.370
    1C        C  594   2.504   3.530   4.494
    1C        C  595   2.516   3.670   4.490
    1C        C  596   2.512   3.460   4.617
    1C        C  597   2.516   3.537   4.736
    1C        C  598   2.538   3.322   4.859
    1C        C  599   2.521   3.463   4.855
    1C        C  600   2.535   3.247   4.977
    1C        C  601   3.191   4.441   2.041
    1C        C  602   2.981   4.390   2.156
    1C        C  603   3.115   4.439   2.158
    1C        C  604   2.918   4.360   2.281
    1C        C  605   2.983   4.398   2.400
    1C        C  606   2.816   4.270   2.527
    1C        C  607   2.924   4.360   2.523
    1C        C  608   2.767   4.219   2.650
    1C        C  609   2.824   4.270   2.769
    1C        C  610   2.682   4.111   2.895
    1C        C  611   2.772   4.220   2.891
    1C        C  612   2.644   4.052   3.017
    1C        C  613   2.690   4.106   3.139
    1C        C  614   2.589   3.925   3.265
    1C        C  615   2.652   4.051   3.263
    1C        C  616   2.565   3.861   3.388
    1C        C  617   2.596   3.927   3.510
    1C        C  618   2.526   3.726   3.636
    1C        C  619   2.566   3.862   3.631
    1C        C  620   2.512   3.660   3.760
    1C        C  621   2.529   3.732   3.881
    1C        C  622   2.510   3.524   4.009
    1C        C  623   2.519   3.665   4.005
    1C        C  624   2.515   3.454   4.132
    1C        C  625   2.512   3.529   4.252
    1C        C  626   2.536   3.319   4.377
    1C        C  627   2.507   3.457   4.373
    1C        C  628   2.554   3.251   4.500
    1C        C  629   2.536   3.321   4.621
    1C        C  630   2.594   3.111   4.743
    1C        C  631   2.553   3.248   4.740
    1C        C  632   2.613   3.043   4.866
    1C        C  633   2.562   3.109   4.982
    1C        C  634   2.776   4.300   2.051
    1C        C  635   2.889   4.384   2.047
    1C        C  636   2.744   4.228   2.167
    1C        C  637   2.809   4.270   2.286
    1C        C  638   2.681   4.103   2.408
    1C        C  639   2.759   4.220   2.408
    1C        C  640   2.638   4.047   2.530
    1C        C  641   2.680   4.109   2.651
    1C        C  642   2.584   3.921   2.778
    1C        C  643   2.647   4.047   2.774
    1C        C  644   2.556   3.856   2.900
    1C        C  645   2.582   3.925   3.021
    1C        C  646   2.525   3.721   3.146
    1C        C  647   2.560   3.858   3.144
    1C        C  648   2.510   3.653   3.269
    1C        C  649   2.525   3.725   3.389
    1C        C  650   2.504   3.517   3.515
    1C        C  651   2.516   3.657   3.513
    1C        C  652   2.511   3.450   3.640
    1C        C  653   2.510   3.519   3.763
    1C        C  654   2.534   3.312   3.887
    1C        C  655   2.513   3.452   3.887
    1C        C  656   2.550   3.246   4.011
    1C        C  657   2.532   3.314   4.134
    1C        C  658   2.599   3.114   4.256
    1C        C  659   2.552   3.247   4.257
    1C        C  660   2.628   3.050   4.379
    1C        C  661   2.596   3.116   4.499
    1C        C  662   2.706   2.934   4.622
    1C        C  663   2.623   3.048   4.620
    1C        C  664   2.745   2.872   4.743
    1C        C  665   2.696   2.926   4.865
    1C        C  666   2.743   2.868   4.984
    1C        C  667   2.676   4.021   2.050
    1C        C  668   2.682   4.102   2.165
    1C        C  669   2.588   3.910   2.294
    1C        C  670   2.645   4.040   2.286
    1C        C  671   2.555   3.846   2.416
    1C        C  672   2.580   3.919   2.534
    1C        C  673   2.516   3.717   2.658
    1C        C  674   2.560   3.851   2.657
    1C        C  675   2.503   3.647   2.780
    1C        C  676   2.521   3.719   2.900
    1C        C  677   2.506   3.510   3.028
    1C        C  678   2.514   3.651   3.024
    1C        C  679   2.510   3.439   3.151
    1C        C  680   2.501   3.512   3.271
    1C        C  681   2.531   3.305   3.400
    1C        C  682   2.502   3.443   3.395
    1C        C  683   2.555   3.242   3.524
    1C        C  684   2.530   3.310   3.645
    1C        C  685   2.600   3.109   3.768
    1C        C  686   2.544   3.239   3.767
    1C        C  687   2.629   3.047   3.891
    1C        C  688   2.598   3.113   4.012
    1C        C  689   2.705   2.930   4.134
    1C        C  690   2.632   3.051   4.134
    1C        C  691   2.750   2.877   4.257
    1C        C  692   2.708   2.933   4.380
    1C        C  693   2.747   2.873   4.501
    1C        C  694   2.626   3.890   2.057
    1C        C  695   2.523   3.704   2.176
    1C        C  696   2.579   3.833   2.176
    1C        C  697   2.506   3.635   2.298
    1C        C  698   2.519   3.710   2.418
    1C        C  699   2.481   3.502   2.541
    1C        C  700   2.496   3.643   2.540
    1C        C  701   2.488   3.433   2.664
    1C        C  702   2.490   3.506   2.785
    1C        C  703   2.528   3.298   2.908
    1C        C  704   2.503   3.437   2.907
    1C        C  705   2.540   3.229   3.031
    1C        C  706   2.526   3.299   3.153
    1C        C  707   2.598   3.105   3.276
    1C        C  708   2.544   3.236   3.278
    1C        C  709   2.635   3.046   3.399
    1C        C  710   2.605   3.109   3.522
    1C        C  711   2.706   2.926   3.644
    1C        C  712   2.631   3.046   3.645
    1C        C  713   2.755   2.878   3.767
    1C        C  714   2.710   2.931   3.890
    1C        C  715   2.752   2.875   4.013
    1C        C  716   2.450   3.494   2.063
    1C        C  717   2.493   3.627   2.062
    1C        C  718   2.467   3.418   2.183
    1C        C  719   2.482   3.495   2.302
    1C        C  720   2.508   3.285   2.425
    1C        C  721   2.479   3.424   2.423
    1C        C  722   2.534   3.219   2.547
    1C        C  723   2.521   3.296   2.665
    1C        C  724   2.587   3.094   2.789
    1C        C  725   2.539   3.227   2.786
    1C        C  726   2.619   3.032   2.912
    1C        C  727   2.585   3.095   3.033
    1C        C  728   2.703   2.920   3.155
    1C        C  729   2.622   3.036   3.156
    1C        C  730   2.754   2.873   3.279
    1C        C  731   2.712   2.928   3.402
    1C        C  732   2.752   2.868   3.524
    1C        C  733   2.485   3.194   2.069
    1C        C  734   2.484   3.276   2.182
    1C        C  735   2.576   3.082   2.303
    1C        C  736   2.520   3.213   2.304
    1C        C  737   2.608   3.015   2.423
    1C        C  738   2.585   3.087   2.543
    1C        C  739   2.695   2.912   2.667
    1C        C  740   2.613   3.027   2.667
    1C        C  741   2.741   2.857   2.788
    1C        C  742   2.698   2.915   2.910
    1C        C  743   2.749   2.867   3.033
    1C        C  744   2.539   3.066   2.070
    1C        C  745   2.677   2.894   2.184
    1C        C  746   2.603   3.014   2.183
    1C        C  747   2.729   2.839   2.303
    1C        C  748   2.685   2.897   2.424
    1C        C  749   2.732   2.846   2.548
    1C        C  750   2.733   2.836   2.068
    1C        C  751   3.652   2.308   1.978
    1C        O  752   3.623   2.186   1.995
    1C        O  753   3.647   2.329   1.840
    1C        C  754   4.614   3.043   1.968
    1C        O  755   4.572   3.040   1.849
    1C        O  756   4.752   3.024   1.983
    1C        C  757   4.423   4.207   1.939
    1C        O  758   4.474   4.321   1.961
    1C        O  759   4.474   4.161   1.816
    1C        C  760   3.589   4.636   1.919
    1C        O  761   3.592   4.761   1.921
    1C        O  762   3.520   4.599   1.803
    1C        C  763   2.868   4.497   1.954
    1C        O  764   2.877   4.479   1.830
    1C        O  765   2.786   4.605   1.990
    1C        C  766   2.356   3.458   1.954
    1C        O  767   2.371   3.496   1.835
    1C        O  768   2.227   3.408   1.978
    1C        C  769   4.708   3.598   5.040
    1C        O  770   4.695   3.603   5.165
    1C        O  771   4.837   3.630   4.997
    1C        C  772   4.286   4.450   5.020
    1C        O  773   4.296   4.427   5.143
    1C        O  774   4.354   4.568   4.991
    1C        C  775   4.122   2.553   5.098
    1C        O  776   4.190   2.447   5.108
    1C        O  777   4.076   2.594   5.224
    1C        C  778   2.882   4.557   5.035
    1C        O  779   2.882   4.675   4.992
    1C        O  780   2.881   4.551   5.175
    1C        C  781   2.469   3.036   5.071
    1C        O  782   2.357   2.997   5.026
    1C        O  783   2.467   3.062   5.207
    1C        C  784   2.418   3.983   5.053
    1C        O  785   2.309   4.031   5.012
    1C        O  786   2.425   3.952   5.189
    1C        C  787   2.952   2.426   1.995
    1C        O  788   2.937   2.441   1.871
    1C        O  789   2.838   2.367   2.048
    1C        C  790   3.180   2.363   5.052
    1C        O  791   3.119   2.258   5.020
    1C        O  792   3.229   2.362   5.184
    1C        H  793   4.246   3.033   5.043
    1C        H  794   4.140   2.828   5.053
    1C        H  795   4.482   3.119   5.058
    1C        H  796   4.558   3.345   5.063
    1C        H  797   4.513   3.780   5.057
    1C        H  798   4.414   3.970   5.056
    1C        H  799   4.315   4.179   5.050
    1C        H  800   4.062   4.568   4.987
    1C        H  801   3.806   4.549   5.042
    1C        H  802   3.587   4.650   5.030
    1C        H  803   3.393   4.462   5.033
    1C        H  804   3.146   4.518   5.045
    1C        H  805   3.903   2.448   5.039
    1C        H  806   3.674   2.445   5.073
    1C        H  807   3.030   2.594   5.073
    1C        H  808   3.442   2.498   5.075
    1C        H  809   2.897   2.771   5.071
    1C        H  810   2.683   2.871   5.073
    1C        H  811   2.500   3.294   5.066
    1C        H  812   2.546   3.506   5.065
    1C        H  813   2.531   3.733   5.068
    1C        H  814   2.568   4.182   5.030
    1C        H  815   2.797   4.280   5.047
    1C        H  816   2.713   2.888   1.977
    1C        H  817   2.806   2.668   1.977
    1C        H  818   3.207   2.439   1.983
    1C        H  819   3.434   2.481   1.978
    1C        H  820   3.839   2.560   1.970
    1C        H  821   4.056   2.628   1.961
    1C        H  822   4.256   2.712   1.967
    1C        H  823   4.383   2.907   1.961
    1C        H  824   4.549   3.302   1.959
    1C        H  825   4.488   3.511   1.957
    1C        H  826   4.536   3.740   1.957
    1C        H  827   3.797   4.497   1.945
    1C        H  828   3.948   4.350   1.950
    1C        H  829   4.140   4.221   1.952
    1C        H  830   4.495   3.964   1.960
    1C        H  831   2.630   3.834   1.966
    1C        H  832   2.697   4.059   1.953
    1C        H  833   2.705   4.302   1.971
    1C        H  834   3.384   4.422   1.964
    1C        H  835   3.143   4.418   1.948
    1C        H  836   2.511   2.992   1.997
    1C        H  837   2.465   3.235   1.972
    1C        H  838   2.454   3.687   1.983
    2V3OU   H29  839   2.796   3.549   1.262
    2V3OU   C27  840   2.776   3.502   1.362
    2V3OU   H27  841   2.714   3.570   1.425
    2V3OU   H28  842   2.721   3.405   1.349
    2V3OU   O11  843   2.907   3.474   1.412
    2V3OU   C15  844   2.918   3.393   1.522
    2V3OU   C13  845   3.048   3.372   1.575
    2V3OU   C14  846   3.073   3.265   1.662
    2V3OU   C16  847   2.967   3.186   1.706
    2V3OU    H6  848   2.987   3.102   1.775
    2V3OU   C12  849   3.211   3.234   1.705
    2V3OU    O2  850   3.236   3.127   1.764
    2V3OU   C10  851   3.323   3.308   1.644
    2V3OU    C8  852   3.455   3.269   1.666
    2V3OU   O10  853   3.486   3.152   1.729
    2V3OU   H26  854   3.402   3.113   1.755
    2V3OU    C6  855   3.562   3.351   1.618
    2V3OU    C5  856   3.535   3.465   1.544
    2V3OU    C4  857   3.698   3.291   1.627
    2V3OU    H4  858   3.721   3.223   1.714
    2V3OU    H5  859   3.707   3.223   1.537
    2V3OU    C2  860   3.812   3.392   1.612
    2V3OU    O6  861   3.808   3.475   1.728
    2V3OU   H21  862   3.758   3.555   1.707
    2V3OU    C3  863   3.778   3.492   1.502
    2V3OU    H2  864   3.862   3.566   1.493
    2V3OU    H3  865   3.781   3.430   1.409
    2V3OU   C25  866   3.952   3.333   1.588
    2V3OU    O7  867   3.991   3.291   1.480
    2V3OU   C26  868   4.027   3.288   1.712
    2V3OU   H22  869   4.072   3.376   1.765
    2V3OU   H23  870   4.112   3.222   1.682
    2V3OU    O8  871   3.951   3.206   1.798
    2V3OU   H24  872   3.928   3.263   1.873
    2V3OU    C1  873   3.643   3.561   1.503
    2V3OU    H1  874   3.623   3.613   1.404
    2V3OU    O3  875   3.657   3.655   1.610
    2V3OU   C19  876   3.616   3.791   1.591
    2V3OU    H9  877   3.519   3.795   1.534
    2V3OU    O4  878   3.714   3.848   1.506
    2V3OU   C20  879   3.845   3.873   1.559
    2V3OU   H10  880   3.888   3.771   1.580
    2V3OU   C24  881   3.608   3.853   1.730
    2V3OU   H16  882   3.540   3.792   1.795
    2V3OU   H17  883   3.559   3.951   1.707
    2V3OU   C23  884   3.747   3.874   1.789
    2V3OU   H15  885   3.791   3.770   1.803
    2V3OU    N1  886   3.738   3.954   1.911
    2V3OU   H19  887   3.808   3.936   1.981
    2V3OU   H20  888   3.655   3.933   1.962
    2V3OU   C21  889   3.845   3.948   1.693
    2V3OU   H11  890   3.947   3.929   1.738
    2V3OU    O5  891   3.826   4.088   1.698
    2V3OU   H18  892   3.779   4.105   1.781
    2V3OU   C22  893   3.911   3.950   1.446
    2V3OU   H12  894   3.859   4.047   1.426
    2V3OU   H13  895   3.907   3.891   1.351
    2V3OU   H14  896   4.021   3.962   1.468
    2V3OU   C11  897   3.154   3.469   1.548
    2V3OU    O1  898   3.129   3.585   1.507
    2V3OU    C9  899   3.293   3.420   1.564
    2V3OU    C7  900   3.399   3.496   1.513
    2V3OU    O9  901   3.380   3.609   1.436
    2V3OU   H25  902   3.285   3.624   1.420
    2V3OU   C17  903   2.814   3.310   1.568
    2V3OU    H7  904   2.711   3.345   1.555
    2V3OU   C18  905   2.838   3.209   1.660
    2V3OU    H8  906   2.758   3.149   1.705
    3SOL     OW  907   1.511   3.101   0.514
    3SOL    HW1  908   1.489   3.061   0.603
    3SOL    HW2  909   1.500   3.031   0.443
    4SOL     OW  910   5.955   0.292   1.973
    4SOL    HW1  911   5.925   0.370   1.918
    4SOL    HW2  912   6.036   0.318   2.027
    5SOL     OW  913   3.219   1.979   1.078
    5SOL    HW1  914   3.174   2.028   1.153
    5SOL    HW2  915   3.249   2.044   1.009
    6SOL     OW  916   2.570   2.019   1.438
    6SOL    HW1  917   2.532   2.085   1.503
    6SOL    HW2  918   2.499   1.992   1.374
    7SOL     OW  919   6.238   1.292   1.789
    7SOL    HW1  920   6.247   1.256   1.696
    7SOL    HW2  921   6.179   1.373   1.788
    8SOL     OW  922   2.934   0.993   5.031
    8SOL    HW1  923   3.018   1.030   5.072
    8SOL    HW2  924   2.871   1.067   5.010
    9SOL     OW  925   1.418   3.739   5.626
    9SOL    HW1  926   1.489   3.675   5.656
    9SOL    HW2  927   1.426   3.754   5.528
   10SOL     OW  928   0.838   3.570   0.178
   10SOL    HW1  929   0.882   3.486   0.144
   10SOL    HW2  930   0.773   3.546   0.251
   11SOL     OW  931   3.657   6.893   6.878
   11SOL    HW1  932   3.654   6.920   6.781
   11SOL    HW2  933   3.661   6.793   6.884
   12SOL     OW  934   5.350   6.201   2.578
   12SOL    HW1  935   5.359   6.186   2.676
   12SOL    HW2  936   5.329   6.297   2.560
   13SOL     OW  937   2.531   6.401   3.447
   13SOL    HW1  938   2.481   6.326   3.403
   13SOL    HW2  939   2.471   6.446   3.513
   14SOL     OW  940   3.597   6.081   0.823
   14SOL    HW1  941   3.554   6.107   0.736
   14SOL    HW2  942   3.574   6.149   0.893
   15SOL     OW  943   1.677   6.261   6.864
   15SOL    HW1  944   1.618   6.323   6.812
   15SOL    HW2  945   1.733   6.314   6.927
   16SOL     OW  946   5.868   2.233   5.818
   16SOL    HW1  947   5.909   2.159   5.766
   16SOL    HW2  948   5.940   2.290   5.858
   17SOL     OW  949   5.271   6.621   4.517
   17SOL    HW1  950   5.278   6.686   4.593
   17SOL    HW2  951   5.351   6.631   4.458
   18SOL     OW  952   1.492   1.763   6.179
   18SOL    HW1  953   1.562   1.804   6.238
   18SOL    HW2  954   1.531   1.685   6.131
   19SOL     OW  955   0.956   0.093   2.427
   19SOL    HW1  956   0.878   0.058   2.480
   19SOL    HW2  957   0.946   0.064   2.332
   20SOL     OW  958   3.331   1.796   3.779
   20SOL    HW1  959   3.260   1.756   3.720
   20SOL    HW2  960   3.372   1.874   3.733
   21SOL     OW  961   3.185   2.177   1.304
   21SOL    HW1  962   3.099   2.228   1.308
   21SOL    HW2  963   3.262   2.238   1.322
   22SOL     OW  964   1.375   6.538   5.879
   22SOL    HW1  965   1.395   6.586   5.965
   22SOL    HW2  966   1.460   6.501   5.842
   23SOL     OW  967   3.852   6.658   4.426
   23SOL    HW1  968   3.854   6.739   4.368
   23SOL    HW2  969   3.905   6.676   4.509
   24SOL     OW  970   4.461   1.227   5.076
   24SOL    HW1  971   4.369   1.199   5.103
   24SOL    HW2  972   4.479   1.319   5.112
   25SOL     OW  973   3.473   5.706   0.576
   25SOL    HW1  974   3.545   5.691   0.644
   25SOL    HW2  975   3.397   5.644   0.593
   26SOL     OW  976   6.730   1.662   2.445
   26SOL    HW1  977   6.779   1.696   2.365
   26SOL    HW2  978   6.791   1.662   2.524
   27SOL     OW  979   6.058   6.461   2.490
   27SOL    HW1  980   6.014   6.544   2.524
   27SOL    HW2  981   6.083   6.472   2.394
   28SOL     OW  982   3.870   0.652   0.218
   28SOL    HW1  983   3.778   0.622   0.240
   28SOL    HW2  984   3.935   0.578   0.233
   29SOL     OW  985   4.442   2.047   1.428
   29SOL    HW1  986   4.470   2.136   1.393
   29SOL    HW2  987   4.483   2.033   1.518
   30SOL     OW  988   3.457   0.677   4.642
   30SOL    HW1  989   3.514   0.614   4.589
   30SOL    HW2  990   3.509   0.759   4.663
   31SOL     OW  991   0.187   0.664   5.400
   31SOL    HW1  992   0.183   0.615   5.487
   31SOL    HW2  993   0.170   0.599   5.325
   32SOL     OW  994   0.260   2.133   1.205
   32SOL    HW1  995   0.256   2.109   1.108
   32SOL    HW2  996   0.177   2.101   1.250
   33SOL     OW  997   2.146   2.072   6.194
   33SOL    HW1  998   2.144   2.069   6.294
   33SOL    HW2  999   2.078   2.137   6.161
   34SOL     OW 1000   1.155   0.495   4.750
   34SOL    HW1 1001   1.197   0.412   4.714
   34SOL    HW2 1002   1.187   0.574   4.697
   35SOL     OW 1003   5.114   1.710   6.697
   35SOL    HW1 1004   5.091   1.613   6.704
   35SOL    HW2 1005   5.147   1.743   6.786
   36SOL     OW 1006   1.603   2.038   5.537
   36SOL    HW1 1007   1.702   2.047   5.541
   36SOL    HW2 1008   1.560   2.127   5.557
   37SOL     OW 1009   3.012   6.601   1.697
   37SOL    HW1 1010   3.015   6.608   1.797
   37SOL    HW2 1011   2.983   6.689   1.659
   38SOL     OW 1012   6.805   6.209   3.501
   38SOL    HW1 1013   6.729   6.166   3.550
   38SOL    HW2 1014   6.791   6.308   3.499
   39SOL     OW 1015   6.970   3.649   4.998
   39SOL    HW1 1016   0.032   3.677   4.946
   39SOL    HW2 1017   6.909   3.727   5.009
   40SOL     OW 1018   6.586   0.676   1.930
   40SOL    HW1 1019   6.532   0.751   1.967
   40SOL    HW2 1020   6.665   0.658   1.989
   41SOL     OW 1021   1.192   6.878   5.588
   41SOL    HW1 1022   1.219   6.863   5.683
   41SOL    HW2 1023   1.175   6.790   5.544
   42SOL     OW 1024   3.840   0.929   0.506
   42SOL    HW1 1025   3.900   0.937   0.426
   42SOL    HW2 1026   3.893   0.949   0.588
   43SOL     OW 1027   5.660   5.845   5.298
   43SOL    HW1 1028   5.740   5.805   5.342
   43SOL    HW2 1029   5.577   5.801   5.333
   44SOL     OW 1030   0.489   2.982   5.807
   44SOL    HW1 1031   0.413   2.991   5.871
   44SOL    HW2 1032   0.541   2.900   5.828
   45SOL     OW 1033   2.459   0.470   1.842
   45SOL    HW1 1034   2.540   0.412   1.841
   45SOL    HW2 1035   2.420   0.476   1.750
   46SOL     OW 1036   1.484   3.940   4.329
   46SOL    HW1 1037   1.522   4.023   4.289
   46SOL    HW2 1038   1.482   3.949   4.429
   47SOL     OW 1039   6.312   4.662   3.504
   47SOL    HW1 1040   6.237   4.727   3.505
   47SOL    HW2 1041   6.395   4.707   3.469
   48SOL     OW 1042   0.127   2.415   5.260
   48SOL    HW1 1043   0.211   2.455   5.224
   48SOL    HW2 1044   0.121   2.319   5.232
   49SOL     OW 1045   4.671   2.155   1.107
   49SOL    HW1 1046   4.730   2.098   1.051
   49SOL    HW2 1047   4.644   2.105   1.189
   50SOL     OW 1048   6.650   4.091   4.661
   50SOL    HW1 1049   6.658   4.060   4.756
   50SOL    HW2 1050   6.666   4.190   4.657
   51SOL     OW 1051   3.546   4.946   2.655
   51SOL    HW1 1052   3.569   4.901   2.569
   51SOL    HW2 1053   3.558   5.045   2.644
   52SOL     OW 1054   2.132   1.888   1.928
   52SOL    HW1 1055   2.108   1.985   1.934
   52SOL    HW2 1056   2.154   1.853   2.019
   53SOL     OW 1057   5.389   0.036   4.249
   53SOL    HW1 1058   5.322   0.108   4.233
   53SOL    HW2 1059   5.357   6.996   4.324
   54SOL     OW 1060   4.262   5.363   5.767
   54SOL    HW1 1061   4.168   5.384   5.742
   54SOL    HW2 1062   4.314   5.448   5.775
   55SOL     OW 1063   3.878   2.182   6.959
   55SOL    HW1 1064   3.890   2.087   6.989
   55SOL    HW2 1065   3.914   2.244   0.011
   56SOL     OW 1066   1.425   0.213   2.244
   56SOL    HW1 1067   1.396   0.126   2.285
   56SOL    HW2 1068   1.377   0.288   2.288
   57SOL     OW 1069   5.881   0.777   0.252
   57SOL    HW1 1070   5.968   0.754   0.208
   57SOL    HW2 1071   5.859   0.706   0.319
   58SOL     OW 1072   0.145   6.025   0.040
   58SOL    HW1 1073   0.210   5.964   0.085
   58SOL    HW2 1074   0.132   6.107   0.096
   59SOL     OW 1075   1.452   0.430   5.423
   59SOL    HW1 1076   1.358   0.464   5.428
   59SOL    HW2 1077   1.475   0.382   5.508
   60SOL     OW 1078   4.367   6.791   4.909
   60SOL    HW1 1079   4.418   6.761   4.829
   60SOL    HW2 1080   4.414   6.759   4.992
   61SOL     OW 1081   4.496   0.304   4.311
   61SOL    HW1 1082   4.584   0.342   4.284
   61SOL    HW2 1083   4.499   0.275   4.406
   62SOL     OW 1084   1.721   0.735   4.596
   62SOL    HW1 1085   1.701   0.667   4.525
   62SOL    HW2 1086   1.797   0.704   4.652
   63SOL     OW 1087   0.122   3.029   2.919
   63SOL    HW1 1088   0.104   3.123   2.948
   63SOL    HW2 1089   0.035   2.980   2.912
   64SOL     OW 1090   0.076   4.000   5.816
   64SOL    HW1 1091   0.035   4.062   5.884
   64SOL    HW2 1092   0.162   3.963   5.852
   65SOL     OW 1093   6.619   4.808   5.728
   65SOL    HW1 1094   6.667   4.889   5.695
   65SOL    HW2 1095   6.674   4.764   5.799
   66SOL     OW 1096   2.935   0.784   0.487
   66SOL    HW1 1097   2.896   0.790   0.579
   66SOL    HW2 1098   2.864   0.806   0.420
   67SOL     OW 1099   5.399   5.606   4.700
   67SOL    HW1 1100   5.490   5.587   4.665
   67SOL    HW2 1101   5.346   5.654   4.629
   68SOL     OW 1102   5.650   2.266   5.653
   68SOL    HW1 1103   5.651   2.330   5.576
   68SOL    HW2 1104   5.737   2.272   5.702
   69SOL     OW 1105   2.846   3.780   6.318
   69SOL    HW1 1106   2.808   3.713   6.382
   69SOL    HW2 1107   2.919   3.831   6.364
   70SOL     OW 1108   0.166   5.245   2.616
   70SOL    HW1 1109   0.119   5.160   2.641
   70SOL    HW2 1110   0.183   5.246   2.518
   71SOL     OW 1111   1.223   2.548   2.982
   71SOL    HW1 1112   1.289   2.521   2.911
   71SOL    HW2 1113   1.245   2.500   3.067
   72SOL     OW 1114   2.458   5.397   4.150
   72SOL    HW1 1115   2.545   5.359   4.120
   72SOL    HW2 1116   2.390   5.387   4.077
   73SOL     OW 1117   4.434   2.520   0.381
   73SOL    HW1 1118   4.337   2.542   0.373
   73SOL    HW2 1119   4.467   2.545   0.472
   74SOL     OW 1120   5.260   6.146   6.172
   74SOL    HW1 1121   5.358   6.163   6.183
   74SOL    HW2 1122   5.245   6.051   6.146
   75SOL     OW 1123   3.680   5.806   5.620
   75SOL    HW1 1124   3.734   5.885   5.592
   75SOL    HW2 1125   3.639   5.824   5.710
   76SOL     OW 1126   2.597   2.889   1.660
   76SOL    HW1 1127   2.579   2.927   1.570
   76SOL    HW2 1128   2.695   2.868   1.669
   77SOL     OW 1129   5.750   5.578   6.016
   77SOL    HW1 1130   5.755   5.481   6.040
   77SOL    HW2 1131   5.656   5.611   6.026
   78SOL     OW 1132   6.806   6.770   5.960
   78SOL    HW1 1133   6.838   6.684   6.001
   78SOL    HW2 1134   6.791   6.756   5.862
   79SOL     OW 1135   3.154   6.989   0.493
   79SOL    HW1 1136   3.162   6.958   0.398
   79SOL    HW2 1137   3.215   0.049   0.508
   80SOL     OW 1138   0.009   1.297   4.124
   80SOL    HW1 1139   0.075   1.334   4.189
   80SOL    HW2 1140   6.994   1.209   4.157
   81SOL     OW 1141   1.656   0.822   3.035
   81SOL    HW1 1142   1.735   0.762   3.050
   81SOL    HW2 1143   1.680   0.893   2.969
   82SOL     OW 1144   0.134   4.566   6.155
   82SOL    HW1 1145   0.171   4.658   6.146
   82SOL    HW2 1146   0.179   4.520   6.231
   83SOL     OW 1147   0.292   6.832   0.586
   83SOL    HW1 1148   0.295   6.754   0.524
   83SOL    HW2 1149   0.310   6.916   0.536
   84SOL     OW 1150   5.386   3.723   1.605
   84SOL    HW1 1151   5.323   3.764   1.671
   84SOL    HW2 1152   5.473   3.772   1.608
   85SOL     OW 1153   0.947   2.659   5.003
   85SOL    HW1 1154   1.035   2.615   5.016
   85SOL    HW2 1155   0.887   2.600   4.950
   86SOL     OW 1156   0.402   0.770   5.699
   86SOL    HW1 1157   0.446   0.709   5.764
   86SOL    HW2 1158   0.468   0.798   5.629
   87SOL     OW 1159   4.943   1.393   0.632
   87SOL    HW1 1160   4.937   1.312   0.690
   87SOL    HW2 1161   4.866   1.393   0.568
   88SOL     OW 1162   5.394   1.083   0.911
   88SOL    HW1 1163   5.491   1.107   0.922
   88SOL    HW2 1164   5.380   1.044   0.820
   89SOL     OW 1165   1.569   2.661   6.170
   89SOL    HW1 1166   1.570   2.756   6.201
   89SOL    HW2 1167   1.627   2.652   6.089
   90SOL     OW 1168   5.547   6.218   4.202
   90SOL    HW1 1169   5.510   6.209   4.295
   90SOL    HW2 1170   5.547   6.314   4.175
   91SOL     OW 1171   4.814   4.386   5.135
   91SOL    HW1 1172   4.877   4.464   5.136
   91SOL    HW2 1173   4.781   4.371   5.042
   92SOL     OW 1174   3.393   5.060   1.501
   92SOL    HW1 1175   3.421   4.965   1.516
   92SOL    HW2 1176   3.294   5.068   1.510
   93SOL     OW 1177   3.248   5.741   6.138
   93SOL    HW1 1178   3.163   5.691   6.157
   93SOL    HW2 1179   3.325   5.677   6.137
   94SOL     OW 1180   2.921   5.635   0.327
   94SOL    HW1 1181   2.960   5.631   0.236
   94SOL    HW2 1182   2.986   5.598   0.393
   95SOL     OW 1183   0.252   0.272   4.422
   95SOL    HW1 1184   0.338   0.232   4.392
   95SOL    HW2 1185   0.200   0.204   4.474
   96SOL     OW 1186   2.185   0.098   5.380
   96SOL    HW1 1187   2.203   0.184   5.429
   96SOL    HW2 1188   2.102   0.108   5.325
   97SOL     OW 1189   5.889   3.207   4.453
   97SOL    HW1 1190   5.969   3.247   4.497
   97SOL    HW2 1191   5.811   3.268   4.464
   98SOL     OW 1192   5.390   2.451   5.988
   98SOL    HW1 1193   5.466   2.479   5.930
   98SOL    HW2 1194   5.312   2.513   5.974
   99SOL     OW 1195   4.296   1.738   0.940
   99SOL    HW1 1196   4.248   1.659   0.978
   99SOL    HW2 1197   4.243   1.821   0.956
  100SOL     OW 1198   0.787   5.544   6.885
  100SOL    HW1 1199   0.776   5.444   6.883
  100SOL    HW2 1200   0.822   5.576   6.797
  101SOL     OW 1201   1.999   6.404   3.776
  101SOL    HW1 1202   1.966   6.345   3.703
  101SOL    HW2 1203   2.047   6.349   3.845
  102SOL     OW 1204   4.319   0.241   4.108
  102SOL    HW1 1205   4.345   0.294   4.028
  102SOL    HW2 1206   4.365   0.278   4.189
  103SOL     OW 1207   3.913   2.109   1.343
  103SOL    HW1 1208   3.832   2.100   1.402
  103SOL    HW2 1209   3.984   2.159   1.392
  104SOL     OW 1210   0.423   6.047   2.181
  104SOL    HW1 1211   0.500   6.023   2.240
  104SOL    HW2 1212   0.427   5.992   2.097
  105SOL     OW 1213   5.294   1.193   6.185
  105SOL    HW1 1214   5.373   1.138   6.214
  105SOL    HW2 1215   5.238   1.214   6.265
  106SOL     OW 1216   2.827   6.575   6.597
  106SOL    HW1 1217   2.797   6.509   6.665
  106SOL    HW2 1218   2.911   6.542   6.553
  107SOL     OW 1219   2.554   2.775   0.744
  107SOL    HW1 1220   2.585   2.786   0.838
  107SOL    HW2 1221   2.470   2.827   0.730
  108SOL     OW 1222   4.989   4.496   5.757
  108SOL    HW1 1223   4.985   4.474   5.854
  108SOL    HW2 1224   5.070   4.456   5.716
  109SOL     OW 1225   6.643   0.699   0.818
  109SOL    HW1 1226   6.631   0.605   0.849
  109SOL    HW2 1227   6.652   0.700   0.718
  110SOL     OW 1228   3.840   5.835   5.094
  110SOL    HW1 1229   3.890   5.776   5.031
  110SOL    HW2 1230   3.895   5.851   5.176
  111SOL     OW 1231   3.809   0.871   3.533
  111SOL    HW1 1232   3.772   0.851   3.624
  111SOL    HW2 1233   3.751   0.828   3.464
  112SOL     OW 1234   6.912   6.491   5.965
  112SOL    HW1 1235   6.848   6.428   5.921
  112SOL    HW2 1236   7.001   6.447   5.974
  113SOL     OW 1237   0.161   5.076   3.351
  113SOL    HW1 1238   0.214   5.117   3.277
  113SOL    HW2 1239   0.223   5.026   3.412
  114SOL     OW 1240   0.758   6.985   0.131
  114SOL    HW1 1241   0.827   6.918   0.106
  114SOL    HW2 1242   0.727   0.015   0.049
  115SOL     OW 1243   5.296   1.234   4.638
  115SOL    HW1 1244   5.300   1.239   4.738
  115SOL    HW2 1245   5.263   1.321   4.601
  116SOL     OW 1246   6.098   4.331   2.149
  116SOL    HW1 1247   6.125   4.254   2.091
  116SOL    HW2 1248   6.068   4.407   2.092
  117SOL     OW 1249   1.492   0.055   6.199
  117SOL    HW1 1250   1.543   7.000   6.244
  117SOL    HW2 1251   1.396   0.053   6.229
  118SOL     OW 1252   0.578   0.328   2.189
  118SOL    HW1 1253   0.612   0.422   2.197
  118SOL    HW2 1254   0.615   0.286   2.106
  119SOL     OW 1255   6.933   2.470   5.821
  119SOL    HW1 1256   6.969   2.541   5.882
  119SOL    HW2 1257   6.834   2.474   5.819
  120SOL     OW 1258   5.988   6.512   0.895
  120SOL    HW1 1259   6.013   6.417   0.874
  120SOL    HW2 1260   5.890   6.518   0.913
  121SOL     OW 1261   2.717   3.388   6.003
  121SOL    HW1 1262   2.703   3.381   5.904
  121SOL    HW2 1263   2.718   3.485   6.030
  122SOL     OW 1264   0.915   3.193   4.292
  122SOL    HW1 1265   0.901   3.210   4.390
  122SOL    HW2 1266   0.992   3.248   4.260
  123SOL     OW 1267   0.522   2.052   1.165
  123SOL    HW1 1268   0.605   2.073   1.217
  123SOL    HW2 1269   0.442   2.088   1.214
  124SOL     OW 1270   4.498   3.336   1.159
  124SOL    HW1 1271   4.425   3.379   1.213
  124SOL    HW2 1272   4.585   3.346   1.206
  125SOL     OW 1273   1.502   2.674   1.712
  125SOL    HW1 1274   1.524   2.659   1.616
  125SOL    HW2 1275   1.582   2.712   1.759
  126SOL     OW 1276   3.308   4.737   1.270
  126SOL    HW1 1277   3.311   4.711   1.173
  126SOL    HW2 1278   3.255   4.821   1.280
  127SOL     OW 1279   0.011   6.004   6.176
  127SOL    HW1 1280   0.049   6.011   6.084
  127SOL    HW2 1281   6.955   5.937   6.177
  128SOL     OW 1282   4.867   2.337   1.620
  128SOL    HW1 1283   4.839   2.289   1.537
  128SOL    HW2 1284   4.965   2.357   1.616
  129SOL     OW 1285   2.593   3.628   6.609
  129SOL    HW1 1286   2.497   3.655   6.611
  129SOL    HW2 1287   2.602   3.537   6.650
  130SOL     OW 1288   1.629   1.461   4.664
  130SOL    HW1 1289   1.687   1.541   4.648
  130SOL    HW2 1290   1.646   1.426   4.757
  131SOL     OW 1291   4.448   1.567   3.141
  131SOL    HW1 1292   4.351   1.590   3.147
  131SOL    HW2 1293   4.460   1.486   3.084
  132SOL     OW 1294   1.106   2.633   1.122
  132SOL    HW1 1295   1.031   2.578   1.084
  132SOL    HW2 1296   1.116   2.613   1.219
  133SOL     OW 1297   6.580   5.760   2.503
  133SOL    HW1 1298   6.525   5.726   2.427
  133SOL    HW2 1299   6.570   5.699   2.582
  134SOL     OW 1300   6.890   3.763   2.927
  134SOL    HW1 1301   6.871   3.852   2.969
  134SOL    HW2 1302   6.830   3.749   2.848
  135SOL     OW 1303   4.911   1.471   4.183
  135SOL    HW1 1304   4.855   1.452   4.263
  135SOL    HW2 1305   4.852   1.485   4.103
  136SOL     OW 1306   5.535   4.570   5.675
  136SOL    HW1 1307   5.503   4.665   5.678
  136SOL    HW2 1308   5.458   4.508   5.691
  137SOL     OW 1309   4.043   0.076   5.491
  137SOL    HW1 1310   4.121   0.047   5.436
  137SOL    HW2 1311   3.984   0.136   5.436
  138SOL     OW 1312   6.849   5.213   4.881
  138SOL    HW1 1313   6.940   5.172   4.884
  138SOL    HW2 1314   6.796   5.182   4.960
  139SOL     OW 1315   3.252   4.849   5.288
  139SOL    HW1 1316   3.179   4.787   5.317
  139SOL    HW2 1317   3.341   4.806   5.301
  140SOL     OW 1318   5.904   4.588   4.643
  140SOL    HW1 1319   5.978   4.630   4.695
  140SOL    HW2 1320   5.924   4.591   4.546
  141SOL     OW 1321   1.037   1.986   4.319
  141SOL    HW1 1322   0.970   2.003   4.391
  141SOL    HW2 1323   1.127   2.014   4.350
  142SOL     OW 1324   1.917   6.057   0.994
  142SOL    HW1 1325   1.871   5.975   0.960
  142SOL    HW2 1326   1.903   6.132   0.930
  143SOL     OW 1327   5.721   4.594   1.836
  143SOL    HW1 1328   5.635   4.632   1.872
  143SOL    HW2 1329   5.700   4.527   1.765
  144SOL     OW 1330   2.333   6.974   6.797
  144SOL    HW1 1331   2.265   6.925   6.852
  144SOL    HW2 1332   2.376   6.911   6.733
  145SOL     OW 1333   0.095   5.907   0.656
  145SOL    HW1 1334   0.176   5.963   0.672
  145SOL    HW2 1335   0.089   5.884   0.559
  146SOL     OW 1336   4.795   5.661   0.891
  146SOL    HW1 1337   4.848   5.741   0.863
  146SOL    HW2 1338   4.823   5.581   0.838
  147SOL     OW 1339   6.481   2.060   1.316
  147SOL    HW1 1340   6.470   2.125   1.240
  147SOL    HW2 1341   6.399   2.003   1.323
  148SOL     OW 1342   0.957   5.317   5.801
  148SOL    HW1 1343   0.970   5.224   5.765
  148SOL    HW2 1344   1.026   5.336   5.871
  149SOL     OW 1345   3.187   1.200   4.760
  149SOL    HW1 1346   3.192   1.220   4.858
  149SOL    HW2 1347   3.262   1.138   4.735
  150SOL     OW 1348   0.392   4.937   6.808
  150SOL    HW1 1349   0.309   4.889   6.837
  150SOL    HW2 1350   0.375   4.983   6.720
  151SOL     OW 1351   4.084   1.731   1.681
  151SOL    HW1 1352   4.009   1.793   1.703
  151SOL    HW2 1353   4.150   1.778   1.622
  152SOL     OW 1354   3.132   0.663   4.129
  152SOL    HW1 1355   3.144   0.697   4.221
  152SOL    HW2 1356   3.137   0.739   4.064
  153SOL     OW 1357   1.935   1.252   3.354
  153SOL    HW1 1358   1.928   1.268   3.256
  153SOL    HW2 1359   1.961   1.337   3.400
  154SOL     OW 1360   6.652   2.182   2.367
  154SOL    HW1 1361   6.592   2.147   2.295
  154SOL    HW2 1362   6.661   2.114   2.439
  155SOL     OW 1363   6.805   0.833   2.794
  155SOL    HW1 1364   6.850   0.856   2.880
  155SOL    HW2 1365   6.865   0.857   2.717
  156SOL     OW 1366   6.230   2.096   0.789
  156SOL    HW1 1367   6.218   2.057   0.881
  156SOL    HW2 1368   6.251   2.023   0.725
  157SOL     OW 1369   6.049   3.698   2.653
  157SOL    HW1 1370   6.131   3.750   2.628
  157SOL    HW2 1371   6.067   3.646   2.736
  158SOL     OW 1372   2.313   1.167   2.821
  158SOL    HW1 1373   2.290   1.264   2.807
  158SOL    HW2 1374   2.333   1.125   2.733
  159SOL     OW 1375   4.728   4.238   1.945
  159SOL    HW1 1376   4.628   4.236   1.944
  159SOL    HW2 1377   4.762   4.279   1.861
  160SOL     OW 1378   6.647   4.287   5.986
  160SOL    HW1 1379   6.716   4.352   5.953
  160SOL    HW2 1380   6.601   4.245   5.907
  161SOL     OW 1381   1.980   5.490   4.948
  161SOL    HW1 1382   2.000   5.400   4.911
  161SOL    HW2 1383   1.932   5.481   5.035
  162SOL     OW 1384   4.212   5.380   1.266
  162SOL    HW1 1385   4.297   5.432   1.260
  162SOL    HW2 1386   4.225   5.292   1.219
  163SOL     OW 1387   4.658   0.583   2.455
  163SOL    HW1 1388   4.662   0.610   2.551
  163SOL    HW2 1389   4.603   0.499   2.446
  164SOL     OW 1390   5.918   3.413   1.016
  164SOL    HW1 1391   5.893   3.469   1.096
  164SOL    HW2 1392   5.850   3.425   0.944
  165SOL     OW 1393   4.862   3.193   6.692
  165SOL    HW1 1394   4.798   3.234   6.627
  165SOL    HW2 1395   4.881   3.258   6.766
  166SOL     OW 1396   0.741   6.991   2.552
  166SOL    HW1 1397   0.726   6.989   2.650
  166SOL    HW2 1398   0.656   6.969   2.504
  167SOL     OW 1399   6.243   2.959   6.912
  167SOL    HW1 1400   6.171   2.891   6.900
  167SOL    HW2 1401   6.278   2.987   6.822
  168SOL     OW 1402   2.364   5.239   0.764
  168SOL    HW1 1403   2.389   5.176   0.690
  168SOL    HW2 1404   2.327   5.187   0.841
  169SOL     OW 1405   2.058   6.936   1.715
  169SOL    HW1 1406   2.023   7.001   1.783
  169SOL    HW2 1407   2.050   6.975   1.624
  170SOL     OW 1408   0.422   1.474   3.039
  170SOL    HW1 1409   0.411   1.491   3.137
  170SOL    HW2 1410   0.510   1.429   3.023
  171SOL     OW 1411   3.837   3.639   7.017
  171SOL    HW1 1412   3.865   3.727   6.978
  171SOL    HW2 1413   3.739   3.638   0.013
  172SOL     OW 1414   6.935   2.581   5.165
  172SOL    HW1 1415   6.958   2.662   5.219
  172SOL    HW2 1416   6.978   2.501   5.207
  173SOL     OW 1417   0.219   6.843   5.550
  173SOL    HW1 1418   0.122   6.864   5.541
  173SOL    HW2 1419   0.270   6.925   5.574
  174SOL     OW 1420   2.526   5.110   3.809
  174SOL    HW1 1421   2.519   5.032   3.747
  174SOL    HW2 1422   2.551   5.078   3.901
  175SOL     OW 1423   1.374   5.453   2.705
  175SOL    HW1 1424   1.448   5.387   2.690
  175SOL    HW2 1425   1.377   5.484   2.800
  176SOL     OW 1426   2.437   4.278   0.766
  176SOL    HW1 1427   2.337   4.283   0.773
  176SOL    HW2 1428   2.474   4.249   0.855
  177SOL     OW 1429   4.809   1.917   2.373
  177SOL    HW1 1430   4.890   1.920   2.432
  177SOL    HW2 1431   4.823   1.846   2.303
  178SOL     OW 1432   5.223   4.901   6.731
  178SOL    HW1 1433   5.204   4.996   6.708
  178SOL    HW2 1434   5.284   4.897   6.810
  179SOL     OW 1435   3.028   0.285   0.459
  179SOL    HW1 1436   2.945   0.276   0.405
  179SOL    HW2 1437   3.029   0.374   0.505
  180SOL     OW 1438   0.767   1.949   0.039
  180SOL    HW1 1439   0.845   1.996   7.016
  180SOL    HW2 1440   0.787   1.852   0.048
  181SOL     OW 1441   3.440   3.150   5.521
  181SOL    HW1 1442   3.396   3.196   5.598
  181SOL    HW2 1443   3.467   3.217   5.453
  182SOL     OW 1444   3.966   2.120   4.941
  182SOL    HW1 1445   3.973   2.176   5.024
  182SOL    HW2 1446   3.879   2.138   4.896
  183SOL     OW 1447   5.053   1.058   1.947
  183SOL    HW1 1448   5.015   1.123   1.881
  183SOL    HW2 1449   5.127   1.102   1.998
  184SOL     OW 1450   6.905   4.578   3.127
  184SOL    HW1 1451   6.988   4.559   3.075
  184SOL    HW2 1452   6.857   4.492   3.145
  185SOL     OW 1453   1.818   3.812   5.873
  185SOL    HW1 1454   1.842   3.789   5.779
  185SOL    HW2 1455   1.901   3.812   5.930
  186SOL     OW 1456   5.471   0.252   3.219
  186SOL    HW1 1457   5.455   0.177   3.155
  186SOL    HW2 1458   5.521   0.218   3.299
  187SOL     OW 1459   5.742   1.075   3.957
  187SOL    HW1 1460   5.694   1.003   4.008
  187SOL    HW2 1461   5.675   1.135   3.914
  188SOL     OW 1462   6.142   2.322   3.371
  188SOL    HW1 1463   6.070   2.383   3.340
  188SOL    HW2 1464   6.202   2.371   3.434
  189SOL     OW 1465   2.000   4.482   2.591
  189SOL    HW1 1466   2.022   4.499   2.495
  189SOL    HW2 1467   2.007   4.384   2.610
  190SOL     OW 1468   3.634   0.937   5.649
  190SOL    HW1 1469   3.582   1.002   5.704
  190SOL    HW2 1470   3.574   0.897   5.579
  191SOL     OW 1471   5.604   5.842   6.740
  191SOL    HW1 1472   5.617   5.940   6.728
  191SOL    HW2 1473   5.628   5.795   6.655
  192SOL     OW 1474   6.945   0.824   1.874
  192SOL    HW1 1475   6.965   0.784   1.784
  192SOL    HW2 1476   6.908   0.753   1.934
  193SOL     OW 1477   5.671   3.768   0.004
  193SOL    HW1 1478   5.692   3.756   0.101
  193SOL    HW2 1479   5.597   3.835   7.013
  194SOL     OW 1480   3.761   0.346   3.757
  194SOL    HW1 1481   3.697   0.420   3.774
  194SOL    HW2 1482   3.782   0.300   3.844
  195SOL     OW 1483   0.869   5.830   3.259
  195SOL    HW1 1484   0.778   5.815   3.299
  195SOL    HW2 1485   0.859   5.873   3.169
  196SOL     OW 1486   0.992   2.171   0.122
  196SOL    HW1 1487   0.916   2.199   0.180
  196SOL    HW2 1488   1.043   2.252   0.092
  197SOL     OW 1489   1.738   0.962   0.618
  197SOL    HW1 1490   1.783   1.041   0.575
  197SOL    HW2 1491   1.797   0.882   0.608
  198SOL     OW 1492   3.214   2.111   3.629
  198SOL    HW1 1493   3.274   2.113   3.549
  198SOL    HW2 1494   3.268   2.119   3.712
  199SOL     OW 1495   1.113   2.597   4.079
  199SOL    HW1 1496   1.185   2.598   4.148
  199SOL    HW2 1497   1.141   2.541   4.001
  200SOL     OW 1498   6.754   2.632   0.299
  200SOL    HW1 1499   6.681   2.565   0.310
  200SOL    HW2 1500   6.796   2.621   0.208
  201SOL     OW 1501   0.613   0.735   6.381
  201SOL    HW1 1502   0.685   0.759   6.317
  201SOL    HW2 1503   0.634   0.648   6.424
  202SOL     OW 1504   4.598   6.867   7.017
  202SOL    HW1 1505   4.590   6.954   6.967
  202SOL    HW2 1506   4.506   6.832   0.018
  203SOL     OW 1507   5.685   2.817   5.585
  203SOL    HW1 1508   5.588   2.791   5.589
  203SOL    HW2 1509   5.717   2.807   5.490
  204SOL     OW 1510   6.289   1.006   5.575
  204SOL    HW1 1511   6.196   1.026   5.603
  204SOL    HW2 1512   6.346   0.987   5.656
  205SOL     OW 1513   0.881   2.930   2.357
  205SOL    HW1 1514   0.881   2.999   2.285
  205SOL    HW2 1515   0.937   2.961   2.433
  206SOL     OW 1516   0.575   3.319   0.433
  206SOL    HW1 1517   0.550   3.297   0.527
  206SOL    HW2 1518   0.612   3.412   0.429
  207SOL     OW 1519   5.347   2.054   4.190
  207SOL    HW1 1520   5.438   2.038   4.153
  207SOL    HW2 1521   5.353   2.117   4.268
  208SOL     OW 1522   0.953   4.189   4.185
  208SOL    HW1 1523   0.990   4.196   4.093
  208SOL    HW2 1524   1.015   4.135   4.242
  209SOL     OW 1525   6.352   4.065   2.607
  209SOL    HW1 1526   6.411   4.047   2.686
  209SOL    HW2 1527   6.359   4.162   2.581
  210SOL     OW 1528   4.482   2.550   0.056
  210SOL    HW1 1529   4.453   2.502   0.139
  210SOL    HW2 1530   4.462   2.648   0.066
  211SOL     OW 1531   0.312   1.268   2.867
  211SOL    HW1 1532   0.375   1.334   2.909
  211SOL    HW2 1533   0.352   1.177   2.871
  212SOL     OW 1534   1.827   3.680   2.998
  212SOL    HW1 1535   1.800   3.768   2.960
  212SOL    HW2 1536   1.866   3.694   3.089
  213SOL     OW 1537   1.873   4.892   1.009
  213SOL    HW1 1538   1.881   4.835   0.927
  213SOL    HW2 1539   1.914   4.981   0.993
  214SOL     OW 1540   4.382   5.733   2.684
  214SOL    HW1 1541   4.287   5.760   2.671
  214SOL    HW2 1542   4.431   5.740   2.598
  215SOL     OW 1543   2.395   4.941   2.649
  215SOL    HW1 1544   2.470   4.991   2.605
  215SOL    HW2 1545   2.391   4.848   2.613
  216SOL     OW 1546   1.311   6.716   2.477
  216SOL    HW1 1547   1.392   6.770   2.498
  216SOL    HW2 1548   1.242   6.730   2.547
  217SOL     OW 1549   1.772   4.199   6.428
  217SOL    HW1 1550   1.806   4.183   6.520
  217SOL    HW2 1551   1.827   4.271   6.384
  218SOL     OW 1552   1.124   1.889   5.127
  218SOL    HW1 1553   1.098   1.941   5.209
  218SOL    HW2 1554   1.056   1.903   5.055
  219SOL     OW 1555   3.934   1.711   0.738
  219SOL    HW1 1556   3.895   1.710   0.829
  219SOL    HW2 1557   3.997   1.788   0.729
  220SOL     OW 1558   2.881   6.718   0.826
  220SOL    HW1 1559   2.923   6.641   0.875
  220SOL    HW2 1560   2.950   6.763   0.769
  221SOL     OW 1561   4.763   5.950   1.689
  221SOL    HW1 1562   4.686   5.890   1.669
  221SOL    HW2 1563   4.794   5.935   1.783
  222SOL     OW 1564   2.384   4.685   6.226
  222SOL    HW1 1565   2.366   4.641   6.138
  222SOL    HW2 1566   2.409   4.616   6.294
  223SOL     OW 1567   6.345   2.888   5.013
  223SOL    HW1 1568   6.411   2.867   5.085
  223SOL    HW2 1569   6.353   2.819   4.941
  224SOL     OW 1570   2.376   1.467   6.167
  224SOL    HW1 1571   2.382   1.373   6.199
  224SOL    HW2 1572   2.288   1.482   6.121
  225SOL     OW 1573   4.774   5.271   6.087
  225SOL    HW1 1574   4.756   5.357   6.136
  225SOL    HW2 1575   4.694   5.211   6.096
  226SOL     OW 1576   1.352   2.294   6.611
  226SOL    HW1 1577   1.263   2.256   6.637
  226SOL    HW2 1578   1.372   2.374   6.667
  227SOL     OW 1579   0.966   3.694   1.939
  227SOL    HW1 1580   0.954   3.597   1.961
  227SOL    HW2 1581   0.988   3.745   2.022
  228SOL     OW 1582   1.770   6.707   2.608
  228SOL    HW1 1583   1.827   6.632   2.574
  228SOL    HW2 1584   1.813   6.749   2.688
  229SOL     OW 1585   4.930   5.799   6.154
  229SOL    HW1 1586   4.907   5.884   6.106
  229SOL    HW2 1587   4.887   5.722   6.108
  230SOL     OW 1588   4.834   5.656   5.233
  230SOL    HW1 1589   4.869   5.627   5.144
  230SOL    HW2 1590   4.906   5.645   5.302
  231SOL     OW 1591   5.614   1.316   6.961
  231SOL    HW1 1592   5.581   1.393   7.016
  231SOL    HW2 1593   5.616   1.343   6.865
  232SOL     OW 1594   1.582   2.942   5.723
  232SOL    HW1 1595   1.651   2.908   5.787
  232SOL    HW2 1596   1.627   2.970   5.638
  233SOL     OW 1597   2.739   1.595   3.218
  233SOL    HW1 1598   2.679   1.675   3.213
  233SOL    HW2 1599   2.685   1.512   3.201
  234SOL     OW 1600   4.689   1.309   6.732
  234SOL    HW1 1601   4.716   1.273   6.821
  234SOL    HW2 1602   4.738   1.395   6.715
  235SOL     OW 1603   4.752   2.355   2.682
  235SOL    HW1 1604   4.849   2.380   2.683
  235SOL    HW2 1605   4.707   2.398   2.605
  236SOL     OW 1606   4.354   4.488   6.221
  236SOL    HW1 1607   4.435   4.546   6.238
  236SOL    HW2 1608   4.373   4.426   6.145
  237SOL     OW 1609   6.264   3.678   2.896
  237SOL    HW1 1610   6.284   3.606   2.964
  237SOL    HW2 1611   6.185   3.730   2.925
  238SOL     OW 1612   6.617   1.424   0.697
  238SOL    HW1 1613   6.634   1.522   0.700
  238SOL    HW2 1614   6.703   1.375   0.716
  239SOL     OW 1615   0.873   3.841   0.202
  239SOL    HW1 1616   0.950   3.881   0.151
  239SOL    HW2 1617   0.859   3.747   0.171
  240SOL     OW 1618   5.864   3.157   2.944
  240SOL    HW1 1619   5.789   3.094   2.927
  240SOL    HW2 1620   5.861   3.232   2.878
  241SOL     OW 1621   2.967   1.611   3.603
  241SOL    HW1 1622   2.926   1.651   3.520
  241SOL    HW2 1623   3.066   1.624   3.599
  242SOL     OW 1624   3.753   3.525   3.027
  242SOL    HW1 1625   3.725   3.603   3.083
  242SOL    HW2 1626   3.758   3.443   3.084
  243SOL     OW 1627   4.821   2.575   6.029
  243SOL    HW1 1628   4.804   2.566   5.930
  243SOL    HW2 1629   4.917   2.597   6.044
  244SOL     OW 1630   5.170   3.445   5.571
  244SOL    HW1 1631   5.208   3.494   5.493
  244SOL    HW2 1632   5.137   3.355   5.542
  245SOL     OW 1633   3.443   2.143   2.527
  245SOL    HW1 1634   3.493   2.223   2.562
  245SOL    HW2 1635   3.479   2.060   2.569
  246SOL     OW 1636   6.432   1.356   2.235
  246SOL    HW1 1637   6.397   1.425   2.299
  246SOL    HW2 1638   6.526   1.333   2.259
  247SOL     OW 1639   1.998   1.588   1.205
  247SOL    HW1 1640   1.915   1.642   1.205
  247SOL    HW2 1641   2.016   1.553   1.297
  248SOL     OW 1642   1.677   2.306   2.275
  248SOL    HW1 1643   1.728   2.377   2.323
  248SOL    HW2 1644   1.632   2.346   2.195
  249SOL     OW 1645   5.687   6.409   4.977
  249SOL    HW1 1646   5.605   6.455   4.943
  249SOL    HW2 1647   5.667   6.312   4.991
  250SOL     OW 1648   3.635   2.589   1.234
  250SOL    HW1 1649   3.733   2.596   1.219
  250SOL    HW2 1650   3.590   2.557   1.151
  251SOL     OW 1651   3.969   4.038   5.622
  251SOL    HW1 1652   3.974   4.033   5.722
  251SOL    HW2 1653   4.061   4.047   5.584
  252SOL     OW 1654   6.092   6.202   5.548
  252SOL    HW1 1655   6.015   6.225   5.488
  252SOL    HW2 1656   6.144   6.126   5.508
  253SOL     OW 1657   4.281   5.770   6.205
  253SOL    HW1 1658   4.354   5.785   6.139
  253SOL    HW2 1659   4.292   5.834   6.281
  254SOL     OW 1660   5.804   2.508   4.775
  254SOL    HW1 1661   5.768   2.541   4.862
  254SOL    HW2 1662   5.845   2.417   4.788
  255SOL     OW 1663   1.501   4.651   5.585
  255SOL    HW1 1664   1.494   4.552   5.599
  255SOL    HW2 1665   1.594   4.680   5.607
  256SOL     OW 1666   4.968   2.428   4.630
  256SOL    HW1 1667   5.056   2.468   4.606
  256SOL    HW2 1668   4.901   2.446   4.558
  257SOL     OW 1669   5.018   6.285   2.900
  257SOL    HW1 1670   5.104   6.325   2.930
  257SOL    HW2 1671   5.033   6.190   2.872
  258SOL     OW 1672   2.174   3.728   6.078
  258SOL    HW1 1673   2.158   3.762   6.171
  258SOL    HW2 1674   2.096   3.672   6.050
  259SOL     OW 1675   3.970   0.155   3.954
  259SOL    HW1 1676   4.021   0.191   3.876
  259SOL    HW2 1677   4.030   0.097   4.009
  260SOL     OW 1678   3.696   5.599   3.649
  260SOL    HW1 1679   3.773   5.538   3.668
  260SOL    HW2 1680   3.614   5.545   3.633
  261SOL     OW 1681   4.161   4.497   6.776
  261SOL    HW1 1682   4.072   4.505   6.731
  261SOL    HW2 1683   4.190   4.587   6.809
  262SOL     OW 1684   2.130   3.930   0.152
  262SOL    HW1 1685   2.168   4.010   0.199
  262SOL    HW2 1686   2.183   3.913   0.068
  263SOL     OW 1687   1.280   6.167   4.063
  263SOL    HW1 1688   1.207   6.116   4.108
  263SOL    HW2 1689   1.351   6.105   4.033
  264SOL     OW 1690   0.030   3.365   6.575
  264SOL    HW1 1691   0.057   3.347   6.669
  264SOL    HW2 1692   6.956   3.404   6.573
  265SOL     OW 1693   6.594   6.947   4.269
  265SOL    HW1 1694   6.664   6.904   4.326
  265SOL    HW2 1695   6.506   6.901   4.284
  266SOL     OW 1696   3.806   1.544   5.438
  266SOL    HW1 1697   3.871   1.523   5.366
  266SOL    HW2 1698   3.798   1.465   5.500
  267SOL     OW 1699   1.588   0.745   4.983
  267SOL    HW1 1700   1.535   0.730   4.900
  267SOL    HW2 1701   1.567   0.836   5.020
  268SOL     OW 1702   3.046   1.307   0.802
  268SOL    HW1 1703   3.000   1.340   0.884
  268SOL    HW2 1704   3.034   1.208   0.795
  269SOL     OW 1705   4.020   1.961   0.023
  269SOL    HW1 1706   4.053   1.961   0.117
  269SOL    HW2 1707   4.095   1.939   6.979
  270SOL     OW 1708   6.595   6.927   0.322
  270SOL    HW1 1709   6.627   6.997   0.260
  270SOL    HW2 1710   6.659   6.916   0.398
  271SOL     OW 1711   0.255   2.364   5.683
  271SOL    HW1 1712   0.179   2.304   5.657
  271SOL    HW2 1713   0.269   2.433   5.612
  272SOL     OW 1714   2.703   6.390   3.682
  272SOL    HW1 1715   2.799   6.386   3.654
  272SOL    HW2 1716   2.646   6.409   3.602
  273SOL     OW 1717   1.761   5.246   6.192
  273SOL    HW1 1718   1.788   5.340   6.214
  273SOL    HW2 1719   1.714   5.245   6.104
  274SOL     OW 1720   4.418   1.016   3.625
  274SOL    HW1 1721   4.498   1.008   3.566
  274SOL    HW2 1722   4.429   0.955   3.704
  275SOL     OW 1723   0.111   6.432   2.936
  275SOL    HW1 1724   0.181   6.408   3.003
  275SOL    HW2 1725   0.071   6.349   2.898
  276SOL     OW 1726   0.561   0.445   4.749
  276SOL    HW1 1727   0.601   0.534   4.731
  276SOL    HW2 1728   0.540   0.436   4.846
  277SOL     OW 1729   2.672   3.178   0.512
  277SOL    HW1 1730   2.721   3.122   0.578
  277SOL    HW2 1731   2.734   3.247   0.474
  278SOL     OW 1732   0.243   2.535   2.485
  278SOL    HW1 1733   0.214   2.591   2.563
  278SOL    HW2 1734   0.317   2.581   2.436
  279SOL     OW 1735   5.770   2.347   4.375
  279SOL    HW1 1736   5.741   2.251   4.382
  279SOL    HW2 1737   5.870   2.352   4.385
  280SOL     OW 1738   1.672   4.481   1.801
  280SOL    HW1 1739   1.745   4.416   1.822
  280SOL    HW2 1740   1.685   4.518   1.709
  281SOL     OW 1741   2.370   4.168   0.512
  281SOL    HW1 1742   2.293   4.116   0.552
  281SOL    HW2 1743   2.416   4.220   0.584
  282SOL     OW 1744   3.536   2.119   5.801
  282SOL    HW1 1745   3.450   2.139   5.755
  282SOL    HW2 1746   3.518   2.097   5.897
  283SOL     OW 1747   5.183   3.022   5.899
  283SOL    HW1 1748   5.217   3.104   5.944
  283SOL    HW2 1749   5.239   2.943   5.926
  284SOL     OW 1750   0.825   3.600   4.096
  284SOL    HW1 1751   0.876   3.683   4.073
  284SOL    HW2 1752   0.868   3.554   4.174
  285SOL     OW 1753   5.859   4.405   4.195
  285SOL    HW1 1754   5.856   4.503   4.176
  285SOL    HW2 1755   5.884   4.390   4.290
  286SOL     OW 1756   3.220   3.598   6.665
  286SOL    HW1 1757   3.180   3.538   6.596
  286SOL    HW2 1758   3.200   3.562   6.756
  287SOL     OW 1759   2.006   3.582   0.064
  287SOL    HW1 1760   2.012   3.533   6.996
  287SOL    HW2 1761   1.978   3.677   0.047
  288SOL     OW 1762   5.121   2.219   6.972
  288SOL    HW1 1763   5.187   2.166   6.918
  288SOL    HW2 1764   5.115   2.312   6.936
  289SOL     OW 1765   2.854   5.138   5.788
  289SOL    HW1 1766   2.768   5.172   5.826
  289SOL    HW2 1767   2.839   5.106   5.694
  290SOL     OW 1768   0.025   2.218   5.787
  290SOL    HW1 1769   0.068   2.210   5.697
  290SOL    HW2 1770   6.993   2.304   5.793
  291SOL     OW 1771   6.803   2.024   3.022
  291SOL    HW1 1772   6.810   1.962   3.100
  291SOL    HW2 1773   6.706   2.036   2.997
  292SOL     OW 1774   2.100   0.027   3.641
  292SOL    HW1 1775   2.096   0.126   3.647
  292SOL    HW2 1776   2.021   7.005   3.688
  293SOL     OW 1777   3.930   5.215   3.483
  293SOL    HW1 1778   3.987   5.172   3.553
  293SOL    HW2 1779   3.844   5.165   3.474
  294SOL     OW 1780   4.258   6.658   6.434
  294SOL    HW1 1781   4.245   6.681   6.531
  294SOL    HW2 1782   4.301   6.568   6.427
  295SOL     OW 1783   4.934   0.163   4.116
  295SOL    HW1 1784   5.026   0.198   4.101
  295SOL    HW2 1785   4.927   0.124   4.208
  296SOL     OW 1786   2.059   2.055   3.627
  296SOL    HW1 1787   2.018   2.145   3.608
  296SOL    HW2 1788   2.019   2.018   3.711
  297SOL     OW 1789   1.879   4.582   3.189
  297SOL    HW1 1790   1.871   4.490   3.227
  297SOL    HW2 1791   1.787   4.617   3.169
  298SOL     OW 1792   5.733   5.237   1.189
  298SOL    HW1 1793   5.794   5.158   1.199
  298SOL    HW2 1794   5.642   5.212   1.222
  299SOL     OW 1795   6.337   2.265   4.848
  299SOL    HW1 1796   6.300   2.216   4.769
  299SOL    HW2 1797   6.437   2.253   4.851
  300SOL     OW 1798   6.134   6.942   2.710
  300SOL    HW1 1799   6.174   0.007   2.751
  300SOL    HW2 1800   6.111   6.960   2.615
  301SOL     OW 1801   5.225   4.029   6.136
  301SOL    HW1 1802   5.167   4.072   6.066
  301SOL    HW2 1803   5.312   4.002   6.096
  302SOL     OW 1804   1.032   6.598   3.758
  302SOL    HW1 1805   0.940   6.603   3.719
  302SOL    HW2 1806   1.081   6.682   3.737
  303SOL     OW 1807   5.816   0.256   3.938
  303SOL    HW1 1808   5.844   0.288   3.848
  303SOL    HW2 1809   5.719   0.233   3.937
  304SOL     OW 1810   3.175   0.207   3.440
  304SOL    HW1 1811   3.183   0.294   3.488
  304SOL    HW2 1812   3.150   0.224   3.345
  305SOL     OW 1813   1.351   3.627   1.242
  305SOL    HW1 1814   1.365   3.724   1.227
  305SOL    HW2 1815   1.293   3.613   1.322
  306SOL     OW 1816   2.236   0.615   3.589
  306SOL    HW1 1817   2.245   0.516   3.585
  306SOL    HW2 1818   2.239   0.645   3.684
  307SOL     OW 1819   3.683   0.303   1.531
  307SOL    HW1 1820   3.677   0.244   1.612
  307SOL    HW2 1821   3.591   0.322   1.497
  308SOL     OW 1822   0.678   5.177   4.120
  308SOL    HW1 1823   0.769   5.217   4.111
  308SOL    HW2 1824   0.686   5.080   4.142
  309SOL     OW 1825   4.377   5.218   5.281
  309SOL    HW1 1826   4.350   5.311   5.256
  309SOL    HW2 1827   4.455   5.189   5.225
  310SOL     OW 1828   0.594   6.512   6.309
  310SOL    HW1 1829   0.555   6.447   6.374
  310SOL    HW2 1830   0.520   6.558   6.261
  311SOL     OW 1831   0.559   0.419   1.461
  311SOL    HW1 1832   0.490   0.399   1.531
  311SOL    HW2 1833   0.632   0.474   1.502
  312SOL     OW 1834   3.861   1.873   5.016
  312SOL    HW1 1835   3.781   1.842   4.965
  312SOL    HW2 1836   3.892   1.961   4.980
  313SOL     OW 1837   0.751   4.495   1.277
  313SOL    HW1 1838   0.724   4.591   1.267
  313SOL    HW2 1839   0.687   4.437   1.226
  314SOL     OW 1840   3.513   6.247   1.077
  314SOL    HW1 1841   3.480   6.330   1.032
  314SOL    HW2 1842   3.532   6.268   1.173
  315SOL     OW 1843   0.863   3.040   2.947
  315SOL    HW1 1844   0.830   2.959   2.996
  315SOL    HW2 1845   0.799   3.115   2.961
  316SOL     OW 1846   2.473   2.517   3.841
  316SOL    HW1 1847   2.528   2.459   3.780
  316SOL    HW2 1848   2.479   2.483   3.934
  317SOL     OW 1849   6.637   2.017   6.908
  317SOL    HW1 1850   6.622   2.094   6.970
  317SOL    HW2 1851   6.725   1.974   6.930
  318SOL     OW 1852   2.798   5.123   0.892
  318SOL    HW1 1853   2.893   5.101   0.870
  318SOL    HW2 1854   2.792   5.216   0.927
  319SOL     OW 1855   1.445   6.568   0.798
  319SOL    HW1 1856   1.502   6.641   0.760
  319SOL    HW2 1857   1.352   6.577   0.764
  320SOL     OW 1858   5.300   4.040   0.696
  320SOL    HW1 1859   5.344   4.129   0.682
  320SOL    HW2 1860   5.368   3.968   0.689
  321SOL     OW 1861   1.924   1.309   1.131
  321SOL    HW1 1862   1.974   1.295   1.046
  321SOL    HW2 1863   1.926   1.406   1.156
  322SOL     OW 1864   3.726   2.889   4.562
  322SOL    HW1 1865   3.766   2.944   4.488
  322SOL    HW2 1866   3.781   2.898   4.644
  323SOL     OW 1867   0.648   4.363   1.944
  323SOL    HW1 1868   0.559   4.388   1.905
  323SOL    HW2 1869   0.721   4.413   1.897
  324SOL     OW 1870   0.280   3.019   4.368
  324SOL    HW1 1871   0.315   3.099   4.418
  324SOL    HW2 1872   0.354   2.976   4.317
  325SOL     OW 1873   2.304   2.717   2.536
  325SOL    HW1 1874   2.298   2.742   2.633
  325SOL    HW2 1875   2.278   2.796   2.480
  326SOL     OW 1876   1.922   4.414   6.304
  326SOL    HW1 1877   1.988   4.358   6.253
  326SOL    HW2 1878   1.950   4.509   6.302
  327SOL     OW 1879   6.027   5.448   5.238
  327SOL    HW1 1880   6.041   5.536   5.192
  327SOL    HW2 1881   6.002   5.379   5.170
  328SOL     OW 1882   3.027   6.063   2.084
  328SOL    HW1 1883   3.063   6.116   2.161
  328SOL    HW2 1884   2.988   5.977   2.117
  329SOL     OW 1885   3.309   3.084   2.431
  329SOL    HW1 1886   3.237   3.143   2.394
  329SOL    HW2 1887   3.320   3.003   2.373
  330SOL     OW 1888   3.583   0.742   1.562
  330SOL    HW1 1889   3.589   0.840   1.542
  330SOL    HW2 1890   3.672   0.699   1.545
  331SOL     OW 1891   5.474   4.812   6.504
  331SOL    HW1 1892   5.465   4.736   6.440
  331SOL    HW2 1893   5.383   4.844   6.532
  332SOL     OW 1894   3.607   1.813   2.935
  332SOL    HW1 1895   3.593   1.768   2.847
  332SOL    HW2 1896   3.611   1.743   3.007
  333SOL     OW 1897   3.659   6.198   6.450
  333SOL    HW1 1898   3.660   6.217   6.352
  333SOL    HW2 1899   3.752   6.193   6.484
  334SOL     OW 1900   4.430   6.597   2.599
  334SOL    HW1 1901   4.492   6.519   2.609
  334SOL    HW2 1902   4.452   6.646   2.515
  335SOL     OW 1903   3.553   6.983   3.228
  335SOL    HW1 1904   3.476   6.959   3.286
  335SOL    HW2 1905   3.638   6.982   3.281
  336SOL     OW 1906   3.276   1.083   4.366
  336SOL    HW1 1907   3.258   1.011   4.433
  336SOL    HW2 1908   3.374   1.101   4.362
  337SOL     OW 1909   6.687   3.927   1.269
  337SOL    HW1 1910   6.750   3.945   1.193
  337SOL    HW2 1911   6.667   3.829   1.272
  338SOL     OW 1912   3.755   2.890   1.153
  338SOL    HW1 1913   3.823   2.908   1.081
  338SOL    HW2 1914   3.795   2.831   1.223
  339SOL     OW 1915   4.440   6.290   3.271
  339SOL    HW1 1916   4.441   6.290   3.171
  339SOL    HW2 1917   4.473   6.378   3.304
  340SOL     OW 1918   4.773   4.204   4.272
  340SOL    HW1 1919   4.752   4.139   4.345
  340SOL    HW2 1920   4.810   4.155   4.194
  341SOL     OW 1921   5.761   4.904   4.978
  341SOL    HW1 1922   5.822   4.852   4.919
  341SOL    HW2 1923   5.666   4.883   4.955
  342SOL     OW 1924   6.474   3.749   0.300
  342SOL    HW1 1925   6.546   3.802   0.343
  342SOL    HW2 1926   6.386   3.796   0.311
  343SOL     OW 1927   3.196   0.531   2.795
  343SOL    HW1 1928   3.287   0.546   2.755
  343SOL    HW2 1929   3.206   0.493   2.887
  344SOL     OW 1930   3.280   5.062   0.189
  344SOL    HW1 1931   3.198   5.046   0.244
  344SOL    HW2 1932   3.274   5.152   0.145
  345SOL     OW 1933   0.617   6.833   5.467
  345SOL    HW1 1934   0.590   6.928   5.482
  345SOL    HW2 1935   0.709   6.818   5.504
  346SOL     OW 1936   1.806   6.998   3.555
  346SOL    HW1 1937   1.816   0.055   3.620
  346SOL    HW2 1938   1.840   6.914   3.595
  347SOL     OW 1939   5.533   6.370   6.223
  347SOL    HW1 1940   5.573   6.440   6.163
  347SOL    HW2 1941   5.442   6.400   6.253
  348SOL     OW 1942   3.629   5.956   3.093
  348SOL    HW1 1943   3.622   5.977   2.996
  348SOL    HW2 1944   3.710   6.001   3.131
  349SOL     OW 1945   1.788   4.912   1.897
  349SOL    HW1 1946   1.804   5.007   1.925
  349SOL    HW2 1947   1.794   4.906   1.797
  350SOL     OW 1948   4.906   3.065   1.336
  350SOL    HW1 1949   4.906   3.060   1.236
  350SOL    HW2 1950   4.949   2.982   1.373
  351SOL     OW 1951   3.159   2.080   0.074
  351SOL    HW1 1952   3.141   2.146   0.147
  351SOL    HW2 1953   3.073   2.039   0.043
  352SOL     OW 1954   3.253   1.022   6.717
  352SOL    HW1 1955   3.179   1.088   6.731
  352SOL    HW2 1956   3.241   0.945   6.780
  353SOL     OW 1957   2.093   6.508   0.588
  353SOL    HW1 1958   2.066   6.493   0.683
  353SOL    HW2 1959   2.186   6.475   0.574
  354SOL     OW 1960   4.762   1.392   1.673
  354SOL    HW1 1961   4.752   1.425   1.767
  354SOL    HW2 1962   4.754   1.293   1.672
  355SOL     OW 1963   0.775   1.746   2.497
  355SOL    HW1 1964   0.763   1.689   2.579
  355SOL    HW2 1965   0.834   1.823   2.518
  356SOL     OW 1966   4.127   5.597   3.249
  356SOL    HW1 1967   4.031   5.614   3.270
  356SOL    HW2 1968   4.182   5.608   3.332
  357SOL     OW 1969   0.777   4.590   5.290
  357SOL    HW1 1970   0.757   4.688   5.300
  357SOL    HW2 1971   0.693   4.542   5.264
  358SOL     OW 1972   5.367   0.750   1.654
  358SOL    HW1 1973   5.344   0.681   1.722
  358SOL    HW2 1974   5.322   0.727   1.567
  359SOL     OW 1975   1.510   1.050   2.062
  359SOL    HW1 1976   1.510   1.150   2.069
  359SOL    HW2 1977   1.559   1.022   1.979
  360SOL     OW 1978   3.847   6.255   0.770
  360SOL    HW1 1979   3.837   6.183   0.701
  360SOL    HW2 1980   3.780   6.241   0.842
  361SOL     OW 1981   4.399   0.528   3.132
  361SOL    HW1 1982   4.302   0.517   3.114
  361SOL    HW2 1983   4.452   0.474   3.066
  362SOL     OW 1984   2.511   3.405   0.853
  362SOL    HW1 1985   2.467   3.345   0.786
  362SOL    HW2 1986   2.541   3.351   0.932
  363SOL     OW 1987   4.631   4.765   4.268
  363SOL    HW1 1988   4.560   4.694   4.268
  363SOL    HW2 1989   4.719   4.723   4.293
  364SOL     OW 1990   1.693   5.592   5.809
  364SOL    HW1 1991   1.613   5.533   5.799
  364SOL    HW2 1992   1.693   5.662   5.738
  365SOL     OW 1993   4.603   6.362   2.610
  365SOL    HW1 1994   4.690   6.375   2.657
  365SOL    HW2 1995   4.545   6.300   2.663
  366SOL     OW 1996   5.604   6.649   6.715
  366SOL    HW1 1997   5.640   6.720   6.653
  366SOL    HW2 1998   5.514   6.677   6.749
  367SOL     OW 1999   5.077   2.287   1.338
  367SOL    HW1 2000   5.139   2.211   1.321
  367SOL    HW2 2001   5.129   2.366   1.369
  368SOL     OW 2002   1.380   4.721   5.348
  368SOL    HW1 2003   1.410   4.668   5.268
  368SOL    HW2 2004   1.443   4.705   5.424
  369SOL     OW 2005   0.278   3.543   1.520
  369SOL    HW1 2006   0.189   3.581   1.494
  369SOL    HW2 2007   0.265   3.475   1.592
  370SOL     OW 2008   3.968   1.291   6.426
  370SOL    HW1 2009   3.949   1.196   6.449
  370SOL    HW2 2010   3.888   1.331   6.381
  371SOL     OW 2011   4.015   2.747   6.606
  371SOL    HW1 2012   4.034   2.755   6.508
  371SOL    HW2 2013   4.087   2.791   6.658
  372SOL     OW 2014   1.217   5.398   5.988
  372SOL    HW1 2015   1.286   5.332   6.019
  372SOL    HW2 2016   1.180   5.447   6.067
  373SOL     OW 2017   6.778   6.846   0.517
  373SOL    HW1 2018   6.795   6.915   0.587
  373SOL    HW2 2019   6.865   6.816   0.478
  374SOL     OW 2020   3.786   1.398   0.997
  374SOL    HW1 2021   3.709   1.453   1.029
  374SOL    HW2 2022   3.821   1.343   1.073
  375SOL     OW 2023   6.805   4.477   2.479
  375SOL    HW1 2024   6.713   4.506   2.506
  375SOL    HW2 2025   6.800   4.388   2.434
  376SOL     OW 2026   2.205   2.513   4.312
  376SOL    HW1 2027   2.274   2.531   4.382
  376SOL    HW2 2028   2.116   2.546   4.344
  377SOL     OW 2029   5.109   1.689   4.191
  377SOL    HW1 2030   5.071   1.773   4.231
  377SOL    HW2 2031   5.037   1.621   4.180
  378SOL     OW 2032   4.857   2.566   4.424
  378SOL    HW1 2033   4.886   2.658   4.396
  378SOL    HW2 2034   4.793   2.574   4.501
  379SOL     OW 2035   6.420   3.483   1.247
  379SOL    HW1 2036   6.341   3.453   1.194
  379SOL    HW2 2037   6.404   3.465   1.344
  380SOL     OW 2038   0.846   1.922   0.327
  380SOL    HW1 2039   0.845   1.936   0.228
  380SOL    HW2 2040   0.760   1.955   0.366
  381SOL     OW 2041   3.179   3.900   0.613
  381SOL    HW1 2042   3.215   3.922   0.522
  381SOL    HW2 2043   3.090   3.944   0.624
  382SOL     OW 2044   2.345   5.629   1.192
  382SOL    HW1 2045   2.255   5.586   1.206
  382SOL    HW2 2046   2.344   5.721   1.230
  383SOL     OW 2047   6.506   2.357   6.695
  383SOL    HW1 2048   6.415   2.392   6.719
  383SOL    HW2 2049   6.565   2.433   6.668
  384SOL     OW 2050   1.698   5.720   5.073
  384SOL    HW1 2051   1.681   5.714   4.974
  384SOL    HW2 2052   1.739   5.635   5.105
  385SOL     OW 2053   4.673   5.351   1.298
  385SOL    HW1 2054   4.693   5.376   1.392
  385SOL    HW2 2055   4.676   5.432   1.240
  386SOL     OW 2056   2.861   6.391   5.231
  386SOL    HW1 2057   2.783   6.329   5.245
  386SOL    HW2 2058   2.930   6.345   5.175
  387SOL     OW 2059   6.860   0.286   5.657
  387SOL    HW1 2060   6.952   0.251   5.675
  387SOL    HW2 2061   6.847   0.295   5.559
  388SOL     OW 2062   7.004   1.964   5.139
  388SOL    HW1 2063   0.061   2.028   5.150
  388SOL    HW2 2064   7.006   1.926   5.046
  389SOL     OW 2065   4.516   4.525   1.387
  389SOL    HW1 2066   4.432   4.558   1.344
  389SOL    HW2 2067   4.495   4.493   1.480
  390SOL     OW 2068   4.109   2.311   0.337
  390SOL    HW1 2069   4.068   2.270   0.418
  390SOL    HW2 2070   4.196   2.266   0.317
  391SOL     OW 2071   3.487   3.894   3.777
  391SOL    HW1 2072   3.477   3.796   3.795
  391SOL    HW2 2073   3.419   3.944   3.831
  392SOL     OW 2074   1.438   3.661   1.583
  392SOL    HW1 2075   1.363   3.614   1.538
  392SOL    HW2 2076   1.506   3.688   1.514
  393SOL     OW 2077   1.172   5.030   1.035
  393SOL    HW1 2078   1.120   5.108   1.070
  393SOL    HW2 2079   1.119   4.946   1.047
  394SOL     OW 2080   6.222   1.084   6.318
  394SOL    HW1 2081   6.241   1.155   6.386
  394SOL    HW2 2082   6.286   1.008   6.331
  395SOL     OW 2083   6.019   4.894   0.914
  395SOL    HW1 2084   5.968   4.903   0.829
  395SOL    HW2 2085   6.106   4.944   0.906
  396SOL     OW 2086   1.610   6.987   1.311
  396SOL    HW1 2087   1.560   6.903   1.288
  396SOL    HW2 2088   1.557   0.020   1.378
  397SOL     OW 2089   3.756   1.772   5.270
  397SOL    HW1 2090   3.783   1.765   5.174
  397SOL    HW2 2091   3.736   1.681   5.306
  398SOL     OW 2092   1.301   0.736   3.366
  398SOL    HW1 2093   1.239   0.699   3.296
  398SOL    HW2 2094   1.281   0.832   3.381
  399SOL     OW 2095   5.629   5.982   4.013
  399SOL    HW1 2096   5.578   6.048   4.067
  399SOL    HW2 2097   5.719   5.966   4.054
  400SOL     OW 2098   5.813   6.792   4.243
  400SOL    HW1 2099   5.826   6.750   4.333
  400SOL    HW2 2100   5.779   6.885   4.254
  401SOL     OW 2101   0.590   5.763   5.572
  401SOL    HW1 2102   0.576   5.855   5.535
  401SOL    HW2 2103   0.654   5.713   5.513
  402SOL     OW 2104   5.753   1.776   3.320
  402SOL    HW1 2105   5.716   1.695   3.275
  402SOL    HW2 2106   5.833   1.751   3.375
  403SOL     OW 2107   2.966   1.396   5.343
  403SOL    HW1 2108   3.052   1.441   5.319
  403SOL    HW2 2109   2.896   1.417   5.275
  404SOL     OW 2110   3.858   5.703   3.237
  404SOL    HW1 2111   3.820   5.786   3.277
  404SOL    HW2 2112   3.785   5.648   3.197
  405SOL     OW 2113   2.352   4.713   4.325
  405SOL    HW1 2114   2.332   4.808   4.305
  405SOL    HW2 2115   2.410   4.708   4.406
  406SOL     OW 2116   0.391   6.766   6.427
  406SOL    HW1 2117   0.457   6.840   6.423
  406SOL    HW2 2118   0.359   6.744   6.335
  407SOL     OW 2119   2.236   2.846   3.892
  407SOL    HW1 2120   2.305   2.812   3.827
  407SOL    HW2 2121   2.260   2.815   3.984
  408SOL     OW 2122   1.935   1.688   3.249
  408SOL    HW1 2123   1.921   1.612   3.186
  408SOL    HW2 2124   1.848   1.711   3.294
  409SOL     OW 2125   0.623   3.224   2.224
  409SOL    HW1 2126   0.554   3.152   2.225
  409SOL    HW2 2127   0.614   3.278   2.140
  410SOL     OW 2128   1.502   2.039   1.768
  410SOL    HW1 2129   1.594   2.003   1.781
  410SOL    HW2 2130   1.478   2.097   1.847
  411SOL     OW 2131   0.276   2.527   1.276
  411SOL    HW1 2132   0.204   2.582   1.318
  411SOL    HW2 2133   0.306   2.456   1.340
  412SOL     OW 2134   1.360   4.933   2.569
  412SOL    HW1 2135   1.419   5.014   2.562
  412SOL    HW2 2136   1.407   4.855   2.529
  413SOL     OW 2137   6.068   6.106   2.186
  413SOL    HW1 2138   6.052   6.180   2.120
  413SOL    HW2 2139   6.160   6.115   2.224
  414SOL     OW 2140   1.709   6.664   3.114
  414SOL    HW1 2141   1.727   6.691   3.209
  414SOL    HW2 2142   1.687   6.746   3.060
  415SOL     OW 2143   5.910   1.279   6.839
  415SOL    HW1 2144   5.953   1.190   6.849
  415SOL    HW2 2145   5.979   1.351   6.852
  416SOL     OW 2146   5.390   3.773   5.639
  416SOL    HW1 2147   5.412   3.721   5.722
  416SOL    HW2 2148   5.401   3.713   5.559
  417SOL     OW 2149   1.745   2.054   6.720
  417SOL    HW1 2150   1.788   2.091   6.639
  417SOL    HW2 2151   1.812   2.004   6.774
  418SOL     OW 2152   3.762   0.319   4.797
  418SOL    HW1 2153   3.726   0.280   4.882
  418SOL    HW2 2154   3.858   0.344   4.810
  419SOL     OW 2155   6.686   0.473   0.129
  419SOL    HW1 2156   6.611   0.410   0.111
  419SOL    HW2 2157   6.763   0.423   0.170
  420SOL     OW 2158   3.946   0.040   0.542
  420SOL    HW1 2159   3.894   0.071   0.622
  420SOL    HW2 2160   3.939   6.959   0.534
  421SOL     OW 2161   4.593   4.419   2.163
  421SOL    HW1 2162   4.683   4.436   2.123
  421SOL    HW2 2163   4.538   4.365   2.100
  422SOL     OW 2164   5.301   2.714   1.970
  422SOL    HW1 2165   5.394   2.751   1.969
  422SOL    HW2 2166   5.235   2.789   1.970
  423SOL     OW 2167   2.835   1.182   6.221
  423SOL    HW1 2168   2.876   1.103   6.266
  423SOL    HW2 2169   2.758   1.215   6.275
  424SOL     OW 2170   1.238   3.709   4.099
  424SOL    HW1 2171   1.238   3.632   4.035
  424SOL    HW2 2172   1.158   3.767   4.081
  425SOL     OW 2173   3.874   1.086   0.073
  425SOL    HW1 2174   3.858   1.127   7.002
  425SOL    HW2 2175   3.894   1.157   0.140
  426SOL     OW 2176   2.736   1.915   4.033
  426SOL    HW1 2177   2.724   2.008   4.068
  426SOL    HW2 2178   2.832   1.888   4.042
  427SOL     OW 2179   4.632   1.807   2.940
  427SOL    HW1 2180   4.671   1.718   2.965
  427SOL    HW2 2181   4.663   1.876   3.006
  428SOL     OW 2182   3.016   2.208   5.990
  428SOL    HW1 2183   3.009   2.242   6.084
  428SOL    HW2 2184   2.979   2.276   5.927
  429SOL     OW 2185   6.743   5.574   4.514
  429SOL    HW1 2186   6.778   5.487   4.478
  429SOL    HW2 2187   6.677   5.612   4.449
  430SOL     OW 2188   1.644   0.253   4.172
  430SOL    HW1 2189   1.713   0.183   4.153
  430SOL    HW2 2190   1.674   0.340   4.134
  431SOL     OW 2191   2.533   1.812   1.788
  431SOL    HW1 2192   2.497   1.900   1.819
  431SOL    HW2 2193   2.457   1.753   1.762
  432SOL     OW 2194   4.205   1.833   1.271
  432SOL    HW1 2195   4.213   1.863   1.366
  432SOL    HW2 2196   4.128   1.770   1.263
  433SOL     OW 2197   1.864   4.664   0.827
  433SOL    HW1 2198   1.897   4.645   0.735
  433SOL    HW2 2199   1.871   4.582   0.883
  434SOL     OW 2200   4.718   4.643   3.259
  434SOL    HW1 2201   4.701   4.719   3.196
  434SOL    HW2 2202   4.717   4.676   3.353
  435SOL     OW 2203   3.885   2.967   5.674
  435SOL    HW1 2204   3.974   2.989   5.633
  435SOL    HW2 2205   3.889   2.988   5.772
  436SOL     OW 2206   5.123   6.481   2.588
  436SOL    HW1 2207   5.197   6.489   2.520
  436SOL    HW2 2208   5.106   6.571   2.628
  437SOL     OW 2209   6.685   1.111   4.927
  437SOL    HW1 2210   6.688   1.130   4.829
  437SOL    HW2 2211   6.613   1.165   4.969
  438SOL     OW 2212   0.666   4.651   2.384
  438SOL    HW1 2213   0.704   4.562   2.409
  438SOL    HW2 2214   0.730   4.723   2.410
  439SOL     OW 2215   0.288   0.815   4.919
  439SOL    HW1 2216   0.273   0.749   4.845
  439SOL    HW2 2217   0.298   0.906   4.880
  440SOL     OW 2218   4.168   1.552   0.424
  440SOL    HW1 2219   4.192   1.596   0.511
  440SOL    HW2 2220   4.168   1.453   0.435
  441SOL     OW 2221   0.748   4.640   1.767
  441SOL    HW1 2222   0.761   4.712   1.834
  441SOL    HW2 2223   0.833   4.587   1.758
  442SOL     OW 2224   4.777   3.412   5.331
  442SOL    HW1 2225   4.725   3.474   5.273
  442SOL    HW2 2226   4.875   3.430   5.321
  443SOL     OW 2227   4.812   2.936   2.658
  443SOL    HW1 2228   4.766   3.008   2.709
  443SOL    HW2 2229   4.882   2.976   2.599
  444SOL     OW 2230   4.688   1.498   1.918
  444SOL    HW1 2231   4.671   1.495   2.016
  444SOL    HW2 2232   4.739   1.581   1.895
  445SOL     OW 2233   1.534   4.885   2.982
  445SOL    HW1 2234   1.502   4.949   3.052
  445SOL    HW2 2235   1.455   4.848   2.932
  446SOL     OW 2236   6.256   0.001   1.416
  446SOL    HW1 2237   6.285   6.959   1.490
  446SOL    HW2 2238   6.203   0.077   1.454
  447SOL     OW 2239   5.825   4.115   0.882
  447SOL    HW1 2240   5.752   4.176   0.914
  447SOL    HW2 2241   5.910   4.138   0.929
  448SOL     OW 2242   4.024   6.668   4.068
  448SOL    HW1 2243   3.976   6.614   3.998
  448SOL    HW2 2244   4.036   6.611   4.150
  449SOL     OW 2245   1.657   4.169   4.333
  449SOL    HW1 2246   1.619   4.237   4.395
  449SOL    HW2 2247   1.741   4.131   4.373
  450SOL     OW 2248   6.392   4.444   3.183
  450SOL    HW1 2249   6.405   4.352   3.219
  450SOL    HW2 2250   6.471   4.500   3.206
  451SOL     OW 2251   1.024   2.108   0.497
  451SOL    HW1 2252   0.959   2.044   0.456
  451SOL    HW2 2253   1.114   2.063   0.504
  452SOL     OW 2254   5.096   5.290   3.006
  452SOL    HW1 2255   5.033   5.366   3.022
  452SOL    HW2 2256   5.108   5.237   3.090
  453SOL     OW 2257   4.019   1.352   0.173
  453SOL    HW1 2258   4.099   1.408   0.151
  453SOL    HW2 2259   3.936   1.407   0.159
  454SOL     OW 2260   7.016   3.234   5.404
  454SOL    HW1 2261   6.953   3.307   5.374
  454SOL    HW2 2262   7.016   3.161   5.336
  455SOL     OW 2263   5.322   5.376   6.331
  455SOL    HW1 2264   5.284   5.455   6.380
  455SOL    HW2 2265   5.273   5.293   6.359
  456SOL     OW 2266   2.770   1.022   2.782
  456SOL    HW1 2267   2.705   1.032   2.858
  456SOL    HW2 2268   2.851   1.078   2.799
  457SOL     OW 2269   2.463   6.594   7.016
  457SOL    HW1 2270   2.525   6.673   0.004
  457SOL    HW2 2271   2.517   6.510   7.018
  458SOL     OW 2272   3.729   1.419   2.447
  458SOL    HW1 2273   3.757   1.383   2.536
  458SOL    HW2 2274   3.726   1.519   2.451
  459SOL     OW 2275   3.466   0.567   3.512
  459SOL    HW1 2276   3.379   0.604   3.479
  459SOL    HW2 2277   3.458   0.469   3.527
  460SOL     OW 2278   0.628   1.503   6.414
  460SOL    HW1 2279   0.667   1.492   6.505
  460SOL    HW2 2280   0.606   1.600   6.399
  461SOL     OW 2281   1.281   5.492   5.596
  461SOL    HW1 2282   1.312   5.502   5.502
  461SOL    HW2 2283   1.181   5.487   5.598
  462SOL     OW 2284   3.387   4.141   4.622
  462SOL    HW1 2285   3.298   4.155   4.665
  462SOL    HW2 2286   3.460   4.157   4.688
  463SOL     OW 2287   5.172   5.961   3.956
  463SOL    HW1 2288   5.080   5.924   3.971
  463SOL    HW2 2289   5.239   5.894   3.986
  464SOL     OW 2290   4.047   5.324   6.080
  464SOL    HW1 2291   3.954   5.290   6.066
  464SOL    HW2 2292   4.105   5.296   6.003
  465SOL     OW 2293   0.783   4.101   0.222
  465SOL    HW1 2294   0.772   4.149   0.134
  465SOL    HW2 2295   0.803   4.005   0.205
  466SOL     OW 2296   3.884   5.171   4.332
  466SOL    HW1 2297   3.964   5.112   4.318
  466SOL    HW2 2298   3.832   5.137   4.410
  467SOL     OW 2299   6.206   0.181   2.397
  467SOL    HW1 2300   6.142   0.256   2.380
  467SOL    HW2 2301   6.246   0.190   2.488
  468SOL     OW 2302   2.605   5.973   6.323
  468SOL    HW1 2303   2.636   5.884   6.358
  468SOL    HW2 2304   2.601   6.039   6.398
  469SOL     OW 2305   2.936   4.787   4.699
  469SOL    HW1 2306   2.993   4.784   4.781
  469SOL    HW2 2307   2.878   4.705   4.696
  470SOL     OW 2308   2.054   4.782   2.491
  470SOL    HW1 2309   1.954   4.784   2.489
  470SOL    HW2 2310   2.089   4.870   2.522
  471SOL     OW 2311   1.699   2.317   4.306
  471SOL    HW1 2312   1.620   2.351   4.357
  471SOL    HW2 2313   1.778   2.311   4.368
  472SOL     OW 2314   5.442   3.972   6.762
  472SOL    HW1 2315   5.492   3.949   6.679
  472SOL    HW2 2316   5.504   4.021   6.825
  473SOL     OW 2317   5.844   3.314   2.578
  473SOL    HW1 2318   5.819   3.285   2.671
  473SOL    HW2 2319   5.762   3.349   2.532
  474SOL     OW 2320   4.623   5.669   4.423
  474SOL    HW1 2321   4.558   5.593   4.410
  474SOL    HW2 2322   4.577   5.745   4.468
  475SOL     OW 2323   5.986   1.466   0.462
  475SOL    HW1 2324   6.001   1.538   0.395
  475SOL    HW2 2325   5.889   1.466   0.489
  476SOL     OW 2326   1.361   3.904   6.733
  476SOL    HW1 2327   1.269   3.943   6.735
  476SOL    HW2 2328   1.373   3.851   6.649
  477SOL     OW 2329   1.387   4.971   3.216
  477SOL    HW1 2330   1.289   4.950   3.221
  477SOL    HW2 2331   1.400   5.070   3.213
  478SOL     OW 2332   5.597   5.912   3.049
  478SOL    HW1 2333   5.668   5.958   3.103
  478SOL    HW2 2334   5.538   5.859   3.110
  479SOL     OW 2335   3.211   4.066   2.882
  479SOL    HW1 2336   3.180   4.060   2.976
  479SOL    HW2 2337   3.138   4.036   2.820
  480SOL     OW 2338   1.000   0.421   2.767
  480SOL    HW1 2339   0.945   0.494   2.809
  480SOL    HW2 2340   1.093   0.454   2.752
  481SOL     OW 2341   6.630   0.059   1.038
  481SOL    HW1 2342   6.552   0.004   1.068
  481SOL    HW2 2343   6.704   7.017   1.009
  482SOL     OW 2344   4.292   4.936   2.595
  482SOL    HW1 2345   4.300   5.030   2.562
  482SOL    HW2 2346   4.244   4.880   2.527
  483SOL     OW 2347   5.711   1.846   4.160
  483SOL    HW1 2348   5.784   1.778   4.156
  483SOL    HW2 2349   5.707   1.896   4.074
  484SOL     OW 2350   2.260   4.953   3.569
  484SOL    HW1 2351   2.255   4.944   3.668
  484SOL    HW2 2352   2.247   5.049   3.543
  485SOL     OW 2353   5.607   2.322   1.572
  485SOL    HW1 2354   5.621   2.360   1.663
  485SOL    HW2 2355   5.627   2.392   1.503
  486SOL     OW 2356   6.079   6.464   5.702
  486SOL    HW1 2357   6.081   6.533   5.629
  486SOL    HW2 2358   6.095   6.374   5.663
  487SOL     OW 2359   0.424   0.502   6.588
  487SOL    HW1 2360   0.456   0.590   6.623
  487SOL    HW2 2361   0.365   0.517   6.509
  488SOL     OW 2362   2.045   5.566   3.084
  488SOL    HW1 2363   2.049   5.649   3.027
  488SOL    HW2 2364   2.016   5.590   3.176
  489SOL     OW 2365   1.947   5.863   5.544
  489SOL    HW1 2366   1.869   5.835   5.601
  489SOL    HW2 2367   1.961   5.962   5.553
  490SOL     OW 2368   1.127   3.581   4.672
  490SOL    HW1 2369   1.066   3.547   4.744
  490SOL    HW2 2370   1.184   3.654   4.709
  491SOL     OW 2371   6.546   2.704   0.827
  491SOL    HW1 2372   6.526   2.790   0.875
  491SOL    HW2 2373   6.600   2.724   0.745
  492SOL     OW 2374   1.448   3.090   5.133
  492SOL    HW1 2375   1.348   3.093   5.122
  492SOL    HW2 2376   1.482   3.001   5.101
  493SOL     OW 2377   1.572   5.230   4.565
  493SOL    HW1 2378   1.638   5.287   4.614
  493SOL    HW2 2379   1.490   5.283   4.546
  494SOL     OW 2380   2.651   0.339   4.087
  494SOL    HW1 2381   2.604   0.334   4.175
  494SOL    HW2 2382   2.745   0.371   4.100
  495SOL     OW 2383   3.739   3.995   6.430
  495SOL    HW1 2384   3.716   3.926   6.498
  495SOL    HW2 2385   3.659   4.051   6.410
  496SOL     OW 2386   5.401   1.173   3.263
  496SOL    HW1 2387   5.495   1.145   3.282
  496SOL    HW2 2388   5.383   1.261   3.308
  497SOL     OW 2389   4.769   1.877   0.364
  497SOL    HW1 2390   4.699   1.892   0.434
  497SOL    HW2 2391   4.752   1.790   0.318
  498SOL     OW 2392   0.261   0.688   1.620
  498SOL    HW1 2393   0.314   0.771   1.633
  498SOL    HW2 2394   0.195   0.678   1.695
  499SOL     OW 2395   2.961   6.027   0.221
  499SOL    HW1 2396   2.928   5.980   0.303
  499SOL    HW2 2397   3.046   6.075   0.242
  500SOL     OW 2398   5.444   1.659   6.624
  500SOL    HW1 2399   5.532   1.614   6.610
  500SOL    HW2 2400   5.390   1.654   6.539
  501SOL     OW 2401   1.324   1.083   5.239
  501SOL    HW1 2402   1.337   1.171   5.193
  501SOL    HW2 2403   1.411   1.052   5.278
  502SOL     OW 2404   2.491   4.572   6.852
  502SOL    HW1 2405   2.476   4.495   6.914
  502SOL    HW2 2406   2.588   4.577   6.828
  503SOL     OW 2407   3.557   5.829   0.893
  503SOL    HW1 2408   3.608   5.764   0.837
  503SOL    HW2 2409   3.582   5.922   0.867
  504SOL     OW 2410   6.621   6.066   1.644
  504SOL    HW1 2411   6.658   6.059   1.737
  504SOL    HW2 2412   6.555   6.141   1.639
  505SOL     OW 2413   5.898   5.040   5.155
  505SOL    HW1 2414   5.857   4.976   5.091
  505SOL    HW2 2415   5.829   5.073   5.219
  506SOL     OW 2416   3.417   4.899   3.388
  506SOL    HW1 2417   3.432   4.941   3.299
  506SOL    HW2 2418   3.327   4.857   3.391
  507SOL     OW 2419   3.046   0.929   1.507
  507SOL    HW1 2420   3.005   0.861   1.568
  507SOL    HW2 2421   2.994   1.015   1.513
  508SOL     OW 2422   0.445   4.407   3.485
  508SOL    HW1 2423   0.448   4.310   3.461
  508SOL    HW2 2424   0.504   4.459   3.423
  509SOL     OW 2425   3.980   6.774   6.105
  509SOL    HW1 2426   4.028   6.689   6.130
  509SOL    HW2 2427   4.010   6.804   6.014
  510SOL     OW 2428   6.414   4.041   0.127
  510SOL    HW1 2429   6.510   4.058   0.108
  510SOL    HW2 2430   6.357   4.095   0.064
  511SOL     OW 2431   0.794   1.331   0.397
  511SOL    HW1 2432   0.872   1.349   0.338
  511SOL    HW2 2433   0.746   1.249   0.366
  512SOL     OW 2434   0.238   2.456   3.775
  512SOL    HW1 2435   0.219   2.530   3.839
  512SOL    HW2 2436   0.282   2.493   3.693
  513SOL     OW 2437   5.203   0.396   3.231
  513SOL    HW1 2438   5.112   0.419   3.264
  513SOL    HW2 2439   5.263   0.378   3.309
  514SOL     OW 2440   4.915   0.892   5.384
  514SOL    HW1 2441   4.843   0.856   5.443
  514SOL    HW2 2442   4.875   0.955   5.317
  515SOL     OW 2443   3.688   0.403   6.934
  515SOL    HW1 2444   3.768   0.406   6.875
  515SOL    HW2 2445   3.674   0.310   6.968
  516SOL     OW 2446   2.108   6.140   2.286
  516SOL    HW1 2447   2.088   6.042   2.291
  516SOL    HW2 2448   2.207   6.153   2.277
  517SOL     OW 2449   3.093   5.165   1.779
  517SOL    HW1 2450   3.159   5.116   1.837
  517SOL    HW2 2451   3.137   5.245   1.738
  518SOL     OW 2452   2.010   5.036   4.363
  518SOL    HW1 2453   1.992   5.122   4.412
  518SOL    HW2 2454   2.100   5.002   4.389
  519SOL     OW 2455   0.011   6.784   2.465
  519SOL    HW1 2456   7.017   6.700   2.518
  519SOL    HW2 2457   0.004   6.763   2.367
  520SOL     OW 2458   2.559   4.493   0.652
  520SOL    HW1 2459   2.653   4.504   0.686
  520SOL    HW2 2460   2.512   4.424   0.706
  521SOL     OW 2461   6.510   5.929   4.887
  521SOL    HW1 2462   6.558   6.006   4.844
  521SOL    HW2 2463   6.553   5.843   4.859
  522SOL     OW 2464   4.014   4.060   0.052
  522SOL    HW1 2465   4.006   4.075   0.151
  522SOL    HW2 2466   4.072   4.130   0.012
  523SOL     OW 2467   1.288   6.939   0.239
  523SOL    HW1 2468   1.360   7.000   0.207
  523SOL    HW2 2469   1.261   6.877   0.165
  524SOL     OW 2470   6.880   1.485   0.816
  524SOL    HW1 2471   6.907   1.573   0.854
  524SOL    HW2 2472   6.928   1.469   0.730
  525SOL     OW 2473   0.968   2.812   4.035
  525SOL    HW1 2474   0.985   2.835   3.939
  525SOL    HW2 2475   1.021   2.730   4.059
  526SOL     OW 2476   4.342   6.979   4.114
  526SOL    HW1 2477   4.351   6.962   4.213
  526SOL    HW2 2478   4.341   0.060   4.098
  527SOL     OW 2479   0.544   1.673   0.754
  527SOL    HW1 2480   0.621   1.712   0.805
  527SOL    HW2 2481   0.541   1.574   0.767
  528SOL     OW 2482   6.682   2.904   4.611
  528SOL    HW1 2483   6.627   2.894   4.527
  528SOL    HW2 2484   6.678   2.820   4.664
  529SOL     OW 2485   1.917   0.007   6.915
  529SOL    HW1 2486   1.822   7.002   6.896
  529SOL    HW2 2487   1.949   6.974   6.995
  530SOL     OW 2488   3.576   4.730   1.303
  530SOL    HW1 2489   3.596   4.749   1.400
  530SOL    HW2 2490   3.477   4.724   1.290
  531SOL     OW 2491   1.257   6.820   0.593
  531SOL    HW1 2492   1.339   6.874   0.575
  531SOL    HW2 2493   1.267   6.729   0.552
  532SOL     OW 2494   1.765   1.883   5.790
  532SOL    HW1 2495   1.675   1.907   5.753
  532SOL    HW2 2496   1.768   1.907   5.887
  533SOL     OW 2497   4.040   0.406   4.111
  533SOL    HW1 2498   4.048   0.349   4.029
  533SOL    HW2 2499   4.125   0.457   4.125
  534SOL     OW 2500   1.846   4.165   1.797
  534SOL    HW1 2501   1.921   4.099   1.790
  534SOL    HW2 2502   1.837   4.213   1.710
  535SOL     OW 2503   4.885   3.441   4.396
  535SOL    HW1 2504   4.840   3.387   4.326
  535SOL    HW2 2505   4.872   3.398   4.485
  536SOL     OW 2506   6.184   6.644   1.886
  536SOL    HW1 2507   6.243   6.570   1.852
  536SOL    HW2 2508   6.099   6.605   1.920
  537SOL     OW 2509   2.910   1.984   2.682
  537SOL    HW1 2510   3.002   2.011   2.711
  537SOL    HW2 2511   2.890   2.025   2.593
  538SOL     OW 2512   3.593   5.141   4.624
  538SOL    HW1 2513   3.526   5.115   4.694
  538SOL    HW2 2514   3.548   5.143   4.535
  539SOL     OW 2515   1.317   0.346   6.486
  539SOL    HW1 2516   1.246   0.363   6.418
  539SOL    HW2 2517   1.308   0.412   6.561
  540SOL     OW 2518   1.481   0.432   4.804
  540SOL    HW1 2519   1.472   0.532   4.797
  540SOL    HW2 2520   1.398   0.394   4.844
  541SOL     OW 2521   4.941   5.798   4.023
  541SOL    HW1 2522   4.923   5.720   3.963
  541SOL    HW2 2523   4.863   5.813   4.083
  542SOL     OW 2524   3.826   6.705   5.815
  542SOL    HW1 2525   3.924   6.723   5.825
  542SOL    HW2 2526   3.777   6.746   5.891
  543SOL     OW 2527   6.301   2.341   3.641
  543SOL    HW1 2528   6.227   2.339   3.707
  543SOL    HW2 2529   6.353   2.256   3.645
  544SOL     OW 2530   1.365   3.047   1.565
  544SOL    HW1 2531   1.382   3.103   1.646
  544SOL    HW2 2532   1.431   3.071   1.494
  545SOL     OW 2533   6.681   6.386   1.051
  545SOL    HW1 2534   6.662   6.309   0.990
  545SOL    HW2 2535   6.753   6.360   1.115
  546SOL     OW 2536   0.054   3.824   1.922
  546SOL    HW1 2537   0.049   3.771   2.007
  546SOL    HW2 2538   0.134   3.884   1.924
  547SOL     OW 2539   5.166   6.987   6.342
  547SOL    HW1 2540   5.214   0.057   6.343
  547SOL    HW2 2541   5.068   7.004   6.332
  548SOL     OW 2542   3.632   2.508   6.863
  548SOL    HW1 2543   3.623   2.482   6.960
  548SOL    HW2 2544   3.589   2.597   6.849
  549SOL     OW 2545   5.588   1.490   2.092
  549SOL    HW1 2546   5.552   1.541   2.013
  549SOL    HW2 2547   5.654   1.548   2.141
  550SOL     OW 2548   7.013   5.940   3.225
  550SOL    HW1 2549   0.019   5.988   3.309
  550SOL    HW2 2550   6.940   5.990   3.178
  551SOL     OW 2551   5.967   0.365   0.649
  551SOL    HW1 2552   5.883   0.359   0.702
  551SOL    HW2 2553   6.009   0.455   0.664
  552SOL     OW 2554   0.800   6.623   5.258
  552SOL    HW1 2555   0.742   6.584   5.330
  552SOL    HW2 2556   0.783   6.575   5.172
  553SOL     OW 2557   3.541   1.993   6.701
  553SOL    HW1 2558   3.613   2.063   6.693
  553SOL    HW2 2559   3.507   1.992   6.795
  554SOL     OW 2560   6.367   6.124   0.830
  554SOL    HW1 2561   6.322   6.209   0.856
  554SOL    HW2 2562   6.299   6.055   0.807
  555SOL     OW 2563   2.225   3.768   5.264
  555SOL    HW1 2564   2.207   3.709   5.184
  555SOL    HW2 2565   2.298   3.832   5.241
  556SOL     OW 2566   5.874   0.139   3.667
  556SOL    HW1 2567   5.902   0.149   3.571
  556SOL    HW2 2568   5.885   0.044   3.696
  557SOL     OW 2569   5.648   4.345   6.859
  557SOL    HW1 2570   5.731   4.323   6.810
  557SOL    HW2 2571   5.584   4.392   6.798
  558SOL     OW 2572   3.485   3.619   2.710
  558SOL    HW1 2573   3.386   3.629   2.712
  558SOL    HW2 2574   3.511   3.537   2.760
  559SOL     OW 2575   6.486   0.239   5.943
  559SOL    HW1 2576   6.583   0.233   5.969
  559SOL    HW2 2577   6.468   0.175   5.868
  560SOL     OW 2578   6.676   3.073   4.304
  560SOL    HW1 2579   6.660   3.103   4.398
  560SOL    HW2 2580   6.640   3.142   4.240
  561SOL     OW 2581   0.638   2.985   0.525
  561SOL    HW1 2582   0.663   2.904   0.578
  561SOL    HW2 2583   0.711   3.053   0.530
  562SOL     OW 2584   4.467   6.401   4.620
  562SOL    HW1 2585   4.368   6.396   4.639
  562SOL    HW2 2586   4.516   6.345   4.687
  563SOL     OW 2587   1.810   0.685   4.032
  563SOL    HW1 2588   1.783   0.755   3.965
  563SOL    HW2 2589   1.755   0.603   4.018
  564SOL     OW 2590   5.879   2.050   6.221
  564SOL    HW1 2591   5.957   2.038   6.284
  564SOL    HW2 2592   5.856   2.147   6.215
  565SOL     OW 2593   3.696   3.615   3.427
  565SOL    HW1 2594   3.619   3.552   3.418
  565SOL    HW2 2595   3.718   3.653   3.337
  566SOL     OW 2596   3.223   0.840   3.629
  566SOL    HW1 2597   3.140   0.862   3.579
  566SOL    HW2 2598   3.256   0.921   3.677
  567SOL     OW 2599   2.915   2.836   5.679
  567SOL    HW1 2600   2.918   2.901   5.756
  567SOL    HW2 2601   2.821   2.824   5.649
  568SOL     OW 2602   0.469   6.314   0.490
  568SOL    HW1 2603   0.498   6.399   0.446
  568SOL    HW2 2604   0.534   6.290   0.562
  569SOL     OW 2605   6.167   3.777   0.065
  569SOL    HW1 2606   6.095   3.780   0.134
  569SOL    HW2 2607   6.235   3.847   0.086
  570SOL     OW 2608   2.814   0.845   6.264
  570SOL    HW1 2609   2.785   0.883   6.176
  570SOL    HW2 2610   2.881   0.773   6.249
  571SOL     OW 2611   2.292   4.499   1.424
  571SOL    HW1 2612   2.301   4.408   1.465
  571SOL    HW2 2613   2.383   4.538   1.409
  572SOL     OW 2614   2.859   0.748   4.973
  572SOL    HW1 2615   2.893   0.840   4.995
  572SOL    HW2 2616   2.789   0.722   5.040
  573SOL     OW 2617   0.360   0.854   5.326
  573SOL    HW1 2618   0.305   0.787   5.376
  573SOL    HW2 2619   0.299   0.922   5.284
  574SOL     OW 2620   1.937   1.542   6.208
  574SOL    HW1 2621   1.989   1.620   6.243
  574SOL    HW2 2622   1.943   1.541   6.108
  575SOL     OW 2623   4.205   3.754   0.025
  575SOL    HW1 2624   4.129   3.712   0.075
  575SOL    HW2 2625   4.242   3.830   0.079
  576SOL     OW 2626   2.068   2.062   2.723
  576SOL    HW1 2627   2.154   2.025   2.686
  576SOL    HW2 2628   2.018   2.109   2.650
  577SOL     OW 2629   0.513   1.038   1.216
  577SOL    HW1 2630   0.493   1.136   1.216
  577SOL    HW2 2631   0.461   0.994   1.289
  578SOL     OW 2632   3.602   0.331   6.628
  578SOL    HW1 2633   3.546   0.331   6.545
  578SOL    HW2 2634   3.689   0.285   6.609
  579SOL     OW 2635   2.053   3.961   1.791
  579SOL    HW1 2636   2.074   3.915   1.704
  579SOL    HW2 2637   2.137   3.970   1.844
  580SOL     OW 2638   4.891   5.393   4.843
  580SOL    HW1 2639   4.858   5.396   4.938
  580SOL    HW2 2640   4.817   5.419   4.782
  581SOL     OW 2641   2.111   2.486   5.051
  581SOL    HW1 2642   2.071   2.398   5.026
  581SOL    HW2 2643   2.151   2.480   5.143
  582SOL     OW 2644   5.129   4.631   3.975
  582SOL    HW1 2645   5.079   4.690   3.911
  582SOL    HW2 2646   5.205   4.683   4.015
  583SOL     OW 2647   3.768   6.108   5.787
  583SOL    HW1 2648   3.683   6.159   5.778
  583SOL    HW2 2649   3.826   6.151   5.856
  584SOL     OW 2650   3.913   0.828   5.651
  584SOL    HW1 2651   3.820   0.853   5.681
  584SOL    HW2 2652   3.915   0.731   5.628
  585SOL     OW 2653   3.591   0.424   1.146
  585SOL    HW1 2654   3.585   0.520   1.120
  585SOL    HW2 2655   3.498   0.387   1.159
  586SOL     OW 2656   3.822   0.658   0.605
  586SOL    HW1 2657   3.752   0.723   0.633
  586SOL    HW2 2658   3.856   0.681   0.514
  587SOL     OW 2659   5.084   1.862   2.022
  587SOL    HW1 2660   5.141   1.909   1.954
  587SOL    HW2 2661   4.990   1.896   2.016
  588SOL     OW 2662   1.590   4.615   3.090
  588SOL    HW1 2663   1.572   4.684   3.019
  588SOL    HW2 2664   1.503   4.576   3.120
  589SOL     OW 2665   3.044   5.302   0.433
  589SOL    HW1 2666   3.014   5.318   0.527
  589SOL    HW2 2667   2.984   5.351   0.370
  590SOL     OW 2668   3.306   2.374   0.224
  590SOL    HW1 2669   3.210   2.388   0.250
  590SOL    HW2 2670   3.347   2.304   0.282
  591SOL     OW 2671   2.858   5.890   3.665
  591SOL    HW1 2672   2.795   5.820   3.699
  591SOL    HW2 2673   2.863   5.884   3.565
  592SOL     OW 2674   3.789   1.885   4.649
  592SOL    HW1 2675   3.750   1.819   4.712
  592SOL    HW2 2676   3.847   1.837   4.582
  593SOL     OW 2677   1.994   1.876   6.913
  593SOL    HW1 2678   1.928   1.912   6.978
  593SOL    HW2 2679   2.087   1.891   6.947
  594SOL     OW 2680   4.633   0.768   2.651
  594SOL    HW1 2681   4.570   0.750   2.726
  594SOL    HW2 2682   4.587   0.821   2.580
  595SOL     OW 2683   6.231   5.783   2.681
  595SOL    HW1 2684   6.226   5.872   2.726
  595SOL    HW2 2685   6.197   5.712   2.743
  596SOL     OW 2686   6.605   4.800   4.319
  596SOL    HW1 2687   6.516   4.823   4.279
  596SOL    HW2 2688   6.664   4.880   4.317
  597SOL     OW 2689   3.064   1.201   6.805
  597SOL    HW1 2690   3.154   1.212   6.846
  597SOL    HW2 2691   3.009   1.138   6.861
  598SOL     OW 2692   3.330   3.992   3.978
  598SOL    HW1 2693   3.257   4.007   4.045
  598SOL    HW2 2694   3.404   4.056   3.995
  599SOL     OW 2695   1.459   5.503   1.360
  599SOL    HW1 2696   1.388   5.516   1.291
  599SOL    HW2 2697   1.421   5.524   1.451
  600SOL     OW 2698   6.486   3.384   5.213
  600SOL    HW1 2699   6.421   3.459   5.230
  600SOL    HW2 2700   6.436   3.300   5.192
  601SOL     OW 2701   0.732   6.462   5.723
  601SOL    HW1 2702   0.829   6.481   5.734
  601SOL    HW2 2703   0.713   6.440   5.627
  602SOL     OW 2704   2.048   0.257   3.364
  602SOL    HW1 2705   2.115   0.184   3.348
  602SOL    HW2 2706   2.067   0.333   3.302
  603SOL     OW 2707   1.604   1.898   4.332
  603SOL    HW1 2708   1.687   1.905   4.276
  603SOL    HW2 2709   1.558   1.812   4.312
  604SOL     OW 2710   5.952   3.152   1.086
  604SOL    HW1 2711   5.964   3.248   1.060
  604SOL    HW2 2712   5.862   3.141   1.129
  605SOL     OW 2713   6.569   6.356   1.376
  605SOL    HW1 2714   6.621   6.271   1.379
  605SOL    HW2 2715   6.630   6.433   1.361
  606SOL     OW 2716   3.461   0.073   4.720
  606SOL    HW1 2717   3.535   0.053   4.656
  606SOL    HW2 2718   3.500   0.104   4.807
  607SOL     OW 2719   1.798   2.964   5.506
  607SOL    HW1 2720   1.737   2.997   5.435
  607SOL    HW2 2721   1.883   2.933   5.464
  608SOL     OW 2722   3.009   1.384   5.662
  608SOL    HW1 2723   2.951   1.308   5.633
  608SOL    HW2 2724   3.059   1.420   5.584
  609SOL     OW 2725   3.520   2.817   2.081
  609SOL    HW1 2726   3.464   2.868   2.015
  609SOL    HW2 2727   3.616   2.824   2.053
  610SOL     OW 2728   4.614   3.636   1.677
  610SOL    HW1 2729   4.618   3.539   1.653
  610SOL    HW2 2730   4.523   3.672   1.655
  611SOL     OW 2731   3.705   0.574   3.103
  611SOL    HW1 2732   3.785   0.615   3.060
  611SOL    HW2 2733   3.695   0.609   3.196
  612SOL     OW 2734   4.371   5.041   4.168
  612SOL    HW1 2735   4.391   5.038   4.265
  612SOL    HW2 2736   4.452   5.016   4.116
  613SOL     OW 2737   4.195   4.670   5.226
  613SOL    HW1 2738   4.134   4.618   5.286
  613SOL    HW2 2739   4.237   4.608   5.159
  614SOL     OW 2740   2.904   6.244   6.375
  614SOL    HW1 2741   2.837   6.311   6.344
  614SOL    HW2 2742   2.992   6.262   6.331
  615SOL     OW 2743   0.823   4.889   2.425
  615SOL    HW1 2744   0.861   4.938   2.348
  615SOL    HW2 2745   0.765   4.950   2.479
  616SOL     OW 2746   5.965   2.530   3.670
  616SOL    HW1 2747   5.954   2.562   3.576
  616SOL    HW2 2748   5.881   2.547   3.722
  617SOL     OW 2749   2.861   6.748   6.005
  617SOL    HW1 2750   2.794   6.743   6.079
  617SOL    HW2 2751   2.861   6.661   5.954
  618SOL     OW 2752   1.598   1.314   3.015
  618SOL    HW1 2753   1.508   1.274   3.000
  618SOL    HW2 2754   1.664   1.242   3.037
  619SOL     OW 2755   0.741   1.731   6.776
  619SOL    HW1 2756   0.645   1.757   6.781
  619SOL    HW2 2757   0.750   1.644   6.727
  620SOL     OW 2758   4.284   3.719   1.406
  620SOL    HW1 2759   4.306   3.807   1.450
  620SOL    HW2 2760   4.344   3.707   1.326
  621SOL     OW 2761   0.435   5.501   1.268
  621SOL    HW1 2762   0.401   5.494   1.174
  621SOL    HW2 2763   0.363   5.472   1.331
  622SOL     OW 2764   0.823   0.549   6.889
  622SOL    HW1 2765   0.791   0.559   6.983
  622SOL    HW2 2766   0.875   0.463   6.880
  623SOL     OW 2767   0.620   4.630   5.968
  623SOL    HW1 2768   0.663   4.709   5.925
  623SOL    HW2 2769   0.571   4.660   6.050
  624SOL     OW 2770   0.911   2.000   1.104
  624SOL    HW1 2771   0.978   2.074   1.098
  624SOL    HW2 2772   0.885   1.971   1.012
  625SOL     OW 2773   1.301   1.245   2.526
  625SOL    HW1 2774   1.298   1.345   2.538
  625SOL    HW2 2775   1.302   1.223   2.429
  626SOL     OW 2776   3.351   6.748   4.716
  626SOL    HW1 2777   3.274   6.812   4.717
  626SOL    HW2 2778   3.396   6.751   4.627
  627SOL     OW 2779   5.575   1.062   0.036
  627SOL    HW1 2780   5.492   1.021   7.018
  627SOL    HW2 2781   5.583   1.156   0.003
  628SOL     OW 2782   5.445   4.054   3.278
  628SOL    HW1 2783   5.386   4.017   3.207
  628SOL    HW2 2784   5.419   4.149   3.297
  629SOL     OW 2785   1.479   6.460   0.511
  629SOL    HW1 2786   1.503   6.524   0.438
  629SOL    HW2 2787   1.563   6.417   0.546
  630SOL     OW 2788   3.055   1.851   1.701
  630SOL    HW1 2789   3.006   1.869   1.615
  630SOL    HW2 2790   3.154   1.859   1.685
  631SOL     OW 2791   2.340   7.000   4.502
  631SOL    HW1 2792   2.413   6.933   4.516
  631SOL    HW2 2793   2.306   6.993   4.408
  632SOL     OW 2794   2.155   0.577   0.897
  632SOL    HW1 2795   2.201   0.608   0.981
  632SOL    HW2 2796   2.057   0.569   0.915
  633SOL     OW 2797   1.924   6.606   5.704
  633SOL    HW1 2798   2.008   6.621   5.757
  633SOL    HW2 2799   1.934   6.645   5.613
  634SOL     OW 2800   3.014   5.772   1.326
  634SOL    HW1 2801   3.082   5.748   1.257
  634SOL    HW2 2802   3.047   5.749   1.417
  635SOL     OW 2803   2.642   0.536   2.713
  635SOL    HW1 2804   2.564   0.478   2.691
  635SOL    HW2 2805   2.645   0.613   2.650
  636SOL     OW 2806   5.089   5.494   0.188
  636SOL    HW1 2807   5.089   5.559   0.112
  636SOL    HW2 2808   5.113   5.542   0.272
  637SOL     OW 2809   5.370   4.552   0.524
  637SOL    HW1 2810   5.319   4.501   0.593
  637SOL    HW2 2811   5.381   4.647   0.553
  638SOL     OW 2812   5.463   1.018   2.290
  638SOL    HW1 2813   5.479   0.946   2.222
  638SOL    HW2 2814   5.482   1.107   2.250
  639SOL     OW 2815   4.719   4.459   2.692
  639SOL    HW1 2816   4.700   4.410   2.607
  639SOL    HW2 2817   4.787   4.408   2.745
  640SOL     OW 2818   2.405   4.116   5.722
  640SOL    HW1 2819   2.364   4.158   5.641
  640SOL    HW2 2820   2.503   4.107   5.708
  641SOL     OW 2821   0.522   6.068   5.925
  641SOL    HW1 2822   0.480   5.990   5.878
  641SOL    HW2 2823   0.451   6.134   5.949
  642SOL     OW 2824   1.410   4.422   5.942
  642SOL    HW1 2825   1.407   4.340   5.885
  642SOL    HW2 2826   1.347   4.490   5.907
  643SOL     OW 2827   6.254   5.888   4.780
  643SOL    HW1 2828   6.243   5.793   4.754
  643SOL    HW2 2829   6.330   5.896   4.845
  644SOL     OW 2830   2.668   6.081   2.146
  644SOL    HW1 2831   2.664   5.981   2.150
  644SOL    HW2 2832   2.745   6.113   2.201
  645SOL     OW 2833   6.024   2.839   3.228
  645SOL    HW1 2834   5.972   2.770   3.178
  645SOL    HW2 2835   5.964   2.915   3.253
  646SOL     OW 2836   1.310   2.138   4.660
  646SOL    HW1 2837   1.324   2.233   4.690
  646SOL    HW2 2838   1.398   2.092   4.652
  647SOL     OW 2839   5.427   3.351   0.337
  647SOL    HW1 2840   5.405   3.443   0.305
  647SOL    HW2 2841   5.522   3.347   0.367
  648SOL     OW 2842   4.653   1.791   3.998
  648SOL    HW1 2843   4.660   1.890   4.006
  648SOL    HW2 2844   4.572   1.768   3.944
  649SOL     OW 2845   4.307   4.588   1.983
  649SOL    HW1 2846   4.337   4.493   1.979
  649SOL    HW2 2847   4.349   4.633   2.062
  650SOL     OW 2848   4.802   3.323   0.881
  650SOL    HW1 2849   4.872   3.289   0.944
  650SOL    HW2 2850   4.837   3.318   0.788
  651SOL     OW 2851   0.870   6.024   6.323
  651SOL    HW1 2852   0.821   6.005   6.408
  651SOL    HW2 2853   0.881   5.939   6.272
  652SOL     OW 2854   4.955   1.486   2.818
  652SOL    HW1 2855   4.893   1.453   2.746
  652SOL    HW2 2856   5.047   1.496   2.780
  653SOL     OW 2857   3.809   4.862   3.334
  653SOL    HW1 2858   3.740   4.933   3.345
  653SOL    HW2 2859   3.766   4.779   3.297
  654SOL     OW 2860   6.515   5.265   6.783
  654SOL    HW1 2861   6.535   5.294   6.876
  654SOL    HW2 2862   6.522   5.165   6.777
  655SOL     OW 2863   7.002   1.433   6.745
  655SOL    HW1 2864   6.940   1.374   6.797
  655SOL    HW2 2865   6.986   1.528   6.770
  656SOL     OW 2866   2.577   5.970   1.501
  656SOL    HW1 2867   2.675   5.984   1.484
  656SOL    HW2 2868   2.565   5.929   1.592
  657SOL     OW 2869   4.243   1.234   6.456
  657SOL    HW1 2870   4.287   1.318   6.427
  657SOL    HW2 2871   4.143   1.245   6.454
  658SOL     OW 2872   3.510   5.063   5.709
  658SOL    HW1 2873   3.435   5.113   5.665
  658SOL    HW2 2874   3.502   4.966   5.687
  659SOL     OW 2875   2.927   0.854   6.661
  659SOL    HW1 2876   2.986   0.791   6.711
  659SOL    HW2 2877   2.981   0.906   6.595
  660SOL     OW 2878   3.745   5.900   3.374
  660SOL    HW1 2879   3.713   5.994   3.374
  660SOL    HW2 2880   3.807   5.885   3.451
  661SOL     OW 2881   5.767   5.890   2.802
  661SOL    HW1 2882   5.850   5.944   2.819
  661SOL    HW2 2883   5.701   5.906   2.876
  662SOL     OW 2884   3.616   1.326   0.686
  662SOL    HW1 2885   3.622   1.242   0.740
  662SOL    HW2 2886   3.702   1.340   0.637
  663SOL     OW 2887   2.048   4.822   4.744
  663SOL    HW1 2888   2.118   4.865   4.687
  663SOL    HW2 2889   2.022   4.735   4.704
  664SOL     OW 2890   5.973   0.839   6.298
  664SOL    HW1 2891   5.922   0.865   6.380
  664SOL    HW2 2892   6.069   0.866   6.309
  665SOL     OW 2893   1.778   4.558   2.146
  665SOL    HW1 2894   1.844   4.535   2.074
  665SOL    HW2 2895   1.718   4.632   2.113
  666SOL     OW 2896   4.138   1.190   0.677
  666SOL    HW1 2897   4.193   1.240   0.611
  666SOL    HW2 2898   4.111   1.252   0.751
  667SOL     OW 2899   1.318   6.472   2.273
  667SOL    HW1 2900   1.312   6.402   2.344
  667SOL    HW2 2901   1.307   6.562   2.315
  668SOL     OW 2902   5.104   3.862   0.633
  668SOL    HW1 2903   5.170   3.934   0.651
  668SOL    HW2 2904   5.152   3.777   0.611
  669SOL     OW 2905   5.085   1.888   2.446
  669SOL    HW1 2906   5.114   1.827   2.372
  669SOL    HW2 2907   5.140   1.869   2.527
  670SOL     OW 2908   2.979   2.173   3.138
  670SOL    HW1 2909   2.891   2.209   3.106
  670SOL    HW2 2910   2.990   2.195   3.235
  671SOL     OW 2911   2.938   6.836   1.605
  671SOL    HW1 2912   2.914   6.817   1.509
  671SOL    HW2 2913   2.856   6.858   1.657
  672SOL     OW 2914   1.674   6.867   2.396
  672SOL    HW1 2915   1.720   6.818   2.470
  672SOL    HW2 2916   1.591   6.910   2.431
  673SOL     OW 2917   5.584   6.600   0.789
  673SOL    HW1 2918   5.634   6.610   0.703
  673SOL    HW2 2919   5.624   6.525   0.842
  674SOL     OW 2920   6.016   0.768   3.930
  674SOL    HW1 2921   5.995   0.804   3.839
  674SOL    HW2 2922   6.053   0.675   3.922
  675SOL     OW 2923   0.313   3.563   3.163
  675SOL    HW1 2924   0.223   3.520   3.159
  675SOL    HW2 2925   0.302   3.662   3.170
  676SOL     OW 2926   2.413   6.612   5.764
  676SOL    HW1 2927   2.406   6.515   5.743
  676SOL    HW2 2928   2.322   6.648   5.783
  677SOL     OW 2929   5.309   1.857   1.235
  677SOL    HW1 2930   5.358   1.813   1.310
  677SOL    HW2 2931   5.285   1.789   1.166
  678SOL     OW 2932   0.756   5.364   3.476
  678SOL    HW1 2933   0.812   5.324   3.402
  678SOL    HW2 2934   0.781   5.322   3.563
  679SOL     OW 2935   4.631   2.125   5.315
  679SOL    HW1 2936   4.564   2.053   5.297
  679SOL    HW2 2937   4.677   2.107   5.402
  680SOL     OW 2938   6.084   6.415   4.441
  680SOL    HW1 2939   6.072   6.316   4.439
  680SOL    HW2 2940   6.168   6.438   4.489
  681SOL     OW 2941   4.695   4.771   2.411
  681SOL    HW1 2942   4.668   4.677   2.431
  681SOL    HW2 2943   4.630   4.834   2.453
  682SOL     OW 2944   0.698   1.319   3.261
  682SOL    HW1 2945   0.782   1.344   3.211
  682SOL    HW2 2946   0.643   1.258   3.204
  683SOL     OW 2947   3.544   4.096   1.387
  683SOL    HW1 2948   3.623   4.059   1.436
  683SOL    HW2 2949   3.523   4.038   1.309
  684SOL     OW 2950   6.333   1.457   5.764
  684SOL    HW1 2951   6.362   1.552   5.756
  684SOL    HW2 2952   6.384   1.401   5.699
  685SOL     OW 2953   3.292   0.376   3.012
  685SOL    HW1 2954   3.346   0.345   3.091
  685SOL    HW2 2955   3.322   0.327   2.930
  686SOL     OW 2956   4.086   0.338   5.140
  686SOL    HW1 2957   4.111   0.244   5.165
  686SOL    HW2 2958   4.164   0.384   5.097
  687SOL     OW 2959   0.666   1.943   3.414
  687SOL    HW1 2960   0.568   1.953   3.435
  687SOL    HW2 2961   0.700   1.858   3.454
  688SOL     OW 2962   6.079   1.502   6.737
  688SOL    HW1 2963   6.160   1.496   6.794
  688SOL    HW2 2964   6.078   1.590   6.689
  689SOL     OW 2965   1.599   5.687   6.231
  689SOL    HW1 2966   1.626   5.781   6.212
  689SOL    HW2 2967   1.617   5.665   6.327
  690SOL     OW 2968   5.276   3.450   2.992
  690SOL    HW1 2969   5.320   3.360   2.994
  690SOL    HW2 2970   5.180   3.439   2.966
  691SOL     OW 2971   6.070   1.528   1.047
  691SOL    HW1 2972   6.022   1.466   1.109
  691SOL    HW2 2973   6.166   1.500   1.040
  692SOL     OW 2974   1.739   0.059   4.688
  692SOL    HW1 2975   1.838   0.072   4.698
  692SOL    HW2 2976   1.722   6.989   4.643
  693SOL     OW 2977   5.629   5.907   3.401
  693SOL    HW1 2978   5.613   6.002   3.427
  693SOL    HW2 2979   5.558   5.876   3.338
  694SOL     OW 2980   4.798   6.224   5.423
  694SOL    HW1 2981   4.887   6.220   5.379
  694SOL    HW2 2982   4.802   6.283   5.503
  695SOL     OW 2983   4.612   6.928   4.111
  695SOL    HW1 2984   4.513   6.930   4.123
  695SOL    HW2 2985   4.642   6.835   4.093
  696SOL     OW 2986   5.434   3.877   2.827
  696SOL    HW1 2987   5.456   3.958   2.882
  696SOL    HW2 2988   5.516   3.847   2.777
  697SOL     OW 2989   0.807   6.311   2.339
  697SOL    HW1 2990   0.802   6.404   2.375
  697SOL    HW2 2991   0.721   6.289   2.292
  698SOL     OW 2992   5.845   6.537   6.760
  698SOL    HW1 2993   5.755   6.575   6.739
  698SOL    HW2 2994   5.916   6.594   6.721
  699SOL     OW 2995   3.188   2.997   1.274
  699SOL    HW1 2996   3.200   3.011   1.372
  699SOL    HW2 2997   3.108   2.940   1.258
  700SOL     OW 2998   3.993   0.114   4.500
  700SOL    HW1 2999   4.058   0.094   4.573
  700SOL    HW2 3000   4.040   0.113   4.412
  701SOL     OW 3001   4.694   5.066   1.569
  701SOL    HW1 3002   4.621   5.064   1.637
  701SOL    HW2 3003   4.714   5.161   1.545
  702SOL     OW 3004   3.942   0.655   4.092
  702SOL    HW1 3005   3.974   0.694   4.006
  702SOL    HW2 3006   3.958   0.556   4.092
  703SOL     OW 3007   3.077   2.285   6.821
  703SOL    HW1 3008   3.130   2.363   6.854
  703SOL    HW2 3009   3.123   2.200   6.848
  704SOL     OW 3010   2.263   2.255   5.454
  704SOL    HW1 3011   2.341   2.194   5.442
  704SOL    HW2 3012   2.195   2.211   5.512
  705SOL     OW 3013   0.461   6.526   5.191
  705SOL    HW1 3014   0.486   6.622   5.203
  705SOL    HW2 3015   0.392   6.500   5.258
  706SOL     OW 3016   4.204   1.195   5.176
  706SOL    HW1 3017   4.170   1.101   5.174
  706SOL    HW2 3018   4.189   1.234   5.267
  707SOL     OW 3019   3.196   5.383   4.379
  707SOL    HW1 3020   3.242   5.317   4.438
  707SOL    HW2 3021   3.201   5.351   4.284
  708SOL     OW 3022   4.460   5.880   3.942
  708SOL    HW1 3023   4.401   5.913   4.016
  708SOL    HW2 3024   4.513   5.956   3.905
  709SOL     OW 3025   2.104   0.112   0.845
  709SOL    HW1 3026   2.167   0.159   0.906
  709SOL    HW2 3027   2.104   0.014   0.865
  710SOL     OW 3028   4.912   3.253   1.950
  710SOL    HW1 3029   4.852   3.175   1.967
  710SOL    HW2 3030   5.005   3.230   1.978
  711SOL     OW 3031   6.841   2.197   6.744
  711SOL    HW1 3032   6.755   2.248   6.742
  711SOL    HW2 3033   6.906   2.243   6.804
  712SOL     OW 3034   5.381   3.752   0.149
  712SOL    HW1 3035   5.442   3.831   0.145
  712SOL    HW2 3036   5.327   3.746   0.065
  713SOL     OW 3037   4.131   3.399   5.140
  713SOL    HW1 3038   4.118   3.344   5.058
  713SOL    HW2 3039   4.043   3.409   5.188
  714SOL     OW 3040   5.153   6.034   3.066
  714SOL    HW1 3041   5.072   6.028   3.009
  714SOL    HW2 3042   5.235   6.034   3.008
  715SOL     OW 3043   6.109   4.800   5.870
  715SOL    HW1 3044   6.129   4.773   5.964
  715SOL    HW2 3045   6.160   4.743   5.807
  716SOL     OW 3046   2.066   1.816   3.044
  716SOL    HW1 3047   2.022   1.798   3.132
  716SOL    HW2 3048   1.997   1.814   2.971
  717SOL     OW 3049   5.290   4.763   4.196
  717SOL    HW1 3050   5.256   4.683   4.246
  717SOL    HW2 3051   5.303   4.839   4.260
  718SOL     OW 3052   5.254   2.492   5.279
  718SOL    HW1 3053   5.351   2.505   5.300
  718SOL    HW2 3054   5.210   2.439   5.352
  719SOL     OW 3055   5.516   6.529   3.877
  719SOL    HW1 3056   5.540   6.573   3.963
  719SOL    HW2 3057   5.506   6.597   3.806
  720SOL     OW 3058   2.376   1.051   0.452
  720SOL    HW1 3059   2.300   1.096   0.405
  720SOL    HW2 3060   2.388   1.092   0.543
  721SOL     OW 3061   0.197   2.098   2.593
  721SOL    HW1 3062   0.208   2.008   2.637
  721SOL    HW2 3063   0.105   2.104   2.553
  722SOL     OW 3064   5.379   6.324   0.721
  722SOL    HW1 3065   5.360   6.403   0.779
  722SOL    HW2 3066   5.477   6.322   0.699
  723SOL     OW 3067   2.429   6.731   4.153
  723SOL    HW1 3068   2.522   6.725   4.189
  723SOL    HW2 3069   2.431   6.775   4.063
  724SOL     OW 3070   1.459   1.854   4.063
  724SOL    HW1 3071   1.485   1.944   4.098
  724SOL    HW2 3072   1.539   1.809   4.023
  725SOL     OW 3073   1.666   4.346   2.999
  725SOL    HW1 3074   1.744   4.382   2.947
  725SOL    HW2 3075   1.629   4.419   3.058
  726SOL     OW 3076   1.630   3.774   1.032
  726SOL    HW1 3077   1.588   3.683   1.026
  726SOL    HW2 3078   1.702   3.773   1.101
  727SOL     OW 3079   3.997   5.482   5.052
  727SOL    HW1 3080   4.012   5.486   4.953
  727SOL    HW2 3081   3.900   5.463   5.070
  728SOL     OW 3082   6.561   3.174   3.711
  728SOL    HW1 3083   6.631   3.127   3.765
  728SOL    HW2 3084   6.582   3.271   3.706
  729SOL     OW 3085   0.535   4.093   0.891
  729SOL    HW1 3086   0.453   4.053   0.849
  729SOL    HW2 3087   0.508   4.149   0.969
  730SOL     OW 3088   3.709   0.665   3.400
  730SOL    HW1 3089   3.621   0.643   3.442
  730SOL    HW2 3090   3.777   0.597   3.427
  731SOL     OW 3091   4.995   5.217   5.321
  731SOL    HW1 3092   4.916   5.267   5.285
  731SOL    HW2 3093   5.066   5.211   5.250
  732SOL     OW 3094   3.693   1.227   5.169
  732SOL    HW1 3095   3.622   1.281   5.124
  732SOL    HW2 3096   3.652   1.146   5.210
  733SOL     OW 3097   6.252   5.497   3.141
  733SOL    HW1 3098   6.329   5.561   3.135
  733SOL    HW2 3099   6.270   5.417   3.084
  734SOL     OW 3100   6.267   6.720   2.801
  734SOL    HW1 3101   6.221   6.800   2.760
  734SOL    HW2 3102   6.339   6.751   2.863
  735SOL     OW 3103   4.909   6.450   2.420
  735SOL    HW1 3104   4.873   6.533   2.378
  735SOL    HW2 3105   4.997   6.470   2.463
  736SOL     OW 3106   2.290   1.337   3.796
  736SOL    HW1 3107   2.384   1.329   3.761
  736SOL    HW2 3108   2.243   1.249   3.783
  737SOL     OW 3109   3.418   0.836   5.917
  737SOL    HW1 3110   3.472   0.838   5.833
  737SOL    HW2 3111   3.471   0.873   5.993
  738SOL     OW 3112   2.210   4.422   0.239
  738SOL    HW1 3113   2.281   4.456   0.300
  738SOL    HW2 3114   2.200   4.323   0.251
  739SOL     OW 3115   3.099   6.917   4.218
  739SOL    HW1 3116   3.167   6.979   4.258
  739SOL    HW2 3117   3.090   6.836   4.277
  740SOL     OW 3118   4.970   3.247   2.778
  740SOL    HW1 3119   5.034   3.196   2.719
  740SOL    HW2 3120   5.009   3.256   2.869
  741SOL     OW 3121   3.007   0.737   3.024
  741SOL    HW1 3122   3.046   0.665   3.081
  741SOL    HW2 3123   2.931   0.699   2.971
  742SOL     OW 3124   2.540   6.497   1.943
  742SOL    HW1 3125   2.579   6.498   1.851
  742SOL    HW2 3126   2.510   6.404   1.965
  743SOL     OW 3127   0.589   6.987   3.204
  743SOL    HW1 3128   0.609   0.066   3.212
  743SOL    HW2 3129   0.674   6.936   3.191
  744SOL     OW 3130   5.124   1.510   0.146
  744SOL    HW1 3131   5.041   1.553   0.181
  744SOL    HW2 3132   5.142   1.426   0.197
  745SOL     OW 3133   1.997   0.037   4.639
  745SOL    HW1 3134   2.075   0.099   4.648
  745SOL    HW2 3135   2.001   7.009   4.551
  746SOL     OW 3136   0.031   4.741   5.836
  746SOL    HW1 3137   0.084   4.669   5.793
  746SOL    HW2 3138   0.083   4.780   5.912
  747SOL     OW 3139   4.709   5.845   2.805
  747SOL    HW1 3140   4.688   5.747   2.814
  747SOL    HW2 3141   4.682   5.877   2.715
  748SOL     OW 3142   5.178   5.226   1.815
  748SOL    HW1 3143   5.200   5.306   1.759
  748SOL    HW2 3144   5.121   5.253   1.892
  749SOL     OW 3145   4.816   4.001   4.461
  749SOL    HW1 3146   4.801   3.905   4.485
  749SOL    HW2 3147   4.846   4.052   4.542
  750SOL     OW 3148   2.393   1.746   2.427
  750SOL    HW1 3149   2.317   1.721   2.487
  750SOL    HW2 3150   2.478   1.708   2.464
  751SOL     OW 3151   3.658   0.882   0.749
  751SOL    HW1 3152   3.714   0.928   0.681
  751SOL    HW2 3153   3.606   0.950   0.801
  752SOL     OW 3154   3.660   2.610   5.491
  752SOL    HW1 3155   3.613   2.539   5.544
  752SOL    HW2 3156   3.727   2.567   5.430
  753SOL     OW 3157   3.806   3.746   4.638
  753SOL    HW1 3158   3.803   3.736   4.538
  753SOL    HW2 3159   3.723   3.791   4.670
  754SOL     OW 3160   5.823   0.556   0.412
  754SOL    HW1 3161   5.757   0.486   0.386
  754SOL    HW2 3162   5.911   0.512   0.433
  755SOL     OW 3163   4.125   4.276   5.294
  755SOL    HW1 3164   4.184   4.333   5.237
  755SOL    HW2 3165   4.036   4.319   5.303
  756SOL     OW 3166   2.503   5.568   6.282
  756SOL    HW1 3167   2.418   5.609   6.315
  756SOL    HW2 3168   2.524   5.603   6.191
  757SOL     OW 3169   2.682   6.058   2.822
  757SOL    HW1 3170   2.737   6.013   2.752
  757SOL    HW2 3171   2.597   6.007   2.836
  758SOL     OW 3172   4.866   0.596   4.242
  758SOL    HW1 3173   4.914   0.670   4.288
  758SOL    HW2 3174   4.836   0.627   4.151
  759SOL     OW 3175   0.870   3.146   3.552
  759SOL    HW1 3176   0.949   3.110   3.602
  759SOL    HW2 3177   0.805   3.187   3.616
  760SOL     OW 3178   6.408   5.251   3.242
  760SOL    HW1 3179   6.505   5.274   3.234
  760SOL    HW2 3180   6.354   5.336   3.242
  761SOL     OW 3181   3.924   4.304   6.179
  761SOL    HW1 3182   3.830   4.336   6.175
  761SOL    HW2 3183   3.983   4.380   6.207
  762SOL     OW 3184   3.265   5.758   3.347
  762SOL    HW1 3185   3.313   5.798   3.425
  762SOL    HW2 3186   3.179   5.717   3.378
  763SOL     OW 3187   5.647   0.651   0.632
  763SOL    HW1 3188   5.691   0.721   0.689
  763SOL    HW2 3189   5.703   0.635   0.551
  764SOL     OW 3190   5.031   6.939   5.878
  764SOL    HW1 3191   4.992   6.915   5.966
  764SOL    HW2 3192   4.976   7.011   5.835
  765SOL     OW 3193   6.826   0.041   0.690
  765SOL    HW1 3194   6.912   0.088   0.673
  765SOL    HW2 3195   6.830   7.011   0.777
  766SOL     OW 3196   2.690   1.932   4.616
  766SOL    HW1 3197   2.688   1.905   4.712
  766SOL    HW2 3198   2.666   1.853   4.559
  767SOL     OW 3199   6.497   4.954   4.784
  767SOL    HW1 3200   6.469   4.927   4.692
  767SOL    HW2 3201   6.590   4.922   4.802
  768SOL     OW 3202   1.719   5.563   3.007
  768SOL    HW1 3203   1.765   5.649   3.028
  768SOL    HW2 3204   1.769   5.514   2.935
  769SOL     OW 3205   2.438   2.062   5.355
  769SOL    HW1 3206   2.528   2.104   5.352
  769SOL    HW2 3207   2.440   1.983   5.417
  770SOL     OW 3208   1.240   4.614   5.830
  770SOL    HW1 3209   1.219   4.607   5.733
  770SOL    HW2 3210   1.280   4.703   5.850
  771SOL     OW 3211   1.522   5.279   2.978
  771SOL    HW1 3212   1.431   5.238   2.981
  771SOL    HW2 3213   1.569   5.263   3.064
  772SOL     OW 3214   6.132   4.244   0.540
  772SOL    HW1 3215   6.062   4.316   0.535
  772SOL    HW2 3216   6.091   4.160   0.576
  773SOL     OW 3217   1.649   4.204   3.747
  773SOL    HW1 3218   1.669   4.145   3.669
  773SOL    HW2 3219   1.609   4.150   3.821
  774SOL     OW 3220   2.647   0.644   3.317
  774SOL    HW1 3221   2.553   0.660   3.348
  774SOL    HW2 3222   2.645   0.604   3.226
  775SOL     OW 3223   1.141   4.383   2.808
  775SOL    HW1 3224   1.050   4.349   2.831
  775SOL    HW2 3225   1.140   4.424   2.716
  776SOL     OW 3226   2.395   5.412   5.965
  776SOL    HW1 3227   2.464   5.484   5.961
  776SOL    HW2 3228   2.440   5.323   5.949
  777SOL     OW 3229   2.366   3.933   6.441
  777SOL    HW1 3230   2.287   3.989   6.415
  777SOL    HW2 3231   2.448   3.969   6.396
  778SOL     OW 3232   2.729   6.068   6.927
  778SOL    HW1 3233   2.679   6.074   7.014
  778SOL    HW2 3234   2.686   5.998   6.869
  779SOL     OW 3235   0.116   2.687   3.098
  779SOL    HW1 3236   0.091   2.623   3.171
  779SOL    HW2 3237   0.155   2.636   3.022
  780SOL     OW 3238   0.226   2.268   4.649
  780SOL    HW1 3239   0.234   2.179   4.694
  780SOL    HW2 3240   0.181   2.256   4.560
  781SOL     OW 3241   0.100   4.474   0.130
  781SOL    HW1 3242   0.109   4.384   0.088
  781SOL    HW2 3243   0.105   4.466   0.229
  782SOL     OW 3244   1.948   3.358   4.563
  782SOL    HW1 3245   1.865   3.405   4.593
  782SOL    HW2 3246   2.026   3.391   4.617
  783SOL     OW 3247   6.387   4.795   6.681
  783SOL    HW1 3248   6.403   4.724   6.749
  783SOL    HW2 3249   6.469   4.851   6.671
  784SOL     OW 3250   2.494   5.872   0.828
  784SOL    HW1 3251   2.525   5.789   0.782
  784SOL    HW2 3252   2.395   5.882   0.816
  785SOL     OW 3253   0.705   0.814   4.070
  785SOL    HW1 3254   0.713   0.719   4.102
  785SOL    HW2 3255   0.683   0.814   3.972
  786SOL     OW 3256   6.098   0.982   4.095
  786SOL    HW1 3257   6.154   0.940   4.166
  786SOL    HW2 3258   6.067   0.912   4.031
  787SOL     OW 3259   2.005   6.536   0.870
  787SOL    HW1 3260   2.036   6.626   0.841
  787SOL    HW2 3261   2.078   6.491   0.922
  788SOL     OW 3262   2.056   2.436   1.790
  788SOL    HW1 3263   2.064   2.431   1.690
  788SOL    HW2 3264   1.970   2.394   1.819
  789SOL     OW 3265   4.396   4.668   2.622
  789SOL    HW1 3266   4.306   4.681   2.581
  789SOL    HW2 3267   4.462   4.644   2.551
  790SOL     OW 3268   0.921   2.649   2.399
  790SOL    HW1 3269   0.916   2.747   2.382
  790SOL    HW2 3270   0.987   2.631   2.472
  791SOL     OW 3271   2.685   6.123   3.747
  791SOL    HW1 3272   2.723   6.214   3.733
  791SOL    HW2 3273   2.754   6.054   3.723
  792SOL     OW 3274   1.469   0.304   6.955
  792SOL    HW1 3275   1.401   0.369   6.987
  792SOL    HW2 3276   1.508   0.336   6.868
  793SOL     OW 3277   2.538   6.161   4.015
  793SOL    HW1 3278   2.613   6.218   3.982
  793SOL    HW2 3279   2.480   6.135   3.937
  794SOL     OW 3280   3.248   3.580   2.391
  794SOL    HW1 3281   3.231   3.491   2.432
  794SOL    HW2 3282   3.239   3.651   2.461
  795SOL     OW 3283   4.253   0.773   6.081
  795SOL    HW1 3284   4.290   0.819   6.162
  795SOL    HW2 3285   4.328   0.752   6.018
  796SOL     OW 3286   0.409   2.542   0.749
  796SOL    HW1 3287   0.360   2.628   0.762
  796SOL    HW2 3288   0.455   2.517   0.835
  797SOL     OW 3289   4.566   0.299   0.806
  797SOL    HW1 3290   4.589   0.265   0.715
  797SOL    HW2 3291   4.531   0.224   0.862
  798SOL     OW 3292   5.076   6.247   1.001
  798SOL    HW1 3293   5.072   6.177   1.073
  798SOL    HW2 3294   5.170   6.258   0.970
  799SOL     OW 3295   2.588   2.150   5.738
  799SOL    HW1 3296   2.650   2.203   5.681
  799SOL    HW2 3297   2.607   2.169   5.835
  800SOL     OW 3298   5.546   2.805   3.236
  800SOL    HW1 3299   5.609   2.767   3.304
  800SOL    HW2 3300   5.525   2.735   3.167
  801SOL     OW 3301   1.942   5.826   5.952
  801SOL    HW1 3302   1.850   5.864   5.954
  801SOL    HW2 3303   1.938   5.727   5.959
  802SOL     OW 3304   5.274   2.138   6.715
  802SOL    HW1 3305   5.187   2.181   6.694
  802SOL    HW2 3306   5.260   2.065   6.783
  803SOL     OW 3307   2.499   1.537   4.702
  803SOL    HW1 3308   2.540   1.448   4.685
  803SOL    HW2 3309   2.472   1.543   4.798
  804SOL     OW 3310   5.185   0.686   3.205
  804SOL    HW1 3311   5.231   0.667   3.292
  804SOL    HW2 3312   5.167   0.599   3.159
  805SOL     OW 3313   3.642   0.623   4.073
  805SOL    HW1 3314   3.630   0.716   4.037
  805SOL    HW2 3315   3.737   0.610   4.102
  806SOL     OW 3316   2.564   5.918   5.243
  806SOL    HW1 3317   2.526   5.906   5.152
  806SOL    HW2 3318   2.547   5.836   5.298
  807SOL     OW 3319   1.376   6.269   6.106
  807SOL    HW1 3320   1.383   6.232   6.013
  807SOL    HW2 3321   1.284   6.304   6.120
  808SOL     OW 3322   5.079   2.672   6.190
  808SOL    HW1 3323   5.165   2.632   6.223
  808SOL    HW2 3324   5.018   2.689   6.267
  809SOL     OW 3325   2.521   4.966   0.159
  809SOL    HW1 3326   2.427   4.991   0.182
  809SOL    HW2 3327   2.580   4.984   0.238
  810SOL     OW 3328   3.621   3.412   0.124
  810SOL    HW1 3329   3.587   3.396   0.032
  810SOL    HW2 3330   3.550   3.455   0.179
  811SOL     OW 3331   6.241   4.940   4.863
  811SOL    HW1 3332   6.207   5.025   4.823
  811SOL    HW2 3333   6.340   4.934   4.850
  812SOL     OW 3334   0.502   3.564   1.835
  812SOL    HW1 3335   0.541   3.505   1.905
  812SOL    HW2 3336   0.561   3.562   1.754
  813SOL     OW 3337   1.792   2.075   5.227
  813SOL    HW1 3338   1.833   2.157   5.187
  813SOL    HW2 3339   1.700   2.096   5.260
  814SOL     OW 3340   0.723   5.189   2.580
  814SOL    HW1 3341   0.752   5.257   2.512
  814SOL    HW2 3342   0.666   5.234   2.649
  815SOL     OW 3343   4.181   1.712   4.674
  815SOL    HW1 3344   4.169   1.795   4.728
  815SOL    HW2 3345   4.220   1.736   4.585
  816SOL     OW 3346   5.983   4.544   6.959
  816SOL    HW1 3347   6.000   4.629   7.009
  816SOL    HW2 3348   5.923   4.485   7.012
  817SOL     OW 3349   0.459   5.183   0.023
  817SOL    HW1 3350   0.524   5.226   0.086
  817SOL    HW2 3351   0.499   5.099   7.005
  818SOL     OW 3352   6.936   2.198   4.905
  818SOL    HW1 3353   6.924   2.263   4.830
  818SOL    HW2 3354   7.014   2.226   4.961
  819SOL     OW 3355   4.935   2.947   1.783
  819SOL    HW1 3356   4.929   2.848   1.790
  819SOL    HW2 3357   4.856   2.988   1.829
  820SOL     OW 3358   2.436   1.742   5.409
  820SOL    HW1 3359   2.439   1.647   5.440
  820SOL    HW2 3360   2.515   1.760   5.350
  821SOL     OW 3361   5.265   3.456   6.503
  821SOL    HW1 3362   5.307   3.493   6.420
  821SOL    HW2 3363   5.326   3.387   6.543
  822SOL     OW 3364   0.419   4.713   3.496
  822SOL    HW1 3365   0.353   4.788   3.496
  822SOL    HW2 3366   0.491   4.732   3.562
  823SOL     OW 3367   1.304   3.374   4.990
  823SOL    HW1 3368   1.256   3.387   4.904
  823SOL    HW2 3369   1.238   3.360   5.064
  824SOL     OW 3370   4.902   0.791   6.586
  824SOL    HW1 3371   4.816   0.815   6.540
  824SOL    HW2 3372   4.921   0.857   6.658
  825SOL     OW 3373   5.922   5.991   0.845
  825SOL    HW1 3374   5.956   5.938   0.922
  825SOL    HW2 3375   5.947   5.946   0.760
  826SOL     OW 3376   3.603   2.176   0.045
  826SOL    HW1 3377   3.554   2.259   0.070
  826SOL    HW2 3378   3.694   2.200   0.011
  827SOL     OW 3379   3.549   4.109   5.338
  827SOL    HW1 3380   3.638   4.135   5.377
  827SOL    HW2 3381   3.501   4.050   5.403
  828SOL     OW 3382   0.158   6.495   6.303
  828SOL    HW1 3383   0.066   6.459   6.285
  828SOL    HW2 3384   0.196   6.450   6.384
  829SOL     OW 3385   3.513   3.267   2.458
  829SOL    HW1 3386   3.430   3.215   2.437
  829SOL    HW2 3387   3.509   3.355   2.411
  830SOL     OW 3388   6.979   4.541   0.509
  830SOL    HW1 3389   6.925   4.615   0.548
  830SOL    HW2 3390   6.924   4.458   0.505
  831SOL     OW 3391   4.741   0.542   2.048
  831SOL    HW1 3392   4.673   0.556   2.120
  831SOL    HW2 3393   4.804   0.468   2.075
  832SOL     OW 3394   3.150   1.567   4.916
  832SOL    HW1 3395   3.080   1.586   4.984
  832SOL    HW2 3396   3.202   1.486   4.943
  833SOL     OW 3397   3.539   2.445   0.097
  833SOL    HW1 3398   3.586   2.510   0.155
  833SOL    HW2 3399   3.452   2.420   0.139
  834SOL     OW 3400   6.114   2.850   0.282
  834SOL    HW1 3401   6.123   2.949   0.285
  834SOL    HW2 3402   6.050   2.820   0.353
  835SOL     OW 3403   0.351   0.025   4.786
  835SOL    HW1 3404   0.338   0.124   4.778
  835SOL    HW2 3405   0.449   0.004   4.785
  836SOL     OW 3406   5.209   0.416   4.946
  836SOL    HW1 3407   5.165   0.504   4.965
  836SOL    HW2 3408   5.271   0.426   4.869
  837SOL     OW 3409   1.456   0.604   0.005
  837SOL    HW1 3410   1.429   0.656   6.942
  837SOL    HW2 3411   1.507   0.663   0.067
  838SOL     OW 3412   1.093   5.975   3.351
  838SOL    HW1 3413   1.108   5.945   3.445
  838SOL    HW2 3414   1.019   5.922   3.310
  839SOL     OW 3415   1.534   1.893   0.282
  839SOL    HW1 3416   1.511   1.976   0.231
  839SOL    HW2 3417   1.557   1.917   0.377
  840SOL     OW 3418   4.451   5.468   0.186
  840SOL    HW1 3419   4.428   5.448   0.281
  840SOL    HW2 3420   4.549   5.488   0.179
  841SOL     OW 3421   3.031   4.640   0.029
  841SOL    HW1 3422   2.990   4.667   0.116
  841SOL    HW2 3423   3.073   4.550   0.039
  842SOL     OW 3424   4.310   5.815   0.939
  842SOL    HW1 3425   4.379   5.783   0.874
  842SOL    HW2 3426   4.248   5.740   0.961
  843SOL     OW 3427   1.219   0.524   2.118
  843SOL    HW1 3428   1.207   0.606   2.175
  843SOL    HW2 3429   1.130   0.481   2.104
  844SOL     OW 3430   6.806   0.840   1.462
  844SOL    HW1 3431   6.864   0.857   1.542
  844SOL    HW2 3432   6.862   0.842   1.379
  845SOL     OW 3433   3.133   1.454   2.798
  845SOL    HW1 3434   3.104   1.456   2.703
  845SOL    HW2 3435   3.224   1.413   2.805
  846SOL     OW 3436   2.875   1.881   0.721
  846SOL    HW1 3437   2.902   1.797   0.673
  846SOL    HW2 3438   2.956   1.937   0.738
  847SOL     OW 3439   2.685   3.792   1.644
  847SOL    HW1 3440   2.671   3.890   1.633
  847SOL    HW2 3441   2.783   3.772   1.644
  848SOL     OW 3442   6.988   6.318   0.502
  848SOL    HW1 3443   6.988   6.418   0.497
  848SOL    HW2 3444   6.955   6.281   0.415
  849SOL     OW 3445   6.043   3.448   6.544
  849SOL    HW1 3446   5.995   3.416   6.625
  849SOL    HW2 3447   5.977   3.475   6.474
  850SOL     OW 3448   0.892   0.806   5.423
  850SOL    HW1 3449   0.846   0.876   5.368
  850SOL    HW2 3450   0.991   0.821   5.420
  851SOL     OW 3451   5.460   3.592   5.844
  851SOL    HW1 3452   5.480   3.615   5.939
  851SOL    HW2 3453   5.394   3.517   5.841
  852SOL     OW 3454   0.547   3.855   1.983
  852SOL    HW1 3455   0.565   3.794   1.906
  852SOL    HW2 3456   0.578   3.947   1.960
  853SOL     OW 3457   2.667   2.530   0.351
  853SOL    HW1 3458   2.641   2.439   0.320
  853SOL    HW2 3459   2.711   2.523   0.440
  854SOL     OW 3460   6.003   6.071   5.794
  854SOL    HW1 3461   6.036   6.123   5.715
  854SOL    HW2 3462   5.953   5.990   5.762
  855SOL     OW 3463   5.601   1.639   0.244
  855SOL    HW1 3464   5.600   1.580   0.324
  855SOL    HW2 3465   5.516   1.626   0.192
  856SOL     OW 3466   1.608   5.111   1.677
  856SOL    HW1 3467   1.703   5.084   1.657
  856SOL    HW2 3468   1.561   5.135   1.592
  857SOL     OW 3469   6.943   5.824   4.994
  857SOL    HW1 3470   6.852   5.794   5.024
  857SOL    HW2 3471   6.944   5.923   4.986
  858SOL     OW 3472   4.387   3.206   0.308
  858SOL    HW1 3473   4.440   3.246   0.383
  858SOL    HW2 3474   4.426   3.235   0.221
  859SOL     OW 3475   5.327   6.456   5.153
  859SOL    HW1 3476   5.347   6.362   5.181
  859SOL    HW2 3477   5.333   6.516   5.233
  860SOL     OW 3478   4.918   3.049   6.078
  860SOL    HW1 3479   5.016   3.039   6.058
  860SOL    HW2 3480   4.905   3.123   6.144
  861SOL     OW 3481   2.204   5.805   1.724
  861SOL    HW1 3482   2.118   5.793   1.774
  861SOL    HW2 3483   2.262   5.724   1.737
  862SOL     OW 3484   0.384   4.058   3.972
  862SOL    HW1 3485   0.402   4.155   3.960
  862SOL    HW2 3486   0.294   4.035   3.934
  863SOL     OW 3487   6.143   0.650   1.289
  863SOL    HW1 3488   6.167   0.676   1.383
  863SOL    HW2 3489   6.212   0.685   1.226
  864SOL     OW 3490   5.840   6.135   4.304
  864SOL    HW1 3491   5.753   6.178   4.279
  864SOL    HW2 3492   5.827   6.079   4.386
  865SOL     OW 3493   1.512   5.999   5.675
  865SOL    HW1 3494   1.438   6.018   5.610
  865SOL    HW2 3495   1.556   6.085   5.701
  866SOL     OW 3496   3.592   0.139   1.771
  866SOL    HW1 3497   3.495   0.152   1.792
  866SOL    HW2 3498   3.616   0.043   1.782
  867SOL     OW 3499   5.814   1.905   5.876
  867SOL    HW1 3500   5.898   1.909   5.821
  867SOL    HW2 3501   5.756   1.984   5.856
  868SOL     OW 3502   0.349   2.248   2.139
  868SOL    HW1 3503   0.279   2.315   2.160
  868SOL    HW2 3504   0.439   2.291   2.143
  869SOL     OW 3505   6.953   3.727   3.644
  869SOL    HW1 3506   0.007   3.660   3.626
  869SOL    HW2 3507   6.954   3.751   3.742
  870SOL     OW 3508   3.535   5.132   2.159
  870SOL    HW1 3509   3.443   5.148   2.123
  870SOL    HW2 3510   3.548   5.185   2.243
  871SOL     OW 3511   4.766   1.513   3.476
  871SOL    HW1 3512   4.673   1.479   3.483
  871SOL    HW2 3513   4.826   1.441   3.442
  872SOL     OW 3514   0.711   2.202   4.759
  872SOL    HW1 3515   0.739   2.291   4.722
  872SOL    HW2 3516   0.739   2.195   4.855
  873SOL     OW 3517   3.904   0.045   6.105
  873SOL    HW1 3518   3.886   0.065   6.008
  873SOL    HW2 3519   3.936   6.969   6.114
  874SOL     OW 3520   4.868   3.997   1.214
  874SOL    HW1 3521   4.769   3.984   1.209
  874SOL    HW2 3522   4.898   4.052   1.137
  875SOL     OW 3523   4.779   5.585   1.463
  875SOL    HW1 3524   4.850   5.641   1.506
  875SOL    HW2 3525   4.696   5.639   1.451
  876SOL     OW 3526   6.960   0.351   0.590
  876SOL    HW1 3527   0.024   0.401   0.564
  876SOL    HW2 3528   6.935   0.374   0.684
  877SOL     OW 3529   1.972   3.542   6.377
  877SOL    HW1 3530   1.880   3.530   6.338
  877SOL    HW2 3531   1.992   3.639   6.388
  878SOL     OW 3532   4.175   6.155   4.575
  878SOL    HW1 3533   4.209   6.084   4.637
  878SOL    HW2 3534   4.189   6.245   4.616
  879SOL     OW 3535   5.827   6.916   0.750
  879SOL    HW1 3536   5.845   6.858   0.830
  879SOL    HW2 3537   5.898   6.902   0.681
  880SOL     OW 3538   2.854   3.413   2.276
  880SOL    HW1 3539   2.759   3.440   2.260
  880SOL    HW2 3540   2.895   3.386   2.189
  881SOL     OW 3541   4.215   1.623   0.678
  881SOL    HW1 3542   4.275   1.703   0.688
  881SOL    HW2 3543   4.124   1.646   0.713
  882SOL     OW 3544   1.507   3.157   4.616
  882SOL    HW1 3545   1.549   3.074   4.654
  882SOL    HW2 3546   1.557   3.185   4.534
  883SOL     OW 3547   2.689   6.961   2.712
  883SOL    HW1 3548   2.614   6.895   2.715
  883SOL    HW2 3549   2.690   7.014   2.797
  884SOL     OW 3550   4.408   3.643   5.728
  884SOL    HW1 3551   4.321   3.649   5.680
  884SOL    HW2 3552   4.448   3.553   5.714
  885SOL     OW 3553   3.779   2.651   6.201
  885SOL    HW1 3554   3.755   2.580   6.135
  885SOL    HW2 3555   3.846   2.616   6.266
  886SOL     OW 3556   3.356   0.861   6.951
  886SOL    HW1 3557   3.411   0.923   7.008
  886SOL    HW2 3558   3.416   0.807   6.893
  887SOL     OW 3559   4.769   1.424   4.406
  887SOL    HW1 3560   4.759   1.349   4.472
  887SOL    HW2 3561   4.805   1.505   4.453
  888SOL     OW 3562   6.683   6.891   3.072
  888SOL    HW1 3563   6.737   6.807   3.060
  888SOL    HW2 3564   6.696   6.926   3.165
  889SOL     OW 3565   0.383   3.504   6.794
  889SOL    HW1 3566   0.417   3.559   6.870
  889SOL    HW2 3567   0.376   3.408   6.822
  890SOL     OW 3568   2.279   5.013   4.112
  890SOL    HW1 3569   2.253   5.017   4.209
  890SOL    HW2 3570   2.378   5.025   4.104
  891SOL     OW 3571   4.528   5.764   1.729
  891SOL    HW1 3572   4.484   5.740   1.816
  891SOL    HW2 3573   4.510   5.693   1.662
  892SOL     OW 3574   3.045   4.345   0.550
  892SOL    HW1 3575   3.006   4.305   0.633
  892SOL    HW2 3576   3.030   4.444   0.550
  893SOL     OW 3577   2.350   6.619   2.481
  893SOL    HW1 3578   2.385   6.587   2.393
  893SOL    HW2 3579   2.349   6.544   2.547
  894SOL     OW 3580   0.729   4.257   1.092
  894SOL    HW1 3581   0.757   4.337   1.040
  894SOL    HW2 3582   0.632   4.264   1.115
  895SOL     OW 3583   0.339   5.566   4.051
  895SOL    HW1 3584   0.352   5.475   4.011
  895SOL    HW2 3585   0.242   5.579   4.072
  896SOL     OW 3586   6.911   0.056   6.093
  896SOL    HW1 3587   6.895   6.976   6.102
  896SOL    HW2 3588   6.861   0.105   6.164
  897SOL     OW 3589   5.182   0.622   0.093
  897SOL    HW1 3590   5.249   0.565   0.139
  897SOL    HW2 3591   5.193   0.613   7.012
  898SOL     OW 3592   3.953   6.124   3.261
  898SOL    HW1 3593   3.975   6.086   3.351
  898SOL    HW2 3594   4.026   6.103   3.197
  899SOL     OW 3595   0.309   4.917   0.126
  899SOL    HW1 3596   0.266   4.893   0.039
  899SOL    HW2 3597   0.247   4.976   0.178
  900SOL     OW 3598   5.012   5.027   0.526
  900SOL    HW1 3599   5.032   5.120   0.496
  900SOL    HW2 3600   4.974   4.975   0.449
  901SOL     OW 3601   1.429   0.921   2.310
  901SOL    HW1 3602   1.469   0.994   2.255
  901SOL    HW2 3603   1.468   0.833   2.283
  902SOL     OW 3604   5.989   3.659   2.189
  902SOL    HW1 3605   5.959   3.600   2.264
  902SOL    HW2 3606   5.938   3.745   2.192
  903SOL     OW 3607   7.014   2.515   0.754
  903SOL    HW1 3608   0.078   2.570   0.739
  903SOL    HW2 3609   6.933   2.573   0.743
  904SOL     OW 3610   2.946   1.558   1.967
  904SOL    HW1 3611   2.989   1.641   2.002
  904SOL    HW2 3612   2.856   1.580   1.931
  905SOL     OW 3613   6.152   3.026   6.347
  905SOL    HW1 3614   6.243   3.011   6.310
  905SOL    HW2 3615   6.157   3.090   6.424
  906SOL     OW 3616   5.923   3.821   6.893
  906SOL    HW1 3617   6.014   3.804   6.930
  906SOL    HW2 3618   5.854   3.778   6.952
  907SOL     OW 3619   5.256   4.235   0.008
  907SOL    HW1 3620   5.219   4.324   0.036
  907SOL    HW2 3621   5.239   4.221   6.929
  908SOL     OW 3622   1.372   4.324   2.572
  908SOL    HW1 3623   1.401   4.276   2.489
  908SOL    HW2 3624   1.278   4.357   2.561
  909SOL     OW 3625   5.094   5.214   6.377
  909SOL    HW1 3626   5.079   5.147   6.304
  909SOL    HW2 3627   5.011   5.269   6.388
  910SOL     OW 3628   2.571   4.184   0.995
  910SOL    HW1 3629   2.501   4.131   1.045
  910SOL    HW2 3630   2.654   4.129   0.988
  911SOL     OW 3631   1.038   5.302   6.413
  911SOL    HW1 3632   0.964   5.332   6.354
  911SOL    HW2 3633   1.038   5.202   6.418
  912SOL     OW 3634   4.808   1.849   3.152
  912SOL    HW1 3635   4.782   1.836   3.247
  912SOL    HW2 3636   4.894   1.801   3.134
  913SOL     OW 3637   5.062   6.983   2.819
  913SOL    HW1 3638   5.133   0.020   2.775
  913SOL    HW2 3639   5.095   6.949   2.907
  914SOL     OW 3640   2.816   0.250   6.689
  914SOL    HW1 3641   2.725   0.212   6.703
  914SOL    HW2 3642   2.830   0.270   6.592
  915SOL     OW 3643   5.332   5.463   0.914
  915SOL    HW1 3644   5.375   5.372   0.912
  915SOL    HW2 3645   5.347   5.508   0.826
  916SOL     OW 3646   1.511   2.185   2.447
  916SOL    HW1 3647   1.593   2.228   2.411
  916SOL    HW2 3648   1.533   2.140   2.534
  917SOL     OW 3649   6.508   6.746   0.910
  917SOL    HW1 3650   6.438   6.814   0.932
  917SOL    HW2 3651   6.519   6.683   0.987
  918SOL     OW 3652   2.404   5.364   0.394
  918SOL    HW1 3653   2.349   5.412   0.461
  918SOL    HW2 3654   2.368   5.382   0.302
  919SOL     OW 3655   5.681   2.116   4.738
  919SOL    HW1 3656   5.747   2.141   4.808
  919SOL    HW2 3657   5.674   2.190   4.670
  920SOL     OW 3658   2.596   5.463   2.465
  920SOL    HW1 3659   2.662   5.531   2.495
  920SOL    HW2 3660   2.540   5.434   2.543
  921SOL     OW 3661   4.882   5.115   5.043
  921SOL    HW1 3662   4.971   5.151   5.068
  921SOL    HW2 3663   4.810   5.178   5.073
  922SOL     OW 3664   3.626   2.942   3.640
  922SOL    HW1 3665   3.572   2.904   3.715
  922SOL    HW2 3666   3.586   3.029   3.611
  923SOL     OW 3667   2.202   3.505   5.422
  923SOL    HW1 3668   2.192   3.594   5.378
  923SOL    HW2 3669   2.295   3.472   5.408
  924SOL     OW 3670   0.371   3.719   2.457
  924SOL    HW1 3671   0.275   3.742   2.444
  924SOL    HW2 3672   0.378   3.624   2.489
  925SOL     OW 3673   6.825   1.825   0.051
  925SOL    HW1 3674   6.883   1.870   0.120
  925SOL    HW2 3675   6.784   1.743   0.090
  926SOL     OW 3676   1.484   1.308   2.143
  926SOL    HW1 3677   1.407   1.359   2.182
  926SOL    HW2 3678   1.508   1.347   2.054
  927SOL     OW 3679   5.987   3.395   3.786
  927SOL    HW1 3680   6.020   3.344   3.866
  927SOL    HW2 3681   6.037   3.481   3.778
  928SOL     OW 3682   3.218   4.555   6.104
  928SOL    HW1 3683   3.198   4.625   6.172
  928SOL    HW2 3684   3.241   4.598   6.017
  929SOL     OW 3685   0.046   1.109   4.958
  929SOL    HW1 3686   0.124   1.069   5.005
  929SOL    HW2 3687   6.989   1.123   5.023
  930SOL     OW 3688   5.701   4.712   6.150
  930SOL    HW1 3689   5.735   4.785   6.210
  930SOL    HW2 3690   5.643   4.753   6.079
  931SOL     OW 3691   6.353   1.604   3.496
  931SOL    HW1 3692   6.360   1.658   3.580
  931SOL    HW2 3693   6.444   1.584   3.461
  932SOL     OW 3694   3.903   0.531   3.569
  932SOL    HW1 3695   3.884   0.483   3.655
  932SOL    HW2 3696   3.998   0.562   3.568
  933SOL     OW 3697   1.446   5.441   1.938
  933SOL    HW1 3698   1.447   5.537   1.966
  933SOL    HW2 3699   1.439   5.382   2.018
  934SOL     OW 3700   1.419   3.836   0.220
  934SOL    HW1 3701   1.344   3.772   0.205
  934SOL    HW2 3702   1.473   3.806   0.299
  935SOL     OW 3703   5.964   3.280   4.041
  935SOL    HW1 3704   6.033   3.211   4.060
  935SOL    HW2 3705   5.873   3.239   4.050
  936SOL     OW 3706   1.455   6.912   5.752
  936SOL    HW1 3707   1.542   6.941   5.792
  936SOL    HW2 3708   1.473   6.847   5.678
  937SOL     OW 3709   3.696   1.703   5.639
  937SOL    HW1 3710   3.728   1.630   5.579
  937SOL    HW2 3711   3.700   1.791   5.590
  938SOL     OW 3712   6.027   5.342   4.281
  938SOL    HW1 3713   5.972   5.402   4.222
  938SOL    HW2 3714   6.122   5.373   4.279
  939SOL     OW 3715   0.033   6.788   6.169
  939SOL    HW1 3716   0.007   6.699   6.208
  939SOL    HW2 3717   0.089   6.773   6.088
  940SOL     OW 3718   2.070   4.674   6.914
  940SOL    HW1 3719   2.058   4.653   7.011
  940SOL    HW2 3720   2.086   4.773   6.904
  941SOL     OW 3721   3.623   0.560   0.322
  941SOL    HW1 3722   3.605   0.518   0.411
  941SOL    HW2 3723   3.555   0.631   0.303
  942SOL     OW 3724   0.303   5.413   0.348
  942SOL    HW1 3725   0.355   5.328   0.358
  942SOL    HW2 3726   0.241   5.404   0.270
  943SOL     OW 3727   3.376   5.689   1.823
  943SOL    HW1 3728   3.302   5.657   1.764
  943SOL    HW2 3729   3.355   5.669   1.918
  944SOL     OW 3730   6.409   6.706   4.270
  944SOL    HW1 3731   6.321   6.673   4.305
  944SOL    HW2 3732   6.469   6.628   4.254
  945SOL     OW 3733   0.847   5.416   0.174
  945SOL    HW1 3734   0.863   5.514   0.180
  945SOL    HW2 3735   0.750   5.398   0.161
  946SOL     OW 3736   5.124   2.607   4.223
  946SOL    HW1 3737   5.144   2.514   4.194
  946SOL    HW2 3738   5.180   2.630   4.303
  947SOL     OW 3739   3.694   4.030   3.987
  947SOL    HW1 3740   3.772   4.076   3.945
  947SOL    HW2 3741   3.688   3.937   3.951
  948SOL     OW 3742   3.876   0.897   2.575
  948SOL    HW1 3743   3.844   0.986   2.543
  948SOL    HW2 3744   3.907   0.843   2.496
  949SOL     OW 3745   3.032   6.976   5.935
  949SOL    HW1 3746   3.100   6.926   5.881
  949SOL    HW2 3747   2.968   6.911   5.976
  950SOL     OW 3748   6.951   0.052   2.171
  950SOL    HW1 3749   6.972   0.038   2.074
  950SOL    HW2 3750   6.854   0.074   2.182
  951SOL     OW 3751   2.294   6.760   3.148
  951SOL    HW1 3752   2.355   6.682   3.163
  951SOL    HW2 3753   2.256   6.756   3.056
  952SOL     OW 3754   3.159   1.001   2.727
  952SOL    HW1 3755   3.087   1.056   2.770
  952SOL    HW2 3756   3.231   1.061   2.693
  953SOL     OW 3757   6.855   4.468   5.904
  953SOL    HW1 3758   6.949   4.445   5.927
  953SOL    HW2 3759   6.827   4.550   5.954
  954SOL     OW 3760   4.355   5.896   2.891
  954SOL    HW1 3761   4.370   5.823   2.823
  954SOL    HW2 3762   4.280   5.869   2.952
  955SOL     OW 3763   1.949   4.591   0.558
  955SOL    HW1 3764   1.855   4.602   0.525
  955SOL    HW2 3765   1.984   4.502   0.531
  956SOL     OW 3766   4.993   0.491   1.135
  956SOL    HW1 3767   5.039   0.562   1.082
  956SOL    HW2 3768   4.929   0.533   1.199
  957SOL     OW 3769   5.933   1.435   3.211
  957SOL    HW1 3770   5.937   1.344   3.170
  957SOL    HW2 3771   6.025   1.463   3.239
  958SOL     OW 3772   5.407   0.081   1.605
  958SOL    HW1 3773   5.345   0.084   1.682
  958SOL    HW2 3774   5.393   0.161   1.546
  959SOL     OW 3775   4.444   6.523   4.117
  959SOL    HW1 3776   4.478   6.539   4.210
  959SOL    HW2 3777   4.371   6.589   4.097
  960SOL     OW 3778   1.473   6.726   6.467
  960SOL    HW1 3779   1.390   6.702   6.417
  960SOL    HW2 3780   1.528   6.789   6.411
  961SOL     OW 3781   3.347   0.086   3.002
  961SOL    HW1 3782   3.288   0.006   2.995
  961SOL    HW2 3783   3.396   0.083   3.089
  962SOL     OW 3784   6.324   0.588   4.460
  962SOL    HW1 3785   6.339   0.492   4.482
  962SOL    HW2 3786   6.404   0.624   4.411
  963SOL     OW 3787   5.539   3.219   0.929
  963SOL    HW1 3788   5.528   3.258   0.837
  963SOL    HW2 3789   5.468   3.255   0.989
  964SOL     OW 3790   4.787   5.014   5.353
  964SOL    HW1 3791   4.853   5.085   5.329
  964SOL    HW2 3792   4.780   5.008   5.453
  965SOL     OW 3793   5.716   2.250   3.624
  965SOL    HW1 3794   5.649   2.178   3.611
  965SOL    HW2 3795   5.789   2.242   3.556
  966SOL     OW 3796   4.502   1.207   4.422
  966SOL    HW1 3797   4.496   1.302   4.389
  966SOL    HW2 3798   4.429   1.153   4.381
  967SOL     OW 3799   4.422   3.807   6.398
  967SOL    HW1 3800   4.518   3.780   6.407
  967SOL    HW2 3801   4.368   3.730   6.364
  968SOL     OW 3802   3.910   0.835   1.572
  968SOL    HW1 3803   3.881   0.739   1.576
  968SOL    HW2 3804   3.963   0.858   1.653
  969SOL     OW 3805   2.854   4.062   6.441
  969SOL    HW1 3806   2.937   4.007   6.430
  969SOL    HW2 3807   2.795   4.019   6.511
  970SOL     OW 3808   5.192   6.624   5.977
  970SOL    HW1 3809   5.220   6.718   5.960
  970SOL    HW2 3810   5.092   6.618   5.980
  971SOL     OW 3811   5.469   3.623   3.468
  971SOL    HW1 3812   5.374   3.626   3.498
  971SOL    HW2 3813   5.483   3.542   3.411
  972SOL     OW 3814   6.979   2.749   0.428
  972SOL    HW1 3815   6.970   2.849   0.427
  972SOL    HW2 3816   6.894   2.708   0.395
  973SOL     OW 3817   0.106   3.191   6.101
  973SOL    HW1 3818   0.110   3.224   6.195
  973SOL    HW2 3819   0.013   3.198   6.066
  974SOL     OW 3820   0.004   4.957   2.797
  974SOL    HW1 3821   0.089   4.930   2.752
  974SOL    HW2 3822   6.948   4.956   2.731
  975SOL     OW 3823   3.191   0.586   2.175
  975SOL    HW1 3824   3.244   0.581   2.090
  975SOL    HW2 3825   3.191   0.680   2.209
  976SOL     OW 3826   7.017   3.524   3.352
  976SOL    HW1 3827   6.975   3.607   3.316
  976SOL    HW2 3828   6.952   3.478   3.413
  977SOL     OW 3829   6.404   0.392   2.153
  977SOL    HW1 3830   6.496   0.355   2.137
  977SOL    HW2 3831   6.412   0.475   2.209
  978SOL     OW 3832   5.499   3.196   2.194
  978SOL    HW1 3833   5.573   3.248   2.237
  978SOL    HW2 3834   5.509   3.199   2.095
  979SOL     OW 3835   0.377   4.251   0.034
  979SOL    HW1 3836   0.356   4.237   0.131
  979SOL    HW2 3837   0.397   4.348   0.018
  980SOL     OW 3838   3.650   0.864   4.664
  980SOL    HW1 3839   3.656   0.854   4.565
  980SOL    HW2 3840   3.731   0.912   4.698
  981SOL     OW 3841   0.076   0.153   5.706
  981SOL    HW1 3842   0.150   0.120   5.648
  981SOL    HW2 3843   0.113   0.186   5.793
  982SOL     OW 3844   5.957   1.140   5.664
  982SOL    HW1 3845   5.886   1.183   5.720
  982SOL    HW2 3846   5.918   1.062   5.616
  983SOL     OW 3847   0.636   4.865   3.928
  983SOL    HW1 3848   0.711   4.931   3.937
  983SOL    HW2 3849   0.639   4.801   4.005
  984SOL     OW 3850   0.776   3.446   3.736
  984SOL    HW1 3851   0.723   3.390   3.672
  984SOL    HW2 3852   0.776   3.403   3.826
  985SOL     OW 3853   6.500   4.910   5.276
  985SOL    HW1 3854   6.511   5.000   5.318
  985SOL    HW2 3855   6.437   4.917   5.199
  986SOL     OW 3856   4.721   5.337   1.595
  986SOL    HW1 3857   4.772   5.423   1.589
  986SOL    HW2 3858   4.623   5.357   1.602
  987SOL     OW 3859   4.568   4.387   4.238
  987SOL    HW1 3860   4.554   4.416   4.143
  987SOL    HW2 3861   4.644   4.322   4.242
  988SOL     OW 3862   2.303   4.611   2.151
  988SOL    HW1 3863   2.279   4.522   2.188
  988SOL    HW2 3864   2.398   4.633   2.175
  989SOL     OW 3865   1.408   2.084   0.714
  989SOL    HW1 3866   1.358   2.134   0.643
  989SOL    HW2 3867   1.356   2.087   0.800
  990SOL     OW 3868   3.605   0.341   4.270
  990SOL    HW1 3869   3.506   0.345   4.283
  990SOL    HW2 3870   3.636   0.246   4.279
  991SOL     OW 3871   6.922   5.404   4.032
  991SOL    HW1 3872   6.975   5.489   4.041
  991SOL    HW2 3873   6.827   5.427   4.012
  992SOL     OW 3874   6.853   2.270   0.114
  992SOL    HW1 3875   6.778   2.315   0.065
  992SOL    HW2 3876   6.821   2.185   0.155
  993SOL     OW 3877   1.644   5.040   0.123
  993SOL    HW1 3878   1.652   4.944   0.095
  993SOL    HW2 3879   1.609   5.045   0.216
  994SOL     OW 3880   3.200   6.084   0.350
  994SOL    HW1 3881   3.226   6.180   0.345
  994SOL    HW2 3882   3.236   6.044   0.434
  995SOL     OW 3883   6.570   4.386   6.223
  995SOL    HW1 3884   6.504   4.461   6.220
  995SOL    HW2 3885   6.593   4.358   6.130
  996SOL     OW 3886   3.771   5.831   4.414
  996SOL    HW1 3887   3.760   5.748   4.360
  996SOL    HW2 3888   3.805   5.808   4.505
  997SOL     OW 3889   1.567   6.681   3.380
  997SOL    HW1 3890   1.480   6.660   3.423
  997SOL    HW2 3891   1.572   6.780   3.362
  998SOL     OW 3892   4.915   0.503   6.186
  998SOL    HW1 3893   4.856   0.491   6.266
  998SOL    HW2 3894   4.864   0.550   6.114
  999SOL     OW 3895   4.877   3.788   2.417
  999SOL    HW1 3896   4.946   3.738   2.469
  999SOL    HW2 3897   4.860   3.741   2.330
 1000SOL     OW 3898   5.151   2.293   1.722
 1000SOL    HW1 3899   5.117   2.349   1.797
 1000SOL    HW2 3900   5.224   2.341   1.674
 1001SOL     OW 3901   2.837   0.278   2.726
 1001SOL    HW1 3902   2.766   0.344   2.753
 1001SOL    HW2 3903   2.879   0.308   2.640
 1002SOL     OW 3904   5.384   2.372   1.287
 1002SOL    HW1 3905   5.387   2.304   1.213
 1002SOL    HW2 3906   5.360   2.461   1.250
 1003SOL     OW 3907   0.797   0.402   3.295
 1003SOL    HW1 3908   0.710   0.421   3.340
 1003SOL    HW2 3909   0.872   0.429   3.356
 1004SOL     OW 3910   5.129   1.319   4.061
 1004SOL    HW1 3911   5.106   1.340   3.966
 1004SOL    HW2 3912   5.079   1.380   4.122
 1005SOL     OW 3913   1.635   4.870   2.218
 1005SOL    HW1 3914   1.645   4.970   2.226
 1005SOL    HW2 3915   1.680   4.839   2.135
 1006SOL     OW 3916   2.547   3.931   1.247
 1006SOL    HW1 3917   2.456   3.894   1.265
 1006SOL    HW2 3918   2.615   3.881   1.301
 1007SOL     OW 3919   4.679   0.913   6.481
 1007SOL    HW1 3920   4.745   0.978   6.445
 1007SOL    HW2 3921   4.589   0.957   6.487
 1008SOL     OW 3922   0.362   4.840   5.624
 1008SOL    HW1 3923   0.372   4.808   5.529
 1008SOL    HW2 3924   0.296   4.914   5.627
 1009SOL     OW 3925   6.999   5.830   5.866
 1009SOL    HW1 3926   0.028   5.758   5.916
 1009SOL    HW2 3927   0.032   5.916   5.874
 1010SOL     OW 3928   2.818   3.225   0.836
 1010SOL    HW1 3929   2.753   3.237   0.910
 1010SOL    HW2 3930   2.788   3.149   0.778
 1011SOL     OW 3931   0.184   5.211   2.342
 1011SOL    HW1 3932   0.174   5.134   2.279
 1011SOL    HW2 3933   0.237   5.283   2.298
 1012SOL     OW 3934   4.814   6.536   3.612
 1012SOL    HW1 3935   4.819   6.437   3.624
 1012SOL    HW2 3936   4.868   6.562   3.532
 1013SOL     OW 3937   0.051   6.948   6.725
 1013SOL    HW1 3938   0.082   0.017   6.763
 1013SOL    HW2 3939   0.129   6.898   6.688
 1014SOL     OW 3940   1.161   4.313   4.902
 1014SOL    HW1 3941   1.178   4.266   4.988
 1014SOL    HW2 3942   1.189   4.409   4.911
 1015SOL     OW 3943   2.947   6.406   6.966
 1015SOL    HW1 3944   2.882   6.481   6.965
 1015SOL    HW2 3945   2.955   6.369   0.040
 1016SOL     OW 3946   6.187   3.970   1.726
 1016SOL    HW1 3947   6.278   4.013   1.722
 1016SOL    HW2 3948   6.197   3.874   1.753
 1017SOL     OW 3949   2.432   1.495   1.713
 1017SOL    HW1 3950   2.376   1.557   1.769
 1017SOL    HW2 3951   2.471   1.424   1.772
 1018SOL     OW 3952   6.732   6.599   5.048
 1018SOL    HW1 3953   6.716   6.642   5.136
 1018SOL    HW2 3954   6.824   6.560   5.046
 1019SOL     OW 3955   6.465   4.422   1.162
 1019SOL    HW1 3956   6.415   4.496   1.118
 1019SOL    HW2 3957   6.547   4.400   1.108
 1020SOL     OW 3958   5.697   1.077   0.894
 1020SOL    HW1 3959   5.792   1.103   0.884
 1020SOL    HW2 3960   5.655   1.066   0.804
 1021SOL     OW 3961   0.727   6.633   1.336
 1021SOL    HW1 3962   0.708   6.697   1.410
 1021SOL    HW2 3963   0.686   6.666   1.251
 1022SOL     OW 3964   2.447   5.772   6.608
 1022SOL    HW1 3965   2.406   5.788   6.518
 1022SOL    HW2 3966   2.506   5.849   6.632
 1023SOL     OW 3967   0.647   0.931   3.565
 1023SOL    HW1 3968   0.720   1.000   3.569
 1023SOL    HW2 3969   0.560   0.976   3.547
 1024SOL     OW 3970   1.867   1.892   4.226
 1024SOL    HW1 3971   1.913   1.948   4.158
 1024SOL    HW2 3972   1.918   1.807   4.239
 1025SOL     OW 3973   4.488   4.090   0.085
 1025SOL    HW1 3974   4.464   4.014   0.146
 1025SOL    HW2 3975   4.550   4.152   0.133
 1026SOL     OW 3976   3.125   2.767   1.669
 1026SOL    HW1 3977   3.154   2.673   1.690
 1026SOL    HW2 3978   3.205   2.822   1.646
 1027SOL     OW 3979   0.589   6.699   0.703
 1027SOL    HW1 3980   0.543   6.787   0.714
 1027SOL    HW2 3981   0.522   6.625   0.706
 1028SOL     OW 3982   1.513   5.915   2.584
 1028SOL    HW1 3983   1.501   5.828   2.632
 1028SOL    HW2 3984   1.475   5.989   2.640
 1029SOL     OW 3985   0.735   0.998   5.986
 1029SOL    HW1 3986   0.645   1.024   5.952
 1029SOL    HW2 3987   0.803   1.013   5.914
 1030SOL     OW 3988   3.786   3.141   1.300
 1030SOL    HW1 3989   3.772   3.221   1.243
 1030SOL    HW2 3990   3.758   3.059   1.250
 1031SOL     OW 3991   3.877   2.720   0.724
 1031SOL    HW1 3992   3.789   2.755   0.694
 1031SOL    HW2 3993   3.914   2.779   0.796
 1032SOL     OW 3994   2.109   1.604   6.600
 1032SOL    HW1 3995   2.060   1.558   6.525
 1032SOL    HW2 3996   2.042   1.644   6.663
 1033SOL     OW 3997   0.367   6.641   2.677
 1033SOL    HW1 3998   0.298   6.657   2.747
 1033SOL    HW2 3999   0.399   6.546   2.684
 1034SOL     OW 4000   2.907   0.592   4.461
 1034SOL    HW1 4001   2.887   0.591   4.559
 1034SOL    HW2 4002   3.005   0.611   4.447
 1035SOL     OW 4003   1.440   1.638   6.618
 1035SOL    HW1 4004   1.396   1.722   6.586
 1035SOL    HW2 4005   1.526   1.624   6.567
 1036SOL     OW 4006   5.032   1.359   1.415
 1036SOL    HW1 4007   5.016   1.332   1.510
 1036SOL    HW2 4008   4.954   1.329   1.359
 1037SOL     OW 4009   1.555   3.302   1.598
 1037SOL    HW1 4010   1.604   3.217   1.578
 1037SOL    HW2 4011   1.573   3.330   1.692
 1038SOL     OW 4012   2.697   5.569   0.072
 1038SOL    HW1 4013   2.653   5.526   7.011
 1038SOL    HW2 4014   2.647   5.653   0.096
 1039SOL     OW 4015   3.866   3.006   2.632
 1039SOL    HW1 4016   3.955   3.036   2.598
 1039SOL    HW2 4017   3.815   2.963   2.558
 1040SOL     OW 4018   3.739   2.173   3.310
 1040SOL    HW1 4019   3.806   2.145   3.241
 1040SOL    HW2 4020   3.785   2.187   3.398
 1041SOL     OW 4021   6.699   5.956   6.327
 1041SOL    HW1 4022   6.699   5.916   6.236
 1041SOL    HW2 4023   6.611   5.937   6.372
 1042SOL     OW 4024   5.656   4.304   3.170
 1042SOL    HW1 4025   5.700   4.393   3.159
 1042SOL    HW2 4026   5.561   4.318   3.198
 1043SOL     OW 4027   2.711   2.364   3.271
 1043SOL    HW1 4028   2.789   2.423   3.287
 1043SOL    HW2 4029   2.718   2.323   3.180
 1044SOL     OW 4030   5.580   4.852   1.557
 1044SOL    HW1 4031   5.639   4.867   1.478
 1044SOL    HW2 4032   5.636   4.846   1.640
 1045SOL     OW 4033   2.333   0.224   2.208
 1045SOL    HW1 4034   2.285   0.307   2.233
 1045SOL    HW2 4035   2.268   0.150   2.192
 1046SOL     OW 4036   2.803   1.712   1.182
 1046SOL    HW1 4037   2.814   1.694   1.280
 1046SOL    HW2 4038   2.838   1.804   1.161
 1047SOL     OW 4039   3.501   6.432   3.319
 1047SOL    HW1 4040   3.433   6.408   3.388
 1047SOL    HW2 4041   3.552   6.351   3.292
 1048SOL     OW 4042   1.429   6.126   2.748
 1048SOL    HW1 4043   1.356   6.116   2.817
 1048SOL    HW2 4044   1.433   6.221   2.718
 1049SOL     OW 4045   4.371   5.941   4.753
 1049SOL    HW1 4046   4.305   5.892   4.810
 1049SOL    HW2 4047   4.462   5.935   4.793
 1050SOL     OW 4048   3.062   5.629   3.207
 1050SOL    HW1 4049   3.092   5.718   3.172
 1050SOL    HW2 4050   2.974   5.605   3.167
 1051SOL     OW 4051   1.008   0.882   6.387
 1051SOL    HW1 4052   0.937   0.951   6.402
 1051SOL    HW2 4053   1.096   0.928   6.375
 1052SOL     OW 4054   3.336   1.225   0.147
 1052SOL    HW1 4055   3.416   1.257   0.198
 1052SOL    HW2 4056   3.255   1.237   0.204
 1053SOL     OW 4057   4.975   2.083   4.052
 1053SOL    HW1 4058   4.950   2.003   4.106
 1053SOL    HW2 4059   5.071   2.075   4.024
 1054SOL     OW 4060   3.986   5.050   5.783
 1054SOL    HW1 4061   3.951   4.960   5.811
 1054SOL    HW2 4062   4.067   5.072   5.837
 1055SOL     OW 4063   4.843   5.855   6.453
 1055SOL    HW1 4064   4.760   5.804   6.472
 1055SOL    HW2 4065   4.865   5.850   6.356
 1056SOL     OW 4066   3.124   3.870   0.164
 1056SOL    HW1 4067   3.145   3.931   0.241
 1056SOL    HW2 4068   3.031   3.887   0.132
 1057SOL     OW 4069   3.023   2.453   0.919
 1057SOL    HW1 4070   2.938   2.503   0.901
 1057SOL    HW2 4071   3.002   2.365   0.961
 1058SOL     OW 4072   2.879   2.107   2.433
 1058SOL    HW1 4073   2.827   2.184   2.397
 1058SOL    HW2 4074   2.961   2.093   2.378
 1059SOL     OW 4075   2.545   6.237   1.447
 1059SOL    HW1 4076   2.575   6.141   1.445
 1059SOL    HW2 4077   2.452   6.243   1.483
 1060SOL     OW 4078   6.391   0.059   5.412
 1060SOL    HW1 4079   6.349   0.005   5.485
 1060SOL    HW2 4080   6.342   0.044   5.326
 1061SOL     OW 4081   6.915   3.879   6.170
 1061SOL    HW1 4082   6.874   3.964   6.137
 1061SOL    HW2 4083   6.844   3.809   6.179
 1062SOL     OW 4084   3.788   6.461   4.620
 1062SOL    HW1 4085   3.804   6.515   4.537
 1062SOL    HW2 4086   3.771   6.366   4.595
 1063SOL     OW 4087   3.587   6.521   5.289
 1063SOL    HW1 4088   3.521   6.592   5.312
 1063SOL    HW2 4089   3.539   6.438   5.263
 1064SOL     OW 4090   1.648   3.729   0.339
 1064SOL    HW1 4091   1.670   3.648   0.393
 1064SOL    HW2 4092   1.652   3.706   0.242
 1065SOL     OW 4093   5.116   0.686   4.675
 1065SOL    HW1 4094   5.034   0.631   4.690
 1065SOL    HW2 4095   5.192   0.626   4.650
 1066SOL     OW 4096   5.526   6.884   1.814
 1066SOL    HW1 4097   5.582   6.940   1.875
 1066SOL    HW2 4098   5.545   6.788   1.831
 1067SOL     OW 4099   2.617   1.587   0.125
 1067SOL    HW1 4100   2.617   1.528   0.206
 1067SOL    HW2 4101   2.670   1.544   0.052
 1068SOL     OW 4102   6.866   2.971   1.601
 1068SOL    HW1 4103   6.791   3.038   1.597
 1068SOL    HW2 4104   6.910   2.975   1.690
 1069SOL     OW 4105   6.338   3.564   2.044
 1069SOL    HW1 4106   6.375   3.631   2.108
 1069SOL    HW2 4107   6.267   3.509   2.090
 1070SOL     OW 4108   1.510   6.930   2.191
 1070SOL    HW1 4109   1.570   6.889   2.260
 1070SOL    HW2 4110   1.482   6.860   2.126
 1071SOL     OW 4111   0.102   2.732   5.363
 1071SOL    HW1 4112   0.148   2.813   5.328
 1071SOL    HW2 4113   0.128   2.652   5.309
 1072SOL     OW 4114   1.523   1.705   1.891
 1072SOL    HW1 4115   1.481   1.741   1.974
 1072SOL    HW2 4116   1.535   1.780   1.825
 1073SOL     OW 4117   4.382   2.192   3.459
 1073SOL    HW1 4118   4.452   2.194   3.386
 1073SOL    HW2 4119   4.291   2.185   3.417
 1074SOL     OW 4120   2.865   4.822   1.848
 1074SOL    HW1 4121   2.841   4.730   1.880
 1074SOL    HW2 4122   2.813   4.890   1.901
 1075SOL     OW 4123   6.073   4.423   5.782
 1075SOL    HW1 4124   6.137   4.455   5.712
 1075SOL    HW2 4125   6.064   4.324   5.778
 1076SOL     OW 4126   2.001   4.538   4.661
 1076SOL    HW1 4127   1.926   4.524   4.595
 1076SOL    HW2 4128   1.999   4.464   4.728
 1077SOL     OW 4129   0.126   0.005   0.173
 1077SOL    HW1 4130   0.122   0.074   0.245
 1077SOL    HW2 4131   0.052   0.020   0.108
 1078SOL     OW 4132   6.164   6.738   4.397
 1078SOL    HW1 4133   6.081   6.698   4.436
 1078SOL    HW2 4134   6.143   6.828   4.358
 1079SOL     OW 4135   1.109   6.955   1.726
 1079SOL    HW1 4136   1.168   6.997   1.657
 1079SOL    HW2 4137   1.017   6.945   1.689
 1080SOL     OW 4138   3.541   6.311   6.664
 1080SOL    HW1 4139   3.499   6.231   6.708
 1080SOL    HW2 4140   3.585   6.283   6.579
 1081SOL     OW 4141   6.846   5.949   4.508
 1081SOL    HW1 4142   6.796   5.877   4.460
 1081SOL    HW2 4143   6.786   5.991   4.576
 1082SOL     OW 4144   4.034   7.009   6.959
 1082SOL    HW1 4145   4.123   6.979   6.993
 1082SOL    HW2 4146   4.032   0.091   6.958
 1083SOL     OW 4147   5.245   4.046   1.520
 1083SOL    HW1 4148   5.243   3.958   1.471
 1083SOL    HW2 4149   5.186   4.111   1.473
 1084SOL     OW 4150   6.683   0.833   4.913
 1084SOL    HW1 4151   6.617   0.805   4.982
 1084SOL    HW2 4152   6.704   0.930   4.923
 1085SOL     OW 4153   1.732   3.733   4.473
 1085SOL    HW1 4154   1.831   3.726   4.487
 1085SOL    HW2 4155   1.700   3.819   4.514
 1086SOL     OW 4156   5.899   5.528   0.902
 1086SOL    HW1 4157   5.932   5.550   0.994
 1086SOL    HW2 4158   5.886   5.430   0.894
 1087SOL     OW 4159   2.951   0.145   5.301
 1087SOL    HW1 4160   2.997   0.205   5.366
 1087SOL    HW2 4161   3.006   0.139   5.217
 1088SOL     OW 4162   6.649   5.070   3.222
 1088SOL    HW1 4163   6.744   5.042   3.234
 1088SOL    HW2 4164   6.639   5.167   3.244
 1089SOL     OW 4165   6.568   4.545   4.203
 1089SOL    HW1 4166   6.568   4.630   4.256
 1089SOL    HW2 4167   6.641   4.548   4.135
 1090SOL     OW 4168   5.230   1.882   5.315
 1090SOL    HW1 4169   5.215   1.833   5.400
 1090SOL    HW2 4170   5.167   1.848   5.245
 1091SOL     OW 4171   2.044   2.451   2.722
 1091SOL    HW1 4172   2.125   2.408   2.763
 1091SOL    HW2 4173   1.963   2.397   2.744
 1092SOL     OW 4174   0.648   5.568   0.918
 1092SOL    HW1 4175   0.597   5.498   0.868
 1092SOL    HW2 4176   0.666   5.646   0.858
 1093SOL     OW 4177   2.061   0.776   2.860
 1093SOL    HW1 4178   2.025   0.761   2.769
 1093SOL    HW2 4179   2.024   0.708   2.924
 1094SOL     OW 4180   0.630   0.485   3.503
 1094SOL    HW1 4181   0.544   0.453   3.541
 1094SOL    HW2 4182   0.618   0.577   3.465
 1095SOL     OW 4183   4.998   3.361   0.651
 1095SOL    HW1 4184   5.049   3.277   0.629
 1095SOL    HW2 4185   4.918   3.368   0.590
 1096SOL     OW 4186   2.998   6.185   1.432
 1096SOL    HW1 4187   3.006   6.232   1.520
 1096SOL    HW2 4188   2.932   6.233   1.374
 1097SOL     OW 4189   3.086   5.637   4.373
 1097SOL    HW1 4190   3.141   5.554   4.374
 1097SOL    HW2 4191   3.113   5.696   4.449
 1098SOL     OW 4192   6.329   4.344   0.719
 1098SOL    HW1 4193   6.289   4.425   0.762
 1098SOL    HW2 4194   6.261   4.302   0.659
 1099SOL     OW 4195   4.264   6.731   5.697
 1099SOL    HW1 4196   4.206   6.746   5.617
 1099SOL    HW2 4197   4.341   6.672   5.672
 1100SOL     OW 4198   3.865   1.697   4.406
 1100SOL    HW1 4199   3.868   1.600   4.430
 1100SOL    HW2 4200   3.777   1.717   4.362
 1101SOL     OW 4201   5.385   3.295   6.216
 1101SOL    HW1 4202   5.382   3.215   6.276
 1101SOL    HW2 4203   5.346   3.271   6.127
 1102SOL     OW 4204   2.920   0.982   3.165
 1102SOL    HW1 4205   2.837   0.997   3.113
 1102SOL    HW2 4206   2.969   0.903   3.129
 1103SOL     OW 4207   3.197   6.897   0.246
 1103SOL    HW1 4208   3.150   6.880   0.159
 1103SOL    HW2 4209   3.288   6.856   0.243
 1104SOL     OW 4210   0.793   2.984   4.153
 1104SOL    HW1 4211   0.871   2.945   4.104
 1104SOL    HW2 4212   0.822   3.067   4.202
 1105SOL     OW 4213   4.919   1.086   5.818
 1105SOL    HW1 4214   4.964   1.175   5.823
 1105SOL    HW2 4215   4.848   1.080   5.889
 1106SOL     OW 4216   6.996   1.701   0.371
 1106SOL    HW1 4217   0.009   1.792   0.345
 1106SOL    HW2 4218   6.900   1.706   0.399
 1107SOL     OW 4219   0.787   1.484   6.677
 1107SOL    HW1 4220   0.846   1.415   6.634
 1107SOL    HW2 4221   0.737   1.443   6.753
 1108SOL     OW 4222   2.868   6.995   3.648
 1108SOL    HW1 4223   2.946   7.015   3.706
 1108SOL    HW2 4224   2.896   6.994   3.552
 1109SOL     OW 4225   4.581   2.086   4.803
 1109SOL    HW1 4226   4.565   2.153   4.876
 1109SOL    HW2 4227   4.531   2.114   4.721
 1110SOL     OW 4228   2.413   0.872   2.136
 1110SOL    HW1 4229   2.470   0.952   2.119
 1110SOL    HW2 4230   2.363   0.848   2.053
 1111SOL     OW 4231   5.847   4.215   6.680
 1111SOL    HW1 4232   5.943   4.223   6.656
 1111SOL    HW2 4233   5.791   4.221   6.597
 1112SOL     OW 4234   5.338   0.269   2.117
 1112SOL    HW1 4235   5.297   0.358   2.137
 1112SOL    HW2 4236   5.418   0.282   2.058
 1113SOL     OW 4237   5.634   4.273   2.583
 1113SOL    HW1 4238   5.559   4.338   2.596
 1113SOL    HW2 4239   5.701   4.285   2.656
 1114SOL     OW 4240   3.364   4.297   5.284
 1114SOL    HW1 4241   3.312   4.273   5.202
 1114SOL    HW2 4242   3.434   4.228   5.300
 1115SOL     OW 4243   2.637   4.265   5.417
 1115SOL    HW1 4244   2.638   4.229   5.510
 1115SOL    HW2 4245   2.713   4.227   5.366
 1116SOL     OW 4246   4.208   6.989   6.657
 1116SOL    HW1 4247   4.160   0.004   6.576
 1116SOL    HW2 4248   4.183   6.894   6.674
 1117SOL     OW 4249   2.194   2.479   1.245
 1117SOL    HW1 4250   2.237   2.435   1.166
 1117SOL    HW2 4251   2.263   2.531   1.296
 1118SOL     OW 4252   3.840   5.190   0.049
 1118SOL    HW1 4253   3.760   5.158   0.099
 1118SOL    HW2 4254   3.813   5.260   7.001
 1119SOL     OW 4255   2.799   5.348   4.391
 1119SOL    HW1 4256   2.781   5.447   4.395
 1119SOL    HW2 4257   2.876   5.332   4.329
 1120SOL     OW 4258   6.708   4.276   1.126
 1120SOL    HW1 4259   6.769   4.233   1.059
 1120SOL    HW2 4260   6.687   4.211   1.199
 1121SOL     OW 4261   7.010   4.634   4.215
 1121SOL    HW1 4262   0.031   4.721   4.186
 1121SOL    HW2 4263   0.035   4.559   4.165
 1122SOL     OW 4264   5.577   2.494   2.046
 1122SOL    HW1 4265   5.565   2.572   2.107
 1122SOL    HW2 4266   5.613   2.416   2.098
 1123SOL     OW 4267   3.720   1.234   3.083
 1123SOL    HW1 4268   3.650   1.225   3.012
 1123SOL    HW2 4269   3.746   1.144   3.117
 1124SOL     OW 4270   2.447   2.532   4.167
 1124SOL    HW1 4271   2.512   2.462   4.199
 1124SOL    HW2 4272   2.356   2.511   4.200
 1125SOL     OW 4273   2.169   3.936   3.491
 1125SOL    HW1 4274   2.181   4.021   3.440
 1125SOL    HW2 4275   2.172   3.956   3.589
 1126SOL     OW 4276   4.149   4.848   4.748
 1126SOL    HW1 4277   4.230   4.800   4.781
 1126SOL    HW2 4278   4.094   4.878   4.826
 1127SOL     OW 4279   5.948   6.714   2.588
 1127SOL    HW1 4280   5.896   6.712   2.673
 1127SOL    HW2 4281   6.021   6.782   2.594
 1128SOL     OW 4282   5.134   1.047   4.129
 1128SOL    HW1 4283   5.214   1.030   4.186
 1128SOL    HW2 4284   5.128   1.144   4.107
 1129SOL     OW 4285   1.335   0.987   0.729
 1129SOL    HW1 4286   1.380   1.044   0.797
 1129SOL    HW2 4287   1.315   1.041   0.647
 1130SOL     OW 4288   1.963   4.532   1.937
 1130SOL    HW1 4289   2.003   4.624   1.935
 1130SOL    HW2 4290   1.950   4.499   1.843
 1131SOL     OW 4291   1.136   5.204   3.934
 1131SOL    HW1 4292   1.162   5.229   3.841
 1131SOL    HW2 4293   1.171   5.112   3.955
 1132SOL     OW 4294   2.532   1.439   2.817
 1132SOL    HW1 4295   2.519   1.536   2.837
 1132SOL    HW2 4296   2.622   1.425   2.776
 1133SOL     OW 4297   0.766   0.045   5.758
 1133SOL    HW1 4298   0.854   0.049   5.710
 1133SOL    HW2 4299   0.744   6.968   5.780
 1134SOL     OW 4300   3.764   6.670   1.449
 1134SOL    HW1 4301   3.772   6.583   1.400
 1134SOL    HW2 4302   3.687   6.722   1.412
 1135SOL     OW 4303   2.016   5.675   3.345
 1135SOL    HW1 4304   2.074   5.744   3.389
 1135SOL    HW2 4305   1.926   5.673   3.391
 1136SOL     OW 4306   1.671   5.343   1.828
 1136SOL    HW1 4307   1.657   5.253   1.786
 1136SOL    HW2 4308   1.582   5.387   1.842
 1137SOL     OW 4309   0.839   5.637   5.182
 1137SOL    HW1 4310   0.741   5.653   5.176
 1137SOL    HW2 4311   0.863   5.558   5.126
 1138SOL     OW 4312   2.060   3.675   4.710
 1138SOL    HW1 4313   2.062   3.769   4.743
 1138SOL    HW2 4314   1.999   3.620   4.768
 1139SOL     OW 4315   2.782   5.770   4.795
 1139SOL    HW1 4316   2.774   5.744   4.891
 1139SOL    HW2 4317   2.735   5.702   4.738
 1140SOL     OW 4318   1.629   1.972   0.827
 1140SOL    HW1 4319   1.716   2.012   0.797
 1140SOL    HW2 4320   1.558   1.993   0.760
 1141SOL     OW 4321   0.144   4.839   6.059
 1141SOL    HW1 4322   0.226   4.892   6.079
 1141SOL    HW2 4323   0.063   4.888   6.092
 1142SOL     OW 4324   2.469   6.236   1.976
 1142SOL    HW1 4325   2.557   6.197   2.005
 1142SOL    HW2 4326   2.408   6.162   1.947
 1143SOL     OW 4327   0.975   4.098   1.632
 1143SOL    HW1 4328   1.043   4.168   1.650
 1143SOL    HW2 4329   0.886   4.127   1.668
 1144SOL     OW 4330   5.793   4.382   0.725
 1144SOL    HW1 4331   5.746   4.422   0.804
 1144SOL    HW2 4332   5.839   4.298   0.753
 1145SOL     OW 4333   6.140   0.238   1.051
 1145SOL    HW1 4334   6.084   0.315   1.081
 1145SOL    HW2 4335   6.154   0.243   0.952
 1146SOL     OW 4336   0.931   1.062   1.045
 1146SOL    HW1 4337   0.986   1.062   1.128
 1146SOL    HW2 4338   0.986   1.030   0.968
 1147SOL     OW 4339   2.480   6.438   1.275
 1147SOL    HW1 4340   2.435   6.502   1.336
 1147SOL    HW2 4341   2.511   6.358   1.327
 1148SOL     OW 4342   4.931   5.368   3.337
 1148SOL    HW1 4343   4.929   5.281   3.288
 1148SOL    HW2 4344   4.859   5.428   3.302
 1149SOL     OW 4345   4.333   3.292   1.580
 1149SOL    HW1 4346   4.290   3.367   1.530
 1149SOL    HW2 4347   4.430   3.310   1.590
 1150SOL     OW 4348   1.780   3.800   0.614
 1150SOL    HW1 4349   1.790   3.875   0.548
 1150SOL    HW2 4350   1.729   3.726   0.571
 1151SOL     OW 4351   6.340   5.305   4.016
 1151SOL    HW1 4352   6.379   5.384   3.968
 1151SOL    HW2 4353   6.363   5.222   3.965
 1152SOL     OW 4354   3.897   6.414   6.363
 1152SOL    HW1 4355   3.951   6.397   6.445
 1152SOL    HW2 4356   3.950   6.467   6.297
 1153SOL     OW 4357   6.076   0.166   1.558
 1153SOL    HW1 4358   6.034   0.118   1.635
 1153SOL    HW2 4359   6.140   0.235   1.593
 1154SOL     OW 4360   1.941   2.444   0.984
 1154SOL    HW1 4361   1.875   2.413   1.052
 1154SOL    HW2 4362   1.971   2.537   1.007
 1155SOL     OW 4363   2.886   6.623   4.425
 1155SOL    HW1 4364   2.862   6.562   4.501
 1155SOL    HW2 4365   2.981   6.605   4.398
 1156SOL     OW 4366   2.662   1.646   3.698
 1156SOL    HW1 4367   2.589   1.713   3.713
 1156SOL    HW2 4368   2.741   1.671   3.755
 1157SOL     OW 4369   3.630   0.949   0.074
 1157SOL    HW1 4370   3.630   0.866   0.019
 1157SOL    HW2 4371   3.721   0.992   0.068
 1158SOL     OW 4372   5.845   4.934   3.383
 1158SOL    HW1 4373   5.787   4.855   3.364
 1158SOL    HW2 4374   5.819   5.010   3.323
 1159SOL     OW 4375   6.150   5.395   1.202
 1159SOL    HW1 4376   6.120   5.436   1.288
 1159SOL    HW2 4377   6.235   5.345   1.217
 1160SOL     OW 4378   5.551   1.866   0.413
 1160SOL    HW1 4379   5.596   1.805   0.348
 1160SOL    HW2 4380   5.464   1.897   0.373
 1161SOL     OW 4381   0.229   5.656   0.819
 1161SOL    HW1 4382   0.204   5.619   0.729
 1161SOL    HW2 4383   0.186   5.745   0.831
 1162SOL     OW 4384   3.118   2.178   4.703
 1162SOL    HW1 4385   3.103   2.241   4.779
 1162SOL    HW2 4386   3.067   2.211   4.623
 1163SOL     OW 4387   5.511   3.188   1.896
 1163SOL    HW1 4388   5.435   3.227   1.844
 1163SOL    HW2 4389   5.569   3.135   1.834
 1164SOL     OW 4390   4.276   2.077   5.558
 1164SOL    HW1 4391   4.197   2.122   5.599
 1164SOL    HW2 4392   4.360   2.114   5.598
 1165SOL     OW 4393   4.103   6.188   3.623
 1165SOL    HW1 4394   4.166   6.244   3.571
 1165SOL    HW2 4395   4.059   6.243   3.694
 1166SOL     OW 4396   3.288   4.305   6.159
 1166SOL    HW1 4397   3.362   4.316   6.225
 1166SOL    HW2 4398   3.262   4.394   6.122
 1167SOL     OW 4399   5.153   4.885   2.600
 1167SOL    HW1 4400   5.101   4.969   2.582
 1167SOL    HW2 4401   5.238   4.887   2.548
 1168SOL     OW 4402   6.240   1.013   3.074
 1168SOL    HW1 4403   6.145   0.982   3.068
 1168SOL    HW2 4404   6.300   0.941   3.041
 1169SOL     OW 4405   5.129   1.082   5.425
 1169SOL    HW1 4406   5.049   1.021   5.424
 1169SOL    HW2 4407   5.160   1.093   5.519
 1170SOL     OW 4408   5.152   6.228   3.940
 1170SOL    HW1 4409   5.182   6.133   3.954
 1170SOL    HW2 4410   5.073   6.247   3.999
 1171SOL     OW 4411   0.806   6.352   1.359
 1171SOL    HW1 4412   0.821   6.339   1.261
 1171SOL    HW2 4413   0.791   6.449   1.378
 1172SOL     OW 4414   6.835   3.538   6.476
 1172SOL    HW1 4415   6.838   3.585   6.388
 1172SOL    HW2 4416   6.740   3.514   6.498
 1173SOL     OW 4417   3.565   1.673   0.529
 1173SOL    HW1 4418   3.561   1.682   0.629
 1173SOL    HW2 4419   3.660   1.677   0.499
 1174SOL     OW 4420   2.712   3.569   0.735
 1174SOL    HW1 4421   2.646   3.494   0.741
 1174SOL    HW2 4422   2.783   3.557   0.804
 1175SOL     OW 4423   3.413   2.837   4.224
 1175SOL    HW1 4424   3.386   2.763   4.163
 1175SOL    HW2 4425   3.460   2.908   4.171
 1176SOL     OW 4426   5.416   3.602   6.127
 1176SOL    HW1 4427   5.411   3.510   6.166
 1176SOL    HW2 4428   5.325   3.633   6.102
 1177SOL     OW 4429   6.778   1.967   4.479
 1177SOL    HW1 4430   6.701   1.928   4.529
 1177SOL    HW2 4431   6.758   2.062   4.454
 1178SOL     OW 4432   3.636   5.286   0.509
 1178SOL    HW1 4433   3.644   5.295   0.608
 1178SOL    HW2 4434   3.541   5.304   0.481
 1179SOL     OW 4435   1.836   5.367   0.237
 1179SOL    HW1 4436   1.838   5.420   0.153
 1179SOL    HW2 4437   1.751   5.314   0.242
 1180SOL     OW 4438   3.068   5.768   0.736
 1180SOL    HW1 4439   2.973   5.795   0.753
 1180SOL    HW2 4440   3.128   5.848   0.746
 1181SOL     OW 4441   0.378   6.506   0.681
 1181SOL    HW1 4442   0.356   6.408   0.682
 1181SOL    HW2 4443   0.292   6.558   0.677
 1182SOL     OW 4444   4.997   4.627   2.606
 1182SOL    HW1 4445   4.988   4.639   2.705
 1182SOL    HW2 4446   5.005   4.717   2.563
 1183SOL     OW 4447   2.455   3.204   5.612
 1183SOL    HW1 4448   2.540   3.156   5.633
 1183SOL    HW2 4449   2.413   3.237   5.696
 1184SOL     OW 4450   0.863   6.730   6.057
 1184SOL    HW1 4451   0.859   6.710   5.959
 1184SOL    HW2 4452   0.794   6.798   6.080
 1185SOL     OW 4453   6.468   1.659   6.692
 1185SOL    HW1 4454   6.425   1.746   6.713
 1185SOL    HW2 4455   6.563   1.660   6.723
 1186SOL     OW 4456   5.524   6.041   4.976
 1186SOL    HW1 4457   5.450   6.098   4.939
 1186SOL    HW2 4458   5.551   6.076   5.065
 1187SOL     OW 4459   5.782   0.639   6.228
 1187SOL    HW1 4460   5.817   0.567   6.167
 1187SOL    HW2 4461   5.858   0.688   6.270
 1188SOL     OW 4462   2.373   6.841   6.114
 1188SOL    HW1 4463   2.413   6.750   6.102
 1188SOL    HW2 4464   2.446   6.909   6.118
 1189SOL     OW 4465   5.766   2.993   3.304
 1189SOL    HW1 4466   5.694   2.927   3.284
 1189SOL    HW2 4467   5.750   3.034   3.394
 1190SOL     OW 4468   2.041   5.785   2.849
 1190SOL    HW1 4469   2.138   5.771   2.870
 1190SOL    HW2 4470   2.033   5.825   2.757
 1191SOL     OW 4471   4.120   5.794   2.628
 1191SOL    HW1 4472   4.110   5.889   2.657
 1191SOL    HW2 4473   4.075   5.734   2.694
 1192SOL     OW 4474   5.514   6.344   3.685
 1192SOL    HW1 4475   5.415   6.348   3.670
 1192SOL    HW2 4476   5.537   6.394   3.768
 1193SOL     OW 4477   6.396   5.199   4.250
 1193SOL    HW1 4478   6.496   5.197   4.252
 1193SOL    HW2 4479   6.365   5.236   4.163
 1194SOL     OW 4480   4.013   0.960   1.003
 1194SOL    HW1 4481   4.087   0.896   1.023
 1194SOL    HW2 4482   4.037   1.050   1.039
 1195SOL     OW 4483   5.154   2.746   3.483
 1195SOL    HW1 4484   5.190   2.729   3.575
 1195SOL    HW2 4485   5.089   2.674   3.458
 1196SOL     OW 4486   6.091   6.718   5.142
 1196SOL    HW1 4487   6.080   6.807   5.098
 1196SOL    HW2 4488   6.002   6.675   5.154
 1197SOL     OW 4489   2.089   6.133   0.031
 1197SOL    HW1 4490   2.161   6.172   6.992
 1197SOL    HW2 4491   2.002   6.180   0.012
 1198SOL     OW 4492   1.491   2.867   0.338
 1198SOL    HW1 4493   1.558   2.863   0.263
 1198SOL    HW2 4494   1.415   2.805   0.317
 1199SOL     OW 4495   5.382   3.908   2.041
 1199SOL    HW1 4496   5.348   3.863   1.958
 1199SOL    HW2 4497   5.406   4.003   2.021
 1200SOL     OW 4498   3.239   3.699   1.788
 1200SOL    HW1 4499   3.209   3.614   1.830
 1200SOL    HW2 4500   3.339   3.705   1.791
 1201SOL     OW 4501   1.506   1.962   4.610
 1201SOL    HW1 4502   1.532   1.968   4.514
 1201SOL    HW2 4503   1.588   1.970   4.667
 1202SOL     OW 4504   0.363   5.088   5.899
 1202SOL    HW1 4505   0.429   5.159   5.924
 1202SOL    HW2 4506   0.345   5.031   5.979
 1203SOL     OW 4507   4.453   5.818   5.994
 1203SOL    HW1 4508   4.537   5.858   5.959
 1203SOL    HW2 4509   4.375   5.851   5.940
 1204SOL     OW 4510   2.055   6.817   2.687
 1204SOL    HW1 4511   2.071   6.805   2.589
 1204SOL    HW2 4512   2.089   6.737   2.736
 1205SOL     OW 4513   5.124   4.441   2.069
 1205SOL    HW1 4514   5.167   4.474   1.985
 1205SOL    HW2 4515   5.137   4.342   2.076
 1206SOL     OW 4516   3.245   3.432   4.971
 1206SOL    HW1 4517   3.220   3.362   5.038
 1206SOL    HW2 4518   3.343   3.430   4.954
 1207SOL     OW 4519   1.634   6.446   1.781
 1207SOL    HW1 4520   1.605   6.365   1.833
 1207SOL    HW2 4521   1.563   6.471   1.716
 1208SOL     OW 4522   3.445   3.998   6.165
 1208SOL    HW1 4523   3.438   4.098   6.159
 1208SOL    HW2 4524   3.412   3.967   6.254
 1209SOL     OW 4525   4.059   6.439   5.193
 1209SOL    HW1 4526   4.079   6.507   5.122
 1209SOL    HW2 4527   4.132   6.440   5.261
 1210SOL     OW 4528   3.467   0.941   3.447
 1210SOL    HW1 4529   3.561   0.973   3.440
 1210SOL    HW2 4530   3.405   1.018   3.461
 1211SOL     OW 4531   1.158   3.447   0.239
 1211SOL    HW1 4532   1.143   3.531   0.290
 1211SOL    HW2 4533   1.078   3.427   0.182
 1212SOL     OW 4534   1.390   6.432   0.110
 1212SOL    HW1 4535   1.460   6.473   0.168
 1212SOL    HW2 4536   1.379   6.487   0.027
 1213SOL     OW 4537   5.466   2.711   1.220
 1213SOL    HW1 4538   5.418   2.704   1.133
 1213SOL    HW2 4539   5.537   2.782   1.213
 1214SOL     OW 4540   0.373   2.533   1.764
 1214SOL    HW1 4541   0.423   2.570   1.843
 1214SOL    HW2 4542   0.338   2.608   1.708
 1215SOL     OW 4543   1.303   5.684   4.550
 1215SOL    HW1 4544   1.316   5.706   4.647
 1215SOL    HW2 4545   1.207   5.695   4.526
 1216SOL     OW 4546   4.475   6.308   0.410
 1216SOL    HW1 4547   4.391   6.264   0.442
 1216SOL    HW2 4548   4.538   6.319   0.487
 1217SOL     OW 4549   3.019   4.015   6.786
 1217SOL    HW1 4550   3.007   4.103   6.832
 1217SOL    HW2 4551   3.096   3.967   6.826
 1218SOL     OW 4552   1.912   5.024   3.560
 1218SOL    HW1 4553   1.986   5.053   3.499
 1218SOL    HW2 4554   1.866   4.944   3.520
 1219SOL     OW 4555   4.481   6.089   2.774
 1219SOL    HW1 4556   4.438   6.013   2.824
 1219SOL    HW2 4557   4.544   6.052   2.705
 1220SOL     OW 4558   0.985   4.695   2.678
 1220SOL    HW1 4559   1.045   4.713   2.600
 1220SOL    HW2 4560   0.958   4.599   2.678
 1221SOL     OW 4561   5.463   3.900   6.062
 1221SOL    HW1 4562   5.498   3.807   6.075
 1221SOL    HW2 4563   5.518   3.964   6.115
 1222SOL     OW 4564   6.940   6.509   6.657
 1222SOL    HW1 4565   0.014   6.548   6.652
 1222SOL    HW2 4566   6.908   6.488   6.565
 1223SOL     OW 4567   3.290   6.345   0.404
 1223SOL    HW1 4568   3.236   6.428   0.417
 1223SOL    HW2 4569   3.387   6.368   0.403
 1224SOL     OW 4570   3.392   0.235   2.104
 1224SOL    HW1 4571   3.341   0.270   2.026
 1224SOL    HW2 4572   3.471   0.294   2.122
 1225SOL     OW 4573   2.583   4.137   6.606
 1225SOL    HW1 4574   2.567   4.118   6.509
 1225SOL    HW2 4575   2.621   4.056   6.650
 1226SOL     OW 4576   2.250   4.279   1.083
 1226SOL    HW1 4577   2.264   4.203   1.019
 1226SOL    HW2 4578   2.325   4.282   1.149
 1227SOL     OW 4579   0.119   3.612   6.537
 1227SOL    HW1 4580   0.065   3.530   6.557
 1227SOL    HW2 4581   0.198   3.587   6.481
 1228SOL     OW 4582   3.766   1.349   5.648
 1228SOL    HW1 4583   3.859   1.336   5.682
 1228SOL    HW2 4584   3.710   1.270   5.673
 1229SOL     OW 4585   3.495   4.289   6.369
 1229SOL    HW1 4586   3.423   4.299   6.437
 1229SOL    HW2 4587   3.583   4.275   6.415
 1230SOL     OW 4588   4.567   6.064   3.317
 1230SOL    HW1 4589   4.586   6.027   3.226
 1230SOL    HW2 4590   4.521   6.152   3.308
 1231SOL     OW 4591   1.804   4.554   4.472
 1231SOL    HW1 4592   1.874   4.512   4.414
 1231SOL    HW2 4593   1.783   4.645   4.438
 1232SOL     OW 4594   1.867   2.333   4.545
 1232SOL    HW1 4595   1.925   2.264   4.589
 1232SOL    HW2 4596   1.781   2.340   4.594
 1233SOL     OW 4597   1.064   3.202   4.598
 1233SOL    HW1 4598   1.125   3.267   4.552
 1233SOL    HW2 4599   1.112   3.159   4.674
 1234SOL     OW 4600   6.262   4.275   4.440
 1234SOL    HW1 4601   6.309   4.198   4.397
 1234SOL    HW2 4602   6.325   4.324   4.500
 1235SOL     OW 4603   6.243   5.910   4.202
 1235SOL    HW1 4604   6.207   5.879   4.114
 1235SOL    HW2 4605   6.269   6.006   4.196
 1236SOL     OW 4606   4.917   0.617   0.188
 1236SOL    HW1 4607   5.005   0.611   0.141
 1236SOL    HW2 4608   4.872   0.527   0.186
 1237SOL     OW 4609   2.922   4.331   6.623
 1237SOL    HW1 4610   2.930   4.257   6.556
 1237SOL    HW2 4611   2.961   4.414   6.585
 1238SOL     OW 4612   1.601   1.338   1.396
 1238SOL    HW1 4613   1.564   1.408   1.334
 1238SOL    HW2 4614   1.568   1.354   1.489
 1239SOL     OW 4615   0.121   6.742   6.465
 1239SOL    HW1 4616   0.217   6.766   6.455
 1239SOL    HW2 4617   0.099   6.665   6.405
 1240SOL     OW 4618   4.341   6.149   2.358
 1240SOL    HW1 4619   4.334   6.142   2.259
 1240SOL    HW2 4620   4.398   6.227   2.382
 1241SOL     OW 4621   6.264   3.179   3.310
 1241SOL    HW1 4622   6.269   3.094   3.362
 1241SOL    HW2 4623   6.169   3.208   3.304
 1242SOL     OW 4624   2.309   3.541   6.788
 1242SOL    HW1 4625   2.277   3.602   6.861
 1242SOL    HW2 4626   2.328   3.595   6.706
 1243SOL     OW 4627   2.623   5.043   5.382
 1243SOL    HW1 4628   2.610   5.088   5.294
 1243SOL    HW2 4629   2.583   5.099   5.455
 1244SOL     OW 4630   0.636   0.733   3.366
 1244SOL    HW1 4631   0.580   0.768   3.291
 1244SOL    HW2 4632   0.666   0.809   3.423
 1245SOL     OW 4633   2.920   2.938   5.935
 1245SOL    HW1 4634   2.958   3.020   5.978
 1245SOL    HW2 4635   2.969   2.857   5.969
 1246SOL     OW 4636   0.963   6.808   2.719
 1246SOL    HW1 4637   0.981   6.889   2.663
 1246SOL    HW2 4638   0.965   6.833   2.815
 1247SOL     OW 4639   1.736   6.594   6.934
 1247SOL    HW1 4640   1.668   6.534   6.892
 1247SOL    HW2 4641   1.788   6.543   7.002
 1248SOL     OW 4642   1.898   5.964   3.514
 1248SOL    HW1 4643   1.903   6.008   3.424
 1248SOL    HW2 4644   1.858   5.873   3.504
 1249SOL     OW 4645   6.117   3.388   3.105
 1249SOL    HW1 4646   6.055   3.321   3.144
 1249SOL    HW2 4647   6.179   3.422   3.176
 1250SOL     OW 4648   0.750   4.576   4.346
 1250SOL    HW1 4649   0.718   4.525   4.425
 1250SOL    HW2 4650   0.845   4.604   4.360
 1251SOL     OW 4651   3.427   0.174   5.374
 1251SOL    HW1 4652   3.424   0.262   5.327
 1251SOL    HW2 4653   3.377   0.106   5.319
 1252SOL     OW 4654   3.508   3.567   6.721
 1252SOL    HW1 4655   3.513   3.485   6.778
 1252SOL    HW2 4656   3.420   3.568   6.672
 1253SOL     OW 4657   4.178   5.826   3.068
 1253SOL    HW1 4658   4.195   5.919   3.102
 1253SOL    HW2 4659   4.157   5.766   3.144
 1254SOL     OW 4660   6.892   1.641   2.646
 1254SOL    HW1 4661   6.962   1.586   2.691
 1254SOL    HW2 4662   6.904   1.737   2.672
 1255SOL     OW 4663   6.022   6.927   0.191
 1255SOL    HW1 4664   6.106   6.886   0.228
 1255SOL    HW2 4665   6.034   0.008   0.183
 1256SOL     OW 4666   4.238   1.228   3.614
 1256SOL    HW1 4667   4.275   1.139   3.586
 1256SOL    HW2 4668   4.218   1.283   3.533
 1257SOL     OW 4669   6.363   1.171   4.062
 1257SOL    HW1 4670   6.398   1.223   3.984
 1257SOL    HW2 4671   6.374   1.073   4.044
 1258SOL     OW 4672   6.991   6.789   3.850
 1258SOL    HW1 4673   0.026   6.747   3.776
 1258SOL    HW2 4674   6.924   6.852   3.812
 1259SOL     OW 4675   4.294   2.173   5.206
 1259SOL    HW1 4676   4.224   2.141   5.269
 1259SOL    HW2 4677   4.277   2.269   5.182
 1260SOL     OW 4678   0.924   1.376   6.479
 1260SOL    HW1 4679   0.904   1.474   6.477
 1260SOL    HW2 4680   0.958   1.347   6.390
 1261SOL     OW 4681   6.302   3.780   0.921
 1261SOL    HW1 4682   6.370   3.848   0.892
 1261SOL    HW2 4683   6.345   3.690   0.928
 1262SOL     OW 4684   5.399   5.874   2.442
 1262SOL    HW1 4685   5.416   5.957   2.496
 1262SOL    HW2 4686   5.344   5.810   2.496
 1263SOL     OW 4687   0.508   2.541   3.598
 1263SOL    HW1 4688   0.553   2.629   3.580
 1263SOL    HW2 4689   0.426   2.534   3.542
 1264SOL     OW 4690   0.529   2.730   5.293
 1264SOL    HW1 4691   0.551   2.821   5.256
 1264SOL    HW2 4692   0.613   2.681   5.312
 1265SOL     OW 4693   5.479   6.339   5.414
 1265SOL    HW1 4694   5.460   6.426   5.369
 1265SOL    HW2 4695   5.541   6.353   5.490
 1266SOL     OW 4696   1.513   1.582   5.196
 1266SOL    HW1 4697   1.597   1.629   5.224
 1266SOL    HW2 4698   1.434   1.638   5.221
 1267SOL     OW 4699   3.711   0.333   3.342
 1267SOL    HW1 4700   3.749   0.260   3.398
 1267SOL    HW2 4701   3.784   0.379   3.291
 1268SOL     OW 4702   4.192   2.659   5.648
 1268SOL    HW1 4703   4.157   2.711   5.726
 1268SOL    HW2 4704   4.256   2.590   5.681
 1269SOL     OW 4705   5.947   2.158   4.238
 1269SOL    HW1 4706   5.959   2.115   4.328
 1269SOL    HW2 4707   5.859   2.206   4.236
 1270SOL     OW 4708   6.515   5.644   2.732
 1270SOL    HW1 4709   6.430   5.696   2.743
 1270SOL    HW2 4710   6.553   5.624   2.822
 1271SOL     OW 4711   1.603   1.529   0.805
 1271SOL    HW1 4712   1.629   1.456   0.742
 1271SOL    HW2 4713   1.508   1.517   0.832
 1272SOL     OW 4714   6.147   3.374   6.230
 1272SOL    HW1 4715   6.209   3.372   6.310
 1272SOL    HW2 4716   6.198   3.344   6.149
 1273SOL     OW 4717   1.283   4.622   4.679
 1273SOL    HW1 4718   1.324   4.707   4.647
 1273SOL    HW2 4719   1.296   4.614   4.778
 1274SOL     OW 4720   0.387   5.227   2.784
 1274SOL    HW1 4721   0.429   5.147   2.827
 1274SOL    HW2 4722   0.316   5.197   2.720
 1275SOL     OW 4723   2.467   1.098   3.328
 1275SOL    HW1 4724   2.397   1.170   3.327
 1275SOL    HW2 4725   2.503   1.088   3.421
 1276SOL     OW 4726   5.640   4.607   4.137
 1276SOL    HW1 4727   5.604   4.563   4.219
 1276SOL    HW2 4728   5.604   4.562   4.056
 1277SOL     OW 4729   0.837   6.028   0.523
 1277SOL    HW1 4730   0.756   6.067   0.567
 1277SOL    HW2 4731   0.890   5.977   0.591
 1278SOL     OW 4732   0.921   5.985   3.003
 1278SOL    HW1 4733   1.012   6.017   2.980
 1278SOL    HW2 4734   0.872   6.055   3.055
 1279SOL     OW 4735   2.879   2.870   1.697
 1279SOL    HW1 4736   2.971   2.831   1.705
 1279SOL    HW2 4737   2.876   2.932   1.619
 1280SOL     OW 4738   1.793   2.285   3.830
 1280SOL    HW1 4739   1.839   2.318   3.913
 1280SOL    HW2 4740   1.845   2.315   3.749
 1281SOL     OW 4741   4.906   6.094   4.885
 1281SOL    HW1 4742   4.884   5.998   4.902
 1281SOL    HW2 4743   5.005   6.106   4.880
 1282SOL     OW 4744   0.204   2.763   0.980
 1282SOL    HW1 4745   0.152   2.678   0.993
 1282SOL    HW2 4746   0.142   2.837   0.956
 1283SOL     OW 4747   6.797   3.153   4.854
 1283SOL    HW1 4748   6.822   3.245   4.884
 1283SOL    HW2 4749   6.807   3.146   4.754
 1284SOL     OW 4750   4.105   2.298   1.926
 1284SOL    HW1 4751   4.069   2.234   1.993
 1284SOL    HW2 4752   4.174   2.357   1.969
 1285SOL     OW 4753   4.143   0.927   5.132
 1285SOL    HW1 4754   4.055   0.879   5.134
 1285SOL    HW2 4755   4.217   0.860   5.133
 1286SOL     OW 4756   5.403   1.943   1.478
 1286SOL    HW1 4757   5.470   1.916   1.409
 1286SOL    HW2 4758   5.367   2.033   1.456
 1287SOL     OW 4759   6.884   4.956   4.443
 1287SOL    HW1 4760   6.857   4.948   4.347
 1287SOL    HW2 4761   6.910   4.865   4.478
 1288SOL     OW 4762   4.480   4.515   6.899
 1288SOL    HW1 4763   4.520   4.502   6.808
 1288SOL    HW2 4764   4.456   4.426   6.938
 1289SOL     OW 4765   0.001   6.864   1.554
 1289SOL    HW1 4766   7.010   6.930   1.480
 1289SOL    HW2 4767   0.095   6.830   1.556
 1290SOL     OW 4768   1.230   6.311   5.434
 1290SOL    HW1 4769   1.148   6.349   5.476
 1290SOL    HW2 4770   1.217   6.303   5.335
 1291SOL     OW 4771   6.604   4.622   3.212
 1291SOL    HW1 4772   6.636   4.578   3.128
 1291SOL    HW2 4773   6.679   4.669   3.257
 1292SOL     OW 4774   1.094   6.685   1.910
 1292SOL    HW1 4775   1.074   6.721   2.001
 1292SOL    HW2 4776   1.077   6.756   1.841
 1293SOL     OW 4777   4.655   1.162   0.240
 1293SOL    HW1 4778   4.693   1.073   0.217
 1293SOL    HW2 4779   4.568   1.175   0.193
 1294SOL     OW 4780   2.037   4.376   4.904
 1294SOL    HW1 4781   2.077   4.379   4.995
 1294SOL    HW2 4782   1.970   4.302   4.899
 1295SOL     OW 4783   6.641   4.562   0.775
 1295SOL    HW1 4784   6.586   4.625   0.829
 1295SOL    HW2 4785   6.638   4.471   0.816
 1296SOL     OW 4786   5.081   0.280   5.835
 1296SOL    HW1 4787   5.124   0.359   5.791
 1296SOL    HW2 4788   5.150   0.230   5.888
 1297SOL     OW 4789   0.583   0.518   1.793
 1297SOL    HW1 4790   0.589   0.430   1.841
 1297SOL    HW2 4791   0.507   0.571   1.831
 1298SOL     OW 4792   4.961   0.210   2.445
 1298SOL    HW1 4793   4.916   0.146   2.506
 1298SOL    HW2 4794   4.957   0.176   2.351
 1299SOL     OW 4795   0.796   3.341   4.541
 1299SOL    HW1 4796   0.716   3.285   4.563
 1299SOL    HW2 4797   0.871   3.317   4.602
 1300SOL     OW 4798   1.044   5.015   1.539
 1300SOL    HW1 4799   0.950   4.984   1.524
 1300SOL    HW2 4800   1.105   4.971   1.473
 1301SOL     OW 4801   0.359   0.069   0.481
 1301SOL    HW1 4802   0.411   0.058   0.396
 1301SOL    HW2 4803   0.403   0.138   0.538
 1302SOL     OW 4804   5.994   0.036   5.108
 1302SOL    HW1 4805   5.963   7.011   5.023
 1302SOL    HW2 4806   6.016   0.132   5.091
 1303SOL     OW 4807   3.563   6.494   1.781
 1303SOL    HW1 4808   3.464   6.502   1.774
 1303SOL    HW2 4809   3.606   6.578   1.747
 1304SOL     OW 4810   0.791   0.788   0.666
 1304SOL    HW1 4811   0.764   0.877   0.629
 1304SOL    HW2 4812   0.845   0.738   0.598
 1305SOL     OW 4813   4.651   3.268   6.550
 1305SOL    HW1 4814   4.562   3.232   6.580
 1305SOL    HW2 4815   4.636   3.347   6.490
 1306SOL     OW 4816   2.775   5.544   3.983
 1306SOL    HW1 4817   2.767   5.453   4.024
 1306SOL    HW2 4818   2.849   5.543   3.915
 1307SOL     OW 4819   2.574   2.483   3.489
 1307SOL    HW1 4820   2.617   2.452   3.404
 1307SOL    HW2 4821   2.487   2.436   3.501
 1308SOL     OW 4822   0.645   4.356   6.350
 1308SOL    HW1 4823   0.554   4.367   6.389
 1308SOL    HW2 4824   0.705   4.313   6.417
 1309SOL     OW 4825   5.669   4.973   6.611
 1309SOL    HW1 4826   5.762   4.948   6.582
 1309SOL    HW2 4827   5.607   4.896   6.593
 1310SOL     OW 4828   1.087   3.955   2.988
 1310SOL    HW1 4829   1.170   3.982   3.036
 1310SOL    HW2 4830   1.007   3.980   3.044
 1311SOL     OW 4831   5.869   5.262   0.861
 1311SOL    HW1 4832   5.954   5.264   0.914
 1311SOL    HW2 4833   5.864   5.176   0.810
 1312SOL     OW 4834   2.488   1.119   5.970
 1312SOL    HW1 4835   2.513   1.214   5.956
 1312SOL    HW2 4836   2.517   1.064   5.892
 1313SOL     OW 4837   6.680   6.140   2.288
 1313SOL    HW1 4838   6.627   6.143   2.203
 1313SOL    HW2 4839   6.776   6.120   2.267
 1314SOL     OW 4840   2.396   1.774   5.017
 1314SOL    HW1 4841   2.420   1.677   5.019
 1314SOL    HW2 4842   2.355   1.800   5.105
 1315SOL     OW 4843   6.096   1.511   3.428
 1315SOL    HW1 4844   6.185   1.545   3.459
 1315SOL    HW2 4845   6.026   1.579   3.449
 1316SOL     OW 4846   4.806   0.225   6.564
 1316SOL    HW1 4847   4.896   0.182   6.560
 1316SOL    HW2 4848   4.809   0.301   6.629
 1317SOL     OW 4849   3.575   3.498   5.597
 1317SOL    HW1 4850   3.644   3.446   5.648
 1317SOL    HW2 4851   3.616   3.538   5.515
 1318SOL     OW 4852   1.715   1.870   6.264
 1318SOL    HW1 4853   1.752   1.954   6.226
 1318SOL    HW2 4854   1.734   1.866   6.362
 1319SOL     OW 4855   6.867   6.907   0.922
 1319SOL    HW1 4856   6.851   6.808   0.929
 1319SOL    HW2 4857   6.927   6.936   0.996
 1320SOL     OW 4858   3.325   3.368   5.663
 1320SOL    HW1 4859   3.410   3.419   5.673
 1320SOL    HW2 4860   3.274   3.402   5.584
 1321SOL     OW 4861   6.452   2.882   0.430
 1321SOL    HW1 4862   6.484   2.788   0.441
 1321SOL    HW2 4863   6.384   2.903   0.500
 1322SOL     OW 4864   3.595   1.950   0.451
 1322SOL    HW1 4865   3.658   1.962   0.375
 1322SOL    HW2 4866   3.536   1.871   0.434
 1323SOL     OW 4867   3.603   6.907   0.577
 1323SOL    HW1 4868   3.563   6.872   0.493
 1323SOL    HW2 4869   3.604   7.007   0.575
 1324SOL     OW 4870   1.821   3.977   0.382
 1324SOL    HW1 4871   1.789   3.886   0.354
 1324SOL    HW2 4872   1.804   4.042   0.308
 1325SOL     OW 4873   2.961   5.854   5.249
 1325SOL    HW1 4874   3.042   5.810   5.211
 1325SOL    HW2 4875   2.890   5.786   5.265
 1326SOL     OW 4876   4.704   2.269   4.502
 1326SOL    HW1 4877   4.719   2.242   4.407
 1326SOL    HW2 4878   4.606   2.282   4.517
 1327SOL     OW 4879   5.204   5.596   1.953
 1327SOL    HW1 4880   5.195   5.687   1.914
 1327SOL    HW2 4881   5.179   5.600   2.050
 1328SOL     OW 4882   1.959   2.684   5.202
 1328SOL    HW1 4883   2.027   2.642   5.142
 1328SOL    HW2 4884   2.006   2.727   5.279
 1329SOL     OW 4885   1.177   2.754   3.837
 1329SOL    HW1 4886   1.170   2.660   3.870
 1329SOL    HW2 4887   1.149   2.758   3.741
 1330SOL     OW 4888   6.206   2.948   2.087
 1330SOL    HW1 4889   6.226   3.017   2.156
 1330SOL    HW2 4890   6.247   2.861   2.113
 1331SOL     OW 4891   4.419   1.564   4.063
 1331SOL    HW1 4892   4.379   1.655   4.065
 1331SOL    HW2 4893   4.346   1.496   4.054
 1332SOL     OW 4894   1.427   6.108   0.276
 1332SOL    HW1 4895   1.503   6.106   0.341
 1332SOL    HW2 4896   1.462   6.100   0.183
 1333SOL     OW 4897   3.281   4.113   3.267
 1333SOL    HW1 4898   3.338   4.107   3.349
 1333SOL    HW2 4899   3.266   4.210   3.244
 1334SOL     OW 4900   6.609   3.121   1.599
 1334SOL    HW1 4901   6.560   3.057   1.539
 1334SOL    HW2 4902   6.572   3.113   1.691
 1335SOL     OW 4903   1.323   3.936   2.855
 1335SOL    HW1 4904   1.229   3.922   2.888
 1335SOL    HW2 4905   1.350   4.031   2.869
 1336SOL     OW 4906   2.439   0.290   5.670
 1336SOL    HW1 4907   2.456   0.192   5.665
 1336SOL    HW2 4908   2.359   0.314   5.616
 1337SOL     OW 4909   6.716   1.019   3.114
 1337SOL    HW1 4910   6.792   0.957   3.097
 1337SOL    HW2 4911   6.723   1.055   3.207
 1338SOL     OW 4912   6.612   4.255   4.993
 1338SOL    HW1 4913   6.655   4.319   4.929
 1338SOL    HW2 4914   6.515   4.247   4.971
 1339SOL     OW 4915   6.984   0.131   7.013
 1339SOL    HW1 4916   6.986   0.113   6.915
 1339SOL    HW2 4917   6.987   0.229   0.011
 1340SOL     OW 4918   4.110   2.594   1.258
 1340SOL    HW1 4919   4.131   2.578   1.161
 1340SOL    HW2 4920   4.194   2.589   1.311
 1341SOL     OW 4921   5.034   6.155   0.084
 1341SOL    HW1 4922   5.072   6.151   7.009
 1341SOL    HW2 4923   5.096   6.109   0.147
 1342SOL     OW 4924   2.144   6.661   1.611
 1342SOL    HW1 4925   2.130   6.563   1.599
 1342SOL    HW2 4926   2.101   6.691   1.696
 1343SOL     OW 4927   6.184   5.970   3.514
 1343SOL    HW1 4928   6.135   5.968   3.601
 1343SOL    HW2 4929   6.126   5.934   3.442
 1344SOL     OW 4930   0.649   0.726   4.776
 1344SOL    HW1 4931   0.746   0.703   4.777
 1344SOL    HW2 4932   0.629   0.789   4.852
 1345SOL     OW 4933   0.144   6.499   0.228
 1345SOL    HW1 4934   0.132   6.435   0.152
 1345SOL    HW2 4935   0.061   6.554   0.238
 1346SOL     OW 4936   3.126   5.394   4.888
 1346SOL    HW1 4937   3.062   5.363   4.958
 1346SOL    HW2 4938   3.201   5.328   4.879
 1347SOL     OW 4939   1.113   6.910   6.489
 1347SOL    HW1 4940   1.138   6.959   6.572
 1347SOL    HW2 4941   1.177   6.933   6.416
 1348SOL     OW 4942   0.761   6.392   5.443
 1348SOL    HW1 4943   0.666   6.367   5.460
 1348SOL    HW2 4944   0.800   6.330   5.375
 1349SOL     OW 4945   4.674   2.631   3.750
 1349SOL    HW1 4946   4.604   2.594   3.689
 1349SOL    HW2 4947   4.663   2.591   3.841
 1350SOL     OW 4948   4.364   4.164   6.688
 1350SOL    HW1 4949   4.400   4.207   6.771
 1350SOL    HW2 4950   4.311   4.232   6.636
 1351SOL     OW 4951   0.341   2.604   5.151
 1351SOL    HW1 4952   0.328   2.645   5.061
 1351SOL    HW2 4953   0.410   2.656   5.202
 1352SOL     OW 4954   0.078   0.606   2.567
 1352SOL    HW1 4955   0.119   0.523   2.528
 1352SOL    HW2 4956   7.008   0.623   2.524
 1353SOL     OW 4957   0.976   1.024   0.472
 1353SOL    HW1 4958   1.002   1.112   0.512
 1353SOL    HW2 4959   1.034   1.005   0.393
 1354SOL     OW 4960   4.923   4.927   2.795
 1354SOL    HW1 4961   4.908   4.969   2.885
 1354SOL    HW2 4962   4.952   4.832   2.806
 1355SOL     OW 4963   5.522   3.086   5.923
 1355SOL    HW1 4964   5.557   3.006   5.973
 1355SOL    HW2 4965   5.442   3.060   5.870
 1356SOL     OW 4966   2.954   2.929   0.314
 1356SOL    HW1 4967   2.868   2.980   0.320
 1356SOL    HW2 4968   3.023   2.972   0.373
 1357SOL     OW 4969   1.032   3.460   4.897
 1357SOL    HW1 4970   0.990   3.372   4.874
 1357SOL    HW2 4971   1.054   3.461   4.995
 1358SOL     OW 4972   1.908   6.858   0.135
 1358SOL    HW1 4973   1.854   6.777   0.114
 1358SOL    HW2 4974   1.902   6.878   0.233
 1359SOL     OW 4975   6.772   4.565   2.077
 1359SOL    HW1 4976   6.863   4.546   2.114
 1359SOL    HW2 4977   6.744   4.490   2.017
 1360SOL     OW 4978   2.178   2.619   7.008
 1360SOL    HW1 4979   2.200   2.618   0.087
 1360SOL    HW2 4980   2.184   2.712   6.973
 1361SOL     OW 4981   0.407   4.633   5.404
 1361SOL    HW1 4982   0.459   4.562   5.357
 1361SOL    HW2 4983   0.368   4.696   5.336
 1362SOL     OW 4984   3.293   3.050   2.996
 1362SOL    HW1 4985   3.210   3.099   3.024
 1362SOL    HW2 4986   3.295   3.041   2.897
 1363SOL     OW 4987   0.938   6.194   4.421
 1363SOL    HW1 4988   1.032   6.168   4.398
 1363SOL    HW2 4989   0.881   6.190   4.339
 1364SOL     OW 4990   4.550   4.140   0.769
 1364SOL    HW1 4991   4.469   4.179   0.726
 1364SOL    HW2 4992   4.535   4.134   0.868
 1365SOL     OW 4993   0.119   3.250   6.824
 1365SOL    HW1 4994   0.047   3.302   6.870
 1365SOL    HW2 4995   0.108   3.153   6.844
 1366SOL     OW 4996   3.483   6.759   5.020
 1366SOL    HW1 4997   3.486   6.769   4.921
 1366SOL    HW2 4998   3.442   6.670   5.043
 1367SOL     OW 4999   2.245   1.264   2.344
 1367SOL    HW1 5000   2.189   1.240   2.424
 1367SOL    HW2 5001   2.327   1.311   2.375
 1368SOL     OW 5002   5.506   6.706   3.314
 1368SOL    HW1 5003   5.554   6.628   3.353
 1368SOL    HW2 5004   5.408   6.695   3.327
 1369SOL     OW 5005   0.936   0.690   2.883
 1369SOL    HW1 5006   1.001   0.762   2.904
 1369SOL    HW2 5007   0.912   0.641   2.967
 1370SOL     OW 5008   1.970   0.459   1.452
 1370SOL    HW1 5009   1.908   0.409   1.512
 1370SOL    HW2 5010   2.062   0.419   1.459
 1371SOL     OW 5011   4.042   0.251   0.033
 1371SOL    HW1 5012   3.996   0.285   6.969
 1371SOL    HW2 5013   4.066   0.328   0.092
 1372SOL     OW 5014   2.934   2.097   2.042
 1372SOL    HW1 5015   3.033   2.090   2.054
 1372SOL    HW2 5016   2.908   2.194   2.041
 1373SOL     OW 5017   1.342   5.862   0.794
 1373SOL    HW1 5018   1.318   5.924   0.719
 1373SOL    HW2 5019   1.415   5.903   0.849
 1374SOL     OW 5020   4.904   3.071   0.415
 1374SOL    HW1 5021   4.934   3.005   0.484
 1374SOL    HW2 5022   4.853   3.144   0.460
 1375SOL     OW 5023   0.567   3.946   5.312
 1375SOL    HW1 5024   0.487   3.919   5.259
 1375SOL    HW2 5025   0.587   4.042   5.294
 1376SOL     OW 5026   4.560   1.432   2.530
 1376SOL    HW1 5027   4.504   1.415   2.449
 1376SOL    HW2 5028   4.559   1.530   2.551
 1377SOL     OW 5029   1.016   5.324   4.842
 1377SOL    HW1 5030   1.080   5.282   4.907
 1377SOL    HW2 5031   1.006   5.265   4.762
 1378SOL     OW 5032   1.743   2.582   6.593
 1378SOL    HW1 5033   1.805   2.652   6.627
 1378SOL    HW2 5034   1.718   2.520   6.668
 1379SOL     OW 5035   4.210   6.166   0.960
 1379SOL    HW1 5036   4.159   6.248   0.986
 1379SOL    HW2 5037   4.152   6.107   0.904
 1380SOL     OW 5038   6.637   6.427   2.944
 1380SOL    HW1 5039   6.651   6.363   2.868
 1380SOL    HW2 5040   6.540   6.448   2.953
 1381SOL     OW 5041   6.496   0.146   1.314
 1381SOL    HW1 5042   6.421   0.082   1.330
 1381SOL    HW2 5043   6.581   0.095   1.298
 1382SOL     OW 5044   6.783   5.031   6.579
 1382SOL    HW1 5045   6.722   5.085   6.521
 1382SOL    HW2 5046   6.878   5.048   6.552
 1383SOL     OW 5047   2.588   0.270   0.415
 1383SOL    HW1 5048   2.568   0.180   0.375
 1383SOL    HW2 5049   2.526   0.338   0.375
 1384SOL     OW 5050   2.587   1.973   2.361
 1384SOL    HW1 5051   2.610   2.029   2.440
 1384SOL    HW2 5052   2.588   1.876   2.387
 1385SOL     OW 5053   5.618   2.764   3.764
 1385SOL    HW1 5054   5.530   2.760   3.719
 1385SOL    HW2 5055   5.605   2.768   3.863
 1386SOL     OW 5056   2.197   2.503   3.768
 1386SOL    HW1 5057   2.292   2.496   3.799
 1386SOL    HW2 5058   2.179   2.596   3.736
 1387SOL     OW 5059   2.502   0.836   4.651
 1387SOL    HW1 5060   2.602   0.834   4.647
 1387SOL    HW2 5061   2.471   0.924   4.686
 1388SOL     OW 5062   6.445   1.232   4.800
 1388SOL    HW1 5063   6.499   1.174   4.738
 1388SOL    HW2 5064   6.396   1.174   4.865
 1389SOL     OW 5065   6.385   0.885   4.011
 1389SOL    HW1 5066   6.368   0.887   4.109
 1389SOL    HW2 5067   6.354   0.797   3.974
 1390SOL     OW 5068   4.404   2.221   2.004
 1390SOL    HW1 5069   4.370   2.294   1.946
 1390SOL    HW2 5070   4.339   2.205   2.079
 1391SOL     OW 5071   5.780   1.523   4.931
 1391SOL    HW1 5072   5.720   1.592   4.972
 1391SOL    HW2 5073   5.843   1.488   5.000
 1392SOL     OW 5074   4.591   6.260   5.740
 1392SOL    HW1 5075   4.541   6.248   5.654
 1392SOL    HW2 5076   4.528   6.245   5.817
 1393SOL     OW 5077   4.980   0.295   6.819
 1393SOL    HW1 5078   4.963   0.197   6.835
 1393SOL    HW2 5079   5.038   0.331   6.891
 1394SOL     OW 5080   4.529   0.478   3.640
 1394SOL    HW1 5081   4.473   0.403   3.605
 1394SOL    HW2 5082   4.586   0.514   3.566
 1395SOL     OW 5083   1.302   5.223   2.295
 1395SOL    HW1 5084   1.311   5.194   2.200
 1395SOL    HW2 5085   1.352   5.159   2.354
 1396SOL     OW 5086   1.494   0.973   3.666
 1396SOL    HW1 5087   1.550   0.891   3.662
 1396SOL    HW2 5088   1.440   0.981   3.582
 1397SOL     OW 5089   0.486   5.153   5.022
 1397SOL    HW1 5090   0.465   5.133   4.926
 1397SOL    HW2 5091   0.467   5.072   5.077
 1398SOL     OW 5092   1.879   6.636   6.514
 1398SOL    HW1 5093   1.861   6.641   6.613
 1398SOL    HW2 5094   1.851   6.547   6.480
 1399SOL     OW 5095   3.899   6.717   0.252
 1399SOL    HW1 5096   3.921   6.724   0.155
 1399SOL    HW2 5097   3.866   6.625   0.272
 1400SOL     OW 5098   0.098   1.399   4.935
 1400SOL    HW1 5099   0.097   1.300   4.943
 1400SOL    HW2 5100   0.133   1.438   5.020
 1401SOL     OW 5101   5.329   0.122   2.915
 1401SOL    HW1 5102   5.352   0.218   2.933
 1401SOL    HW2 5103   5.359   0.097   2.822
 1402SOL     OW 5104   7.017   4.521   2.204
 1402SOL    HW1 5105   0.085   4.554   2.243
 1402SOL    HW2 5106   0.000   4.421   2.200
 1403SOL     OW 5107   3.188   3.252   6.593
 1403SOL    HW1 5108   3.114   3.302   6.548
 1403SOL    HW2 5109   3.264   3.240   6.528
 1404SOL     OW 5110   4.262   6.475   0.756
 1404SOL    HW1 5111   4.322   6.397   0.773
 1404SOL    HW2 5112   4.317   6.556   0.737
 1405SOL     OW 5113   0.962   3.749   0.744
 1405SOL    HW1 5114   0.926   3.817   0.808
 1405SOL    HW2 5115   0.949   3.781   0.650
 1406SOL     OW 5116   1.943   2.997   0.158
 1406SOL    HW1 5117   1.945   3.065   0.085
 1406SOL    HW2 5118   1.943   3.043   0.247
 1407SOL     OW 5119   0.917   2.917   1.536
 1407SOL    HW1 5120   0.848   2.982   1.570
 1407SOL    HW2 5121   0.896   2.826   1.570
 1408SOL     OW 5122   5.251   6.492   0.947
 1408SOL    HW1 5123   5.186   6.551   0.899
 1408SOL    HW2 5124   5.270   6.530   1.038
 1409SOL     OW 5125   6.424   1.482   5.474
 1409SOL    HW1 5126   6.359   1.447   5.406
 1409SOL    HW2 5127   6.389   1.567   5.512
 1410SOL     OW 5128   3.292   0.197   0.426
 1410SOL    HW1 5129   3.194   0.182   0.414
 1410SOL    HW2 5130   3.315   0.291   0.400
 1411SOL     OW 5131   3.779   5.031   6.300
 1411SOL    HW1 5132   3.859   5.012   6.243
 1411SOL    HW2 5133   3.808   5.075   6.385
 1412SOL     OW 5134   2.259   2.107   0.504
 1412SOL    HW1 5135   2.275   2.073   0.411
 1412SOL    HW2 5136   2.249   2.030   0.567
 1413SOL     OW 5137   2.200   1.891   5.452
 1413SOL    HW1 5138   2.279   1.837   5.421
 1413SOL    HW2 5139   2.195   1.888   5.552
 1414SOL     OW 5140   1.080   4.928   2.058
 1414SOL    HW1 5141   1.082   4.912   1.959
 1414SOL    HW2 5142   1.126   4.853   2.105
 1415SOL     OW 5143   3.049   1.901   4.713
 1415SOL    HW1 5144   3.081   1.995   4.701
 1415SOL    HW2 5145   3.055   1.853   4.625
 1416SOL     OW 5146   4.009   0.413   4.851
 1416SOL    HW1 5147   3.984   0.509   4.844
 1416SOL    HW2 5148   4.018   0.387   4.947
 1417SOL     OW 5149   3.683   3.477   4.428
 1417SOL    HW1 5150   3.656   3.380   4.427
 1417SOL    HW2 5151   3.603   3.533   4.449
 1418SOL     OW 5152   3.665   3.748   6.129
 1418SOL    HW1 5153   3.743   3.773   6.187
 1418SOL    HW2 5154   3.692   3.755   6.033
 1419SOL     OW 5155   1.383   6.101   2.077
 1419SOL    HW1 5156   1.410   6.108   2.173
 1419SOL    HW2 5157   1.284   6.092   2.070
 1420SOL     OW 5158   2.954   6.216   2.641
 1420SOL    HW1 5159   2.868   6.228   2.591
 1420SOL    HW2 5160   2.962   6.287   2.711
 1421SOL     OW 5161   2.097   5.254   6.423
 1421SOL    HW1 5162   2.149   5.282   6.342
 1421SOL    HW2 5163   2.098   5.327   6.490
 1422SOL     OW 5164   1.711   3.475   6.285
 1422SOL    HW1 5165   1.649   3.552   6.270
 1422SOL    HW2 5166   1.672   3.413   6.353
 1423SOL     OW 5167   3.706   0.707   5.295
 1423SOL    HW1 5168   3.662   0.663   5.217
 1423SOL    HW2 5169   3.639   0.718   5.369
 1424SOL     OW 5170   6.442   2.548   1.014
 1424SOL    HW1 5171   6.518   2.483   1.020
 1424SOL    HW2 5172   6.457   2.609   0.936
 1425SOL     OW 5173   5.549   6.817   3.872
 1425SOL    HW1 5174   5.480   6.889   3.860
 1425SOL    HW2 5175   5.588   6.824   3.964
 1426SOL     OW 5176   4.488   0.149   0.108
 1426SOL    HW1 5177   4.569   0.095   0.084
 1426SOL    HW2 5178   4.468   0.214   0.034
 1427SOL     OW 5179   1.644   0.469   4.005
 1427SOL    HW1 5180   1.557   0.516   4.023
 1427SOL    HW2 5181   1.657   0.459   3.907
 1428SOL     OW 5182   1.920   3.597   4.076
 1428SOL    HW1 5183   1.846   3.591   4.143
 1428SOL    HW2 5184   1.918   3.688   4.033
 1429SOL     OW 5185   6.123   0.397   2.134
 1429SOL    HW1 5186   6.223   0.392   2.135
 1429SOL    HW2 5187   6.089   0.390   2.228
 1430SOL     OW 5188   2.178   3.861   4.319
 1430SOL    HW1 5189   2.219   3.921   4.250
 1430SOL    HW2 5190   2.178   3.767   4.285
 1431SOL     OW 5191   3.385   1.712   0.027
 1431SOL    HW1 5192   3.468   1.658   0.012
 1431SOL    HW2 5193   3.397   1.803   7.006
 1432SOL     OW 5194   4.095   0.246   2.388
 1432SOL    HW1 5195   3.997   0.252   2.404
 1432SOL    HW2 5196   4.126   0.152   2.399
 1433SOL     OW 5197   3.172   1.465   3.929
 1433SOL    HW1 5198   3.154   1.549   3.879
 1433SOL    HW2 5199   3.229   1.486   4.009
 1434SOL     OW 5200   5.512   4.267   0.640
 1434SOL    HW1 5201   5.574   4.262   0.719
 1434SOL    HW2 5202   5.542   4.339   0.578
 1435SOL     OW 5203   1.410   0.214   4.022
 1435SOL    HW1 5204   1.487   0.266   4.061
 1435SOL    HW2 5205   1.423   0.117   4.039
 1436SOL     OW 5206   5.627   0.913   0.402
 1436SOL    HW1 5207   5.701   0.856   0.365
 1436SOL    HW2 5208   5.647   1.009   0.385
 1437SOL     OW 5209   3.924   1.041   0.745
 1437SOL    HW1 5210   3.998   1.093   0.704
 1437SOL    HW2 5211   3.954   1.003   0.833
 1438SOL     OW 5212   2.210   6.776   1.883
 1438SOL    HW1 5213   2.282   6.845   1.878
 1438SOL    HW2 5214   2.123   6.816   1.854
 1439SOL     OW 5215   0.478   5.446   6.648
 1439SOL    HW1 5216   0.407   5.398   6.596
 1439SOL    HW2 5217   0.563   5.447   6.595
 1440SOL     OW 5218   4.014   3.209   2.527
 1440SOL    HW1 5219   3.989   3.243   2.437
 1440SOL    HW2 5220   4.103   3.247   2.554
 1441SOL     OW 5221   6.378   2.491   5.180
 1441SOL    HW1 5222   6.403   2.400   5.147
 1441SOL    HW2 5223   6.370   2.553   5.102
 1442SOL     OW 5224   5.465   6.968   0.341
 1442SOL    HW1 5225   5.541   6.959   0.406
 1442SOL    HW2 5226   5.380   6.941   0.386
 1443SOL     OW 5227   1.552   2.662   3.662
 1443SOL    HW1 5228   1.501   2.704   3.587
 1443SOL    HW2 5229   1.498   2.668   3.746
 1444SOL     OW 5230   5.161   0.087   5.145
 1444SOL    HW1 5231   5.121   0.028   5.215
 1444SOL    HW2 5232   5.251   0.119   5.176
 1445SOL     OW 5233   6.732   1.728   0.491
 1445SOL    HW1 5234   6.641   1.699   0.462
 1445SOL    HW2 5235   6.724   1.805   0.554
 1446SOL     OW 5236   3.814   6.479   1.038
 1446SOL    HW1 5237   3.861   6.565   1.059
 1446SOL    HW2 5238   3.721   6.482   1.075
 1447SOL     OW 5239   6.442   1.706   5.094
 1447SOL    HW1 5240   6.511   1.710   5.021
 1447SOL    HW2 5241   6.477   1.753   5.175
 1448SOL     OW 5242   5.509   0.473   6.898
 1448SOL    HW1 5243   5.563   0.402   6.854
 1448SOL    HW2 5244   5.569   0.549   6.925
 1449SOL     OW 5245   4.555   5.898   1.049
 1449SOL    HW1 5246   4.602   5.945   0.974
 1449SOL    HW2 5247   4.461   5.879   1.023
 1450SOL     OW 5248   5.945   2.160   3.485
 1450SOL    HW1 5249   5.962   2.090   3.554
 1450SOL    HW2 5250   6.027   2.216   3.474
 1451SOL     OW 5251   1.815   6.736   1.924
 1451SOL    HW1 5252   1.839   6.649   1.881
 1451SOL    HW2 5253   1.717   6.754   1.910
 1452SOL     OW 5254   3.508   0.695   5.474
 1452SOL    HW1 5255   3.416   0.665   5.497
 1452SOL    HW2 5256   3.569   0.679   5.552
 1453SOL     OW 5257   4.375   4.611   4.245
 1453SOL    HW1 5258   4.364   4.670   4.325
 1453SOL    HW2 5259   4.413   4.523   4.274
 1454SOL     OW 5260   4.808   4.547   0.841
 1454SOL    HW1 5261   4.730   4.533   0.779
 1454SOL    HW2 5262   4.776   4.592   0.925
 1455SOL     OW 5263   2.751   1.848   1.568
 1455SOL    HW1 5264   2.694   1.913   1.518
 1455SOL    HW2 5265   2.738   1.860   1.666
 1456SOL     OW 5266   6.202   5.158   4.705
 1456SOL    HW1 5267   6.247   5.108   4.631
 1456SOL    HW2 5268   6.160   5.241   4.669
 1457SOL     OW 5269   2.312   0.118   3.484
 1457SOL    HW1 5270   2.379   0.052   3.449
 1457SOL    HW2 5271   2.229   0.070   3.511
 1458SOL     OW 5272   0.138   5.685   0.254
 1458SOL    HW1 5273   0.081   5.604   0.244
 1458SOL    HW2 5274   0.082   5.762   0.287
 1459SOL     OW 5275   2.221   6.885   0.886
 1459SOL    HW1 5276   2.202   6.863   0.982
 1459SOL    HW2 5277   2.320   6.888   0.871
 1460SOL     OW 5278   0.917   6.824   6.817
 1460SOL    HW1 5279   0.898   6.856   6.909
 1460SOL    HW2 5280   0.892   6.727   6.809
 1461SOL     OW 5281   4.634   5.310   2.384
 1461SOL    HW1 5282   4.588   5.394   2.358
 1461SOL    HW2 5283   4.645   5.252   2.303
 1462SOL     OW 5284   4.973   0.306   5.088
 1462SOL    HW1 5285   5.044   0.255   5.039
 1462SOL    HW2 5286   5.004   0.399   5.105
 1463SOL     OW 5287   0.453   1.814   5.972
 1463SOL    HW1 5288   0.512   1.774   6.043
 1463SOL    HW2 5289   0.501   1.889   5.928
 1464SOL     OW 5290   0.649   1.032   1.550
 1464SOL    HW1 5291   0.673   0.936   1.539
 1464SOL    HW2 5292   0.639   1.053   1.647
 1465SOL     OW 5293   0.671   0.571   4.191
 1465SOL    HW1 5294   0.710   0.511   4.261
 1465SOL    HW2 5295   0.591   0.618   4.228
 1466SOL     OW 5296   5.480   5.037   4.666
 1466SOL    HW1 5297   5.499   5.044   4.568
 1466SOL    HW2 5298   5.547   5.090   4.717
 1467SOL     OW 5299   5.862   3.572   3.557
 1467SOL    HW1 5300   5.809   3.644   3.603
 1467SOL    HW2 5301   5.809   3.487   3.557
 1468SOL     OW 5302   5.480   6.889   2.142
 1468SOL    HW1 5303   5.573   6.927   2.146
 1468SOL    HW2 5304   5.481   6.796   2.178
 1469SOL     OW 5305   0.940   1.186   2.396
 1469SOL    HW1 5306   0.927   1.099   2.349
 1469SOL    HW2 5307   0.972   1.170   2.489
 1470SOL     OW 5308   6.943   0.924   3.016
 1470SOL    HW1 5309   6.971   0.987   3.089
 1470SOL    HW2 5310   7.010   0.851   3.008
 1471SOL     OW 5311   6.411   0.316   1.109
 1471SOL    HW1 5312   6.313   0.299   1.097
 1471SOL    HW2 5313   6.447   0.252   1.177
 1472SOL     OW 5314   4.598   5.410   5.017
 1472SOL    HW1 5315   4.590   5.343   4.943
 1472SOL    HW2 5316   4.559   5.497   4.986
 1473SOL     OW 5317   6.063   3.854   2.986
 1473SOL    HW1 5318   6.007   3.906   2.921
 1473SOL    HW2 5319   6.110   3.917   3.048
 1474SOL     OW 5320   4.741   5.134   3.540
 1474SOL    HW1 5321   4.833   5.097   3.553
 1474SOL    HW2 5322   4.699   5.151   3.629
 1475SOL     OW 5323   6.141   0.537   3.751
 1475SOL    HW1 5324   6.081   0.538   3.671
 1475SOL    HW2 5325   6.147   0.444   3.787
 1476SOL     OW 5326   6.937   2.740   1.203
 1476SOL    HW1 5327   6.953   2.653   1.158
 1476SOL    HW2 5328   6.897   2.724   1.293
 1477SOL     OW 5329   2.410   6.163   3.413
 1477SOL    HW1 5330   2.319   6.176   3.453
 1477SOL    HW2 5331   2.451   6.080   3.451
 1478SOL     OW 5332   6.944   4.222   1.525
 1478SOL    HW1 5333   6.920   4.160   1.599
 1478SOL    HW2 5334   0.019   4.257   1.538
 1479SOL     OW 5335   1.136   4.843   0.350
 1479SOL    HW1 5336   1.086   4.757   0.358
 1479SOL    HW2 5337   1.224   4.827   0.305
 1480SOL     OW 5338   2.684   1.106   0.182
 1480SOL    HW1 5339   2.693   1.010   0.154
 1480SOL    HW2 5340   2.656   1.161   0.104
 1481SOL     OW 5341   0.212   2.598   5.929
 1481SOL    HW1 5342   0.223   2.650   5.844
 1481SOL    HW2 5343   0.128   2.626   5.975
 1482SOL     OW 5344   5.253   0.495   6.867
 1482SOL    HW1 5345   5.234   0.512   6.770
 1482SOL    HW2 5346   5.351   0.478   6.879
 1483SOL     OW 5347   6.404   2.003   6.346
 1483SOL    HW1 5348   6.449   1.965   6.266
 1483SOL    HW2 5349   6.408   2.103   6.343
 1484SOL     OW 5350   6.285   7.016   3.319
 1484SOL    HW1 5351   6.251   6.977   3.233
 1484SOL    HW2 5352   6.333   6.945   3.370
 1485SOL     OW 5353   5.961   2.553   4.116
 1485SOL    HW1 5354   5.924   2.604   4.193
 1485SOL    HW2 5355   5.888   2.536   4.049
 1486SOL     OW 5356   5.280   2.222   2.110
 1486SOL    HW1 5357   5.305   2.318   2.097
 1486SOL    HW2 5358   5.350   2.164   2.070
 1487SOL     OW 5359   6.363   1.307   5.988
 1487SOL    HW1 5360   6.302   1.248   6.041
 1487SOL    HW2 5361   6.312   1.346   5.911
 1488SOL     OW 5362   4.980   1.824   3.896
 1488SOL    HW1 5363   4.894   1.853   3.938
 1488SOL    HW2 5364   5.056   1.874   3.938
 1489SOL     OW 5365   3.935   5.435   4.431
 1489SOL    HW1 5366   3.929   5.343   4.392
 1489SOL    HW2 5367   3.896   5.500   4.366
 1490SOL     OW 5368   2.363   2.695   1.374
 1490SOL    HW1 5369   2.300   2.739   1.439
 1490SOL    HW2 5370   2.447   2.668   1.422
 1491SOL     OW 5371   6.762   2.323   5.379
 1491SOL    HW1 5372   6.810   2.382   5.444
 1491SOL    HW2 5373   6.663   2.341   5.384
 1492SOL     OW 5374   5.550   2.826   1.928
 1492SOL    HW1 5375   5.605   2.814   1.846
 1492SOL    HW2 5376   5.518   2.921   1.933
 1493SOL     OW 5377   6.200   1.578   4.981
 1493SOL    HW1 5378   6.258   1.601   5.059
 1493SOL    HW2 5379   6.198   1.656   4.917
 1494SOL     OW 5380   5.587   1.849   4.742
 1494SOL    HW1 5381   5.611   1.943   4.766
 1494SOL    HW2 5382   5.615   1.830   4.648
 1495SOL     OW 5383   0.917   3.466   2.659
 1495SOL    HW1 5384   1.008   3.505   2.677
 1495SOL    HW2 5385   0.925   3.369   2.636
 1496SOL     OW 5386   0.760   0.650   2.653
 1496SOL    HW1 5387   0.828   0.629   2.724
 1496SOL    HW2 5388   0.705   0.728   2.682
 1497SOL     OW 5389   5.279   4.544   5.878
 1497SOL    HW1 5390   5.192   4.533   5.925
 1497SOL    HW2 5391   5.277   4.628   5.823
 1498SOL     OW 5392   2.245   5.443   0.188
 1498SOL    HW1 5393   2.217   5.380   0.115
 1498SOL    HW2 5394   2.248   5.536   0.152
 1499SOL     OW 5395   1.030   4.050   4.679
 1499SOL    HW1 5396   1.005   4.125   4.740
 1499SOL    HW2 5397   0.959   4.038   4.609
 1500SOL     OW 5398   4.400   6.570   5.462
 1500SOL    HW1 5399   4.405   6.661   5.420
 1500SOL    HW2 5400   4.475   6.514   5.427
 1501SOL     OW 5401   4.029   0.431   0.272
 1501SOL    HW1 5402   4.013   0.335   0.293
 1501SOL    HW2 5403   4.095   0.469   0.338
 1502SOL     OW 5404   0.060   6.176   6.832
 1502SOL    HW1 5405   0.106   6.110   6.892
 1502SOL    HW2 5406   0.077   6.268   6.865
 1503SOL     OW 5407   3.119   4.388   5.380
 1503SOL    HW1 5408   3.202   4.343   5.345
 1503SOL    HW2 5409   3.129   4.487   5.370
 1504SOL     OW 5410   2.687   6.743   4.260
 1504SOL    HW1 5411   2.724   6.817   4.204
 1504SOL    HW2 5412   2.760   6.703   4.315
 1505SOL     OW 5413   4.786   6.384   2.167
 1505SOL    HW1 5414   4.834   6.381   2.255
 1505SOL    HW2 5415   4.852   6.398   2.094
 1506SOL     OW 5416   0.988   6.669   3.307
 1506SOL    HW1 5417   0.994   6.572   3.332
 1506SOL    HW2 5418   0.909   6.684   3.248
 1507SOL     OW 5419   2.622   2.478   6.448
 1507SOL    HW1 5420   2.527   2.448   6.455
 1507SOL    HW2 5421   2.668   2.464   6.536
 1508SOL     OW 5422   4.386   6.663   0.595
 1508SOL    HW1 5423   4.463   6.701   0.544
 1508SOL    HW2 5424   4.330   6.606   0.534
 1509SOL     OW 5425   5.387   1.577   0.108
 1509SOL    HW1 5426   5.292   1.565   0.137
 1509SOL    HW2 5427   5.394   1.558   0.010
 1510SOL     OW 5428   0.156   2.217   3.260
 1510SOL    HW1 5429   0.103   2.189   3.180
 1510SOL    HW2 5430   0.094   2.255   3.329
 1511SOL     OW 5431   1.424   3.032   0.748
 1511SOL    HW1 5432   1.483   3.029   0.830
 1511SOL    HW2 5433   1.358   3.107   0.757
 1512SOL     OW 5434   6.233   0.890   2.245
 1512SOL    HW1 5435   6.139   0.880   2.277
 1512SOL    HW2 5436   6.265   0.983   2.264
 1513SOL     OW 5437   3.695   1.019   2.205
 1513SOL    HW1 5438   3.604   0.979   2.219
 1513SOL    HW2 5439   3.717   1.017   2.108
 1514SOL     OW 5440   4.869   1.132   6.378
 1514SOL    HW1 5441   4.958   1.159   6.413
 1514SOL    HW2 5442   4.881   1.066   6.304
 1515SOL     OW 5443   6.080   5.204   5.035
 1515SOL    HW1 5444   6.161   5.227   5.089
 1515SOL    HW2 5445   6.038   5.122   5.071
 1516SOL     OW 5446   0.712   1.017   0.501
 1516SOL    HW1 5447   0.812   1.022   0.497
 1516SOL    HW2 5448   0.673   1.043   0.413
 1517SOL     OW 5449   3.364   5.236   3.499
 1517SOL    HW1 5450   3.378   5.143   3.535
 1517SOL    HW2 5451   3.414   5.301   3.555
 1518SOL     OW 5452   0.863   4.968   0.707
 1518SOL    HW1 5453   0.844   4.876   0.671
 1518SOL    HW2 5454   0.942   5.007   0.660
 1519SOL     OW 5455   0.165   4.183   1.059
 1519SOL    HW1 5456   0.091   4.198   1.125
 1519SOL    HW2 5457   0.252   4.210   1.100
 1520SOL     OW 5458   1.415   2.669   2.687
 1520SOL    HW1 5459   1.411   2.569   2.692
 1520SOL    HW2 5460   1.341   2.708   2.743
 1521SOL     OW 5461   2.409   4.220   5.271
 1521SOL    HW1 5462   2.420   4.134   5.223
 1521SOL    HW2 5463   2.491   4.238   5.326
 1522SOL     OW 5464   1.136   2.590   6.444
 1522SOL    HW1 5465   1.217   2.624   6.492
 1522SOL    HW2 5466   1.122   2.641   6.359
 1523SOL     OW 5467   6.313   1.173   1.181
 1523SOL    HW1 5468   6.282   1.092   1.231
 1523SOL    HW2 5469   6.412   1.167   1.167
 1524SOL     OW 5470   6.386   0.871   2.571
 1524SOL    HW1 5471   6.435   0.930   2.635
 1524SOL    HW2 5472   6.354   0.926   2.494
 1525SOL     OW 5473   4.457   1.146   5.990
 1525SOL    HW1 5474   4.419   1.225   6.038
 1525SOL    HW2 5475   4.479   1.172   5.896
 1526SOL     OW 5476   6.713   1.596   0.168
 1526SOL    HW1 5477   6.650   1.604   0.090
 1526SOL    HW2 5478   6.662   1.608   0.253
 1527SOL     OW 5479   3.225   1.542   5.342
 1527SOL    HW1 5480   3.235   1.606   5.267
 1527SOL    HW2 5481   3.308   1.541   5.397
 1528SOL     OW 5482   5.217   5.535   4.236
 1528SOL    HW1 5483   5.171   5.623   4.227
 1528SOL    HW2 5484   5.173   5.482   4.309
 1529SOL     OW 5485   2.557   0.831   5.343
 1529SOL    HW1 5486   2.508   0.805   5.260
 1529SOL    HW2 5487   2.623   0.903   5.322
 1530SOL     OW 5488   3.183   6.936   1.720
 1530SOL    HW1 5489   3.116   6.886   1.666
 1530SOL    HW2 5490   3.275   6.903   1.699
 1531SOL     OW 5491   5.484   0.233   6.263
 1531SOL    HW1 5492   5.478   0.307   6.197
 1531SOL    HW2 5493   5.501   0.147   6.215
 1532SOL     OW 5494   3.282   2.586   5.310
 1532SOL    HW1 5495   3.243   2.510   5.258
 1532SOL    HW2 5496   3.281   2.562   5.408
 1533SOL     OW 5497   5.213   2.925   6.844
 1533SOL    HW1 5498   5.195   2.858   6.772
 1533SOL    HW2 5499   5.312   2.943   6.849
 1534SOL     OW 5500   6.620   6.664   2.337
 1534SOL    HW1 5501   6.708   6.650   2.292
 1534SOL    HW2 5502   6.565   6.729   2.284
 1535SOL     OW 5503   4.911   4.415   4.354
 1535SOL    HW1 5504   4.907   4.490   4.288
 1535SOL    HW2 5505   4.870   4.333   4.313
 1536SOL     OW 5506   3.139   5.137   3.340
 1536SOL    HW1 5507   3.129   5.043   3.374
 1536SOL    HW2 5508   3.205   5.185   3.397
 1537SOL     OW 5509   2.522   5.587   4.351
 1537SOL    HW1 5510   2.509   5.528   4.271
 1537SOL    HW2 5511   2.589   5.658   4.330
 1538SOL     OW 5512   3.525   5.059   6.128
 1538SOL    HW1 5513   3.599   5.056   6.196
 1538SOL    HW2 5514   3.507   4.967   6.094
 1539SOL     OW 5515   3.667   5.748   1.840
 1539SOL    HW1 5516   3.571   5.720   1.838
 1539SOL    HW2 5517   3.676   5.842   1.807
 1540SOL     OW 5518   5.881   0.369   5.152
 1540SOL    HW1 5519   5.878   0.404   5.058
 1540SOL    HW2 5520   5.789   0.339   5.179
 1541SOL     OW 5521   4.627   1.540   1.337
 1541SOL    HW1 5522   4.534   1.549   1.300
 1541SOL    HW2 5523   4.683   1.617   1.304
 1542SOL     OW 5524   1.091   6.034   0.915
 1542SOL    HW1 5525   1.156   5.967   0.878
 1542SOL    HW2 5526   1.095   6.031   1.015
 1543SOL     OW 5527   3.376   3.844   3.186
 1543SOL    HW1 5528   3.384   3.942   3.165
 1543SOL    HW2 5529   3.397   3.829   3.283
 1544SOL     OW 5530   3.391   3.908   2.721
 1544SOL    HW1 5531   3.368   3.962   2.802
 1544SOL    HW2 5532   3.421   3.817   2.750
 1545SOL     OW 5533   0.206   0.674   4.174
 1545SOL    HW1 5534   0.126   0.653   4.231
 1545SOL    HW2 5535   0.206   0.614   4.094
 1546SOL     OW 5536   6.447   6.736   6.447
 1546SOL    HW1 5537   6.397   6.735   6.361
 1546SOL    HW2 5538   6.533   6.785   6.436
 1547SOL     OW 5539   3.023   6.037   6.969
 1547SOL    HW1 5540   2.941   6.069   6.921
 1547SOL    HW2 5541   2.999   6.014   0.046
 1548SOL     OW 5542   5.757   4.019   4.267
 1548SOL    HW1 5543   5.699   4.053   4.341
 1548SOL    HW2 5544   5.759   3.919   4.269
 1549SOL     OW 5545   6.783   2.662   0.719
 1549SOL    HW1 5546   6.806   2.673   0.816
 1549SOL    HW2 5547   6.766   2.753   0.678
 1550SOL     OW 5548   2.217   5.292   2.497
 1550SOL    HW1 5549   2.238   5.300   2.400
 1550SOL    HW2 5550   2.299   5.311   2.551
 1551SOL     OW 5551   0.464   3.722   0.932
 1551SOL    HW1 5552   0.501   3.635   0.966
 1551SOL    HW2 5553   0.536   3.773   0.885
 1552SOL     OW 5554   0.741   6.578   1.838
 1552SOL    HW1 5555   0.717   6.518   1.915
 1552SOL    HW2 5556   0.659   6.625   1.807
 1553SOL     OW 5557   5.468   0.996   6.312
 1553SOL    HW1 5558   5.399   0.924   6.315
 1553SOL    HW2 5559   5.547   0.964   6.259
 1554SOL     OW 5560   2.914   2.278   1.366
 1554SOL    HW1 5561   2.893   2.236   1.454
 1554SOL    HW2 5562   2.973   2.358   1.381
 1555SOL     OW 5563   4.059   0.832   6.988
 1555SOL    HW1 5564   4.092   0.774   0.044
 1555SOL    HW2 5565   3.990   0.895   0.006
 1556SOL     OW 5566   4.363   2.147   6.820
 1556SOL    HW1 5567   4.377   2.245   6.806
 1556SOL    HW2 5568   4.430   2.096   6.766
 1557SOL     OW 5569   1.638   3.533   0.839
 1557SOL    HW1 5570   1.598   3.537   0.931
 1557SOL    HW2 5571   1.682   3.444   0.826
 1558SOL     OW 5572   4.929   2.774   6.383
 1558SOL    HW1 5573   4.899   2.824   6.465
 1558SOL    HW2 5574   4.874   2.802   6.305
 1559SOL     OW 5575   2.912   5.862   3.045
 1559SOL    HW1 5576   2.975   5.879   3.121
 1559SOL    HW2 5577   2.942   5.780   2.995
 1560SOL     OW 5578   3.834   2.528   0.925
 1560SOL    HW1 5579   3.786   2.440   0.921
 1560SOL    HW2 5580   3.833   2.571   0.835
 1561SOL     OW 5581   5.673   6.156   1.105
 1561SOL    HW1 5582   5.642   6.062   1.087
 1561SOL    HW2 5583   5.617   6.197   1.176
 1562SOL     OW 5584   3.736   0.388   1.869
 1562SOL    HW1 5585   3.723   0.295   1.835
 1562SOL    HW2 5586   3.654   0.419   1.916
 1563SOL     OW 5587   2.002   2.407   3.965
 1563SOL    HW1 5588   2.074   2.358   4.014
 1563SOL    HW2 5589   2.044   2.469   3.898
 1564SOL     OW 5590   0.723   1.159   2.737
 1564SOL    HW1 5591   0.798   1.223   2.750
 1564SOL    HW2 5592   0.744   1.096   2.663
 1565SOL     OW 5593   4.199   1.433   4.760
 1565SOL    HW1 5594   4.290   1.404   4.733
 1565SOL    HW2 5595   4.185   1.529   4.737
 1566SOL     OW 5596   6.429   4.089   3.788
 1566SOL    HW1 5597   6.499   4.074   3.859
 1566SOL    HW2 5598   6.363   4.157   3.820
 1567SOL     OW 5599   5.413   0.488   5.198
 1567SOL    HW1 5600   5.376   0.523   5.284
 1567SOL    HW2 5601   5.345   0.433   5.152
 1568SOL     OW 5602   2.984   4.833   1.588
 1568SOL    HW1 5603   2.938   4.854   1.674
 1568SOL    HW2 5604   3.045   4.755   1.601
 1569SOL     OW 5605   2.836   0.780   2.251
 1569SOL    HW1 5606   2.786   0.786   2.337
 1569SOL    HW2 5607   2.933   0.798   2.266
 1570SOL     OW 5608   2.698   6.369   6.258
 1570SOL    HW1 5609   2.599   6.369   6.270
 1570SOL    HW2 5610   2.729   6.459   6.229
 1571SOL     OW 5611   6.652   3.595   4.261
 1571SOL    HW1 5612   6.558   3.601   4.292
 1571SOL    HW2 5613   6.681   3.685   4.227
 1572SOL     OW 5614   2.408   5.989   2.810
 1572SOL    HW1 5615   2.367   5.898   2.817
 1572SOL    HW2 5616   2.363   6.050   2.875
 1573SOL     OW 5617   4.979   6.434   0.208
 1573SOL    HW1 5618   4.996   6.415   0.304
 1573SOL    HW2 5619   4.987   6.350   0.155
 1574SOL     OW 5620   0.309   4.314   2.755
 1574SOL    HW1 5621   0.378   4.259   2.708
 1574SOL    HW2 5622   0.224   4.261   2.763
 1575SOL     OW 5623   6.831   2.573   0.048
 1575SOL    HW1 5624   6.928   2.551   0.038
 1575SOL    HW2 5625   6.775   2.503   0.004
 1576SOL     OW 5626   1.913   6.208   1.631
 1576SOL    HW1 5627   1.862   6.233   1.549
 1576SOL    HW2 5628   1.995   6.264   1.639
 1577SOL     OW 5629   3.496   5.808   4.315
 1577SOL    HW1 5630   3.455   5.781   4.401
 1577SOL    HW2 5631   3.586   5.848   4.332
 1578SOL     OW 5632   5.264   1.152   2.115
 1578SOL    HW1 5633   5.325   1.105   2.050
 1578SOL    HW2 5634   5.318   1.214   2.171
 1579SOL     OW 5635   1.266   2.727   1.537
 1579SOL    HW1 5636   1.327   2.731   1.616
 1579SOL    HW2 5637   1.176   2.762   1.562
 1580SOL     OW 5638   3.158   3.342   2.608
 1580SOL    HW1 5639   3.156   3.434   2.648
 1580SOL    HW2 5640   3.069   3.322   2.567
 1581SOL     OW 5641   6.287   4.287   5.180
 1581SOL    HW1 5642   6.292   4.302   5.082
 1581SOL    HW2 5643   6.198   4.317   5.214
 1582SOL     OW 5644   5.000   5.683   5.002
 1582SOL    HW1 5645   5.085   5.735   4.989
 1582SOL    HW2 5646   5.022   5.585   5.011
 1583SOL     OW 5647   1.433   5.356   5.105
 1583SOL    HW1 5648   1.484   5.390   5.184
 1583SOL    HW2 5649   1.461   5.406   5.023
 1584SOL     OW 5650   6.928   3.706   0.312
 1584SOL    HW1 5651   6.986   3.783   0.286
 1584SOL    HW2 5652   6.846   3.705   0.255
 1585SOL     OW 5653   4.482   6.288   3.712
 1585SOL    HW1 5654   4.495   6.302   3.811
 1585SOL    HW2 5655   4.514   6.197   3.687
 1586SOL     OW 5656   3.154   6.083   2.444
 1586SOL    HW1 5657   3.164   6.076   2.543
 1586SOL    HW2 5658   3.081   6.148   2.423
 1587SOL     OW 5659   3.146   6.262   6.611
 1587SOL    HW1 5660   3.056   6.234   6.645
 1587SOL    HW2 5661   3.204   6.181   6.603
 1588SOL     OW 5662   6.537   1.874   3.574
 1588SOL    HW1 5663   6.523   1.857   3.477
 1588SOL    HW2 5664   6.482   1.952   3.603
 1589SOL     OW 5665   6.558   3.903   4.490
 1589SOL    HW1 5666   6.531   3.945   4.404
 1589SOL    HW2 5667   6.610   3.969   4.544
 1590SOL     OW 5668   6.628   1.599   3.385
 1590SOL    HW1 5669   6.722   1.615   3.417
 1590SOL    HW2 5670   6.615   1.501   3.370
 1591SOL     OW 5671   1.590   5.665   0.819
 1591SOL    HW1 5672   1.538   5.665   0.904
 1591SOL    HW2 5673   1.529   5.688   0.742
 1592SOL     OW 5674   0.264   3.391   6.000
 1592SOL    HW1 5675   0.210   3.451   5.942
 1592SOL    HW2 5676   0.209   3.310   6.025
 1593SOL     OW 5677   3.456   6.794   0.120
 1593SOL    HW1 5678   3.502   6.778   0.033
 1593SOL    HW2 5679   3.479   6.885   0.155
 1594SOL     OW 5680   5.520   0.734   2.597
 1594SOL    HW1 5681   5.524   0.833   2.580
 1594SOL    HW2 5682   5.433   0.711   2.640
 1595SOL     OW 5683   0.520   3.052   0.049
 1595SOL    HW1 5684   0.579   3.129   0.073
 1595SOL    HW2 5685   0.545   2.973   0.105
 1596SOL     OW 5686   5.203   4.429   2.615
 1596SOL    HW1 5687   5.172   4.354   2.556
 1596SOL    HW2 5688   5.128   4.494   2.628
 1597SOL     OW 5689   3.203   5.883   0.147
 1597SOL    HW1 5690   3.240   5.944   0.078
 1597SOL    HW2 5691   3.183   5.936   0.230
 1598SOL     OW 5692   0.596   4.906   6.559
 1598SOL    HW1 5693   0.598   4.853   6.474
 1598SOL    HW2 5694   0.624   4.849   6.635
 1599SOL     OW 5695   4.432   5.343   3.378
 1599SOL    HW1 5696   4.472   5.414   3.319
 1599SOL    HW2 5697   4.485   5.258   3.369
 1600SOL     OW 5698   3.968   0.563   1.910
 1600SOL    HW1 5699   3.875   0.547   1.875
 1600SOL    HW2 5700   4.030   0.496   1.869
 1601SOL     OW 5701   6.641   1.488   4.802
 1601SOL    HW1 5702   6.579   1.443   4.867
 1601SOL    HW2 5703   6.591   1.512   4.719
 1602SOL     OW 5704   4.266   5.955   4.113
 1602SOL    HW1 5705   4.235   6.009   4.191
 1602SOL    HW2 5706   4.283   5.861   4.143
 1603SOL     OW 5707   2.802   4.744   2.818
 1603SOL    HW1 5708   2.783   4.693   2.734
 1603SOL    HW2 5709   2.786   4.685   2.897
 1604SOL     OW 5710   4.595   4.923   2.788
 1604SOL    HW1 5711   4.685   4.923   2.832
 1604SOL    HW2 5712   4.596   4.984   2.709
 1605SOL     OW 5713   4.605   4.814   0.625
 1605SOL    HW1 5714   4.624   4.817   0.527
 1605SOL    HW2 5715   4.666   4.877   0.673
 1606SOL     OW 5716   3.118   5.928   4.479
 1606SOL    HW1 5717   3.159   6.012   4.515
 1606SOL    HW2 5718   3.106   5.936   4.380
 1607SOL     OW 5719   4.449   4.804   3.754
 1607SOL    HW1 5720   4.405   4.765   3.834
 1607SOL    HW2 5721   4.446   4.904   3.759
 1608SOL     OW 5722   5.647   1.884   3.578
 1608SOL    HW1 5723   5.740   1.886   3.615
 1608SOL    HW2 5724   5.643   1.818   3.503
 1609SOL     OW 5725   2.346   6.621   1.431
 1609SOL    HW1 5726   2.383   6.710   1.407
 1609SOL    HW2 5727   2.279   6.631   1.505
 1610SOL     OW 5728   5.618   0.010   0.934
 1610SOL    HW1 5729   5.548   6.959   0.916
 1610SOL    HW2 5730   5.708   6.992   0.909
 1611SOL     OW 5731   1.320   4.151   0.270
 1611SOL    HW1 5732   1.250   4.103   0.322
 1611SOL    HW2 5733   1.327   4.113   0.178
 1612SOL     OW 5734   4.918   0.491   2.473
 1612SOL    HW1 5735   4.835   0.522   2.427
 1612SOL    HW2 5736   4.943   0.400   2.438
 1613SOL     OW 5737   6.801   5.382   2.344
 1613SOL    HW1 5738   6.832   5.464   2.294
 1613SOL    HW2 5739   6.807   5.399   2.442
 1614SOL     OW 5740   6.053   1.512   5.819
 1614SOL    HW1 5741   5.972   1.561   5.786
 1614SOL    HW2 5742   6.124   1.513   5.748
 1615SOL     OW 5743   6.952   3.772   5.734
 1615SOL    HW1 5744   6.875   3.807   5.681
 1615SOL    HW2 5745   7.011   3.848   5.761
 1616SOL     OW 5746   1.067   0.065   3.951
 1616SOL    HW1 5747   1.005   0.087   4.026
 1616SOL    HW2 5748   1.092   6.986   3.956
 1617SOL     OW 5749   6.550   5.560   3.367
 1617SOL    HW1 5750   6.464   5.613   3.366
 1617SOL    HW2 5751   6.617   5.606   3.309
 1618SOL     OW 5752   3.337   5.209   3.125
 1618SOL    HW1 5753   3.338   5.305   3.152
 1618SOL    HW2 5754   3.282   5.156   3.189
 1619SOL     OW 5755   0.797   4.484   6.624
 1619SOL    HW1 5756   0.837   4.465   6.535
 1619SOL    HW2 5757   0.864   4.532   6.681
 1620SOL     OW 5758   3.343   5.975   4.155
 1620SOL    HW1 5759   3.245   5.979   4.173
 1620SOL    HW2 5760   3.385   5.908   4.217
 1621SOL     OW 5761   4.567   5.500   0.560
 1621SOL    HW1 5762   4.538   5.544   0.646
 1621SOL    HW2 5763   4.493   5.508   0.493
 1622SOL     OW 5764   6.361   3.754   4.589
 1622SOL    HW1 5765   6.441   3.783   4.536
 1622SOL    HW2 5766   6.346   3.817   4.665
 1623SOL     OW 5767   0.165   1.861   2.831
 1623SOL    HW1 5768   0.219   1.907   2.901
 1623SOL    HW2 5769   0.207   1.774   2.808
 1624SOL     OW 5770   3.888   2.962   0.391
 1624SOL    HW1 5771   3.833   2.980   0.309
 1624SOL    HW2 5772   3.923   3.049   0.427
 1625SOL     OW 5773   0.659   6.754   1.017
 1625SOL    HW1 5774   0.728   6.808   0.969
 1625SOL    HW2 5775   0.684   6.657   1.015
 1626SOL     OW 5776   2.669   1.719   2.005
 1626SOL    HW1 5777   2.718   1.789   2.056
 1626SOL    HW2 5778   2.632   1.758   1.921
 1627SOL     OW 5779   4.074   2.100   5.774
 1627SOL    HW1 5780   4.079   2.000   5.782
 1627SOL    HW2 5781   3.981   2.127   5.749
 1628SOL     OW 5782   5.408   6.817   0.899
 1628SOL    HW1 5783   5.477   6.758   0.858
 1628SOL    HW2 5784   5.334   6.834   0.834
 1629SOL     OW 5785   1.514   6.995   3.579
 1629SOL    HW1 5786   1.600   7.010   3.529
 1629SOL    HW2 5787   1.495   0.057   3.636
 1630SOL     OW 5788   0.354   3.471   6.369
 1630SOL    HW1 5789   0.416   3.445   6.295
 1630SOL    HW2 5790   0.404   3.524   6.438
 1631SOL     OW 5791   6.813   3.816   0.628
 1631SOL    HW1 5792   6.717   3.816   0.656
 1631SOL    HW2 5793   6.838   3.725   0.595
 1632SOL     OW 5794   6.399   5.431   2.598
 1632SOL    HW1 5795   6.360   5.464   2.512
 1632SOL    HW2 5796   6.456   5.503   2.638
 1633SOL     OW 5797   5.217   3.882   5.175
 1633SOL    HW1 5798   5.159   3.803   5.192
 1633SOL    HW2 5799   5.296   3.854   5.120
 1634SOL     OW 5800   6.780   2.019   5.300
 1634SOL    HW1 5801   6.864   1.996   5.251
 1634SOL    HW2 5802   6.758   2.115   5.284
 1635SOL     OW 5803   3.060   6.647   3.749
 1635SOL    HW1 5804   2.985   6.650   3.682
 1635SOL    HW2 5805   3.124   6.575   3.723
 1636SOL     OW 5806   6.069   6.068   1.358
 1636SOL    HW1 5807   6.034   6.149   1.310
 1636SOL    HW2 5808   6.168   6.064   1.346
 1637SOL     OW 5809   0.881   0.968   3.205
 1637SOL    HW1 5810   0.885   1.017   3.292
 1637SOL    HW2 5811   0.972   0.964   3.164
 1638SOL     OW 5812   5.581   2.670   2.250
 1638SOL    HW1 5813   5.673   2.650   2.283
 1638SOL    HW2 5814   5.578   2.763   2.212
 1639SOL     OW 5815   5.058   2.236   2.644
 1639SOL    HW1 5816   4.982   2.175   2.665
 1639SOL    HW2 5817   5.101   2.206   2.558
 1640SOL     OW 5818   5.574   0.601   6.386
 1640SOL    HW1 5819   5.581   0.622   6.484
 1640SOL    HW2 5820   5.662   0.618   6.343
 1641SOL     OW 5821   5.934   2.019   3.130
 1641SOL    HW1 5822   5.881   2.091   3.176
 1641SOL    HW2 5823   5.949   2.046   3.035
 1642SOL     OW 5824   6.754   3.112   6.505
 1642SOL    HW1 5825   6.821   3.089   6.435
 1642SOL    HW2 5826   6.754   3.042   6.576
 1643SOL     OW 5827   2.176   5.623   4.357
 1643SOL    HW1 5828   2.192   5.526   4.375
 1643SOL    HW2 5829   2.147   5.635   4.262
 1644SOL     OW 5830   6.504   2.264   1.830
 1644SOL    HW1 5831   6.479   2.250   1.735
 1644SOL    HW2 5832   6.601   2.288   1.836
 1645SOL     OW 5833   2.081   0.788   5.148
 1645SOL    HW1 5834   2.140   0.770   5.226
 1645SOL    HW2 5835   2.137   0.805   5.067
 1646SOL     OW 5836   1.545   4.894   0.697
 1646SOL    HW1 5837   1.502   4.892   0.787
 1646SOL    HW2 5838   1.514   4.816   0.643
 1647SOL     OW 5839   5.366   3.051   4.562
 1647SOL    HW1 5840   5.315   2.967   4.542
 1647SOL    HW2 5841   5.399   3.092   4.477
 1648SOL     OW 5842   5.798   6.159   1.476
 1648SOL    HW1 5843   5.768   6.222   1.547
 1648SOL    HW2 5844   5.843   6.210   1.403
 1649SOL     OW 5845   3.576   1.956   3.347
 1649SOL    HW1 5846   3.508   1.959   3.273
 1649SOL    HW2 5847   3.642   2.029   3.334
 1650SOL     OW 5848   2.958   3.710   5.497
 1650SOL    HW1 5849   3.029   3.744   5.559
 1650SOL    HW2 5850   2.870   3.750   5.522
 1651SOL     OW 5851   1.184   2.461   3.855
 1651SOL    HW1 5852   1.158   2.365   3.853
 1651SOL    HW2 5853   1.198   2.494   3.761
 1652SOL     OW 5854   0.718   3.068   1.657
 1652SOL    HW1 5855   0.628   3.089   1.619
 1652SOL    HW2 5856   0.766   3.154   1.675
 1653SOL     OW 5857   0.435   4.767   2.351
 1653SOL    HW1 5858   0.509   4.709   2.387
 1653SOL    HW2 5859   0.451   4.862   2.378
 1654SOL     OW 5860   0.229   3.192   2.227
 1654SOL    HW1 5861   0.182   3.186   2.315
 1654SOL    HW2 5862   0.262   3.285   2.213
 1655SOL     OW 5863   0.097   0.490   5.612
 1655SOL    HW1 5864   0.069   0.532   5.698
 1655SOL    HW2 5865   0.020   0.437   5.574
 1656SOL     OW 5866   2.276   4.442   3.111
 1656SOL    HW1 5867   2.200   4.383   3.084
 1656SOL    HW2 5868   2.253   4.538   3.092
 1657SOL     OW 5869   0.217   6.759   5.955
 1657SOL    HW1 5870   0.314   6.735   5.950
 1657SOL    HW2 5871   0.167   6.713   5.881
 1658SOL     OW 5872   5.273   6.356   5.976
 1658SOL    HW1 5873   5.246   6.449   6.002
 1658SOL    HW2 5874   5.276   6.299   6.057
 1659SOL     OW 5875   3.691   6.905   5.661
 1659SOL    HW1 5876   3.733   6.983   5.614
 1659SOL    HW2 5877   3.760   6.860   5.718
 1660SOL     OW 5878   2.385   0.793   1.851
 1660SOL    HW1 5879   2.380   0.696   1.875
 1660SOL    HW2 5880   2.294   0.826   1.829
 1661SOL     OW 5881   5.156   4.230   2.422
 1661SOL    HW1 5882   5.083   4.298   2.418
 1661SOL    HW2 5883   5.116   4.138   2.422
 1662SOL     OW 5884   0.515   2.082   3.747
 1662SOL    HW1 5885   0.612   2.066   3.731
 1662SOL    HW2 5886   0.463   1.999   3.726
 1663SOL     OW 5887   5.097   4.403   1.182
 1663SOL    HW1 5888   5.146   4.432   1.100
 1663SOL    HW2 5889   5.156   4.346   1.239
 1664SOL     OW 5890   0.980   0.176   6.576
 1664SOL    HW1 5891   1.006   0.271   6.557
 1664SOL    HW2 5892   0.914   0.145   6.507
 1665SOL     OW 5893   3.008   4.280   6.873
 1665SOL    HW1 5894   3.048   4.348   6.934
 1665SOL    HW2 5895   2.970   4.326   6.793
 1666SOL     OW 5896   4.716   6.422   5.963
 1666SOL    HW1 5897   4.782   6.355   5.928
 1666SOL    HW2 5898   4.656   6.452   5.889
 1667SOL     OW 5899   6.796   6.200   0.848
 1667SOL    HW1 5900   6.867   6.270   0.846
 1667SOL    HW2 5901   6.807   6.143   0.930
 1668SOL     OW 5902   5.789   3.829   2.468
 1668SOL    HW1 5903   5.811   3.878   2.383
 1668SOL    HW2 5904   5.856   3.757   2.483
 1669SOL     OW 5905   6.803   3.472   5.399
 1669SOL    HW1 5906   6.733   3.541   5.416
 1669SOL    HW2 5907   6.886   3.516   5.363
 1670SOL     OW 5908   2.419   4.367   5.839
 1670SOL    HW1 5909   2.429   4.424   5.757
 1670SOL    HW2 5910   2.422   4.271   5.812
 1671SOL     OW 5911   6.003   2.277   0.872
 1671SOL    HW1 5912   6.095   2.239   0.864
 1671SOL    HW2 5913   5.992   2.318   0.963
 1672SOL     OW 5914   0.787   2.895   1.182
 1672SOL    HW1 5915   0.782   2.828   1.256
 1672SOL    HW2 5916   0.752   2.854   1.097
 1673SOL     OW 5917   1.463   0.726   4.722
 1673SOL    HW1 5918   1.554   0.743   4.683
 1673SOL    HW2 5919   1.393   0.745   4.652
 1674SOL     OW 5920   4.893   2.023   2.768
 1674SOL    HW1 5921   4.834   1.994   2.693
 1674SOL    HW2 5922   4.837   2.054   2.845
 1675SOL     OW 5923   5.238   0.587   1.906
 1675SOL    HW1 5924   5.304   0.514   1.888
 1675SOL    HW2 5925   5.210   0.584   2.002
 1676SOL     OW 5926   1.033   2.792   3.240
 1676SOL    HW1 5927   1.077   2.751   3.159
 1676SOL    HW2 5928   0.981   2.721   3.288
 1677SOL     OW 5929   3.392   3.089   3.250
 1677SOL    HW1 5930   3.487   3.061   3.262
 1677SOL    HW2 5931   3.358   3.056   3.162
 1678SOL     OW 5932   1.120   0.432   0.759
 1678SOL    HW1 5933   1.146   0.521   0.798
 1678SOL    HW2 5934   1.143   0.431   0.662
 1679SOL     OW 5935   6.731   1.613   6.755
 1679SOL    HW1 5936   6.774   1.633   6.667
 1679SOL    HW2 5937   6.792   1.640   6.829
 1680SOL     OW 5938   5.524   2.513   3.541
 1680SOL    HW1 5939   5.474   2.469   3.466
 1680SOL    HW2 5940   5.599   2.454   3.570
 1681SOL     OW 5941   3.031   6.248   5.094
 1681SOL    HW1 5942   2.983   6.198   5.022
 1681SOL    HW2 5943   3.106   6.191   5.128
 1682SOL     OW 5944   3.701   0.244   4.030
 1682SOL    HW1 5945   3.680   0.296   4.113
 1682SOL    HW2 5946   3.795   0.211   4.033
 1683SOL     OW 5947   6.407   3.401   3.046
 1683SOL    HW1 5948   6.325   3.344   3.044
 1683SOL    HW2 5949   6.407   3.457   3.129
 1684SOL     OW 5950   2.568   5.032   2.275
 1684SOL    HW1 5951   2.617   5.104   2.225
 1684SOL    HW2 5952   2.473   5.028   2.244
 1685SOL     OW 5953   0.231   1.289   5.803
 1685SOL    HW1 5954   0.241   1.256   5.709
 1685SOL    HW2 5955   0.313   1.340   5.829
 1686SOL     OW 5956   4.564   5.251   2.896
 1686SOL    HW1 5957   4.539   5.160   2.929
 1686SOL    HW2 5958   4.534   5.262   2.801
 1687SOL     OW 5959   5.012   4.835   1.056
 1687SOL    HW1 5960   4.985   4.738   1.050
 1687SOL    HW2 5961   4.932   4.889   1.081
 1688SOL     OW 5962   0.966   0.153   2.702
 1688SOL    HW1 5963   0.961   0.247   2.735
 1688SOL    HW2 5964   0.901   0.140   2.628
 1689SOL     OW 5965   4.440   0.818   1.578
 1689SOL    HW1 5966   4.442   0.807   1.478
 1689SOL    HW2 5967   4.379   0.749   1.618
 1690SOL     OW 5968   6.944   4.867   3.954
 1690SOL    HW1 5969   6.932   4.768   3.968
 1690SOL    HW2 5970   6.862   4.904   3.911
 1691SOL     OW 5971   4.437   2.475   5.129
 1691SOL    HW1 5972   4.474   2.545   5.068
 1691SOL    HW2 5973   4.340   2.461   5.110
 1692SOL     OW 5974   4.875   5.130   1.288
 1692SOL    HW1 5975   4.803   5.199   1.293
 1692SOL    HW2 5976   4.964   5.176   1.277
 1693SOL     OW 5977   5.743   6.848   5.878
 1693SOL    HW1 5978   5.643   6.840   5.874
 1693SOL    HW2 5979   5.770   6.939   5.845
 1694SOL     OW 5980   4.841   1.901   6.197
 1694SOL    HW1 5981   4.778   1.908   6.120
 1694SOL    HW2 5982   4.898   1.819   6.187
 1695SOL     OW 5983   3.227   0.734   6.476
 1695SOL    HW1 5984   3.164   0.811   6.483
 1695SOL    HW2 5985   3.197   0.661   6.538
 1696SOL     OW 5986   4.342   5.981   0.372
 1696SOL    HW1 5987   4.312   6.055   0.431
 1696SOL    HW2 5988   4.384   6.019   0.289
 1697SOL     OW 5989   4.831   2.802   2.117
 1697SOL    HW1 5990   4.805   2.718   2.069
 1697SOL    HW2 5991   4.784   2.880   2.075
 1698SOL     OW 5992   4.024   1.298   1.516
 1698SOL    HW1 5993   4.077   1.331   1.594
 1698SOL    HW2 5994   3.927   1.315   1.531
 1699SOL     OW 5995   2.157   0.350   0.016
 1699SOL    HW1 5996   2.223   0.337   6.960
 1699SOL    HW2 5997   2.075   0.394   6.999
 1700SOL     OW 5998   5.328   2.562   3.107
 1700SOL    HW1 5999   5.364   2.471   3.088
 1700SOL    HW2 6000   5.233   2.567   3.074
 1701SOL     OW 6001   6.984   6.185   5.178
 1701SOL    HW1 6002   0.035   6.128   5.134
 1701SOL    HW2 6003   6.894   6.144   5.164
 1702SOL     OW 6004   2.228   2.359   6.940
 1702SOL    HW1 6005   2.200   2.455   6.947
 1702SOL    HW2 6006   2.156   2.307   6.894
 1703SOL     OW 6007   1.279   1.566   1.837
 1703SOL    HW1 6008   1.272   1.522   1.927
 1703SOL    HW2 6009   1.368   1.546   1.797
 1704SOL     OW 6010   3.253   2.194   0.902
 1704SOL    HW1 6011   3.184   2.257   0.939
 1704SOL    HW2 6012   3.294   2.235   0.820
 1705SOL     OW 6013   4.583   2.583   0.615
 1705SOL    HW1 6014   4.682   2.570   0.613
 1705SOL    HW2 6015   4.547   2.551   0.702
 1706SOL     OW 6016   6.146   2.284   6.539
 1706SOL    HW1 6017   6.049   2.281   6.514
 1706SOL    HW2 6018   6.160   2.354   6.610
 1707SOL     OW 6019   4.420   1.354   2.314
 1707SOL    HW1 6020   4.350   1.299   2.361
 1707SOL    HW2 6021   4.391   1.369   2.219
 1708SOL     OW 6022   2.867   4.783   2.171
 1708SOL    HW1 6023   2.823   4.723   2.104
 1708SOL    HW2 6024   2.941   4.834   2.128
 1709SOL     OW 6025   5.052   5.121   0.795
 1709SOL    HW1 6026   4.985   5.082   0.857
 1709SOL    HW2 6027   5.028   5.097   0.701
 1710SOL     OW 6028   4.685   4.322   2.433
 1710SOL    HW1 6029   4.679   4.339   2.335
 1710SOL    HW2 6030   4.704   4.225   2.449
 1711SOL     OW 6031   3.599   5.248   6.782
 1711SOL    HW1 6032   3.630   5.328   6.833
 1711SOL    HW2 6033   3.597   5.169   6.843
 1712SOL     OW 6034   0.824   1.538   1.902
 1712SOL    HW1 6035   0.918   1.507   1.889
 1712SOL    HW2 6036   0.822   1.638   1.903
 1713SOL     OW 6037   3.441   1.341   2.810
 1713SOL    HW1 6038   3.431   1.367   2.906
 1713SOL    HW2 6039   3.536   1.314   2.793
 1714SOL     OW 6040   2.927   3.946   1.010
 1714SOL    HW1 6041   2.952   3.876   1.076
 1714SOL    HW2 6042   3.006   3.969   0.953
 1715SOL     OW 6043   1.773   6.077   1.835
 1715SOL    HW1 6044   1.806   6.141   1.765
 1715SOL    HW2 6045   1.847   6.060   1.901
 1716SOL     OW 6046   3.942   1.281   2.928
 1716SOL    HW1 6047   3.872   1.280   2.999
 1716SOL    HW2 6048   3.999   1.199   2.936
 1717SOL     OW 6049   3.346   5.773   4.560
 1717SOL    HW1 6050   3.346   5.674   4.572
 1717SOL    HW2 6051   3.256   5.804   4.529
 1718SOL     OW 6052   2.008   2.918   1.260
 1718SOL    HW1 6053   2.041   2.840   1.315
 1718SOL    HW2 6054   1.908   2.920   1.264
 1719SOL     OW 6055   1.045   5.246   2.417
 1719SOL    HW1 6056   1.116   5.289   2.360
 1719SOL    HW2 6057   0.997   5.176   2.363
 1720SOL     OW 6058   0.768   3.272   5.505
 1720SOL    HW1 6059   0.702   3.287   5.578
 1720SOL    HW2 6060   0.799   3.177   5.505
 1721SOL     OW 6061   2.190   2.911   0.196
 1721SOL    HW1 6062   2.220   3.004   0.174
 1721SOL    HW2 6063   2.091   2.906   0.188
 1722SOL     OW 6064   2.637   2.431   4.562
 1722SOL    HW1 6065   2.691   2.367   4.617
 1722SOL    HW2 6066   2.613   2.510   4.618
 1723SOL     OW 6067   6.054   4.307   1.316
 1723SOL    HW1 6068   6.147   4.320   1.350
 1723SOL    HW2 6069   5.996   4.273   1.390
 1724SOL     OW 6070   5.967   2.501   1.036
 1724SOL    HW1 6071   5.884   2.448   1.056
 1724SOL    HW2 6072   5.980   2.570   1.107
 1725SOL     OW 6073   1.668   6.363   6.237
 1725SOL    HW1 6074   1.675   6.459   6.212
 1725SOL    HW2 6075   1.653   6.308   6.155
 1726SOL     OW 6076   5.538   4.134   2.937
 1726SOL    HW1 6077   5.572   4.201   3.003
 1726SOL    HW2 6078   5.480   4.180   2.870
 1727SOL     OW 6079   3.088   3.961   3.132
 1727SOL    HW1 6080   3.162   3.963   3.200
 1727SOL    HW2 6081   3.024   3.889   3.154
 1728SOL     OW 6082   5.635   2.549   4.269
 1728SOL    HW1 6083   5.709   2.612   4.294
 1728SOL    HW2 6084   5.664   2.455   4.288
 1729SOL     OW 6085   1.234   2.778   2.845
 1729SOL    HW1 6086   1.208   2.719   2.922
 1729SOL    HW2 6087   1.155   2.833   2.817
 1730SOL     OW 6088   2.042   6.171   4.443
 1730SOL    HW1 6089   2.067   6.126   4.356
 1730SOL    HW2 6090   2.032   6.101   4.514
 1731SOL     OW 6091   5.386   5.375   3.583
 1731SOL    HW1 6092   5.327   5.439   3.633
 1731SOL    HW2 6093   5.471   5.362   3.635
 1732SOL     OW 6094   2.766   3.924   5.199
 1732SOL    HW1 6095   2.801   3.838   5.236
 1732SOL    HW2 6096   2.667   3.929   5.213
 1733SOL     OW 6097   2.062   2.893   6.028
 1733SOL    HW1 6098   2.083   2.981   5.984
 1733SOL    HW2 6099   2.078   2.900   6.126
 1734SOL     OW 6100   6.489   2.925   0.971
 1734SOL    HW1 6101   6.394   2.952   0.961
 1734SOL    HW2 6102   6.506   2.896   1.065
 1735SOL     OW 6103   3.793   5.467   6.081
 1735SOL    HW1 6104   3.887   5.497   6.097
 1735SOL    HW2 6105   3.757   5.423   6.163
 1736SOL     OW 6106   5.084   2.463   6.432
 1736SOL    HW1 6107   5.169   2.462   6.379
 1736SOL    HW2 6108   5.007   2.481   6.371
 1737SOL     OW 6109   3.560   1.198   5.802
 1737SOL    HW1 6110   3.624   1.143   5.854
 1737SOL    HW2 6111   3.583   1.295   5.811
 1738SOL     OW 6112   2.139   3.349   3.029
 1738SOL    HW1 6113   2.120   3.266   2.975
 1738SOL    HW2 6114   2.170   3.322   3.120
 1739SOL     OW 6115   5.414   6.979   3.116
 1739SOL    HW1 6116   5.366   0.022   3.053
 1739SOL    HW2 6117   5.452   6.902   3.065
 1740SOL     OW 6118   5.936   3.099   4.730
 1740SOL    HW1 6119   5.974   3.183   4.690
 1740SOL    HW2 6120   5.837   3.106   4.734
 1741SOL     OW 6121   0.472   1.823   4.857
 1741SOL    HW1 6122   0.409   1.890   4.819
 1741SOL    HW2 6123   0.559   1.828   4.808
 1742SOL     OW 6124   6.379   6.445   6.650
 1742SOL    HW1 6125   6.295   6.397   6.675
 1742SOL    HW2 6126   6.356   6.534   6.611
 1743SOL     OW 6127   1.742   1.831   2.208
 1743SOL    HW1 6128   1.671   1.815   2.140
 1743SOL    HW2 6129   1.797   1.911   2.182
 1744SOL     OW 6130   3.518   2.104   5.453
 1744SOL    HW1 6131   3.600   2.048   5.451
 1744SOL    HW2 6132   3.515   2.161   5.371
 1745SOL     OW 6133   6.113   6.173   1.004
 1745SOL    HW1 6134   6.069   6.203   0.920
 1745SOL    HW2 6135   6.076   6.085   1.032
 1746SOL     OW 6136   2.576   4.661   3.381
 1746SOL    HW1 6137   2.545   4.567   3.397
 1746SOL    HW2 6138   2.543   4.692   3.292
 1747SOL     OW 6139   3.961   6.853   2.592
 1747SOL    HW1 6140   3.964   6.765   2.640
 1747SOL    HW2 6141   3.871   6.865   2.551
 1748SOL     OW 6142   0.018   2.407   4.431
 1748SOL    HW1 6143   0.082   2.462   4.377
 1748SOL    HW2 6144   7.001   2.331   4.376
 1749SOL     OW 6145   6.860   5.379   1.612
 1749SOL    HW1 6146   6.935   5.380   1.678
 1749SOL    HW2 6147   6.787   5.320   1.646
 1750SOL     OW 6148   3.093   0.971   0.082
 1750SOL    HW1 6149   3.137   0.882   0.092
 1750SOL    HW2 6150   3.142   1.038   0.137
 1751SOL     OW 6151   5.549   3.333   4.734
 1751SOL    HW1 6152   5.501   3.409   4.690
 1751SOL    HW2 6153   5.484   3.262   4.760
 1752SOL     OW 6154   0.218   0.750   2.293
 1752SOL    HW1 6155   0.284   0.751   2.367
 1752SOL    HW2 6156   0.126   0.767   2.329
 1753SOL     OW 6157   6.611   1.344   1.433
 1753SOL    HW1 6158   6.609   1.428   1.379
 1753SOL    HW2 6159   6.676   1.280   1.393
 1754SOL     OW 6160   3.162   5.332   3.665
 1754SOL    HW1 6161   3.232   5.282   3.614
 1754SOL    HW2 6162   3.129   5.408   3.609
 1755SOL     OW 6163   6.606   0.423   5.685
 1755SOL    HW1 6164   6.681   0.361   5.707
 1755SOL    HW2 6165   6.538   0.375   5.630
 1756SOL     OW 6166   4.501   5.972   0.690
 1756SOL    HW1 6167   4.566   5.928   0.627
 1756SOL    HW2 6168   4.419   5.999   0.639
 1757SOL     OW 6169   2.835   4.870   5.196
 1757SOL    HW1 6170   2.809   4.861   5.292
 1757SOL    HW2 6171   2.843   4.779   5.155
 1758SOL     OW 6172   1.420   5.922   4.001
 1758SOL    HW1 6173   1.363   5.879   3.931
 1758SOL    HW2 6174   1.513   5.930   3.967
 1759SOL     OW 6175   1.236   5.932   0.303
 1759SOL    HW1 6176   1.163   5.965   0.243
 1759SOL    HW2 6177   1.305   6.004   0.314
 1760SOL     OW 6178   6.700   1.592   4.317
 1760SOL    HW1 6179   6.762   1.559   4.246
 1760SOL    HW2 6180   6.752   1.604   4.402
 1761SOL     OW 6181   5.181   1.171   2.591
 1761SOL    HW1 6182   5.260   1.217   2.630
 1761SOL    HW2 6183   5.106   1.170   2.657
 1762SOL     OW 6184   0.376   1.581   5.874
 1762SOL    HW1 6185   0.409   1.673   5.895
 1762SOL    HW2 6186   0.277   1.584   5.861
 1763SOL     OW 6187   1.351   4.735   3.847
 1763SOL    HW1 6188   1.343   4.820   3.898
 1763SOL    HW2 6189   1.441   4.694   3.865
 1764SOL     OW 6190   1.111   6.358   3.628
 1764SOL    HW1 6191   1.101   6.354   3.529
 1764SOL    HW2 6192   1.111   6.454   3.658
 1765SOL     OW 6193   5.689   4.155   2.085
 1765SOL    HW1 6194   5.686   4.249   2.050
 1765SOL    HW2 6195   5.710   4.156   2.182
 1766SOL     OW 6196   4.314   4.704   3.995
 1766SOL    HW1 6197   4.316   4.656   4.083
 1766SOL    HW2 6198   4.252   4.781   4.000
 1767SOL     OW 6199   0.274   4.764   1.875
 1767SOL    HW1 6200   0.220   4.784   1.793
 1767SOL    HW2 6201   0.245   4.825   1.949
 1768SOL     OW 6202   5.504   4.510   2.554
 1768SOL    HW1 6203   5.561   4.566   2.494
 1768SOL    HW2 6204   5.407   4.524   2.532
 1769SOL     OW 6205   5.325   0.206   0.991
 1769SOL    HW1 6206   5.421   0.224   1.012
 1769SOL    HW2 6207   5.298   0.120   1.034
 1770SOL     OW 6208   2.027   4.997   0.583
 1770SOL    HW1 6209   2.029   5.043   0.494
 1770SOL    HW2 6210   1.935   5.005   0.622
 1771SOL     OW 6211   2.179   3.147   5.925
 1771SOL    HW1 6212   2.184   3.238   5.886
 1771SOL    HW2 6213   2.263   3.127   5.976
 1772SOL     OW 6214   2.222   4.135   2.181
 1772SOL    HW1 6215   2.136   4.183   2.166
 1772SOL    HW2 6216   2.207   4.037   2.183
 1773SOL     OW 6217   2.219   6.285   5.944
 1773SOL    HW1 6218   2.300   6.242   5.985
 1773SOL    HW2 6219   2.151   6.215   5.924
 1774SOL     OW 6220   5.402   5.779   1.269
 1774SOL    HW1 6221   5.408   5.845   1.194
 1774SOL    HW2 6222   5.315   5.792   1.318
 1775SOL     OW 6223   2.080   5.123   0.989
 1775SOL    HW1 6224   2.077   5.148   1.086
 1775SOL    HW2 6225   2.160   5.066   0.972
 1776SOL     OW 6226   4.466   2.740   5.751
 1776SOL    HW1 6227   4.492   2.681   5.674
 1776SOL    HW2 6228   4.544   2.753   5.811
 1777SOL     OW 6229   4.406   6.307   6.929
 1777SOL    HW1 6230   4.465   6.387   6.919
 1777SOL    HW2 6231   4.370   6.305   0.004
 1778SOL     OW 6232   6.159   7.001   4.290
 1778SOL    HW1 6233   6.249   0.017   4.318
 1778SOL    HW2 6234   6.113   0.052   4.234
 1779SOL     OW 6235   5.630   0.726   4.312
 1779SOL    HW1 6236   5.697   0.798   4.331
 1779SOL    HW2 6237   5.604   0.731   4.215
 1780SOL     OW 6238   2.016   5.408   5.587
 1780SOL    HW1 6239   2.082   5.334   5.596
 1780SOL    HW2 6240   2.013   5.460   5.672
 1781SOL     OW 6241   4.119   0.817   5.451
 1781SOL    HW1 6242   4.207   0.845   5.489
 1781SOL    HW2 6243   4.050   0.815   5.524
 1782SOL     OW 6244   5.427   1.317   2.239
 1782SOL    HW1 6245   5.444   1.357   2.329
 1782SOL    HW2 6246   5.481   1.366   2.170
 1783SOL     OW 6247   1.898   4.289   0.078
 1783SOL    HW1 6248   1.841   4.258   0.154
 1783SOL    HW2 6249   1.939   4.377   0.102
 1784SOL     OW 6250   2.982   0.068   1.899
 1784SOL    HW1 6251   3.022   7.013   1.844
 1784SOL    HW2 6252   2.992   0.046   1.996
 1785SOL     OW 6253   1.719   6.843   4.556
 1785SOL    HW1 6254   1.800   6.896   4.532
 1785SOL    HW2 6255   1.677   6.806   4.473
 1786SOL     OW 6256   0.888   6.070   1.429
 1786SOL    HW1 6257   0.879   6.167   1.406
 1786SOL    HW2 6258   0.961   6.058   1.495
 1787SOL     OW 6259   2.005   3.331   5.491
 1787SOL    HW1 6260   2.067   3.399   5.451
 1787SOL    HW2 6261   2.059   3.256   5.529
 1788SOL     OW 6262   4.078   3.330   0.725
 1788SOL    HW1 6263   4.152   3.278   0.768
 1788SOL    HW2 6264   4.064   3.416   0.774
 1789SOL     OW 6265   6.296   3.166   2.289
 1789SOL    HW1 6266   6.221   3.215   2.334
 1789SOL    HW2 6267   6.379   3.222   2.291
 1790SOL     OW 6268   1.625   2.310   4.671
 1790SOL    HW1 6269   1.552   2.325   4.605
 1790SOL    HW2 6270   1.594   2.248   4.743
 1791SOL     OW 6271   5.070   0.193   3.832
 1791SOL    HW1 6272   4.994   0.258   3.834
 1791SOL    HW2 6273   5.048   0.115   3.891
 1792SOL     OW 6274   0.156   2.914   6.569
 1792SOL    HW1 6275   0.201   2.852   6.505
 1792SOL    HW2 6276   0.224   2.959   6.626
 1793SOL     OW 6277   6.664   1.405   5.367
 1793SOL    HW1 6278   6.579   1.420   5.419
 1793SOL    HW2 6279   6.701   1.315   5.390
 1794SOL     OW 6280   0.210   1.123   6.382
 1794SOL    HW1 6281   0.295   1.095   6.425
 1794SOL    HW2 6282   0.160   1.042   6.350
 1795SOL     OW 6283   5.288   4.464   0.956
 1795SOL    HW1 6284   5.303   4.372   0.993
 1795SOL    HW2 6285   5.352   4.528   0.998
 1796SOL     OW 6286   6.717   0.417   0.489
 1796SOL    HW1 6287   6.784   0.388   0.557
 1796SOL    HW2 6288   6.762   0.425   0.399
 1797SOL     OW 6289   2.881   5.576   5.626
 1797SOL    HW1 6290   2.924   5.609   5.711
 1797SOL    HW2 6291   2.943   5.592   5.549
 1798SOL     OW 6292   2.087   3.963   5.407
 1798SOL    HW1 6293   2.148   3.896   5.363
 1798SOL    HW2 6294   2.040   4.016   5.337
 1799SOL     OW 6295   3.091   1.457   1.536
 1799SOL    HW1 6296   3.025   1.521   1.496
 1799SOL    HW2 6297   3.119   1.491   1.626
 1800SOL     OW 6298   6.160   3.285   5.668
 1800SOL    HW1 6299   6.126   3.320   5.581
 1800SOL    HW2 6300   6.255   3.314   5.680
 1801SOL     OW 6301   0.510   0.452   3.166
 1801SOL    HW1 6302   0.445   0.512   3.213
 1801SOL    HW2 6303   0.467   0.364   3.147
 1802SOL     OW 6304   6.249   4.818   3.941
 1802SOL    HW1 6305   6.214   4.846   4.030
 1802SOL    HW2 6306   6.278   4.722   3.944
 1803SOL     OW 6307   7.010   0.367   3.889
 1803SOL    HW1 6308   6.963   0.436   3.944
 1803SOL    HW2 6309   6.942   0.307   3.846
 1804SOL     OW 6310   2.016   2.357   5.960
 1804SOL    HW1 6311   2.022   2.406   5.873
 1804SOL    HW2 6312   2.046   2.418   6.034
 1805SOL     OW 6313   6.541   4.922   0.729
 1805SOL    HW1 6314   6.472   4.889   0.664
 1805SOL    HW2 6315   6.629   4.933   0.682
 1806SOL     OW 6316   0.287   1.663   0.668
 1806SOL    HW1 6317   0.221   1.645   0.741
 1806SOL    HW2 6318   0.377   1.679   0.709
 1807SOL     OW 6319   6.329   2.626   3.006
 1807SOL    HW1 6320   6.316   2.688   2.928
 1807SOL    HW2 6321   6.426   2.606   3.017
 1808SOL     OW 6322   5.670   1.324   6.080
 1808SOL    HW1 6323   5.686   1.340   6.178
 1808SOL    HW2 6324   5.758   1.319   6.032
 1809SOL     OW 6325   5.610   0.413   5.420
 1809SOL    HW1 6326   5.602   0.512   5.435
 1809SOL    HW2 6327   5.589   0.392   5.325
 1810SOL     OW 6328   1.459   0.693   4.332
 1810SOL    HW1 6329   1.547   0.679   4.287
 1810SOL    HW2 6330   1.415   0.605   4.347
 1811SOL     OW 6331   3.468   6.222   2.129
 1811SOL    HW1 6332   3.552   6.273   2.150
 1811SOL    HW2 6333   3.390   6.283   2.131
 1812SOL     OW 6334   3.943   6.749   6.972
 1812SOL    HW1 6335   3.963   6.845   6.953
 1812SOL    HW2 6336   3.938   6.699   6.886
 1813SOL     OW 6337   4.880   4.087   2.130
 1813SOL    HW1 6338   4.837   4.137   2.055
 1813SOL    HW2 6339   4.819   4.087   2.209
 1814SOL     OW 6340   6.446   5.777   0.363
 1814SOL    HW1 6341   6.406   5.695   0.404
 1814SOL    HW2 6342   6.420   5.782   0.267
 1815SOL     OW 6343   4.685   5.797   1.259
 1815SOL    HW1 6344   4.627   5.814   1.180
 1815SOL    HW2 6345   4.746   5.720   1.240
 1816SOL     OW 6346   4.312   4.947   5.416
 1816SOL    HW1 6347   4.350   5.022   5.362
 1816SOL    HW2 6348   4.234   4.980   5.468
 1817SOL     OW 6349   0.678   2.792   3.509
 1817SOL    HW1 6350   0.687   2.837   3.598
 1817SOL    HW2 6351   0.653   2.859   3.440
 1818SOL     OW 6352   2.726   1.297   0.642
 1818SOL    HW1 6353   2.742   1.262   0.734
 1818SOL    HW2 6354   2.645   1.253   0.603
 1819SOL     OW 6355   1.645   3.951   1.776
 1819SOL    HW1 6356   1.547   3.966   1.788
 1819SOL    HW2 6357   1.694   4.038   1.780
 1820SOL     OW 6358   3.766   0.534   4.350
 1820SOL    HW1 6359   3.862   0.507   4.350
 1820SOL    HW2 6360   3.711   0.464   4.304
 1821SOL     OW 6361   3.092   1.477   2.536
 1821SOL    HW1 6362   3.021   1.409   2.517
 1821SOL    HW2 6363   3.104   1.537   2.457
 1822SOL     OW 6364   1.037   4.054   3.398
 1822SOL    HW1 6365   1.121   4.007   3.372
 1822SOL    HW2 6366   0.970   3.988   3.432
 1823SOL     OW 6367   4.368   6.450   2.859
 1823SOL    HW1 6368   4.293   6.457   2.924
 1823SOL    HW2 6369   4.333   6.421   2.770
 1824SOL     OW 6370   4.305   3.087   1.768
 1824SOL    HW1 6371   4.305   3.155   1.695
 1824SOL    HW2 6372   4.396   3.081   1.808
 1825SOL     OW 6373   0.956   3.268   5.784
 1825SOL    HW1 6374   1.015   3.309   5.853
 1825SOL    HW2 6375   0.872   3.234   5.828
 1826SOL     OW 6376   3.612   2.305   1.399
 1826SOL    HW1 6377   3.619   2.356   1.485
 1826SOL    HW2 6378   3.652   2.358   1.325
 1827SOL     OW 6379   5.597   4.657   0.699
 1827SOL    HW1 6380   5.576   4.565   0.664
 1827SOL    HW2 6381   5.584   4.658   0.798
 1828SOL     OW 6382   1.430   3.931   4.608
 1828SOL    HW1 6383   1.384   4.020   4.606
 1828SOL    HW2 6384   1.450   3.905   4.702
 1829SOL     OW 6385   3.313   6.538   1.678
 1829SOL    HW1 6386   3.235   6.573   1.729
 1829SOL    HW2 6387   3.316   6.581   1.587
 1830SOL     OW 6388   4.356   1.346   6.134
 1830SOL    HW1 6389   4.265   1.318   6.164
 1830SOL    HW2 6390   4.348   1.418   6.065
 1831SOL     OW 6391   3.505   4.578   0.513
 1831SOL    HW1 6392   3.580   4.532   0.466
 1831SOL    HW2 6393   3.478   4.524   0.593
 1832SOL     OW 6394   2.397   3.143   6.077
 1832SOL    HW1 6395   2.370   3.180   6.165
 1832SOL    HW2 6396   2.493   3.114   6.081
 1833SOL     OW 6397   6.282   0.884   6.940
 1833SOL    HW1 6398   6.318   0.862   6.849
 1833SOL    HW2 6399   6.345   0.852   7.010
 1834SOL     OW 6400   0.506   3.436   6.120
 1834SOL    HW1 6401   0.414   3.415   6.086
 1834SOL    HW2 6402   0.553   3.495   6.054
 1835SOL     OW 6403   6.820   6.038   1.052
 1835SOL    HW1 6404   6.807   5.942   1.026
 1835SOL    HW2 6405   6.861   6.042   1.143
 1836SOL     OW 6406   5.333   1.536   2.863
 1836SOL    HW1 6407   5.273   1.567   2.790
 1836SOL    HW2 6408   5.283   1.533   2.949
 1837SOL     OW 6409   2.720   2.298   6.971
 1837SOL    HW1 6410   2.742   2.394   6.986
 1837SOL    HW2 6411   2.780   2.240   0.009
 1838SOL     OW 6412   4.878   1.490   0.909
 1838SOL    HW1 6413   4.937   1.449   0.840
 1838SOL    HW2 6414   4.814   1.553   0.864
 1839SOL     OW 6415   6.106   0.599   0.562
 1839SOL    HW1 6416   6.187   0.541   0.572
 1839SOL    HW2 6417   6.101   0.632   0.468
 1840SOL     OW 6418   4.477   6.300   3.970
 1840SOL    HW1 6419   4.445   6.381   4.019
 1840SOL    HW2 6420   4.545   6.251   4.025
 1841SOL     OW 6421   1.624   0.678   1.480
 1841SOL    HW1 6422   1.680   0.674   1.563
 1841SOL    HW2 6423   1.678   0.649   1.401
 1842SOL     OW 6424   0.466   5.062   1.457
 1842SOL    HW1 6425   0.490   5.073   1.360
 1842SOL    HW2 6426   0.421   4.974   1.470
 1843SOL     OW 6427   2.491   0.837   6.850
 1843SOL    HW1 6428   2.581   0.870   6.877
 1843SOL    HW2 6429   2.484   0.739   6.870
 1844SOL     OW 6430   5.696   2.623   6.466
 1844SOL    HW1 6431   5.669   2.705   6.516
 1844SOL    HW2 6432   5.706   2.547   6.530
 1845SOL     OW 6433   1.058   2.711   3.600
 1845SOL    HW1 6434   1.135   2.648   3.587
 1845SOL    HW2 6435   0.979   2.679   3.547
 1846SOL     OW 6436   2.968   1.211   1.548
 1846SOL    HW1 6437   3.031   1.286   1.528
 1846SOL    HW2 6438   2.914   1.233   1.629
 1847SOL     OW 6439   2.137   5.552   6.298
 1847SOL    HW1 6440   2.093   5.597   6.375
 1847SOL    HW2 6441   2.178   5.620   6.238
 1848SOL     OW 6442   3.702   6.504   3.463
 1848SOL    HW1 6443   3.790   6.456   3.456
 1848SOL    HW2 6444   3.634   6.457   3.406
 1849SOL     OW 6445   4.624   2.470   2.413
 1849SOL    HW1 6446   4.626   2.439   2.318
 1849SOL    HW2 6447   4.660   2.563   2.418
 1850SOL     OW 6448   4.170   1.954   1.031
 1850SOL    HW1 6449   4.170   2.054   1.039
 1850SOL    HW2 6450   4.172   1.913   1.122
 1851SOL     OW 6451   0.194   4.865   4.660
 1851SOL    HW1 6452   0.258   4.822   4.596
 1851SOL    HW2 6453   0.221   4.960   4.676
 1852SOL     OW 6454   0.720   0.089   3.474
 1852SOL    HW1 6455   0.740   0.097   3.377
 1852SOL    HW2 6456   0.780   0.020   3.515
 1853SOL     OW 6457   0.657   2.459   5.759
 1853SOL    HW1 6458   0.749   2.481   5.727
 1853SOL    HW2 6459   0.648   2.484   5.855
 1854SOL     OW 6460   0.167   0.114   3.575
 1854SOL    HW1 6461   0.116   0.164   3.505
 1854SOL    HW2 6462   0.261   0.098   3.544
 1855SOL     OW 6463   5.583   2.359   4.973
 1855SOL    HW1 6464   5.518   2.364   5.049
 1855SOL    HW2 6465   5.622   2.450   4.957
 1856SOL     OW 6466   4.641   3.402   0.003
 1856SOL    HW1 6467   4.690   3.419   0.088
 1856SOL    HW2 6468   4.652   3.307   6.994
 1857SOL     OW 6469   3.745   0.972   6.750
 1857SOL    HW1 6470   3.763   0.892   6.807
 1857SOL    HW2 6471   3.828   1.027   6.744
 1858SOL     OW 6472   5.430   2.067   4.513
 1858SOL    HW1 6473   5.441   2.022   4.602
 1858SOL    HW2 6474   5.379   2.152   4.526
 1859SOL     OW 6475   0.168   0.988   3.783
 1859SOL    HW1 6476   0.189   0.942   3.870
 1859SOL    HW2 6477   0.220   0.945   3.709
 1860SOL     OW 6478   2.718   1.265   6.461
 1860SOL    HW1 6479   2.694   1.362   6.457
 1860SOL    HW2 6480   2.637   1.211   6.488
 1861SOL     OW 6481   6.206   6.593   4.791
 1861SOL    HW1 6482   6.288   6.634   4.831
 1861SOL    HW2 6483   6.127   6.610   4.851
 1862SOL     OW 6484   3.248   6.281   5.756
 1862SOL    HW1 6485   3.206   6.257   5.668
 1862SOL    HW2 6486   3.202   6.232   5.830
 1863SOL     OW 6487   6.678   1.837   1.025
 1863SOL    HW1 6488   6.770   1.832   0.986
 1863SOL    HW2 6489   6.648   1.745   1.050
 1864SOL     OW 6490   2.995   6.340   1.656
 1864SOL    HW1 6491   3.000   6.439   1.662
 1864SOL    HW2 6492   3.063   6.299   1.718
 1865SOL     OW 6493   6.351   2.393   5.906
 1865SOL    HW1 6494   6.409   2.360   5.832
 1865SOL    HW2 6495   6.406   2.442   5.973
 1866SOL     OW 6496   0.605   5.763   3.354
 1866SOL    HW1 6497   0.613   5.663   3.349
 1866SOL    HW2 6498   0.529   5.787   3.414
 1867SOL     OW 6499   0.789   1.759   1.567
 1867SOL    HW1 6500   0.851   1.835   1.547
 1867SOL    HW2 6501   0.842   1.675   1.581
 1868SOL     OW 6502   5.570   3.429   6.381
 1868SOL    HW1 6503   5.503   3.373   6.332
 1868SOL    HW2 6504   5.528   3.517   6.405
 1869SOL     OW 6505   5.316   0.600   5.413
 1869SOL    HW1 6506   5.358   0.650   5.489
 1869SOL    HW2 6507   5.249   0.659   5.368
 1870SOL     OW 6508   5.954   0.491   6.052
 1870SOL    HW1 6509   5.941   0.392   6.040
 1870SOL    HW2 6510   6.051   0.509   6.072
 1871SOL     OW 6511   0.840   6.293   0.148
 1871SOL    HW1 6512   0.917   6.282   0.212
 1871SOL    HW2 6513   0.775   6.218   0.162
 1872SOL     OW 6514   2.220   2.798   1.587
 1872SOL    HW1 6515   2.277   2.764   1.662
 1872SOL    HW2 6516   2.210   2.897   1.595
 1873SOL     OW 6517   6.014   1.234   1.463
 1873SOL    HW1 6518   6.110   1.261   1.455
 1873SOL    HW2 6519   5.999   1.187   1.551
 1874SOL     OW 6520   1.281   5.617   6.905
 1874SOL    HW1 6521   1.249   5.674   6.830
 1874SOL    HW2 6522   1.204   5.567   6.945
 1875SOL     OW 6523   0.129   6.079   1.964
 1875SOL    HW1 6524   0.143   6.152   2.031
 1875SOL    HW2 6525   0.165   5.993   2.000
 1876SOL     OW 6526   0.348   4.877   0.833
 1876SOL    HW1 6527   0.396   4.957   0.796
 1876SOL    HW2 6528   0.252   4.880   0.806
 1877SOL     OW 6529   1.326   1.695   2.310
 1877SOL    HW1 6530   1.377   1.626   2.363
 1877SOL    HW2 6531   1.252   1.732   2.366
 1878SOL     OW 6532   5.069   3.750   4.215
 1878SOL    HW1 6533   5.011   3.832   4.223
 1878SOL    HW2 6534   5.150   3.761   4.273
 1879SOL     OW 6535   4.643   6.217   4.766
 1879SOL    HW1 6536   4.607   6.143   4.822
 1879SOL    HW2 6537   4.728   6.251   4.805
 1880SOL     OW 6538   0.829   1.751   4.465
 1880SOL    HW1 6539   0.914   1.770   4.515
 1880SOL    HW2 6540   0.803   1.832   4.412
 1881SOL     OW 6541   2.161   0.904   3.594
 1881SOL    HW1 6542   2.200   0.950   3.674
 1881SOL    HW2 6543   2.228   0.839   3.558
 1882SOL     OW 6544   2.691   5.357   0.456
 1882SOL    HW1 6545   2.596   5.345   0.427
 1882SOL    HW2 6546   2.753   5.337   0.380
 1883SOL     OW 6547   2.428   2.564   2.343
 1883SOL    HW1 6548   2.413   2.612   2.256
 1883SOL    HW2 6549   2.418   2.628   2.419
 1884SOL     OW 6550   4.923   1.068   0.517
 1884SOL    HW1 6551   4.926   1.086   0.615
 1884SOL    HW2 6552   4.938   0.970   0.500
 1885SOL     OW 6553   0.059   1.966   0.460
 1885SOL    HW1 6554   0.083   2.063   0.467
 1885SOL    HW2 6555   0.140   1.911   0.481
 1886SOL     OW 6556   3.603   2.808   5.817
 1886SOL    HW1 6557   3.656   2.835   5.897
 1886SOL    HW2 6558   3.508   2.791   5.844
 1887SOL     OW 6559   0.702   6.173   5.041
 1887SOL    HW1 6560   0.769   6.239   5.009
 1887SOL    HW2 6561   0.692   6.100   4.973
 1888SOL     OW 6562   1.828   2.234   5.669
 1888SOL    HW1 6563   1.907   2.173   5.663
 1888SOL    HW2 6564   1.842   2.312   5.608
 1889SOL     OW 6565   2.877   3.337   0.374
 1889SOL    HW1 6566   2.948   3.334   0.303
 1889SOL    HW2 6567   2.823   3.420   0.364
 1890SOL     OW 6568   6.099   5.933   6.542
 1890SOL    HW1 6569   6.099   6.016   6.598
 1890SOL    HW2 6570   6.153   5.862   6.586
 1891SOL     OW 6571   5.473   3.626   6.717
 1891SOL    HW1 6572   5.520   3.675   6.791
 1891SOL    HW2 6573   5.374   3.633   6.730
 1892SOL     OW 6574   4.218   7.008   2.457
 1892SOL    HW1 6575   4.293   6.950   2.424
 1892SOL    HW2 6576   4.159   6.955   2.518
 1893SOL     OW 6577   2.782   1.137   5.818
 1893SOL    HW1 6578   2.877   1.166   5.817
 1893SOL    HW2 6579   2.723   1.216   5.831
 1894SOL     OW 6580   4.968   3.798   1.397
 1894SOL    HW1 6581   4.884   3.795   1.451
 1894SOL    HW2 6582   4.962   3.871   1.329
 1895SOL     OW 6583   4.337   5.982   3.698
 1895SOL    HW1 6584   4.274   5.952   3.770
 1895SOL    HW2 6585   4.306   6.068   3.659
 1896SOL     OW 6586   5.944   1.830   5.508
 1896SOL    HW1 6587   6.021   1.788   5.460
 1896SOL    HW2 6588   5.967   1.925   5.532
 1897SOL     OW 6589   5.974   4.658   3.383
 1897SOL    HW1 6590   5.969   4.758   3.372
 1897SOL    HW2 6591   6.040   4.620   3.319
 1898SOL     OW 6592   6.124   6.519   6.857
 1898SOL    HW1 6593   6.114   6.596   6.793
 1898SOL    HW2 6594   6.051   6.524   6.925
 1899SOL     OW 6595   1.658   2.223   3.397
 1899SOL    HW1 6596   1.707   2.308   3.375
 1899SOL    HW2 6597   1.723   2.155   3.429
 1900SOL     OW 6598   2.731   6.275   1.735
 1900SOL    HW1 6599   2.809   6.331   1.707
 1900SOL    HW2 6600   2.649   6.304   1.684
 1901SOL     OW 6601   1.187   0.742   6.001
 1901SOL    HW1 6602   1.180   0.720   6.098
 1901SOL    HW2 6603   1.095   0.760   5.965
 1902SOL     OW 6604   1.274   2.641   5.210
 1902SOL    HW1 6605   1.213   2.585   5.155
 1902SOL    HW2 6606   1.351   2.672   5.153
 1903SOL     OW 6607   6.886   4.615   3.897
 1903SOL    HW1 6608   6.806   4.633   3.839
 1903SOL    HW2 6609   6.941   4.542   3.857
 1904SOL     OW 6610   0.492   0.364   4.133
 1904SOL    HW1 6611   0.543   0.280   4.112
 1904SOL    HW2 6612   0.554   0.431   4.174
 1905SOL     OW 6613   6.212   2.879   4.373
 1905SOL    HW1 6614   6.192   2.870   4.471
 1905SOL    HW2 6615   6.132   2.918   4.327
 1906SOL     OW 6616   3.122   6.321   6.179
 1906SOL    HW1 6617   3.206   6.278   6.213
 1906SOL    HW2 6618   3.133   6.420   6.178
 1907SOL     OW 6619   4.652   6.071   3.847
 1907SOL    HW1 6620   4.674   6.047   3.752
 1907SOL    HW2 6621   4.735   6.102   3.893
 1908SOL     OW 6622   5.273   6.277   0.488
 1908SOL    HW1 6623   5.291   6.295   0.585
 1908SOL    HW2 6624   5.298   6.357   0.434
 1909SOL     OW 6625   4.517   5.371   3.962
 1909SOL    HW1 6626   4.440   5.358   3.900
 1909SOL    HW2 6627   4.527   5.468   3.984
 1910SOL     OW 6628   4.937   3.361   5.037
 1910SOL    HW1 6629   4.870   3.423   4.997
 1910SOL    HW2 6630   5.029   3.389   5.008
 1911SOL     OW 6631   0.142   3.593   5.625
 1911SOL    HW1 6632   0.237   3.626   5.623
 1911SOL    HW2 6633   0.084   3.662   5.667
 1912SOL     OW 6634   2.838   5.531   3.120
 1912SOL    HW1 6635   2.821   5.448   3.068
 1912SOL    HW2 6636   2.769   5.541   3.192
 1913SOL     OW 6637   1.493   4.470   5.216
 1913SOL    HW1 6638   1.473   4.482   5.118
 1913SOL    HW2 6639   1.592   4.468   5.229
 1914SOL     OW 6640   4.391   1.207   5.495
 1914SOL    HW1 6641   4.378   1.108   5.504
 1914SOL    HW2 6642   4.303   1.250   5.474
 1915SOL     OW 6643   2.757   0.612   5.209
 1915SOL    HW1 6644   2.849   0.651   5.211
 1915SOL    HW2 6645   2.715   0.622   5.299
 1916SOL     OW 6646   4.042   6.212   2.831
 1916SOL    HW1 6647   4.104   6.233   2.756
 1916SOL    HW2 6648   4.016   6.116   2.826
 1917SOL     OW 6649   3.407   3.573   4.520
 1917SOL    HW1 6650   3.400   3.651   4.582
 1917SOL    HW2 6651   3.342   3.584   4.445
 1918SOL     OW 6652   6.609   6.963   5.589
 1918SOL    HW1 6653   6.568   6.924   5.507
 1918SOL    HW2 6654   6.665   6.894   5.635
 1919SOL     OW 6655   6.748   0.339   2.390
 1919SOL    HW1 6656   6.714   0.291   2.309
 1919SOL    HW2 6657   6.826   0.290   2.428
 1920SOL     OW 6658   6.678   6.287   5.075
 1920SOL    HW1 6659   6.593   6.266   5.124
 1920SOL    HW2 6660   6.717   6.371   5.112
 1921SOL     OW 6661   1.497   0.107   6.634
 1921SOL    HW1 6662   1.402   0.137   6.623
 1921SOL    HW2 6663   1.499   0.016   6.674
 1922SOL     OW 6664   4.213   4.016   0.813
 1922SOL    HW1 6665   4.276   4.087   0.780
 1922SOL    HW2 6666   4.202   4.024   0.912
 1923SOL     OW 6667   1.704   2.810   0.111
 1923SOL    HW1 6668   1.701   2.867   0.029
 1923SOL    HW2 6669   1.734   2.866   0.189
 1924SOL     OW 6670   0.459   4.299   1.123
 1924SOL    HW1 6671   0.440   4.396   1.138
 1924SOL    HW2 6672   0.433   4.246   1.203
 1925SOL     OW 6673   3.672   4.238   0.173
 1925SOL    HW1 6674   3.724   4.153   0.163
 1925SOL    HW2 6675   3.721   4.313   0.128
 1926SOL     OW 6676   0.439   0.386   3.646
 1926SOL    HW1 6677   0.341   0.370   3.658
 1926SOL    HW2 6678   0.483   0.303   3.613
 1927SOL     OW 6679   4.625   3.653   0.817
 1927SOL    HW1 6680   4.539   3.701   0.798
 1927SOL    HW2 6681   4.605   3.564   0.858
 1928SOL     OW 6682   0.134   5.722   5.193
 1928SOL    HW1 6683   0.113   5.672   5.277
 1928SOL    HW2 6684   0.050   5.733   5.140
 1929SOL     OW 6685   1.477   5.702   3.273
 1929SOL    HW1 6686   1.508   5.795   3.294
 1929SOL    HW2 6687   1.549   5.637   3.296
 1930SOL     OW 6688   6.958   4.961   6.903
 1930SOL    HW1 6689   6.859   4.957   6.895
 1930SOL    HW2 6690   6.992   5.042   6.856
 1931SOL     OW 6691   0.571   1.914   5.161
 1931SOL    HW1 6692   0.485   1.950   5.199
 1931SOL    HW2 6693   0.570   1.925   5.061
 1932SOL     OW 6694   6.053   2.684   2.587
 1932SOL    HW1 6695   6.072   2.763   2.645
 1932SOL    HW2 6696   6.108   2.689   2.504
 1933SOL     OW 6697   2.260   4.875   0.663
 1933SOL    HW1 6698   2.238   4.792   0.714
 1933SOL    HW2 6699   2.176   4.913   0.624
 1934SOL     OW 6700   6.878   6.500   4.072
 1934SOL    HW1 6701   6.816   6.578   4.062
 1934SOL    HW2 6702   6.972   6.533   4.075
 1935SOL     OW 6703   2.352   0.649   3.335
 1935SOL    HW1 6704   2.309   0.638   3.425
 1935SOL    HW2 6705   2.321   0.734   3.294
 1936SOL     OW 6706   6.887   6.533   5.509
 1936SOL    HW1 6707   6.841   6.449   5.482
 1936SOL    HW2 6708   6.965   6.549   5.449
 1937SOL     OW 6709   4.106   0.832   2.763
 1937SOL    HW1 6710   4.033   0.850   2.698
 1937SOL    HW2 6711   4.193   0.828   2.716
 1938SOL     OW 6712   4.907   1.033   4.521
 1938SOL    HW1 6713   4.842   1.103   4.550
 1938SOL    HW2 6714   4.980   1.075   4.467
 1939SOL     OW 6715   2.869   0.827   3.994
 1939SOL    HW1 6716   2.814   0.861   3.919
 1939SOL    HW2 6717   2.881   0.728   3.984
 1940SOL     OW 6718   6.387   5.030   6.434
 1940SOL    HW1 6719   6.308   5.025   6.495
 1940SOL    HW2 6720   6.454   5.094   6.471
 1941SOL     OW 6721   5.679   4.974   2.940
 1941SOL    HW1 6722   5.640   5.047   2.996
 1941SOL    HW2 6723   5.607   4.929   2.888
 1942SOL     OW 6724   6.721   4.375   3.445
 1942SOL    HW1 6725   6.797   4.439   3.455
 1942SOL    HW2 6726   6.707   4.354   3.348
 1943SOL     OW 6727   2.922   5.577   2.514
 1943SOL    HW1 6728   2.973   5.493   2.532
 1943SOL    HW2 6729   2.978   5.639   2.460
 1944SOL     OW 6730   6.695   0.072   1.940
 1944SOL    HW1 6731   6.786   0.060   1.902
 1944SOL    HW2 6732   6.632   0.007   1.897
 1945SOL     OW 6733   3.243   4.965   3.903
 1945SOL    HW1 6734   3.300   4.972   3.985
 1945SOL    HW2 6735   3.302   4.959   3.823
 1946SOL     OW 6736   1.860   6.351   0.042
 1946SOL    HW1 6737   1.781   6.337   0.102
 1946SOL    HW2 6738   1.942   6.365   0.098
 1947SOL     OW 6739   5.330   0.029   3.858
 1947SOL    HW1 6740   5.233   0.052   3.870
 1947SOL    HW2 6741   5.345   7.017   3.764
 1948SOL     OW 6742   6.975   3.847   5.331
 1948SOL    HW1 6743   7.014   3.755   5.333
 1948SOL    HW2 6744   6.919   3.857   5.249
 1949SOL     OW 6745   4.887   3.923   6.361
 1949SOL    HW1 6746   4.930   4.008   6.388
 1949SOL    HW2 6747   4.952   3.867   6.310
 1950SOL     OW 6748   3.152   4.975   0.960
 1950SOL    HW1 6749   3.099   4.925   1.028
 1950SOL    HW2 6750   3.091   5.014   0.891
 1951SOL     OW 6751   6.558   3.230   0.465
 1951SOL    HW1 6752   6.560   3.299   0.393
 1951SOL    HW2 6753   6.507   3.150   0.433
 1952SOL     OW 6754   3.551   2.966   5.177
 1952SOL    HW1 6755   3.630   2.974   5.116
 1952SOL    HW2 6756   3.539   2.870   5.204
 1953SOL     OW 6757   0.153   2.569   4.679
 1953SOL    HW1 6758   0.132   2.596   4.773
 1953SOL    HW2 6759   0.088   2.500   4.649
 1954SOL     OW 6760   2.307   2.406   3.506
 1954SOL    HW1 6761   2.248   2.367   3.435
 1954SOL    HW2 6762   2.255   2.414   3.591
 1955SOL     OW 6763   6.072   5.465   1.836
 1955SOL    HW1 6764   5.993   5.453   1.775
 1955SOL    HW2 6765   6.123   5.546   1.808
 1956SOL     OW 6766   5.557   6.336   2.109
 1956SOL    HW1 6767   5.557   6.284   2.023
 1956SOL    HW2 6768   5.540   6.273   2.185
 1957SOL     OW 6769   0.877   6.808   5.580
 1957SOL    HW1 6770   0.941   6.835   5.508
 1957SOL    HW2 6771   0.919   6.739   5.638
 1958SOL     OW 6772   4.543   3.134   5.830
 1958SOL    HW1 6773   4.602   3.072   5.882
 1958SOL    HW2 6774   4.477   3.081   5.777
 1959SOL     OW 6775   2.352   1.991   0.260
 1959SOL    HW1 6776   2.309   2.066   0.210
 1959SOL    HW2 6777   2.330   1.905   0.215
 1960SOL     OW 6778   5.455   6.269   2.838
 1960SOL    HW1 6779   5.447   6.181   2.886
 1960SOL    HW2 6780   5.550   6.283   2.811
 1961SOL     OW 6781   6.215   4.945   5.579
 1961SOL    HW1 6782   6.252   4.857   5.608
 1961SOL    HW2 6783   6.160   4.933   5.496
 1962SOL     OW 6784   6.802   6.917   3.673
 1962SOL    HW1 6785   6.719   6.940   3.724
 1962SOL    HW2 6786   6.820   6.989   3.605
 1963SOL     OW 6787   2.776   0.260   3.143
 1963SOL    HW1 6788   2.702   0.292   3.084
 1963SOL    HW2 6789   2.807   0.334   3.203
 1964SOL     OW 6790   5.662   4.447   2.097
 1964SOL    HW1 6791   5.694   4.520   2.157
 1964SOL    HW2 6792   5.668   4.476   2.001
 1965SOL     OW 6793   2.282   5.568   3.757
 1965SOL    HW1 6794   2.331   5.496   3.807
 1965SOL    HW2 6795   2.184   5.561   3.776
 1966SOL     OW 6796   6.115   6.364   6.510
 1966SOL    HW1 6797   6.107   6.325   6.418
 1966SOL    HW2 6798   6.084   6.459   6.508
 1967SOL     OW 6799   4.901   3.338   4.648
 1967SOL    HW1 6800   4.907   3.433   4.678
 1967SOL    HW2 6801   4.885   3.279   4.727
 1968SOL     OW 6802   3.768   5.650   5.406
 1968SOL    HW1 6803   3.846   5.696   5.363
 1968SOL    HW2 6804   3.741   5.700   5.488
 1969SOL     OW 6805   6.991   2.137   1.376
 1969SOL    HW1 6806   0.002   2.055   1.425
 1969SOL    HW2 6807   6.892   2.134   1.362
 1970SOL     OW 6808   1.872   6.742   3.642
 1970SOL    HW1 6809   1.954   6.726   3.697
 1970SOL    HW2 6810   1.841   6.656   3.602
 1971SOL     OW 6811   0.507   0.987   6.449
 1971SOL    HW1 6812   0.494   1.008   6.352
 1971SOL    HW2 6813   0.587   0.928   6.459
 1972SOL     OW 6814   1.673   5.937   3.872
 1972SOL    HW1 6815   1.766   5.901   3.864
 1972SOL    HW2 6816   1.676   6.034   3.893
 1973SOL     OW 6817   2.298   2.634   6.580
 1973SOL    HW1 6818   2.339   2.594   6.662
 1973SOL    HW2 6819   2.361   2.701   6.541
 1974SOL     OW 6820   5.624   6.777   4.565
 1974SOL    HW1 6821   5.629   6.731   4.653
 1974SOL    HW2 6822   5.630   6.876   4.578
 1975SOL     OW 6823   3.070   0.430   3.563
 1975SOL    HW1 6824   3.071   0.520   3.521
 1975SOL    HW2 6825   3.078   0.440   3.663
 1976SOL     OW 6826   6.670   4.336   0.180
 1976SOL    HW1 6827   6.744   4.289   0.132
 1976SOL    HW2 6828   6.704   4.377   0.264
 1977SOL     OW 6829   2.930   2.293   5.204
 1977SOL    HW1 6830   2.925   2.229   5.281
 1977SOL    HW2 6831   3.005   2.268   5.144
 1978SOL     OW 6832   0.013   1.827   4.909
 1978SOL    HW1 6833   7.004   1.882   4.830
 1978SOL    HW2 6834   6.970   1.749   4.917
 1979SOL     OW 6835   5.757   4.557   3.174
 1979SOL    HW1 6836   5.798   4.489   3.236
 1979SOL    HW2 6837   5.823   4.581   3.103
 1980SOL     OW 6838   3.733   0.985   1.193
 1980SOL    HW1 6839   3.779   0.915   1.138
 1980SOL    HW2 6840   3.646   0.949   1.227
 1981SOL     OW 6841   4.980   3.459   1.799
 1981SOL    HW1 6842   4.938   3.392   1.861
 1981SOL    HW2 6843   5.019   3.411   1.720
 1982SOL     OW 6844   5.991   0.057   5.410
 1982SOL    HW1 6845   5.914   0.118   5.426
 1982SOL    HW2 6846   6.007   0.049   5.311
 1983SOL     OW 6847   0.516   4.390   2.206
 1983SOL    HW1 6848   0.602   4.433   2.236
 1983SOL    HW2 6849   0.512   4.393   2.106
 1984SOL     OW 6850   4.324   0.963   5.627
 1984SOL    HW1 6851   4.302   0.972   5.724
 1984SOL    HW2 6852   4.358   0.870   5.609
 1985SOL     OW 6853   1.890   6.538   1.356
 1985SOL    HW1 6854   1.987   6.526   1.333
 1985SOL    HW2 6855   1.843   6.585   1.281
 1986SOL     OW 6856   0.412   2.097   6.782
 1986SOL    HW1 6857   0.459   2.121   6.867
 1986SOL    HW2 6858   0.440   2.160   6.709
 1987SOL     OW 6859   2.928   4.326   0.317
 1987SOL    HW1 6860   2.923   4.229   0.294
 1987SOL    HW2 6861   2.977   4.337   0.404
 1988SOL     OW 6862   4.773   3.305   0.496
 1988SOL    HW1 6863   4.681   3.266   0.504
 1988SOL    HW2 6864   4.771   3.401   0.525
 1989SOL     OW 6865   2.732   1.291   3.934
 1989SOL    HW1 6866   2.728   1.390   3.934
 1989SOL    HW2 6867   2.817   1.261   3.976
 1990SOL     OW 6868   2.249   1.455   2.889
 1990SOL    HW1 6869   2.341   1.470   2.854
 1990SOL    HW2 6870   2.182   1.481   2.819
 1991SOL     OW 6871   5.065   5.192   3.552
 1991SOL    HW1 6872   5.143   5.205   3.492
 1991SOL    HW2 6873   4.995   5.261   3.531
 1992SOL     OW 6874   2.185   6.550   5.335
 1992SOL    HW1 6875   2.126   6.472   5.319
 1992SOL    HW2 6876   2.138   6.616   5.394
 1993SOL     OW 6877   3.424   3.220   4.367
 1993SOL    HW1 6878   3.503   3.198   4.424
 1993SOL    HW2 6879   3.356   3.148   4.376
 1994SOL     OW 6880   5.913   2.591   1.951
 1994SOL    HW1 6881   6.009   2.575   1.972
 1994SOL    HW2 6882   5.856   2.558   2.027
 1995SOL     OW 6883   4.330   2.587   1.432
 1995SOL    HW1 6884   4.316   2.666   1.491
 1995SOL    HW2 6885   4.406   2.533   1.467
 1996SOL     OW 6886   2.724   3.821   5.592
 1996SOL    HW1 6887   2.707   3.770   5.676
 1996SOL    HW2 6888   2.652   3.801   5.526
 1997SOL     OW 6889   6.031   0.124   4.088
 1997SOL    HW1 6890   5.956   0.172   4.042
 1997SOL    HW2 6891   6.113   0.126   4.031
 1998SOL     OW 6892   3.102   5.002   4.850
 1998SOL    HW1 6893   3.157   4.941   4.907
 1998SOL    HW2 6894   3.008   5.002   4.882
 1999SOL     OW 6895   2.004   0.610   1.887
 1999SOL    HW1 6896   2.019   0.513   1.866
 1999SOL    HW2 6897   2.011   0.624   1.986
 2000SOL     OW 6898   3.647   1.540   4.690
 2000SOL    HW1 6899   3.746   1.552   4.677
 2000SOL    HW2 6900   3.629   1.450   4.728
 2001SOL     OW 6901   2.548   3.448   0.135
 2001SOL    HW1 6902   2.572   3.354   0.160
 2001SOL    HW2 6903   2.610   3.512   0.181
 2002SOL     OW 6904   1.431   5.460   4.835
 2002SOL    HW1 6905   1.390   5.432   4.748
 2002SOL    HW2 6906   1.375   5.533   4.875
 2003SOL     OW 6907   6.489   4.851   3.312
 2003SOL    HW1 6908   6.544   4.925   3.273
 2003SOL    HW2 6909   6.534   4.763   3.295
 2004SOL     OW 6910   3.169   0.468   6.581
 2004SOL    HW1 6911   3.176   0.370   6.596
 2004SOL    HW2 6912   3.075   0.491   6.553
 2005SOL     OW 6913   2.821   6.672   5.070
 2005SOL    HW1 6914   2.877   6.751   5.095
 2005SOL    HW2 6915   2.859   6.589   5.112
 2006SOL     OW 6916   4.667   5.650   3.565
 2006SOL    HW1 6917   4.606   5.725   3.542
 2006SOL    HW2 6918   4.614   5.576   3.608
 2007SOL     OW 6919   6.541   5.282   0.036
 2007SOL    HW1 6920   6.537   5.369   0.084
 2007SOL    HW2 6921   6.633   5.245   0.041
 2008SOL     OW 6922   6.839   6.532   4.493
 2008SOL    HW1 6923   6.881   6.529   4.584
 2008SOL    HW2 6924   6.906   6.563   4.426
 2009SOL     OW 6925   0.495   0.325   0.587
 2009SOL    HW1 6926   0.582   0.298   0.629
 2009SOL    HW2 6927   0.514   0.378   0.504
 2010SOL     OW 6928   0.913   6.961   1.160
 2010SOL    HW1 6929   0.933   6.873   1.203
 2010SOL    HW2 6930   0.925   6.953   1.061
 2011SOL     OW 6931   6.890   2.342   4.696
 2011SOL    HW1 6932   6.810   2.389   4.734
 2011SOL    HW2 6933   6.893   2.357   4.597
 2012SOL     OW 6934   0.234   3.509   0.776
 2012SOL    HW1 6935   0.210   3.465   0.690
 2012SOL    HW2 6936   0.283   3.594   0.758
 2013SOL     OW 6937   4.520   0.947   2.492
 2013SOL    HW1 6938   4.450   0.946   2.420
 2013SOL    HW2 6939   4.538   1.041   2.520
 2014SOL     OW 6940   2.600   5.432   3.314
 2014SOL    HW1 6941   2.601   5.348   3.369
 2014SOL    HW2 6942   2.602   5.408   3.217
 2015SOL     OW 6943   3.313   6.566   0.051
 2015SOL    HW1 6944   3.262   6.550   6.984
 2015SOL    HW2 6945   3.356   6.656   0.047
 2016SOL     OW 6946   6.094   4.937   3.515
 2016SOL    HW1 6947   6.005   4.934   3.469
 2016SOL    HW2 6948   6.164   4.968   3.450
 2017SOL     OW 6949   2.129   5.254   2.064
 2017SOL    HW1 6950   2.130   5.297   1.974
 2017SOL    HW2 6951   2.038   5.216   2.082
 2018SOL     OW 6952   0.397   4.163   6.522
 2018SOL    HW1 6953   0.302   4.135   6.509
 2018SOL    HW2 6954   0.400   4.249   6.572
 2019SOL     OW 6955   5.616   1.469   2.904
 2019SOL    HW1 6956   5.516   1.476   2.897
 2019SOL    HW2 6957   5.646   1.507   2.991
 2020SOL     OW 6958   1.383   5.522   2.968
 2020SOL    HW1 6959   1.363   5.565   3.056
 2020SOL    HW2 6960   1.423   5.431   2.984
 2021SOL     OW 6961   1.589   6.688   1.439
 2021SOL    HW1 6962   1.645   6.756   1.486
 2021SOL    HW2 6963   1.534   6.733   1.368
 2022SOL     OW 6964   2.774   4.520   1.243
 2022SOL    HW1 6965   2.869   4.544   1.223
 2022SOL    HW2 6966   2.725   4.504   1.157
 2023SOL     OW 6967   6.234   1.505   6.341
 2023SOL    HW1 6968   6.256   1.591   6.386
 2023SOL    HW2 6969   6.178   1.522   6.260
 2024SOL     OW 6970   6.054   0.434   2.773
 2024SOL    HW1 6971   6.083   0.530   2.777
 2024SOL    HW2 6972   6.111   0.380   2.834
 2025SOL     OW 6973   6.706   0.744   0.556
 2025SOL    HW1 6974   6.721   0.838   0.526
 2025SOL    HW2 6975   6.771   0.683   0.510
 2026SOL     OW 6976   1.441   1.815   5.495
 2026SOL    HW1 6977   1.506   1.891   5.507
 2026SOL    HW2 6978   1.366   1.845   5.436
 2027SOL     OW 6979   0.464   1.503   2.544
 2027SOL    HW1 6980   0.547   1.447   2.536
 2027SOL    HW2 6981   0.384   1.444   2.545
 2028SOL     OW 6982   3.540   3.883   5.754
 2028SOL    HW1 6983   3.540   3.819   5.677
 2028SOL    HW2 6984   3.618   3.864   5.814
 2029SOL     OW 6985   1.588   0.335   0.462
 2029SOL    HW1 6986   1.602   0.434   0.465
 2029SOL    HW2 6987   1.504   0.315   0.412
 2030SOL     OW 6988   1.169   1.435   2.927
 2030SOL    HW1 6989   1.250   1.463   2.979
 2030SOL    HW2 6990   1.100   1.507   2.930
 2031SOL     OW 6991   4.770   0.035   2.850
 2031SOL    HW1 6992   4.869   0.022   2.849
 2031SOL    HW2 6993   4.743   0.075   2.938
 2032SOL     OW 6994   5.514   6.442   1.451
 2032SOL    HW1 6995   5.496   6.414   1.357
 2032SOL    HW2 6996   5.428   6.464   1.496
 2033SOL     OW 6997   7.011   5.396   6.466
 2033SOL    HW1 6998   0.007   5.495   6.459
 2033SOL    HW2 6999   6.948   5.376   6.541
 2034SOL     OW 7000   2.812   0.026   3.311
 2034SOL    HW1 7001   2.787   0.111   3.266
 2034SOL    HW2 7002   2.884   6.999   3.258
 2035SOL     OW 7003   1.134   3.010   1.408
 2035SOL    HW1 7004   1.218   2.989   1.459
 2035SOL    HW2 7005   1.055   2.971   1.456
 2036SOL     OW 7006   0.925   4.341   0.345
 2036SOL    HW1 7007   0.888   4.266   0.291
 2036SOL    HW2 7008   0.958   4.307   0.433
 2037SOL     OW 7009   6.963   1.119   6.218
 2037SOL    HW1 7010   7.016   1.040   6.249
 2037SOL    HW2 7011   6.974   1.130   6.119
 2038SOL     OW 7012   0.633   0.232   5.008
 2038SOL    HW1 7013   0.730   0.237   5.031
 2038SOL    HW2 7014   0.621   0.176   4.925
 2039SOL     OW 7015   1.424   5.005   1.866
 2039SOL    HW1 7016   1.494   5.039   1.803
 2039SOL    HW2 7017   1.439   4.907   1.882
 2040SOL     OW 7018   3.215   3.513   4.331
 2040SOL    HW1 7019   3.210   3.415   4.314
 2040SOL    HW2 7020   3.235   3.561   4.246
 2041SOL     OW 7021   6.445   3.742   6.527
 2041SOL    HW1 7022   6.364   3.699   6.569
 2041SOL    HW2 7023   6.430   3.840   6.519
 2042SOL     OW 7024   3.363   5.297   0.451
 2042SOL    HW1 7025   3.274   5.306   0.495
 2042SOL    HW2 7026   3.362   5.343   0.362
 2043SOL     OW 7027   4.504   4.545   2.399
 2043SOL    HW1 7028   4.530   4.520   2.306
 2043SOL    HW2 7029   4.515   4.466   2.459
 2044SOL     OW 7030   6.414   0.440   1.874
 2044SOL    HW1 7031   6.510   0.464   1.854
 2044SOL    HW2 7032   6.408   0.403   1.967
 2045SOL     OW 7033   2.233   5.336   6.173
 2045SOL    HW1 7034   2.195   5.420   6.211
 2045SOL    HW2 7035   2.328   5.351   6.146
 2046SOL     OW 7036   6.069   0.308   4.497
 2046SOL    HW1 7037   5.979   0.321   4.455
 2046SOL    HW2 7038   6.098   0.393   4.542
 2047SOL     OW 7039   5.388   2.558   7.009
 2047SOL    HW1 7040   5.434   2.473   0.014
 2047SOL    HW2 7041   5.300   2.538   6.965
 2048SOL     OW 7042   4.085   6.784   5.499
 2048SOL    HW1 7043   4.117   6.781   5.404
 2048SOL    HW2 7044   4.029   6.866   5.512
 2049SOL     OW 7045   4.823   6.129   0.347
 2049SOL    HW1 7046   4.726   6.155   0.357
 2049SOL    HW2 7047   4.830   6.053   0.282
 2050SOL     OW 7048   5.408   1.297   4.088
 2050SOL    HW1 7049   5.308   1.308   4.086
 2050SOL    HW2 7050   5.447   1.365   4.150
 2051SOL     OW 7051   2.141   5.361   0.688
 2051SOL    HW1 7052   2.170   5.455   0.673
 2051SOL    HW2 7053   2.221   5.304   0.709
 2052SOL     OW 7054   1.371   2.781   0.611
 2052SOL    HW1 7055   1.342   2.813   0.521
 2052SOL    HW2 7056   1.413   2.857   0.661
 2053SOL     OW 7057   5.237   0.822   0.535
 2053SOL    HW1 7058   5.268   0.916   0.549
 2053SOL    HW2 7059   5.156   0.822   0.475
 2054SOL     OW 7060   6.848   3.258   1.548
 2054SOL    HW1 7061   6.762   3.232   1.592
 2054SOL    HW2 7062   6.924   3.218   1.600
 2055SOL     OW 7063   6.509   2.028   4.065
 2055SOL    HW1 7064   6.602   1.998   4.045
 2055SOL    HW2 7065   6.468   1.967   4.133
 2056SOL     OW 7066   1.275   0.456   2.761
 2056SOL    HW1 7067   1.325   0.542   2.770
 2056SOL    HW2 7068   1.327   0.381   2.803
 2057SOL     OW 7069   6.777   2.551   4.038
 2057SOL    HW1 7070   6.691   2.520   3.999
 2057SOL    HW2 7071   6.766   2.567   4.136
 2058SOL     OW 7072   0.143   2.009   1.603
 2058SOL    HW1 7073   0.151   2.108   1.589
 2058SOL    HW2 7074   0.233   1.971   1.624
 2059SOL     OW 7075   1.391   0.969   6.631
 2059SOL    HW1 7076   1.414   0.905   6.558
 2059SOL    HW2 7077   1.346   1.049   6.592
 2060SOL     OW 7078   0.687   5.124   2.148
 2060SOL    HW1 7079   0.602   5.157   2.189
 2060SOL    HW2 7080   0.668   5.043   2.093
 2061SOL     OW 7081   0.415   1.536   1.095
 2061SOL    HW1 7082   0.322   1.512   1.068
 2061SOL    HW2 7083   0.417   1.628   1.132
 2062SOL     OW 7084   4.524   0.263   2.982
 2062SOL    HW1 7085   4.574   0.201   3.042
 2062SOL    HW2 7086   4.445   0.214   2.943
 2063SOL     OW 7087   2.647   1.954   0.520
 2063SOL    HW1 7088   2.739   1.939   0.555
 2063SOL    HW2 7089   2.651   1.973   0.422
 2064SOL     OW 7090   0.679   2.531   0.411
 2064SOL    HW1 7091   0.606   2.466   0.432
 2064SOL    HW2 7092   0.674   2.557   0.314
 2065SOL     OW 7093   5.944   2.954   2.034
 2065SOL    HW1 7094   5.927   2.855   2.034
 2065SOL    HW2 7095   6.040   2.971   2.056
 2066SOL     OW 7096   2.213   6.730   3.442
 2066SOL    HW1 7097   2.252   6.773   3.523
 2066SOL    HW2 7098   2.273   6.746   3.363
 2067SOL     OW 7099   0.234   6.930   1.103
 2067SOL    HW1 7100   0.289   6.907   1.022
 2067SOL    HW2 7101   0.254   0.006   1.131
 2068SOL     OW 7102   1.912   1.406   5.219
 2068SOL    HW1 7103   1.962   1.434   5.300
 2068SOL    HW2 7104   1.907   1.483   5.155
 2069SOL     OW 7105   0.537   1.803   1.661
 2069SOL    HW1 7106   0.620   1.767   1.619
 2069SOL    HW2 7107   0.521   1.755   1.748
 2070SOL     OW 7108   0.831   1.298   3.014
 2070SOL    HW1 7109   0.895   1.227   3.043
 2070SOL    HW2 7110   0.874   1.354   2.943
 2071SOL     OW 7111   1.707   6.122   4.799
 2071SOL    HW1 7112   1.713   6.102   4.897
 2071SOL    HW2 7113   1.643   6.058   4.756
 2072SOL     OW 7114   4.837   4.891   2.222
 2072SOL    HW1 7115   4.852   4.800   2.185
 2072SOL    HW2 7116   4.786   4.885   2.308
 2073SOL     OW 7117   3.322   6.626   5.343
 2073SOL    HW1 7118   3.265   6.675   5.277
 2073SOL    HW2 7119   3.264   6.591   5.417
 2074SOL     OW 7120   6.288   1.949   1.755
 2074SOL    HW1 7121   6.243   1.898   1.682
 2074SOL    HW2 7122   6.322   1.886   1.825
 2075SOL     OW 7123   4.000   3.549   5.951
 2075SOL    HW1 7124   3.954   3.603   6.021
 2075SOL    HW2 7125   4.047   3.472   5.994
 2076SOL     OW 7126   4.794   0.609   1.297
 2076SOL    HW1 7127   4.699   0.583   1.315
 2076SOL    HW2 7128   4.810   0.702   1.328
 2077SOL     OW 7129   5.194   1.907   3.181
 2077SOL    HW1 7130   5.202   1.890   3.279
 2077SOL    HW2 7131   5.126   1.844   3.142
 2078SOL     OW 7132   4.142   5.679   5.557
 2078SOL    HW1 7133   4.165   5.595   5.508
 2078SOL    HW2 7134   4.059   5.664   5.611
 2079SOL     OW 7135   5.701   1.419   3.538
 2079SOL    HW1 7136   5.610   1.391   3.508
 2079SOL    HW2 7137   5.756   1.337   3.559
 2080SOL     OW 7138   3.260   2.146   4.409
 2080SOL    HW1 7139   3.165   2.175   4.409
 2080SOL    HW2 7140   3.297   2.152   4.502
 2081SOL     OW 7141   0.567   6.277   5.257
 2081SOL    HW1 7142   0.552   6.375   5.243
 2081SOL    HW2 7143   0.590   6.235   5.169
 2082SOL     OW 7144   5.067   0.316   1.837
 2082SOL    HW1 7145   5.028   0.361   1.757
 2082SOL    HW2 7146   5.166   0.335   1.841
 2083SOL     OW 7147   3.332   5.204   5.574
 2083SOL    HW1 7148   3.363   5.260   5.498
 2083SOL    HW2 7149   3.232   5.205   5.578
 2084SOL     OW 7150   6.988   3.457   2.841
 2084SOL    HW1 7151   7.013   3.460   2.938
 2084SOL    HW2 7152   6.924   3.382   2.826
 2085SOL     OW 7153   5.671   6.368   6.475
 2085SOL    HW1 7154   5.770   6.360   6.465
 2085SOL    HW2 7155   5.628   6.361   6.385
 2086SOL     OW 7156   2.809   4.788   0.864
 2086SOL    HW1 7157   2.745   4.831   0.800
 2086SOL    HW2 7158   2.767   4.783   0.955
 2087SOL     OW 7159   5.834   6.158   3.617
 2087SOL    HW1 7160   5.850   6.181   3.521
 2087SOL    HW2 7161   5.740   6.127   3.628
 2088SOL     OW 7162   2.920   0.050   0.574
 2088SOL    HW1 7163   3.009   0.006   0.566
 2088SOL    HW2 7164   2.925   0.144   0.539
 2089SOL     OW 7165   2.931   0.511   6.491
 2089SOL    HW1 7166   2.840   0.473   6.472
 2089SOL    HW2 7167   2.928   0.563   6.576
 2090SOL     OW 7168   3.443   2.923   3.829
 2090SOL    HW1 7169   3.478   3.015   3.811
 2090SOL    HW2 7170   3.366   2.928   3.892
 2091SOL     OW 7171   2.175   4.758   0.341
 2091SOL    HW1 7172   2.167   4.756   0.441
 2091SOL    HW2 7173   2.087   4.783   0.302
 2092SOL     OW 7174   6.432   6.401   0.633
 2092SOL    HW1 7175   6.498   6.472   0.656
 2092SOL    HW2 7176   6.479   6.314   0.618
 2093SOL     OW 7177   1.594   2.382   1.625
 2093SOL    HW1 7178   1.497   2.381   1.651
 2093SOL    HW2 7179   1.614   2.466   1.573
 2094SOL     OW 7180   5.581   0.378   2.525
 2094SOL    HW1 7181   5.522   0.310   2.482
 2094SOL    HW2 7182   5.580   0.462   2.470
 2095SOL     OW 7183   6.955   4.922   5.100
 2095SOL    HW1 7184   7.003   4.929   5.188
 2095SOL    HW2 7185   6.860   4.896   5.116
 2096SOL     OW 7186   4.978   3.511   2.890
 2096SOL    HW1 7187   4.933   3.498   2.802
 2096SOL    HW2 7188   5.010   3.605   2.898
 2097SOL     OW 7189   6.804   3.078   6.934
 2097SOL    HW1 7190   6.776   3.158   6.986
 2097SOL    HW2 7191   6.902   3.063   6.946
 2098SOL     OW 7192   4.766   0.332   4.259
 2098SOL    HW1 7193   4.793   0.295   4.170
 2098SOL    HW2 7194   4.793   0.428   4.265
 2099SOL     OW 7195   2.761   1.545   4.083
 2099SOL    HW1 7196   2.817   1.573   4.005
 2099SOL    HW2 7197   2.678   1.600   4.085
 2100SOL     OW 7198   3.394   3.966   6.441
 2100SOL    HW1 7199   3.327   4.022   6.489
 2100SOL    HW2 7200   3.360   3.872   6.434
 2101SOL     OW 7201   6.739   0.770   3.336
 2101SOL    HW1 7202   6.765   0.865   3.352
 2101SOL    HW2 7203   6.674   0.766   3.259
 2102SOL     OW 7204   0.171   4.834   2.135
 2102SOL    HW1 7205   0.215   4.744   2.142
 2102SOL    HW2 7206   0.116   4.851   2.217
 2103SOL     OW 7207   2.808   3.695   6.896
 2103SOL    HW1 7208   2.808   3.596   6.884
 2103SOL    HW2 7209   2.841   3.739   6.813
 2104SOL     OW 7210   1.471   3.601   5.057
 2104SOL    HW1 7211   1.555   3.581   5.109
 2104SOL    HW2 7212   1.427   3.515   5.033
 2105SOL     OW 7213   5.986   5.878   1.668
 2105SOL    HW1 7214   5.937   5.866   1.755
 2105SOL    HW2 7215   5.980   5.974   1.639
 2106SOL     OW 7216   5.196   6.138   6.874
 2106SOL    HW1 7217   5.271   6.125   6.939
 2106SOL    HW2 7218   5.204   6.072   6.800
 2107SOL     OW 7219   3.728   4.297   6.518
 2107SOL    HW1 7220   3.668   4.341   6.585
 2107SOL    HW2 7221   3.759   4.209   6.554
 2108SOL     OW 7222   5.545   4.815   5.900
 2108SOL    HW1 7223   5.485   4.866   5.961
 2108SOL    HW2 7224   5.515   4.826   5.805
 2109SOL     OW 7225   5.542   6.578   2.682
 2109SOL    HW1 7226   5.596   6.590   2.765
 2109SOL    HW2 7227   5.451   6.618   2.695
 2110SOL     OW 7228   2.421   4.912   5.132
 2110SOL    HW1 7229   2.465   5.001   5.141
 2110SOL    HW2 7230   2.490   4.841   5.116
 2111SOL     OW 7231   1.447   2.820   6.736
 2111SOL    HW1 7232   1.353   2.845   6.759
 2111SOL    HW2 7233   1.456   2.812   6.637
 2112SOL     OW 7234   5.335   3.296   1.100
 2112SOL    HW1 7235   5.277   3.375   1.122
 2112SOL    HW2 7236   5.279   3.223   1.062
 2113SOL     OW 7237   0.189   1.173   3.109
 2113SOL    HW1 7238   0.279   1.164   3.150
 2113SOL    HW2 7239   0.197   1.217   3.019
 2114SOL     OW 7240   1.849   3.839   6.763
 2114SOL    HW1 7241   1.882   3.884   6.680
 2114SOL    HW2 7242   1.759   3.875   6.787
 2115SOL     OW 7243   2.725   4.977   2.020
 2115SOL    HW1 7244   2.690   5.069   2.007
 2115SOL    HW2 7245   2.750   4.964   2.117
 2116SOL     OW 7246   6.929   4.097   3.249
 2116SOL    HW1 7247   6.974   4.112   3.337
 2116SOL    HW2 7248   6.990   4.046   3.188
 2117SOL     OW 7249   6.754   5.006   0.532
 2117SOL    HW1 7250   6.695   5.075   0.490
 2117SOL    HW2 7251   6.832   5.051   0.575
 2118SOL     OW 7252   6.740   4.030   2.095
 2118SOL    HW1 7253   6.678   3.959   2.063
 2118SOL    HW2 7254   6.709   4.119   2.062
 2119SOL     OW 7255   3.199   5.779   1.071
 2119SOL    HW1 7256   3.264   5.837   1.022
 2119SOL    HW2 7257   3.231   5.684   1.067
 2120SOL     OW 7258   0.314   5.467   2.258
 2120SOL    HW1 7259   0.269   5.545   2.301
 2120SOL    HW2 7260   0.279   5.455   2.165
 2121SOL     OW 7261   0.641   4.190   4.902
 2121SOL    HW1 7262   0.648   4.090   4.901
 2121SOL    HW2 7263   0.547   4.217   4.886
 2122SOL     OW 7264   4.475   4.510   5.323
 2122SOL    HW1 7265   4.570   4.488   5.303
 2122SOL    HW2 7266   4.417   4.481   5.247
 2123SOL     OW 7267   5.081   4.388   3.313
 2123SOL    HW1 7268   5.013   4.374   3.386
 2123SOL    HW2 7269   5.048   4.459   3.251
 2124SOL     OW 7270   2.336   1.284   1.109
 2124SOL    HW1 7271   2.303   1.299   1.203
 2124SOL    HW2 7272   2.422   1.234   1.111
 2125SOL     OW 7273   2.572   0.075   1.313
 2125SOL    HW1 7274   2.567   0.095   1.411
 2125SOL    HW2 7275   2.602   0.156   1.264
 2126SOL     OW 7276   2.706   0.847   1.954
 2126SOL    HW1 7277   2.759   0.779   2.005
 2126SOL    HW2 7278   2.609   0.833   1.971
 2127SOL     OW 7279   5.693   3.086   4.948
 2127SOL    HW1 7280   5.641   3.050   4.870
 2127SOL    HW2 7281   5.631   3.137   5.008
 2128SOL     OW 7282   0.691   4.913   4.267
 2128SOL    HW1 7283   0.780   4.956   4.252
 2128SOL    HW2 7284   0.681   4.835   4.206
 2129SOL     OW 7285   3.796   2.179   5.741
 2129SOL    HW1 7286   3.828   2.171   5.647
 2129SOL    HW2 7287   3.703   2.144   5.748
 2130SOL     OW 7288   4.309   6.312   3.502
 2130SOL    HW1 7289   4.360   6.323   3.417
 2130SOL    HW2 7290   4.371   6.319   3.580
 2131SOL     OW 7291   5.573   2.374   0.028
 2131SOL    HW1 7292   5.581   2.448   0.096
 2131SOL    HW2 7293   5.609   2.289   0.067
 2132SOL     OW 7294   2.675   2.951   0.343
 2132SOL    HW1 7295   2.617   2.882   0.388
 2132SOL    HW2 7296   2.689   3.028   0.405
 2133SOL     OW 7297   2.996   3.585   5.890
 2133SOL    HW1 7298   3.030   3.626   5.975
 2133SOL    HW2 7299   2.918   3.638   5.858
 2134SOL     OW 7300   0.975   6.739   1.272
 2134SOL    HW1 7301   0.899   6.689   1.314
 2134SOL    HW2 7302   1.051   6.746   1.336
 2135SOL     OW 7303   6.775   4.337   4.546
 2135SOL    HW1 7304   6.756   4.314   4.451
 2135SOL    HW2 7305   6.854   4.399   4.550
 2136SOL     OW 7306   1.410   4.893   0.934
 2136SOL    HW1 7307   1.461   4.915   1.017
 2136SOL    HW2 7308   1.327   4.948   0.931
 2137SOL     OW 7309   1.772   5.890   4.375
 2137SOL    HW1 7310   1.709   5.900   4.452
 2137SOL    HW2 7311   1.847   5.828   4.401
 2138SOL     OW 7312   5.281   1.319   1.868
 2138SOL    HW1 7313   5.258   1.416   1.876
 2138SOL    HW2 7314   5.293   1.281   1.959
 2139SOL     OW 7315   2.685   0.179   5.333
 2139SOL    HW1 7316   2.620   0.103   5.336
 2139SOL    HW2 7317   2.776   0.144   5.311
 2140SOL     OW 7318   2.469   1.498   4.970
 2140SOL    HW1 7319   2.567   1.480   4.960
 2140SOL    HW2 7320   2.423   1.414   4.998
 2141SOL     OW 7321   6.623   3.591   2.593
 2141SOL    HW1 7322   6.606   3.539   2.677
 2141SOL    HW2 7323   6.549   3.573   2.527
 2142SOL     OW 7324   1.355   2.394   2.776
 2142SOL    HW1 7325   1.345   2.305   2.819
 2142SOL    HW2 7326   1.291   2.402   2.699
 2143SOL     OW 7327   1.122   4.585   6.513
 2143SOL    HW1 7328   1.099   4.511   6.576
 2143SOL    HW2 7329   1.043   4.607   6.457
 2144SOL     OW 7330   6.145   4.429   3.518
 2144SOL    HW1 7331   6.217   4.496   3.505
 2144SOL    HW2 7332   6.077   4.465   3.582
 2145SOL     OW 7333   4.689   0.727   3.429
 2145SOL    HW1 7334   4.745   0.692   3.354
 2145SOL    HW2 7335   4.597   0.749   3.396
 2146SOL     OW 7336   2.403   2.964   6.996
 2146SOL    HW1 7337   2.343   2.926   0.048
 2146SOL    HW2 7338   2.469   2.894   6.967
 2147SOL     OW 7339   5.865   0.028   4.411
 2147SOL    HW1 7340   5.856   0.122   4.377
 2147SOL    HW2 7341   5.958   0.014   4.445
 2148SOL     OW 7342   0.505   3.372   5.735
 2148SOL    HW1 7343   0.567   3.442   5.699
 2148SOL    HW2 7344   0.448   3.411   5.807
 2149SOL     OW 7345   0.763   0.111   0.375
 2149SOL    HW1 7346   0.776   0.043   0.303
 2149SOL    HW2 7347   0.827   0.093   0.450
 2150SOL     OW 7348   2.086   2.364   1.512
 2150SOL    HW1 7349   2.184   2.351   1.498
 2150SOL    HW2 7350   2.034   2.301   1.454
 2151SOL     OW 7351   1.057   5.506   0.431
 2151SOL    HW1 7352   1.122   5.543   0.364
 2151SOL    HW2 7353   1.054   5.566   0.511
 2152SOL     OW 7354   5.232   5.713   4.509
 2152SOL    HW1 7355   5.219   5.719   4.410
 2152SOL    HW2 7356   5.152   5.668   4.550
 2153SOL     OW 7357   4.916   1.286   3.459
 2153SOL    HW1 7358   4.922   1.214   3.528
 2153SOL    HW2 7359   4.999   1.342   3.463
 2154SOL     OW 7360   3.515   0.253   3.186
 2154SOL    HW1 7361   3.553   0.160   3.185
 2154SOL    HW2 7362   3.581   0.315   3.227
 2155SOL     OW 7363   4.281   0.622   0.862
 2155SOL    HW1 7364   4.381   0.634   0.866
 2155SOL    HW2 7365   4.260   0.525   0.856
 2156SOL     OW 7366   5.033   1.437   4.873
 2156SOL    HW1 7367   5.024   1.531   4.839
 2156SOL    HW2 7368   5.092   1.436   4.953
 2157SOL     OW 7369   3.484   6.176   4.045
 2157SOL    HW1 7370   3.573   6.147   4.008
 2157SOL    HW2 7371   3.440   6.099   4.091
 2158SOL     OW 7372   3.648   0.279   0.302
 2158SOL    HW1 7373   3.632   0.373   0.272
 2158SOL    HW2 7374   3.741   0.252   0.277
 2159SOL     OW 7375   0.478   1.069   5.900
 2159SOL    HW1 7376   0.472   1.167   5.916
 2159SOL    HW2 7377   0.497   1.051   5.804
 2160SOL     OW 7378   5.664   6.807   0.526
 2160SOL    HW1 7379   5.725   6.839   0.599
 2160SOL    HW2 7380   5.709   6.819   0.437
 2161SOL     OW 7381   1.640   2.608   1.477
 2161SOL    HW1 7382   1.736   2.633   1.472
 2161SOL    HW2 7383   1.596   2.629   1.389
 2162SOL     OW 7384   1.456   6.479   1.572
 2162SOL    HW1 7385   1.364   6.518   1.577
 2162SOL    HW2 7386   1.517   6.545   1.529
 2163SOL     OW 7387   1.828   2.801   2.967
 2163SOL    HW1 7388   1.917   2.832   3.001
 2163SOL    HW2 7389   1.806   2.847   2.882
 2164SOL     OW 7390   2.195   3.124   2.614
 2164SOL    HW1 7391   2.177   3.185   2.536
 2164SOL    HW2 7392   2.247   3.044   2.582
 2165SOL     OW 7393   6.899   1.558   3.558
 2165SOL    HW1 7394   6.809   1.534   3.595
 2165SOL    HW2 7395   6.934   1.639   3.604
 2166SOL     OW 7396   0.108   4.070   2.493
 2166SOL    HW1 7397   0.026   4.016   2.475
 2166SOL    HW2 7398   0.083   4.165   2.509
 2167SOL     OW 7399   2.311   2.025   3.066
 2167SOL    HW1 7400   2.322   2.089   3.141
 2167SOL    HW2 7401   2.243   1.956   3.091
 2168SOL     OW 7402   1.256   1.833   2.988
 2168SOL    HW1 7403   1.311   1.757   2.952
 2168SOL    HW2 7404   1.213   1.804   3.074
 2169SOL     OW 7405   0.679   0.114   1.698
 2169SOL    HW1 7406   0.775   0.136   1.678
 2169SOL    HW2 7407   0.630   0.096   1.613
 2170SOL     OW 7408   1.077   3.894   5.379
 2170SOL    HW1 7409   1.008   3.854   5.320
 2170SOL    HW2 7410   1.124   3.821   5.430
 2171SOL     OW 7411   6.698   5.666   1.754
 2171SOL    HW1 7412   6.709   5.572   1.722
 2171SOL    HW2 7413   6.625   5.711   1.703
 2172SOL     OW 7414   1.590   1.579   5.491
 2172SOL    HW1 7415   1.572   1.545   5.399
 2172SOL    HW2 7416   1.545   1.667   5.504
 2173SOL     OW 7417   5.836   0.926   5.074
 2173SOL    HW1 7418   5.863   0.863   5.147
 2173SOL    HW2 7419   5.856   1.020   5.102
 2174SOL     OW 7420   5.705   0.222   5.978
 2174SOL    HW1 7421   5.630   0.170   6.018
 2174SOL    HW2 7422   5.788   0.208   6.032
 2175SOL     OW 7423   2.535   3.804   5.385
 2175SOL    HW1 7424   2.506   3.709   5.374
 2175SOL    HW2 7425   2.473   3.864   5.334
 2176SOL     OW 7426   5.319   2.400   2.804
 2176SOL    HW1 7427   5.226   2.382   2.771
 2176SOL    HW2 7428   5.328   2.366   2.898
 2177SOL     OW 7429   0.612   0.268   4.555
 2177SOL    HW1 7430   0.540   0.202   4.531
 2177SOL    HW2 7431   0.585   0.318   4.638
 2178SOL     OW 7432   0.614   2.164   2.708
 2178SOL    HW1 7433   0.515   2.176   2.710
 2178SOL    HW2 7434   0.658   2.253   2.713
 2179SOL     OW 7435   1.659   4.535   6.325
 2179SOL    HW1 7436   1.623   4.530   6.418
 2179SOL    HW2 7437   1.752   4.498   6.323
 2180SOL     OW 7438   0.662   6.383   2.966
 2180SOL    HW1 7439   0.668   6.396   2.867
 2180SOL    HW2 7440   0.587   6.320   2.988
 2181SOL     OW 7441   2.917   5.015   4.535
 2181SOL    HW1 7442   2.820   5.029   4.516
 2181SOL    HW2 7443   2.927   4.944   4.605
 2182SOL     OW 7444   6.840   6.688   2.997
 2182SOL    HW1 7445   6.891   6.726   2.920
 2182SOL    HW2 7446   6.764   6.632   2.962
 2183SOL     OW 7447   3.418   3.180   6.366
 2183SOL    HW1 7448   3.352   3.111   6.338
 2183SOL    HW2 7449   3.502   3.170   6.312
 2184SOL     OW 7450   6.490   1.691   0.001
 2184SOL    HW1 7451   6.414   1.673   0.063
 2184SOL    HW2 7452   6.456   1.731   6.934
 2185SOL     OW 7453   1.224   0.066   6.696
 2185SOL    HW1 7454   1.136   0.108   6.676
 2185SOL    HW2 7455   1.242   0.070   6.794
 2186SOL     OW 7456   0.124   5.530   5.584
 2186SOL    HW1 7457   0.138   5.467   5.508
 2186SOL    HW2 7458   0.026   5.532   5.607
 2187SOL     OW 7459   0.874   5.772   2.362
 2187SOL    HW1 7460   0.858   5.791   2.459
 2187SOL    HW2 7461   0.963   5.726   2.352
 2188SOL     OW 7462   2.498   0.403   0.906
 2188SOL    HW1 7463   2.525   0.496   0.883
 2188SOL    HW2 7464   2.524   0.341   0.832
 2189SOL     OW 7465   1.893   1.409   1.508
 2189SOL    HW1 7466   1.834   1.360   1.444
 2189SOL    HW2 7467   1.840   1.438   1.587
 2190SOL     OW 7468   6.272   4.151   2.006
 2190SOL    HW1 7469   6.197   4.098   1.966
 2190SOL    HW2 7470   6.337   4.176   1.934
 2191SOL     OW 7471   2.708   0.244   0.012
 2191SOL    HW1 7472   2.793   0.193   0.016
 2191SOL    HW2 7473   2.640   0.202   0.072
 2192SOL     OW 7474   4.812   1.922   1.545
 2192SOL    HW1 7475   4.744   1.850   1.536
 2192SOL    HW2 7476   4.768   2.011   1.540
 2193SOL     OW 7477   1.747   6.908   5.496
 2193SOL    HW1 7478   1.757   6.927   5.399
 2193SOL    HW2 7479   1.748   6.994   5.548
 2194SOL     OW 7480   1.026   4.110   6.135
 2194SOL    HW1 7481   1.022   4.106   6.035
 2194SOL    HW2 7482   0.935   4.100   6.173
 2195SOL     OW 7483   0.618   3.453   4.811
 2195SOL    HW1 7484   0.639   3.405   4.896
 2195SOL    HW2 7485   0.635   3.392   4.733
 2196SOL     OW 7486   2.667   0.418   6.475
 2196SOL    HW1 7487   2.621   0.504   6.454
 2196SOL    HW2 7488   2.600   0.343   6.469
 2197SOL     OW 7489   3.676   5.430   5.742
 2197SOL    HW1 7490   3.612   5.481   5.798
 2197SOL    HW2 7491   3.689   5.339   5.780
 2198SOL     OW 7492   0.731   0.630   0.098
 2198SOL    HW1 7493   0.815   0.683   0.085
 2198SOL    HW2 7494   0.669   0.680   0.159
 2199SOL     OW 7495   3.939   6.491   4.853
 2199SOL    HW1 7496   3.878   6.540   4.914
 2199SOL    HW2 7497   3.890   6.466   4.769
 2200SOL     OW 7498   2.199   1.865   3.888
 2200SOL    HW1 7499   2.262   1.788   3.878
 2200SOL    HW2 7500   2.113   1.832   3.926
 2201SOL     OW 7501   6.169   3.848   5.006
 2201SOL    HW1 7502   6.123   3.918   5.061
 2201SOL    HW2 7503   6.104   3.776   4.981
 2202SOL     OW 7504   3.673   6.710   1.693
 2202SOL    HW1 7505   3.717   6.682   1.607
 2202SOL    HW2 7506   3.742   6.716   1.765
 2203SOL     OW 7507   2.198   4.660   0.964
 2203SOL    HW1 7508   2.235   4.622   0.879
 2203SOL    HW2 7509   2.107   4.698   0.946
 2204SOL     OW 7510   5.689   3.414   0.698
 2204SOL    HW1 7511   5.668   3.440   0.604
 2204SOL    HW2 7512   5.712   3.317   0.702
 2205SOL     OW 7513   0.205   5.616   0.546
 2205SOL    HW1 7514   0.108   5.640   0.547
 2205SOL    HW2 7515   0.222   5.551   0.472
 2206SOL     OW 7516   3.891   2.438   5.819
 2206SOL    HW1 7517   3.922   2.507   5.754
 2206SOL    HW2 7518   3.868   2.354   5.770
 2207SOL     OW 7519   4.521   5.651   0.779
 2207SOL    HW1 7520   4.507   5.733   0.724
 2207SOL    HW2 7521   4.598   5.665   0.841
 2208SOL     OW 7522   6.754   6.403   3.805
 2208SOL    HW1 7523   6.789   6.404   3.899
 2208SOL    HW2 7524   6.801   6.473   3.751
 2209SOL     OW 7525   2.661   5.791   4.051
 2209SOL    HW1 7526   2.689   5.696   4.041
 2209SOL    HW2 7527   2.574   5.805   4.003
 2210SOL     OW 7528   4.459   0.293   1.239
 2210SOL    HW1 7529   4.526   0.320   1.170
 2210SOL    HW2 7530   4.465   0.195   1.255
 2211SOL     OW 7531   0.482   1.988   0.781
 2211SOL    HW1 7532   0.527   1.924   0.843
 2211SOL    HW2 7533   0.543   2.065   0.762
 2212SOL     OW 7534   3.211   5.855   6.713
 2212SOL    HW1 7535   3.201   5.868   6.812
 2212SOL    HW2 7536   3.121   5.846   6.671
 2213SOL     OW 7537   3.385   1.597   4.557
 2213SOL    HW1 7538   3.457   1.577   4.624
 2213SOL    HW2 7539   3.337   1.513   4.533
 2214SOL     OW 7540   4.523   3.846   6.762
 2214SOL    HW1 7541   4.530   3.747   6.780
 2214SOL    HW2 7542   4.540   3.896   6.847
 2215SOL     OW 7543   3.836   6.986   0.167
 2215SOL    HW1 7544   3.848   6.897   0.211
 2215SOL    HW2 7545   3.897   6.992   0.088
 2216SOL     OW 7546   0.617   6.909   6.429
 2216SOL    HW1 7547   0.696   6.936   6.484
 2216SOL    HW2 7548   0.643   6.905   6.333
 2217SOL     OW 7549   4.216   0.819   3.850
 2217SOL    HW1 7550   4.305   0.854   3.822
 2217SOL    HW2 7551   4.159   0.894   3.883
 2218SOL     OW 7552   0.931   6.196   5.642
 2218SOL    HW1 7553   0.850   6.245   5.609
 2218SOL    HW2 7554   0.907   6.101   5.663
 2219SOL     OW 7555   6.114   1.030   0.767
 2219SOL    HW1 7556   6.055   1.079   0.832
 2219SOL    HW2 7557   6.063   0.955   0.727
 2220SOL     OW 7558   0.421   6.077   4.917
 2220SOL    HW1 7559   0.367   6.076   4.833
 2220SOL    HW2 7560   0.372   6.129   4.987
 2221SOL     OW 7561   6.673   1.797   3.805
 2221SOL    HW1 7562   6.632   1.825   3.717
 2221SOL    HW2 7563   6.612   1.732   3.850
 2222SOL     OW 7564   5.028   6.906   2.458
 2222SOL    HW1 7565   4.951   6.948   2.505
 2222SOL    HW2 7566   5.012   6.906   2.360
 2223SOL     OW 7567   0.470   6.423   5.570
 2223SOL    HW1 7568   0.473   6.521   5.592
 2223SOL    HW2 7569   0.425   6.410   5.482
 2224SOL     OW 7570   6.376   3.922   0.588
 2224SOL    HW1 7571   6.290   3.969   0.569
 2224SOL    HW2 7572   6.452   3.976   0.551
 2225SOL     OW 7573   6.633   6.240   2.730
 2225SOL    HW1 7574   6.565   6.195   2.672
 2225SOL    HW2 7575   6.711   6.269   2.674
 2226SOL     OW 7576   2.513   5.117   0.533
 2226SOL    HW1 7577   2.490   5.184   0.462
 2226SOL    HW2 7578   2.507   5.025   0.496
 2227SOL     OW 7579   3.582   2.048   1.777
 2227SOL    HW1 7580   3.615   2.097   1.696
 2227SOL    HW2 7581   3.574   2.112   1.853
 2228SOL     OW 7582   5.616   5.427   6.723
 2228SOL    HW1 7583   5.588   5.513   6.679
 2228SOL    HW2 7584   5.554   5.408   6.799
 2229SOL     OW 7585   3.469   3.433   3.294
 2229SOL    HW1 7586   3.553   3.381   3.280
 2229SOL    HW2 7587   3.417   3.435   3.208
 2230SOL     OW 7588   5.601   0.276   0.189
 2230SOL    HW1 7589   5.575   0.179   0.184
 2230SOL    HW2 7590   5.592   0.308   0.283
 2231SOL     OW 7591   1.484   6.864   6.726
 2231SOL    HW1 7592   1.497   6.816   6.639
 2231SOL    HW2 7593   1.393   6.844   6.762
 2232SOL     OW 7594   1.005   0.843   4.975
 2232SOL    HW1 7595   1.105   0.842   4.977
 2232SOL    HW2 7596   0.971   0.755   5.008
 2233SOL     OW 7597   3.017   4.558   1.117
 2233SOL    HW1 7598   2.999   4.460   1.101
 2233SOL    HW2 7599   3.105   4.582   1.077
 2234SOL     OW 7600   4.884   1.619   1.549
 2234SOL    HW1 7601   4.879   1.672   1.464
 2234SOL    HW2 7602   4.829   1.536   1.541
 2235SOL     OW 7603   1.181   1.709   3.235
 2235SOL    HW1 7604   1.120   1.757   3.297
 2235SOL    HW2 7605   1.254   1.665   3.288
 2236SOL     OW 7606   1.954   4.578   5.468
 2236SOL    HW1 7607   2.037   4.523   5.479
 2236SOL    HW2 7608   1.967   4.641   5.390
 2237SOL     OW 7609   6.737   5.105   5.898
 2237SOL    HW1 7610   6.666   5.036   5.904
 2237SOL    HW2 7611   6.738   5.159   5.983
 2238SOL     OW 7612   5.538   4.069   1.906
 2238SOL    HW1 7613   5.567   4.109   1.819
 2238SOL    HW2 7614   5.592   4.109   1.981
 2239SOL     OW 7615   4.549   6.510   3.357
 2239SOL    HW1 7616   4.536   6.538   3.452
 2239SOL    HW2 7617   4.606   6.578   3.310
 2240SOL     OW 7618   4.913   4.990   3.062
 2240SOL    HW1 7619   4.856   4.920   3.104
 2240SOL    HW2 7620   4.994   5.006   3.118
 2241SOL     OW 7621   0.373   1.356   1.396
 2241SOL    HW1 7622   0.422   1.346   1.309
 2241SOL    HW2 7623   0.389   1.448   1.432
 2242SOL     OW 7624   4.989   2.566   3.367
 2242SOL    HW1 7625   4.898   2.607   3.364
 2242SOL    HW2 7626   4.982   2.473   3.404
 2243SOL     OW 7627   1.840   6.493   0.409
 2243SOL    HW1 7628   1.923   6.534   0.446
 2243SOL    HW2 7629   1.827   6.402   0.449
 2244SOL     OW 7630   2.655   1.043   0.495
 2244SOL    HW1 7631   2.556   1.032   0.485
 2244SOL    HW2 7632   2.697   1.053   0.404
 2245SOL     OW 7633   0.232   0.367   0.141
 2245SOL    HW1 7634   0.279   0.455   0.140
 2245SOL    HW2 7635   0.296   0.295   0.117
 2246SOL     OW 7636   2.749   1.052   5.297
 2246SOL    HW1 7637   2.774   1.116   5.369
 2246SOL    HW2 7638   2.823   1.047   5.230
 2247SOL     OW 7639   2.890   3.747   2.535
 2247SOL    HW1 7640   2.841   3.717   2.617
 2247SOL    HW2 7641   2.879   3.678   2.463
 2248SOL     OW 7642   4.790   4.086   5.094
 2248SOL    HW1 7643   4.793   4.183   5.117
 2248SOL    HW2 7644   4.756   4.034   5.172
 2249SOL     OW 7645   1.640   6.143   3.106
 2249SOL    HW1 7646   1.666   6.117   3.013
 2249SOL    HW2 7647   1.627   6.060   3.161
 2250SOL     OW 7648   4.601   5.745   6.444
 2250SOL    HW1 7649   4.573   5.656   6.481
 2250SOL    HW2 7650   4.588   5.816   6.513
 2251SOL     OW 7651   5.653   6.418   5.620
 2251SOL    HW1 7652   5.642   6.344   5.686
 2251SOL    HW2 7653   5.723   6.482   5.653
 2252SOL     OW 7654   4.404   1.746   2.813
 2252SOL    HW1 7655   4.495   1.755   2.854
 2252SOL    HW2 7656   4.370   1.653   2.829
 2253SOL     OW 7657   0.499   3.503   1.379
 2253SOL    HW1 7658   0.591   3.541   1.375
 2253SOL    HW2 7659   0.440   3.561   1.435
 2254SOL     OW 7660   3.709   3.485   2.502
 2254SOL    HW1 7661   3.734   3.413   2.566
 2254SOL    HW2 7662   3.619   3.522   2.527
 2255SOL     OW 7663   3.060   3.517   6.452
 2255SOL    HW1 7664   3.064   3.437   6.392
 2255SOL    HW2 7665   2.966   3.530   6.484
 2256SOL     OW 7666   4.811   7.005   1.738
 2256SOL    HW1 7667   4.723   0.034   1.733
 2256SOL    HW2 7668   4.862   0.003   1.653
 2257SOL     OW 7669   0.564   1.146   5.161
 2257SOL    HW1 7670   0.610   1.208   5.097
 2257SOL    HW2 7671   0.491   1.194   5.208
 2258SOL     OW 7672   2.422   5.731   3.962
 2258SOL    HW1 7673   2.426   5.635   3.989
 2258SOL    HW2 7674   2.423   5.738   3.862
 2259SOL     OW 7675   6.142   2.223   4.652
 2259SOL    HW1 7676   6.110   2.140   4.605
 2259SOL    HW2 7677   6.117   2.303   4.598
 2260SOL     OW 7678   0.890   4.024   1.172
 2260SOL    HW1 7679   0.978   4.070   1.186
 2260SOL    HW2 7680   0.821   4.091   1.147
 2261SOL     OW 7681   5.511   4.029   0.041
 2261SOL    HW1 7682   5.443   4.102   0.038
 2261SOL    HW2 7683   5.588   4.057   0.098
 2262SOL     OW 7684   6.566   0.577   4.770
 2262SOL    HW1 7685   6.638   0.531   4.717
 2262SOL    HW2 7686   6.606   0.654   4.820
 2263SOL     OW 7687   2.371   4.464   6.390
 2263SOL    HW1 7688   2.449   4.420   6.433
 2263SOL    HW2 7689   2.322   4.519   6.458
 2264SOL     OW 7690   2.164   6.908   5.584
 2264SOL    HW1 7691   2.177   6.942   5.677
 2264SOL    HW2 7692   2.177   6.983   5.519
 2265SOL     OW 7693   0.437   6.289   4.647
 2265SOL    HW1 7694   0.491   6.301   4.730
 2265SOL    HW2 7695   0.486   6.228   4.584
 2266SOL     OW 7696   4.014   2.194   6.725
 2266SOL    HW1 7697   4.054   2.112   6.683
 2266SOL    HW2 7698   3.990   2.174   6.820
 2267SOL     OW 7699   4.871   2.474   4.145
 2267SOL    HW1 7700   4.970   2.465   4.137
 2267SOL    HW2 7701   4.849   2.522   4.230
 2268SOL     OW 7702   0.557   5.867   5.048
 2268SOL    HW1 7703   0.497   5.790   5.069
 2268SOL    HW2 7704   0.505   5.938   5.001
 2269SOL     OW 7705   1.770   2.349   5.122
 2269SOL    HW1 7706   1.823   2.433   5.114
 2269SOL    HW2 7707   1.688   2.366   5.177
 2270SOL     OW 7708   4.898   2.097   5.778
 2270SOL    HW1 7709   4.933   2.023   5.836
 2270SOL    HW2 7710   4.966   2.171   5.775
 2271SOL     OW 7711   5.017   5.307   5.947
 2271SOL    HW1 7712   4.984   5.354   5.865
 2271SOL    HW2 7713   4.941   5.296   6.011
 2272SOL     OW 7714   5.610   0.863   5.989
 2272SOL    HW1 7715   5.686   0.895   6.045
 2272SOL    HW2 7716   5.607   0.763   5.991
 2273SOL     OW 7717   0.927   2.397   3.083
 2273SOL    HW1 7718   0.861   2.463   3.046
 2273SOL    HW2 7719   0.976   2.353   3.008
 2274SOL     OW 7720   0.181   1.944   6.717
 2274SOL    HW1 7721   0.263   2.000   6.712
 2274SOL    HW2 7722   0.205   1.847   6.705
 2275SOL     OW 7723   5.935   4.927   2.881
 2275SOL    HW1 7724   5.840   4.941   2.908
 2275SOL    HW2 7725   5.987   5.011   2.896
 2276SOL     OW 7726   1.328   2.785   1.055
 2276SOL    HW1 7727   1.254   2.718   1.057
 2276SOL    HW2 7728   1.290   2.876   1.039
 2277SOL     OW 7729   3.836   3.294   3.466
 2277SOL    HW1 7730   3.923   3.328   3.500
 2277SOL    HW2 7731   3.767   3.300   3.539
 2278SOL     OW 7732   0.246   2.172   3.810
 2278SOL    HW1 7733   0.249   2.272   3.807
 2278SOL    HW2 7734   0.332   2.135   3.776
 2279SOL     OW 7735   0.857   5.993   5.222
 2279SOL    HW1 7736   0.778   5.992   5.283
 2279SOL    HW2 7737   0.825   5.985   5.127
 2280SOL     OW 7738   4.746   1.700   5.221
 2280SOL    HW1 7739   4.801   1.783   5.222
 2280SOL    HW2 7740   4.773   1.643   5.143
 2281SOL     OW 7741   5.547   0.024   2.721
 2281SOL    HW1 7742   5.615   0.097   2.732
 2281SOL    HW2 7743   5.547   7.011   2.626
 2282SOL     OW 7744   4.201   6.181   5.310
 2282SOL    HW1 7745   4.207   6.249   5.383
 2282SOL    HW2 7746   4.203   6.089   5.350
 2283SOL     OW 7747   0.215   0.492   3.972
 2283SOL    HW1 7748   0.134   0.436   3.955
 2283SOL    HW2 7749   0.291   0.434   4.002
 2284SOL     OW 7750   1.652   3.049   6.762
 2284SOL    HW1 7751   1.581   2.978   6.764
 2284SOL    HW2 7752   1.613   3.134   6.729
 2285SOL     OW 7753   1.648   4.463   6.634
 2285SOL    HW1 7754   1.720   4.493   6.697
 2285SOL    HW2 7755   1.647   4.363   6.630
 2286SOL     OW 7756   4.518   5.624   4.026
 2286SOL    HW1 7757   4.542   5.692   3.956
 2286SOL    HW2 7758   4.461   5.666   4.096
 2287SOL     OW 7759   2.266   0.910   3.264
 2287SOL    HW1 7760   2.331   0.983   3.242
 2287SOL    HW2 7761   2.173   0.948   3.266
 2288SOL     OW 7762   6.955   6.513   3.176
 2288SOL    HW1 7763   6.913   6.582   3.117
 2288SOL    HW2 7764   6.993   6.440   3.119
 2289SOL     OW 7765   0.695   5.364   1.664
 2289SOL    HW1 7766   0.788   5.329   1.659
 2289SOL    HW2 7767   0.669   5.405   1.577
 2290SOL     OW 7768   0.330   6.049   0.631
 2290SOL    HW1 7769   0.374   6.103   0.559
 2290SOL    HW2 7770   0.391   5.975   0.659
 2291SOL     OW 7771   2.441   2.059   6.408
 2291SOL    HW1 7772   2.415   1.966   6.382
 2291SOL    HW2 7773   2.416   2.074   6.504
 2292SOL     OW 7774   1.099   1.108   4.984
 2292SOL    HW1 7775   1.188   1.065   4.972
 2292SOL    HW2 7776   1.032   1.039   5.011
 2293SOL     OW 7777   5.692   5.103   2.401
 2293SOL    HW1 7778   5.619   5.037   2.386
 2293SOL    HW2 7779   5.774   5.075   2.351
 2294SOL     OW 7780   3.759   6.657   6.500
 2294SOL    HW1 7781   3.686   6.622   6.559
 2294SOL    HW2 7782   3.778   6.592   6.427
 2295SOL     OW 7783   0.767   2.359   1.242
 2295SOL    HW1 7784   0.782   2.261   1.224
 2295SOL    HW2 7785   0.797   2.381   1.335
 2296SOL     OW 7786   3.287   6.408   6.820
 2296SOL    HW1 7787   3.277   6.335   6.752
 2296SOL    HW2 7788   3.302   6.495   6.773
 2297SOL     OW 7789   4.664   5.985   5.576
 2297SOL    HW1 7790   4.696   5.988   5.481
 2297SOL    HW2 7791   4.581   5.930   5.582
 2298SOL     OW 7792   3.980   2.947   0.103
 2298SOL    HW1 7793   4.021   2.995   0.180
 2298SOL    HW2 7794   4.044   2.878   0.069
 2299SOL     OW 7795   4.848   5.896   0.190
 2299SOL    HW1 7796   4.771   5.835   0.175
 2299SOL    HW2 7797   4.929   5.860   0.143
 2300SOL     OW 7798   1.733   5.116   1.285
 2300SOL    HW1 7799   1.722   5.212   1.311
 2300SOL    HW2 7800   1.804   5.074   1.342
 2301SOL     OW 7801   3.911   3.576   2.345
 2301SOL    HW1 7802   3.820   3.554   2.382
 2301SOL    HW2 7803   3.978   3.571   2.418
 2302SOL     OW 7804   2.983   5.667   2.795
 2302SOL    HW1 7805   2.991   5.596   2.865
 2302SOL    HW2 7806   3.043   5.645   2.718
 2303SOL     OW 7807   1.247   2.801   4.631
 2303SOL    HW1 7808   1.296   2.857   4.564
 2303SOL    HW2 7809   1.177   2.747   4.584
 2304SOL     OW 7810   2.308   0.993   3.812
 2304SOL    HW1 7811   2.342   0.900   3.804
 2304SOL    HW2 7812   2.380   1.058   3.787
 2305SOL     OW 7813   3.874   5.347   1.912
 2305SOL    HW1 7814   3.863   5.250   1.894
 2305SOL    HW2 7815   3.825   5.400   1.842
 2306SOL     OW 7816   1.122   3.991   0.833
 2306SOL    HW1 7817   1.207   3.993   0.781
 2306SOL    HW2 7818   1.112   3.902   0.878
 2307SOL     OW 7819   0.525   2.558   2.889
 2307SOL    HW1 7820   0.578   2.489   2.841
 2307SOL    HW2 7821   0.433   2.524   2.907
 2308SOL     OW 7822   0.098   0.170   0.405
 2308SOL    HW1 7823   0.075   0.250   0.460
 2308SOL    HW2 7824   0.186   0.132   0.436
 2309SOL     OW 7825   3.422   5.553   6.175
 2309SOL    HW1 7826   3.492   5.591   6.235
 2309SOL    HW2 7827   3.413   5.455   6.192
 2310SOL     OW 7828   5.659   0.635   2.003
 2310SOL    HW1 7829   5.731   0.689   1.960
 2310SOL    HW2 7830   5.586   0.695   2.035
 2311SOL     OW 7831   3.440   0.257   2.802
 2311SOL    HW1 7832   3.492   0.196   2.742
 2311SOL    HW2 7833   3.419   0.210   2.887
 2312SOL     OW 7834   3.707   1.278   2.748
 2312SOL    HW1 7835   3.739   1.221   2.672
 2312SOL    HW2 7836   3.779   1.284   2.817
 2313SOL     OW 7837   5.256   3.889   1.798
 2313SOL    HW1 7838   5.291   3.950   1.728
 2313SOL    HW2 7839   5.159   3.908   1.814
 2314SOL     OW 7840   6.237   0.250   2.656
 2314SOL    HW1 7841   6.144   0.286   2.655
 2314SOL    HW2 7842   6.290   0.298   2.726
 2315SOL     OW 7843   4.558   5.076   5.603
 2315SOL    HW1 7844   4.472   5.053   5.558
 2315SOL    HW2 7845   4.582   5.171   5.583
 2316SOL     OW 7846   3.187   1.465   5.896
 2316SOL    HW1 7847   3.167   1.382   5.844
 2316SOL    HW2 7848   3.127   1.470   5.976
 2317SOL     OW 7849   6.423   5.364   3.587
 2317SOL    HW1 7850   6.467   5.403   3.507
 2317SOL    HW2 7851   6.341   5.417   3.610
 2318SOL     OW 7852   1.704   4.658   5.040
 2318SOL    HW1 7853   1.712   4.747   4.995
 2318SOL    HW2 7854   1.794   4.624   5.065
 2319SOL     OW 7855   2.560   5.058   4.084
 2319SOL    HW1 7856   2.605   4.996   4.148
 2319SOL    HW2 7857   2.608   5.146   4.082
 2320SOL     OW 7858   1.638   3.283   5.084
 2320SOL    HW1 7859   1.677   3.255   4.997
 2320SOL    HW2 7860   1.553   3.231   5.101
 2321SOL     OW 7861   2.965   5.193   6.029
 2321SOL    HW1 7862   2.929   5.175   5.938
 2321SOL    HW2 7863   2.893   5.230   6.088
 2322SOL     OW 7864   1.044   3.592   2.268
 2322SOL    HW1 7865   1.011   3.500   2.290
 2322SOL    HW2 7866   1.144   3.590   2.261
 2323SOL     OW 7867   2.166   5.010   1.832
 2323SOL    HW1 7868   2.135   4.916   1.845
 2323SOL    HW2 7869   2.263   5.010   1.809
 2324SOL     OW 7870   6.961   5.757   1.785
 2324SOL    HW1 7871   6.874   5.710   1.771
 2324SOL    HW2 7872   6.978   5.766   1.883
 2325SOL     OW 7873   6.965   5.550   2.084
 2325SOL    HW1 7874   6.931   5.570   2.176
 2325SOL    HW2 7875   0.009   5.472   2.087
 2326SOL     OW 7876   1.111   0.692   6.583
 2326SOL    HW1 7877   1.054   0.739   6.516
 2326SOL    HW2 7878   1.116   0.747   6.666
 2327SOL     OW 7879   6.608   0.744   2.552
 2327SOL    HW1 7880   6.650   0.777   2.637
 2327SOL    HW2 7881   6.522   0.793   2.537
 2328SOL     OW 7882   1.812   2.486   2.392
 2328SOL    HW1 7883   1.754   2.521   2.465
 2328SOL    HW2 7884   1.908   2.509   2.411
 2329SOL     OW 7885   0.553   6.021   3.677
 2329SOL    HW1 7886   0.502   6.089   3.730
 2329SOL    HW2 7887   0.595   5.955   3.740
 2330SOL     OW 7888   6.404   2.737   6.927
 2330SOL    HW1 7889   6.361   2.819   6.965
 2330SOL    HW2 7890   6.498   2.730   6.961
 2331SOL     OW 7891   3.801   5.886   0.012
 2331SOL    HW1 7892   3.734   5.839   6.973
 2331SOL    HW2 7893   3.877   5.825   0.032
 2332SOL     OW 7894   5.461   6.632   6.382
 2332SOL    HW1 7895   5.483   6.605   6.476
 2332SOL    HW2 7896   5.417   6.555   6.335
 2333SOL     OW 7897   0.204   4.956   2.596
 2333SOL    HW1 7898   0.303   4.952   2.586
 2333SOL    HW2 7899   0.162   4.962   2.505
 2334SOL     OW 7900   2.535   0.736   5.924
 2334SOL    HW1 7901   2.510   0.646   5.889
 2334SOL    HW2 7902   2.558   0.796   5.847
 2335SOL     OW 7903   6.073   1.616   3.729
 2335SOL    HW1 7904   6.063   1.529   3.680
 2335SOL    HW2 7905   6.110   1.599   3.820
 2336SOL     OW 7906   2.177   1.682   2.573
 2336SOL    HW1 7907   2.128   1.607   2.617
 2336SOL    HW2 7908   2.117   1.724   2.505
 2337SOL     OW 7909   3.689   1.823   1.490
 2337SOL    HW1 7910   3.712   1.773   1.573
 2337SOL    HW2 7911   3.718   1.918   1.499
 2338SOL     OW 7912   0.515   4.023   4.224
 2338SOL    HW1 7913   0.456   3.999   4.147
 2338SOL    HW2 7914   0.470   4.093   4.280
 2339SOL     OW 7915   3.333   2.884   2.271
 2339SOL    HW1 7916   3.265   2.812   2.258
 2339SOL    HW2 7917   3.411   2.868   2.210
 2340SOL     OW 7918   1.043   5.040   6.468
 2340SOL    HW1 7919   1.102   4.980   6.414
 2340SOL    HW2 7920   1.081   5.049   6.560
 2341SOL     OW 7921   2.422   4.408   3.371
 2341SOL    HW1 7922   2.374   4.378   3.288
 2341SOL    HW2 7923   2.396   4.349   3.447
 2342SOL     OW 7924   3.411   6.609   4.081
 2342SOL    HW1 7925   3.409   6.705   4.109
 2342SOL    HW2 7926   3.326   6.564   4.108
 2343SOL     OW 7927   1.761   6.304   2.585
 2343SOL    HW1 7928   1.726   6.309   2.678
 2343SOL    HW2 7929   1.733   6.386   2.534
 2344SOL     OW 7930   6.395   4.630   0.997
 2344SOL    HW1 7931   6.312   4.629   0.940
 2344SOL    HW2 7932   6.406   4.720   1.038
 2345SOL     OW 7933   3.019   6.107   4.867
 2345SOL    HW1 7934   3.028   6.198   4.828
 2345SOL    HW2 7935   2.923   6.091   4.892
 2346SOL     OW 7936   3.992   3.831   6.116
 2346SOL    HW1 7937   3.993   3.922   6.157
 2346SOL    HW2 7938   3.972   3.838   6.019
 2347SOL     OW 7939   1.293   2.295   1.736
 2347SOL    HW1 7940   1.221   2.359   1.710
 2347SOL    HW2 7941   1.255   2.202   1.742
 2348SOL     OW 7942   1.340   5.353   3.247
 2348SOL    HW1 7943   1.433   5.370   3.281
 2348SOL    HW2 7944   1.274   5.374   3.320
 2349SOL     OW 7945   0.502   4.404   6.615
 2349SOL    HW1 7946   0.475   4.480   6.674
 2349SOL    HW2 7947   0.598   4.415   6.589
 2350SOL     OW 7948   6.448   4.655   6.073
 2350SOL    HW1 7949   6.501   4.733   6.039
 2350SOL    HW2 7950   6.432   4.591   5.997
 2351SOL     OW 7951   2.729   4.648   3.070
 2351SOL    HW1 7952   2.685   4.558   3.073
 2351SOL    HW2 7953   2.672   4.714   3.120
 2352SOL     OW 7954   0.146   3.168   3.266
 2352SOL    HW1 7955   0.184   3.084   3.305
 2352SOL    HW2 7956   0.113   3.228   3.340
 2353SOL     OW 7957   4.381   5.491   5.469
 2353SOL    HW1 7958   4.444   5.496   5.391
 2353SOL    HW2 7959   4.305   5.430   5.446
 2354SOL     OW 7960   2.595   1.765   4.204
 2354SOL    HW1 7961   2.619   1.742   4.298
 2354SOL    HW2 7962   2.670   1.817   4.163
 2355SOL     OW 7963   2.270   5.970   4.596
 2355SOL    HW1 7964   2.340   6.042   4.593
 2355SOL    HW2 7965   2.183   6.010   4.626
 2356SOL     OW 7966   0.369   3.024   6.687
 2356SOL    HW1 7967   0.390   2.942   6.740
 2356SOL    HW2 7968   0.389   3.105   6.743
 2357SOL     OW 7969   3.262   0.799   2.447
 2357SOL    HW1 7970   3.245   0.704   2.474
 2357SOL    HW2 7971   3.320   0.843   2.515
 2358SOL     OW 7972   3.494   4.667   6.426
 2358SOL    HW1 7973   3.454   4.592   6.480
 2358SOL    HW2 7974   3.421   4.729   6.397
 2359SOL     OW 7975   1.204   0.525   5.457
 2359SOL    HW1 7976   1.107   0.532   5.481
 2359SOL    HW2 7977   1.223   0.583   5.378
 2360SOL     OW 7978   6.313   3.344   0.713
 2360SOL    HW1 7979   6.384   3.277   0.734
 2360SOL    HW2 7980   6.223   3.301   0.719
 2361SOL     OW 7981   3.353   1.678   5.836
 2361SOL    HW1 7982   3.293   1.758   5.847
 2361SOL    HW2 7983   3.297   1.595   5.836
 2362SOL     OW 7984   3.424   4.916   3.676
 2362SOL    HW1 7985   3.516   4.935   3.708
 2362SOL    HW2 7986   3.425   4.901   3.577
 2363SOL     OW 7987   3.763   1.464   3.769
 2363SOL    HW1 7988   3.696   1.503   3.831
 2363SOL    HW2 7989   3.839   1.425   3.822
 2364SOL     OW 7990   0.921   2.194   1.523
 2364SOL    HW1 7991   0.954   2.279   1.481
 2364SOL    HW2 7992   0.902   2.210   1.620
 2365SOL     OW 7993   5.960   1.941   0.212
 2365SOL    HW1 7994   5.925   1.976   0.126
 2365SOL    HW2 7995   5.974   2.016   0.276
 2366SOL     OW 7996   3.771   5.398   0.980
 2366SOL    HW1 7997   3.717   5.479   1.003
 2366SOL    HW2 7998   3.789   5.346   1.064
 2367SOL     OW 7999   1.887   3.241   6.722
 2367SOL    HW1 8000   1.849   3.217   6.812
 2367SOL    HW2 8001   1.813   3.268   6.661
 2368SOL     OW 8002   5.937   6.904   3.786
 2368SOL    HW1 8003   5.854   6.856   3.756
 2368SOL    HW2 8004   5.965   6.869   3.875
 2369SOL     OW 8005   1.854   0.129   3.773
 2369SOL    HW1 8006   1.911   0.211   3.766
 2369SOL    HW2 8007   1.857   0.095   3.867
 2370SOL     OW 8008   5.618   2.806   6.650
 2370SOL    HW1 8009   5.681   2.883   6.649
 2370SOL    HW2 8010   5.547   2.820   6.581
 2371SOL     OW 8011   2.563   0.151   1.594
 2371SOL    HW1 8012   2.623   0.228   1.615
 2371SOL    HW2 8013   2.488   0.148   1.660
 2372SOL     OW 8014   6.929   2.847   2.151
 2372SOL    HW1 8015   6.843   2.897   2.163
 2372SOL    HW2 8016   6.926   2.763   2.205
 2373SOL     OW 8017   2.054   3.393   5.802
 2373SOL    HW1 8018   2.125   3.447   5.757
 2373SOL    HW2 8019   1.981   3.372   5.737
 2374SOL     OW 8020   6.233   1.938   4.585
 2374SOL    HW1 8021   6.179   1.911   4.505
 2374SOL    HW2 8022   6.298   2.010   4.559
 2375SOL     OW 8023   3.484   6.029   5.309
 2375SOL    HW1 8024   3.519   5.953   5.254
 2375SOL    HW2 8025   3.557   6.065   5.366
 2376SOL     OW 8026   6.282   3.120   3.646
 2376SOL    HW1 8027   6.381   3.127   3.660
 2376SOL    HW2 8028   6.261   3.040   3.591
 2377SOL     OW 8029   3.023   3.241   3.956
 2377SOL    HW1 8030   3.027   3.216   3.859
 2377SOL    HW2 8031   2.940   3.293   3.974
 2378SOL     OW 8032   5.183   2.466   6.826
 2378SOL    HW1 8033   5.178   2.512   6.737
 2378SOL    HW2 8034   5.096   2.479   6.875
 2379SOL     OW 8035   6.566   0.430   0.888
 2379SOL    HW1 8036   6.591   0.350   0.833
 2379SOL    HW2 8037   6.516   0.400   0.969
 2380SOL     OW 8038   6.164   2.553   0.862
 2380SOL    HW1 8039   6.076   2.534   0.904
 2380SOL    HW2 8040   6.236   2.554   0.932
 2381SOL     OW 8041   1.812   5.849   2.998
 2381SOL    HW1 8042   1.743   5.899   2.946
 2381SOL    HW2 8043   1.892   5.833   2.939
 2382SOL     OW 8044   2.174   3.202   4.952
 2382SOL    HW1 8045   2.210   3.259   4.878
 2382SOL    HW2 8046   2.240   3.129   4.973
 2383SOL     OW 8047   6.721   6.121   1.384
 2383SOL    HW1 8048   6.691   6.106   1.478
 2383SOL    HW2 8049   6.696   6.041   1.329
 2384SOL     OW 8050   4.826   1.977   1.956
 2384SOL    HW1 8051   4.762   1.978   2.033
 2384SOL    HW2 8052   4.791   2.035   1.883
 2385SOL     OW 8053   0.258   1.191   0.037
 2385SOL    HW1 8054   0.165   1.166   0.063
 2385SOL    HW2 8055   0.256   1.267   6.990
 2386SOL     OW 8056   5.321   5.688   5.192
 2386SOL    HW1 8057   5.259   5.612   5.215
 2386SOL    HW2 8058   5.368   5.719   5.274
 2387SOL     OW 8059   2.123   1.018   4.032
 2387SOL    HW1 8060   2.172   1.029   3.945
 2387SOL    HW2 8061   2.027   1.043   4.019
 2388SOL     OW 8062   6.540   2.898   3.442
 2388SOL    HW1 8063   6.565   2.855   3.528
 2388SOL    HW2 8064   6.450   2.940   3.450
 2389SOL     OW 8065   4.037   4.771   3.145
 2389SOL    HW1 8066   3.951   4.813   3.175
 2389SOL    HW2 8067   4.109   4.839   3.144
 2390SOL     OW 8068   3.791   3.947   3.074
 2390SOL    HW1 8069   3.754   3.992   2.992
 2390SOL    HW2 8070   3.765   3.999   3.155
 2391SOL     OW 8071   4.658   5.033   6.371
 2391SOL    HW1 8072   4.754   5.006   6.359
 2391SOL    HW2 8073   4.615   5.047   6.282
 2392SOL     OW 8074   2.935   0.461   6.824
 2392SOL    HW1 8075   3.019   0.423   6.862
 2392SOL    HW2 8076   2.876   0.387   6.790
 2393SOL     OW 8077   4.269   4.815   5.954
 2393SOL    HW1 8078   4.368   4.805   5.967
 2393SOL    HW2 8079   4.231   4.729   5.921
 2394SOL     OW 8080   0.161   4.328   4.790
 2394SOL    HW1 8081   0.194   4.408   4.740
 2394SOL    HW2 8082   0.232   4.257   4.790
 2395SOL     OW 8083   4.223   6.382   6.081
 2395SOL    HW1 8084   4.169   6.425   6.009
 2395SOL    HW2 8085   4.275   6.306   6.043
 2396SOL     OW 8086   3.913   4.609   0.401
 2396SOL    HW1 8087   3.840   4.543   0.386
 2396SOL    HW2 8088   3.934   4.615   0.499
 2397SOL     OW 8089   0.665   4.431   4.575
 2397SOL    HW1 8090   0.697   4.382   4.657
 2397SOL    HW2 8091   0.617   4.514   4.603
 2398SOL     OW 8092   4.683   4.547   5.947
 2398SOL    HW1 8093   4.657   4.461   5.991
 2398SOL    HW2 8094   4.746   4.528   5.872
 2399SOL     OW 8095   4.276   1.937   1.935
 2399SOL    HW1 8096   4.262   1.855   1.989
 2399SOL    HW2 8097   4.338   1.999   1.984
 2400SOL     OW 8098   2.692   4.773   1.100
 2400SOL    HW1 8099   2.646   4.692   1.137
 2400SOL    HW2 8100   2.733   4.825   1.175
 2401SOL     OW 8101   6.481   5.968   6.095
 2401SOL    HW1 8102   6.531   5.883   6.113
 2401SOL    HW2 8103   6.447   6.005   6.181
 2402SOL     OW 8104   0.646   6.912   4.235
 2402SOL    HW1 8105   0.702   6.979   4.186
 2402SOL    HW2 8106   0.704   6.835   4.264
 2403SOL     OW 8107   0.740   2.492   4.913
 2403SOL    HW1 8108   0.651   2.517   4.875
 2403SOL    HW2 8109   0.728   2.428   4.989
 2404SOL     OW 8110   1.857   0.520   0.854
 2404SOL    HW1 8111   1.786   0.585   0.880
 2404SOL    HW2 8112   1.887   0.538   0.760
 2405SOL     OW 8113   3.216   3.973   2.280
 2405SOL    HW1 8114   3.167   3.906   2.334
 2405SOL    HW2 8115   3.253   4.044   2.340
 2406SOL     OW 8116   4.372   1.849   0.715
 2406SOL    HW1 8117   4.377   1.814   0.809
 2406SOL    HW2 8118   4.346   1.946   0.718
 2407SOL     OW 8119   5.866   1.208   3.603
 2407SOL    HW1 8120   5.852   1.121   3.650
 2407SOL    HW2 8121   5.962   1.216   3.575
 2408SOL     OW 8122   4.639   4.494   1.828
 2408SOL    HW1 8123   4.587   4.500   1.743
 2408SOL    HW2 8124   4.595   4.429   1.890
 2409SOL     OW 8125   2.299   3.640   0.786
 2409SOL    HW1 8126   2.286   3.591   0.872
 2409SOL    HW2 8127   2.323   3.576   0.714
 2410SOL     OW 8128   3.165   3.398   3.457
 2410SOL    HW1 8129   3.253   3.421   3.498
 2410SOL    HW2 8130   3.157   3.443   3.367
 2411SOL     OW 8131   5.464   0.009   4.808
 2411SOL    HW1 8132   5.373   0.050   4.803
 2411SOL    HW2 8133   5.517   0.035   4.727
 2412SOL     OW 8134   4.835   3.582   1.157
 2412SOL    HW1 8135   4.863   3.606   1.249
 2412SOL    HW2 8136   4.803   3.487   1.155
 2413SOL     OW 8137   5.161   0.490   2.180
 2413SOL    HW1 8138   5.077   0.443   2.154
 2413SOL    HW2 8139   5.140   0.563   2.245
 2414SOL     OW 8140   4.802   3.126   3.915
 2414SOL    HW1 8141   4.717   3.178   3.916
 2414SOL    HW2 8142   4.785   3.034   3.879
 2415SOL     OW 8143   4.793   0.952   3.072
 2415SOL    HW1 8144   4.836   0.915   2.990
 2415SOL    HW2 8145   4.861   0.997   3.129
 2416SOL     OW 8146   5.106   1.595   5.960
 2416SOL    HW1 8147   5.191   1.549   5.989
 2416SOL    HW2 8148   5.129   1.672   5.900
 2417SOL     OW 8149   3.155   3.111   4.574
 2417SOL    HW1 8150   3.200   3.200   4.583
 2417SOL    HW2 8151   3.197   3.046   4.637
 2418SOL     OW 8152   3.600   2.870   3.088
 2418SOL    HW1 8153   3.552   2.783   3.074
 2418SOL    HW2 8154   3.601   2.893   3.185
 2419SOL     OW 8155   0.367   6.935   2.777
 2419SOL    HW1 8156   0.343   6.987   2.695
 2419SOL    HW2 8157   0.407   6.847   2.750
 2420SOL     OW 8158   2.398   6.983   1.792
 2420SOL    HW1 8159   2.465   6.930   1.843
 2420SOL    HW2 8160   2.399   6.955   1.696
 2421SOL     OW 8161   2.382   2.104   4.892
 2421SOL    HW1 8162   2.305   2.064   4.843
 2421SOL    HW2 8163   2.354   2.130   4.984
 2422SOL     OW 8164   5.012   1.630   1.108
 2422SOL    HW1 8165   5.090   1.675   1.064
 2422SOL    HW2 8166   4.977   1.558   1.048
 2423SOL     OW 8167   2.333   5.612   2.480
 2423SOL    HW1 8168   2.355   5.534   2.422
 2423SOL    HW2 8169   2.418   5.652   2.515
 2424SOL     OW 8170   6.324   0.945   0.380
 2424SOL    HW1 8171   6.301   0.869   0.441
 2424SOL    HW2 8172   6.326   1.030   0.433
 2425SOL     OW 8173   0.014   0.018   4.137
 2425SOL    HW1 8174   0.061   0.106   4.136
 2425SOL    HW2 8175   7.002   7.014   4.044
 2426SOL     OW 8176   2.584   4.561   4.212
 2426SOL    HW1 8177   2.614   4.619   4.288
 2426SOL    HW2 8178   2.645   4.573   4.134
 2427SOL     OW 8179   6.640   6.894   6.115
 2427SOL    HW1 8180   6.711   6.855   6.056
 2427SOL    HW2 8181   6.601   6.975   6.071
 2428SOL     OW 8182   0.533   0.729   0.695
 2428SOL    HW1 8183   0.632   0.739   0.684
 2428SOL    HW2 8184   0.488   0.816   0.673
 2429SOL     OW 8185   5.306   6.110   2.050
 2429SOL    HW1 8186   5.284   6.033   2.109
 2429SOL    HW2 8187   5.282   6.088   1.955
 2430SOL     OW 8188   6.028   1.137   2.774
 2430SOL    HW1 8189   5.986   1.161   2.862
 2430SOL    HW2 8190   6.027   1.037   2.762
 2431SOL     OW 8191   4.136   0.705   2.103
 2431SOL    HW1 8192   4.144   0.638   2.176
 2431SOL    HW2 8193   4.078   0.668   2.030
 2432SOL     OW 8194   2.937   6.380   2.084
 2432SOL    HW1 8195   2.925   6.333   2.171
 2432SOL    HW2 8196   2.981   6.319   2.019
 2433SOL     OW 8197   4.180   6.928   0.363
 2433SOL    HW1 8198   4.080   6.932   0.367
 2433SOL    HW2 8199   4.213   6.850   0.416
 2434SOL     OW 8200   4.233   2.265   5.941
 2434SOL    HW1 8201   4.160   2.222   5.888
 2434SOL    HW2 8202   4.304   2.197   5.960
 2435SOL     OW 8203   5.873   5.341   4.962
 2435SOL    HW1 8204   5.923   5.426   4.946
 2435SOL    HW2 8205   5.938   5.267   4.979
 2436SOL     OW 8206   2.843   5.367   0.213
 2436SOL    HW1 8207   2.784   5.440   0.178
 2436SOL    HW2 8208   2.935   5.378   0.177
 2437SOL     OW 8209   6.748   0.185   5.924
 2437SOL    HW1 8210   6.830   0.140   5.958
 2437SOL    HW2 8211   6.759   0.205   5.827
 2438SOL     OW 8212   2.741   2.838   1.378
 2438SOL    HW1 8213   2.698   2.761   1.426
 2438SOL    HW2 8214   2.679   2.917   1.379
 2439SOL     OW 8215   6.051   4.331   5.315
 2439SOL    HW1 8216   5.980   4.261   5.323
 2439SOL    HW2 8217   6.010   4.422   5.322
 2440SOL     OW 8218   5.969   5.100   6.288
 2440SOL    HW1 8219   6.024   5.025   6.252
 2440SOL    HW2 8220   6.006   5.130   6.376
 2441SOL     OW 8221   5.807   2.288   1.075
 2441SOL    HW1 8222   5.732   2.222   1.082
 2441SOL    HW2 8223   5.875   2.268   1.146
 2442SOL     OW 8224   6.927   3.732   4.552
 2442SOL    HW1 8225   6.914   3.773   4.462
 2442SOL    HW2 8226   6.854   3.667   4.571
 2443SOL     OW 8227   3.177   4.746   5.875
 2443SOL    HW1 8228   3.088   4.787   5.894
 2443SOL    HW2 8229   3.180   4.718   5.779
 2444SOL     OW 8230   2.774   3.490   5.480
 2444SOL    HW1 8231   2.826   3.574   5.500
 2444SOL    HW2 8232   2.815   3.443   5.403
 2445SOL     OW 8233   0.653   0.354   1.085
 2445SOL    HW1 8234   0.563   0.375   1.123
 2445SOL    HW2 8235   0.692   0.436   1.043
 2446SOL     OW 8236   5.836   3.955   6.377
 2446SOL    HW1 8237   5.860   3.901   6.297
 2446SOL    HW2 8238   5.876   3.913   6.459
 2447SOL     OW 8239   0.566   2.135   7.004
 2447SOL    HW1 8240   0.638   2.186   6.958
 2447SOL    HW2 8241   0.604   2.053   0.027
 2448SOL     OW 8242   0.899   0.093   4.675
 2448SOL    HW1 8243   0.833   0.024   4.645
 2448SOL    HW2 8244   0.882   0.179   4.627
 2449SOL     OW 8245   0.275   2.806   4.675
 2449SOL    HW1 8246   0.231   2.720   4.651
 2449SOL    HW2 8247   0.206   2.876   4.692
 2450SOL     OW 8248   1.895   3.386   2.611
 2450SOL    HW1 8249   1.870   3.289   2.616
 2450SOL    HW2 8250   1.939   3.413   2.696
 2451SOL     OW 8251   2.619   6.478   4.208
 2451SOL    HW1 8252   2.635   6.484   4.109
 2451SOL    HW2 8253   2.661   6.557   4.252
 2452SOL     OW 8254   1.454   2.340   4.444
 2452SOL    HW1 8255   1.456   2.319   4.346
 2452SOL    HW2 8256   1.432   2.436   4.457
 2453SOL     OW 8257   6.979   3.536   1.035
 2453SOL    HW1 8258   0.047   3.583   1.056
 2453SOL    HW2 8259   6.958   3.470   1.107
 2454SOL     OW 8260   2.223   0.495   2.327
 2454SOL    HW1 8261   2.216   0.431   2.404
 2454SOL    HW2 8262   2.317   0.528   2.320
 2455SOL     OW 8263   5.009   4.265   0.497
 2455SOL    HW1 8264   4.941   4.194   0.481
 2455SOL    HW2 8265   5.098   4.234   0.463
 2456SOL     OW 8266   3.049   6.203   1.045
 2456SOL    HW1 8267   3.128   6.152   1.080
 2456SOL    HW2 8268   2.965   6.155   1.070
 2457SOL     OW 8269   5.897   6.230   1.240
 2457SOL    HW1 8270   5.929   6.320   1.211
 2457SOL    HW2 8271   5.841   6.189   1.168
 2458SOL     OW 8272   0.393   5.913   3.457
 2458SOL    HW1 8273   0.414   5.943   3.550
 2458SOL    HW2 8274   0.301   5.873   3.455
 2459SOL     OW 8275   1.398   0.728   0.689
 2459SOL    HW1 8276   1.409   0.827   0.694
 2459SOL    HW2 8277   1.336   0.697   0.761
 2460SOL     OW 8278   3.616   5.201   1.421
 2460SOL    HW1 8279   3.607   5.228   1.325
 2460SOL    HW2 8280   3.533   5.152   1.449
 2461SOL     OW 8281   5.263   0.932   3.392
 2461SOL    HW1 8282   5.224   0.853   3.343
 2461SOL    HW2 8283   5.320   0.985   3.329
 2462SOL     OW 8284   2.724   4.891   6.440
 2462SOL    HW1 8285   2.820   4.869   6.423
 2462SOL    HW2 8286   2.667   4.848   6.371
 2463SOL     OW 8287   0.152   1.837   4.568
 2463SOL    HW1 8288   0.066   1.862   4.613
 2463SOL    HW2 8289   0.155   1.738   4.554
 2464SOL     OW 8290   1.209   3.547   1.483
 2464SOL    HW1 8291   1.203   3.449   1.468
 2464SOL    HW2 8292   1.134   3.576   1.543
 2465SOL     OW 8293   6.209   4.856   3.238
 2465SOL    HW1 8294   6.167   4.767   3.217
 2465SOL    HW2 8295   6.308   4.845   3.245
 2466SOL     OW 8296   3.420   1.699   2.118
 2466SOL    HW1 8297   3.462   1.654   2.197
 2466SOL    HW2 8298   3.441   1.647   2.035
 2467SOL     OW 8299   6.672   1.419   5.698
 2467SOL    HW1 8300   6.652   1.356   5.623
 2467SOL    HW2 8301   6.673   1.513   5.664
 2468SOL     OW 8302   0.153   3.893   0.362
 2468SOL    HW1 8303   0.177   3.962   0.430
 2468SOL    HW2 8304   0.129   3.938   0.276
 2469SOL     OW 8305   3.176   3.219   5.387
 2469SOL    HW1 8306   3.187   3.311   5.424
 2469SOL    HW2 8307   3.245   3.202   5.318
 2470SOL     OW 8308   5.583   2.723   0.450
 2470SOL    HW1 8309   5.519   2.713   0.374
 2470SOL    HW2 8310   5.580   2.641   0.507
 2471SOL     OW 8311   0.189   0.339   3.697
 2471SOL    HW1 8312   0.112   0.375   3.752
 2471SOL    HW2 8313   0.176   0.241   3.681
 2472SOL     OW 8314   5.400   1.399   3.452
 2472SOL    HW1 8315   5.426   1.494   3.433
 2472SOL    HW2 8316   5.393   1.386   3.551
 2473SOL     OW 8317   0.324   0.083   5.601
 2473SOL    HW1 8318   0.394   0.078   5.531
 2473SOL    HW2 8319   0.347   0.156   5.666
 2474SOL     OW 8320   6.003   5.603   4.858
 2474SOL    HW1 8321   5.925   5.608   4.795
 2474SOL    HW2 8322   6.088   5.615   4.807
 2475SOL     OW 8323   4.683   2.226   6.308
 2475SOL    HW1 8324   4.744   2.164   6.258
 2475SOL    HW2 8325   4.596   2.180   6.325
 2476SOL     OW 8326   0.766   1.707   3.504
 2476SOL    HW1 8327   0.792   1.611   3.502
 2476SOL    HW2 8328   0.847   1.764   3.491
 2477SOL     OW 8329   4.614   5.034   2.528
 2477SOL    HW1 8330   4.709   5.064   2.523
 2477SOL    HW2 8331   4.554   5.114   2.517
 2478SOL     OW 8332   6.494   6.866   3.456
 2478SOL    HW1 8333   6.544   6.785   3.486
 2478SOL    HW2 8334   6.499   6.937   3.527
 2479SOL     OW 8335   0.651   2.611   0.142
 2479SOL    HW1 8336   0.731   2.597   0.084
 2479SOL    HW2 8337   0.654   2.702   0.182
 2480SOL     OW 8338   0.912   4.625   2.142
 2480SOL    HW1 8339   0.894   4.527   2.137
 2480SOL    HW2 8340   0.826   4.675   2.130
 2481SOL     OW 8341   3.939   4.856   2.429
 2481SOL    HW1 8342   3.844   4.835   2.451
 2481SOL    HW2 8343   3.961   4.949   2.458
 2482SOL     OW 8344   4.817   2.307   3.851
 2482SOL    HW1 8345   4.860   2.242   3.914
 2482SOL    HW2 8346   4.881   2.382   3.831
 2483SOL     OW 8347   0.697   2.769   6.672
 2483SOL    HW1 8348   0.600   2.762   6.694
 2483SOL    HW2 8349   0.719   2.864   6.647
 2484SOL     OW 8350   3.648   3.133   6.262
 2484SOL    HW1 8351   3.688   3.049   6.224
 2484SOL    HW2 8352   3.721   3.191   6.298
 2485SOL     OW 8353   1.172   6.001   1.183
 2485SOL    HW1 8354   1.261   5.970   1.216
 2485SOL    HW2 8355   1.165   6.101   1.194
 2486SOL     OW 8356   0.694   5.265   3.154
 2486SOL    HW1 8357   0.647   5.252   3.066
 2486SOL    HW2 8358   0.698   5.178   3.203
 2487SOL     OW 8359   2.823   1.100   1.105
 2487SOL    HW1 8360   2.863   1.009   1.104
 2487SOL    HW2 8361   2.896   1.168   1.117
 2488SOL     OW 8362   3.104   6.513   6.532
 2488SOL    HW1 8363   3.138   6.511   6.438
 2488SOL    HW2 8364   3.110   6.422   6.572
 2489SOL     OW 8365   6.609   6.057   4.659
 2489SOL    HW1 8366   6.525   6.108   4.676
 2489SOL    HW2 8367   6.588   5.974   4.608
 2490SOL     OW 8368   5.350   3.378   1.793
 2490SOL    HW1 8369   5.396   3.442   1.854
 2490SOL    HW2 8370   5.384   3.390   1.700
 2491SOL     OW 8371   7.007   4.358   2.863
 2491SOL    HW1 8372   6.909   4.375   2.849
 2491SOL    HW2 8373   0.012   4.267   2.827
 2492SOL     OW 8374   4.210   1.787   5.907
 2492SOL    HW1 8375   4.118   1.805   5.873
 2492SOL    HW2 8376   4.221   1.827   5.998
 2493SOL     OW 8377   6.603   1.065   4.616
 2493SOL    HW1 8378   6.644   1.144   4.569
 2493SOL    HW2 8379   6.623   0.982   4.564
 2494SOL     OW 8380   4.271   4.576   1.221
 2494SOL    HW1 8381   4.185   4.594   1.172
 2494SOL    HW2 8382   4.337   4.534   1.160
 2495SOL     OW 8383   6.509   1.009   3.436
 2495SOL    HW1 8384   6.491   1.008   3.534
 2495SOL    HW2 8385   6.607   1.021   3.420
 2496SOL     OW 8386   1.747   5.673   6.782
 2496SOL    HW1 8387   1.845   5.689   6.782
 2496SOL    HW2 8388   1.699   5.760   6.768
 2497SOL     OW 8389   5.660   0.652   0.015
 2497SOL    HW1 8390   5.747   0.696   0.040
 2497SOL    HW2 8391   5.584   0.709   0.047
 2498SOL     OW 8392   0.496   2.951   5.056
 2498SOL    HW1 8393   0.469   3.022   4.991
 2498SOL    HW2 8394   0.587   2.972   5.092
 2499SOL     OW 8395   5.172   0.326   0.075
 2499SOL    HW1 8396   5.219   0.394   0.020
 2499SOL    HW2 8397   5.239   0.265   0.118
 2500SOL     OW 8398   4.265   3.461   6.486
 2500SOL    HW1 8399   4.298   3.486   6.395
 2500SOL    HW2 8400   4.243   3.544   6.538
 2501SOL     OW 8401   6.259   5.034   0.937
 2501SOL    HW1 8402   6.294   4.962   0.998
 2501SOL    HW2 8403   6.331   5.061   0.873
 2502SOL     OW 8404   1.217   6.566   2.981
 2502SOL    HW1 8405   1.208   6.656   3.023
 2502SOL    HW2 8406   1.201   6.495   3.049
 2503SOL     OW 8407   4.951   0.015   4.348
 2503SOL    HW1 8408   4.993   6.965   4.289
 2503SOL    HW2 8409   4.935   6.994   4.438
 2504SOL     OW 8410   2.092   4.231   2.957
 2504SOL    HW1 8411   2.070   4.142   2.996
 2504SOL    HW2 8412   2.159   4.219   2.883
 2505SOL     OW 8413   5.095   4.405   4.556
 2505SOL    HW1 8414   5.047   4.424   4.641
 2505SOL    HW2 8415   5.031   4.410   4.480
 2506SOL     OW 8416   0.768   1.741   0.868
 2506SOL    HW1 8417   0.795   1.674   0.937
 2506SOL    HW2 8418   0.839   1.747   0.798
 2507SOL     OW 8419   6.582   6.173   0.678
 2507SOL    HW1 8420   6.660   6.193   0.738
 2507SOL    HW2 8421   6.505   6.143   0.734
 2508SOL     OW 8422   2.282   2.355   1.965
 2508SOL    HW1 8423   2.222   2.385   1.890
 2508SOL    HW2 8424   2.356   2.299   1.928
 2509SOL     OW 8425   5.361   0.832   3.647
 2509SOL    HW1 8426   5.293   0.761   3.662
 2509SOL    HW2 8427   5.333   0.890   3.571
 2510SOL     OW 8428   3.618   6.016   2.024
 2510SOL    HW1 8429   3.598   5.919   2.037
 2510SOL    HW2 8430   3.537   6.070   2.049
 2511SOL     OW 8431   0.749   6.647   3.682
 2511SOL    HW1 8432   0.751   6.657   3.781
 2511SOL    HW2 8433   0.750   6.737   3.638
 2512SOL     OW 8434   5.393   2.843   4.375
 2512SOL    HW1 8435   5.435   2.752   4.379
 2512SOL    HW2 8436   5.464   2.911   4.357
 2513SOL     OW 8437   0.419   4.791   1.500
 2513SOL    HW1 8438   0.384   4.799   1.406
 2513SOL    HW2 8439   0.515   4.763   1.497
 2514SOL     OW 8440   0.750   2.606   3.034
 2514SOL    HW1 8441   0.662   2.599   2.987
 2514SOL    HW2 8442   0.753   2.690   3.089
 2515SOL     OW 8443   0.979   4.609   0.100
 2515SOL    HW1 8444   1.058   4.665   0.126
 2515SOL    HW2 8445   1.007   4.543   0.029
 2516SOL     OW 8446   5.223   6.060   4.385
 2516SOL    HW1 8447   5.309   6.111   4.388
 2516SOL    HW2 8448   5.149   6.121   4.359
 2517SOL     OW 8449   2.623   5.331   0.757
 2517SOL    HW1 8450   2.647   5.322   0.660
 2517SOL    HW2 8451   2.524   5.323   0.768
 2518SOL     OW 8452   2.060   3.226   6.350
 2518SOL    HW1 8453   2.101   3.201   6.438
 2518SOL    HW2 8454   2.003   3.307   6.361
 2519SOL     OW 8455   5.330   4.018   5.372
 2519SOL    HW1 8456   5.259   4.085   5.393
 2519SOL    HW2 8457   5.294   3.950   5.308
 2520SOL     OW 8458   3.271   5.355   1.668
 2520SOL    HW1 8459   3.239   5.431   1.724
 2520SOL    HW2 8460   3.359   5.379   1.627
 2521SOL     OW 8461   6.098   6.981   5.796
 2521SOL    HW1 8462   6.003   6.987   5.765
 2521SOL    HW2 8463   6.105   6.910   5.866
 2522SOL     OW 8464   2.152   4.520   4.301
 2522SOL    HW1 8465   2.093   4.565   4.235
 2522SOL    HW2 8466   2.236   4.573   4.314
 2523SOL     OW 8467   0.330   2.546   5.505
 2523SOL    HW1 8468   0.412   2.602   5.514
 2523SOL    HW2 8469   0.296   2.550   5.411
 2524SOL     OW 8470   1.077   0.032   5.293
 2524SOL    HW1 8471   1.062   0.127   5.320
 2524SOL    HW2 8472   1.154   0.027   5.230
 2525SOL     OW 8473   1.776   3.918   2.870
 2525SOL    HW1 8474   1.719   3.984   2.820
 2525SOL    HW2 8475   1.873   3.941   2.857
 2526SOL     OW 8476   1.169   2.501   4.998
 2526SOL    HW1 8477   1.117   2.506   4.913
 2526SOL    HW2 8478   1.232   2.423   4.993
 2527SOL     OW 8479   6.530   6.950   3.698
 2527SOL    HW1 8480   6.540   7.013   3.774
 2527SOL    HW2 8481   6.499   6.861   3.732
 2528SOL     OW 8482   5.868   5.187   0.453
 2528SOL    HW1 8483   5.914   5.152   0.535
 2528SOL    HW2 8484   5.771   5.165   0.457
 2529SOL     OW 8485   5.299   4.123   5.026
 2529SOL    HW1 8486   5.212   4.139   4.980
 2529SOL    HW2 8487   5.284   4.073   5.111
 2530SOL     OW 8488   1.114   6.439   4.001
 2530SOL    HW1 8489   1.210   6.434   4.028
 2530SOL    HW2 8490   1.107   6.490   3.915
 2531SOL     OW 8491   4.976   1.180   0.276
 2531SOL    HW1 8492   4.958   1.127   0.358
 2531SOL    HW2 8493   4.926   1.141   0.198
 2532SOL     OW 8494   0.712   4.793   6.354
 2532SOL    HW1 8495   0.763   4.869   6.314
 2532SOL    HW2 8496   0.775   4.716   6.370
 2533SOL     OW 8497   6.154   6.911   5.535
 2533SOL    HW1 8498   6.132   6.924   5.632
 2533SOL    HW2 8499   6.092   6.964   5.478
 2534SOL     OW 8500   6.912   1.902   2.787
 2534SOL    HW1 8501   6.866   1.902   2.876
 2534SOL    HW2 8502   7.011   1.906   2.801
 2535SOL     OW 8503   2.092   1.310   3.049
 2535SOL    HW1 8504   1.993   1.325   3.042
 2535SOL    HW2 8505   2.140   1.376   2.992
 2536SOL     OW 8506   0.555   0.509   3.884
 2536SOL    HW1 8507   0.513   0.480   3.798
 2536SOL    HW2 8508   0.506   0.467   3.961
 2537SOL     OW 8509   3.549   5.741   2.135
 2537SOL    HW1 8510   3.549   5.643   2.111
 2537SOL    HW2 8511   3.465   5.783   2.101
 2538SOL     OW 8512   1.414   4.423   4.473
 2538SOL    HW1 8513   1.509   4.414   4.501
 2538SOL    HW2 8514   1.375   4.507   4.512
 2539SOL     OW 8515   2.584   0.913   5.743
 2539SOL    HW1 8516   2.603   0.842   5.675
 2539SOL    HW2 8517   2.667   0.966   5.761
 2540SOL     OW 8518   5.286   1.846   2.639
 2540SOL    HW1 8519   5.241   1.842   2.728
 2540SOL    HW2 8520   5.333   1.934   2.629
 2541SOL     OW 8521   0.313   0.791   6.280
 2541SOL    HW1 8522   0.398   0.774   6.329
 2541SOL    HW2 8523   0.330   0.853   6.203
 2542SOL     OW 8524   3.843   2.090   3.548
 2542SOL    HW1 8525   3.877   2.108   3.640
 2542SOL    HW2 8526   3.794   2.004   3.547
 2543SOL     OW 8527   6.949   1.592   4.195
 2543SOL    HW1 8528   6.986   1.612   4.104
 2543SOL    HW2 8529   7.018   1.543   4.249
 2544SOL     OW 8530   6.658   6.026   1.916
 2544SOL    HW1 8531   6.620   6.093   1.980
 2544SOL    HW2 8532   6.671   5.939   1.963
 2545SOL     OW 8533   6.210   1.813   0.252
 2545SOL    HW1 8534   6.257   1.900   0.232
 2545SOL    HW2 8535   6.121   1.812   0.208
 2546SOL     OW 8536   6.395   3.270   2.016
 2546SOL    HW1 8537   6.425   3.365   2.009
 2546SOL    HW2 8538   6.304   3.266   2.057
 2547SOL     OW 8539   5.550   4.271   1.155
 2547SOL    HW1 8540   5.538   4.174   1.133
 2547SOL    HW2 8541   5.477   4.300   1.217
 2548SOL     OW 8542   5.838   0.694   5.921
 2548SOL    HW1 8543   5.844   0.764   5.992
 2548SOL    HW2 8544   5.906   0.623   5.938
 2549SOL     OW 8545   2.886   4.262   0.790
 2549SOL    HW1 8546   2.804   4.206   0.784
 2549SOL    HW2 8547   2.859   4.358   0.803
 2550SOL     OW 8548   3.703   6.178   0.306
 2550SOL    HW1 8549   3.658   6.236   0.238
 2550SOL    HW2 8550   3.641   6.163   0.383
 2551SOL     OW 8551   3.950   4.957   1.170
 2551SOL    HW1 8552   3.964   4.896   1.092
 2551SOL    HW2 8553   4.039   4.990   1.203
 2552SOL     OW 8554   2.288   4.625   1.825
 2552SOL    HW1 8555   2.379   4.635   1.785
 2552SOL    HW2 8556   2.290   4.661   1.918
 2553SOL     OW 8557   4.777   1.367   0.400
 2553SOL    HW1 8558   4.864   1.344   0.357
 2553SOL    HW2 8559   4.710   1.296   0.380
 2554SOL     OW 8560   1.360   5.470   0.828
 2554SOL    HW1 8561   1.438   5.507   0.878
 2554SOL    HW2 8562   1.359   5.371   0.836
 2555SOL     OW 8563   6.406   0.202   5.071
 2555SOL    HW1 8564   6.334   0.166   5.130
 2555SOL    HW2 8565   6.420   0.140   4.993
 2556SOL     OW 8566   4.131   6.855   0.732
 2556SOL    HW1 8567   4.191   6.928   0.700
 2556SOL    HW2 8568   4.075   6.822   0.655
 2557SOL     OW 8569   2.721   0.859   0.017
 2557SOL    HW1 8570   2.761   0.940   6.992
 2557SOL    HW2 8571   2.783   0.781   0.006
 2558SOL     OW 8572   5.452   2.017   1.735
 2558SOL    HW1 8573   5.548   2.005   1.762
 2558SOL    HW2 8574   5.431   1.958   1.658
 2559SOL     OW 8575   0.330   5.129   3.135
 2559SOL    HW1 8576   0.396   5.068   3.090
 2559SOL    HW2 8577   0.341   5.222   3.099
 2560SOL     OW 8578   5.091   2.232   2.926
 2560SOL    HW1 8579   5.021   2.259   2.993
 2560SOL    HW2 8580   5.048   2.218   2.837
 2561SOL     OW 8581   3.287   0.029   4.336
 2561SOL    HW1 8582   3.316   0.110   4.286
 2561SOL    HW2 8583   3.367   7.001   4.374
 2562SOL     OW 8584   1.717   6.793   4.848
 2562SOL    HW1 8585   1.791   6.745   4.895
 2562SOL    HW2 8586   1.633   6.739   4.853
 2563SOL     OW 8587   3.484   2.802   6.617
 2563SOL    HW1 8588   3.582   2.822   6.607
 2563SOL    HW2 8589   3.462   2.791   6.714
 2564SOL     OW 8590   1.161   1.971   0.289
 2564SOL    HW1 8591   1.085   2.034   0.271
 2564SOL    HW2 8592   1.240   1.998   0.233
 2565SOL     OW 8593   0.883   0.681   0.404
 2565SOL    HW1 8594   0.967   0.628   0.419
 2565SOL    HW2 8595   0.891   0.732   0.318
 2566SOL     OW 8596   2.874   0.820   1.063
 2566SOL    HW1 8597   2.888   0.759   1.141
 2566SOL    HW2 8598   2.777   0.821   1.038
 2567SOL     OW 8599   1.294   0.674   6.253
 2567SOL    HW1 8600   1.382   0.637   6.222
 2567SOL    HW2 8601   1.309   0.730   6.334
 2568SOL     OW 8602   2.042   5.710   1.251
 2568SOL    HW1 8603   2.032   5.612   1.266
 2568SOL    HW2 8604   1.976   5.759   1.308
 2569SOL     OW 8605   1.791   0.109   0.189
 2569SOL    HW1 8606   1.840   0.042   0.134
 2569SOL    HW2 8607   1.837   0.121   0.276
 2570SOL     OW 8608   0.488   5.886   4.445
 2570SOL    HW1 8609   0.554   5.903   4.372
 2570SOL    HW2 8610   0.536   5.871   4.531
 2571SOL     OW 8611   3.153   3.949   3.775
 2571SOL    HW1 8612   3.196   3.955   3.865
 2571SOL    HW2 8613   3.080   3.881   3.778
 2572SOL     OW 8614   1.939   5.270   2.291
 2572SOL    HW1 8615   1.946   5.291   2.389
 2572SOL    HW2 8616   2.015   5.314   2.242
 2573SOL     OW 8617   0.017   1.725   3.274
 2573SOL    HW1 8618   6.980   1.785   3.331
 2573SOL    HW2 8619   0.079   1.671   3.331
 2574SOL     OW 8620   0.713   3.385   2.017
 2574SOL    HW1 8621   0.713   3.361   1.920
 2574SOL    HW2 8622   0.797   3.435   2.039
 2575SOL     OW 8623   4.837   3.469   6.286
 2575SOL    HW1 8624   4.743   3.439   6.304
 2575SOL    HW2 8625   4.835   3.548   6.223
 2576SOL     OW 8626   1.651   6.932   3.303
 2576SOL    HW1 8627   1.613   6.973   3.221
 2576SOL    HW2 8628   1.676   7.004   3.368
 2577SOL     OW 8629   1.730   5.415   1.387
 2577SOL    HW1 8630   1.632   5.434   1.379
 2577SOL    HW2 8631   1.767   5.466   1.465
 2578SOL     OW 8632   4.333   2.040   4.625
 2578SOL    HW1 8633   4.329   1.968   4.556
 2578SOL    HW2 8634   4.295   2.007   4.711
 2579SOL     OW 8635   7.011   1.434   6.461
 2579SOL    HW1 8636   0.087   1.468   6.460
 2579SOL    HW2 8637   6.983   1.414   6.555
 2580SOL     OW 8638   1.279   1.361   6.134
 2580SOL    HW1 8639   1.212   1.297   6.096
 2580SOL    HW2 8640   1.267   1.451   6.091
 2581SOL     OW 8641   6.391   6.682   4.961
 2581SOL    HW1 8642   6.471   6.642   4.917
 2581SOL    HW2 8643   6.372   6.632   5.046
 2582SOL     OW 8644   0.790   5.405   2.438
 2582SOL    HW1 8645   0.799   5.503   2.420
 2582SOL    HW2 8646   0.879   5.361   2.425
 2583SOL     OW 8647   2.255   1.012   6.510
 2583SOL    HW1 8648   2.316   0.938   6.537
 2583SOL    HW2 8649   2.177   1.016   6.572
 2584SOL     OW 8650   5.088   6.761   2.671
 2584SOL    HW1 8651   5.059   6.831   2.737
 2584SOL    HW2 8652   5.075   6.796   2.578
 2585SOL     OW 8653   4.316   1.410   2.089
 2585SOL    HW1 8654   4.249   1.352   2.042
 2585SOL    HW2 8655   4.327   1.496   2.039
 2586SOL     OW 8656   6.512   1.239   4.282
 2586SOL    HW1 8657   6.435   1.224   4.221
 2586SOL    HW2 8658   6.586   1.175   4.260
 2587SOL     OW 8659   6.744   5.982   2.771
 2587SOL    HW1 8660   6.784   5.963   2.681
 2587SOL    HW2 8661   6.701   6.072   2.770
 2588SOL     OW 8662   4.947   0.336   2.090
 2588SOL    HW1 8663   4.946   0.241   2.121
 2588SOL    HW2 8664   4.996   0.342   2.003
 2589SOL     OW 8665   5.183   5.941   0.629
 2589SOL    HW1 8666   5.274   5.951   0.588
 2589SOL    HW2 8667   5.118   5.912   0.559
 2590SOL     OW 8668   3.241   6.427   2.966
 2590SOL    HW1 8669   3.148   6.419   3.001
 2590SOL    HW2 8670   3.295   6.349   2.997
 2591SOL     OW 8671   6.203   6.816   1.228
 2591SOL    HW1 8672   6.203   6.892   1.293
 2591SOL    HW2 8673   6.156   6.737   1.269
 2592SOL     OW 8674   3.270   4.725   1.534
 2592SOL    HW1 8675   3.275   4.729   1.434
 2592SOL    HW2 8676   3.300   4.635   1.565
 2593SOL     OW 8677   3.635   0.100   2.668
 2593SOL    HW1 8678   3.638   0.003   2.643
 2593SOL    HW2 8679   3.698   0.151   2.610
 2594SOL     OW 8680   1.521   6.452   6.754
 2594SOL    HW1 8681   1.484   6.462   6.661
 2594SOL    HW2 8682   1.461   6.497   6.819
 2595SOL     OW 8683   6.269   2.923   3.873
 2595SOL    HW1 8684   6.219   2.918   3.788
 2595SOL    HW2 8685   6.218   2.876   3.946
 2596SOL     OW 8686   4.091   2.280   1.427
 2596SOL    HW1 8687   4.144   2.266   1.510
 2596SOL    HW2 8688   4.070   2.378   1.417
 2597SOL     OW 8689   2.156   2.108   6.467
 2597SOL    HW1 8690   2.156   2.023   6.520
 2597SOL    HW2 8691   2.250   2.143   6.460
 2598SOL     OW 8692   6.366   1.531   2.639
 2598SOL    HW1 8693   6.411   1.441   2.637
 2598SOL    HW2 8694   6.297   1.532   2.711
 2599SOL     OW 8695   4.565   4.648   6.232
 2599SOL    HW1 8696   4.511   4.717   6.281
 2599SOL    HW2 8697   4.626   4.694   6.167
 2600SOL     OW 8698   6.505   2.942   3.971
 2600SOL    HW1 8699   6.410   2.933   3.939
 2600SOL    HW2 8700   6.513   3.023   4.029
 2601SOL     OW 8701   3.694   3.707   5.090
 2601SOL    HW1 8702   3.708   3.793   5.139
 2601SOL    HW2 8703   3.773   3.690   5.031
 2602SOL     OW 8704   6.383   5.996   5.673
 2602SOL    HW1 8705   6.345   5.967   5.761
 2602SOL    HW2 8706   6.318   5.974   5.600
 2603SOL     OW 8707   1.933   2.593   6.904
 2603SOL    HW1 8708   2.027   2.592   6.939
 2603SOL    HW2 8709   1.916   2.681   6.859
 2604SOL     OW 8710   6.322   1.169   0.698
 2604SOL    HW1 8711   6.277   1.218   0.623
 2604SOL    HW2 8712   6.259   1.101   0.736
 2605SOL     OW 8713   5.085   3.646   3.963
 2605SOL    HW1 8714   5.022   3.570   3.972
 2605SOL    HW2 8715   5.112   3.678   4.053
 2606SOL     OW 8716   6.796   4.653   1.369
 2606SOL    HW1 8717   6.794   4.623   1.273
 2606SOL    HW2 8718   6.707   4.637   1.411
 2607SOL     OW 8719   1.145   1.680   4.505
 2607SOL    HW1 8720   1.238   1.679   4.469
 2607SOL    HW2 8721   1.148   1.674   4.605
 2608SOL     OW 8722   5.419   0.090   0.648
 2608SOL    HW1 8723   5.431   0.113   0.745
 2608SOL    HW2 8724   5.353   0.153   0.607
 2609SOL     OW 8725   0.717   2.885   3.780
 2609SOL    HW1 8726   0.714   2.985   3.778
 2609SOL    HW2 8727   0.661   2.852   3.857
 2610SOL     OW 8728   5.641   5.213   4.809
 2610SOL    HW1 8729   5.706   5.246   4.877
 2610SOL    HW2 8730   5.572   5.284   4.793
 2611SOL     OW 8731   3.119   5.717   2.299
 2611SOL    HW1 8732   3.138   5.619   2.289
 2611SOL    HW2 8733   3.205   5.768   2.304
 2612SOL     OW 8734   6.671   0.114   4.869
 2612SOL    HW1 8735   6.674   0.022   4.830
 2612SOL    HW2 8736   6.696   0.110   4.966
 2613SOL     OW 8737   3.218   0.796   0.432
 2613SOL    HW1 8738   3.124   0.771   0.458
 2613SOL    HW2 8739   3.281   0.768   0.505
 2614SOL     OW 8740   6.434   6.017   6.770
 2614SOL    HW1 8741   6.350   6.007   6.822
 2614SOL    HW2 8742   6.488   6.093   6.807
 2615SOL     OW 8743   5.447   5.094   2.243
 2615SOL    HW1 8744   5.458   5.189   2.270
 2615SOL    HW2 8745   5.429   5.089   2.144
 2616SOL     OW 8746   4.049   3.743   2.180
 2616SOL    HW1 8747   4.081   3.675   2.113
 2616SOL    HW2 8748   3.989   3.699   2.246
 2617SOL     OW 8749   2.813   0.442   0.652
 2617SOL    HW1 8750   2.755   0.405   0.724
 2617SOL    HW2 8751   2.759   0.504   0.595
 2618SOL     OW 8752   1.008   0.174   0.529
 2618SOL    HW1 8753   1.080   0.225   0.483
 2618SOL    HW2 8754   1.046   0.131   0.611
 2619SOL     OW 8755   5.735   1.822   1.110
 2619SOL    HW1 8756   5.705   1.764   1.186
 2619SOL    HW2 8757   5.774   1.765   1.038
 2620SOL     OW 8758   1.627   5.112   3.887
 2620SOL    HW1 8759   1.587   5.030   3.846
 2620SOL    HW2 8760   1.716   5.129   3.846
 2621SOL     OW 8761   0.680   5.601   3.698
 2621SOL    HW1 8762   0.684   5.502   3.686
 2621SOL    HW2 8763   0.728   5.646   3.622
 2622SOL     OW 8764   2.505   2.910   5.834
 2622SOL    HW1 8765   2.430   2.887   5.772
 2622SOL    HW2 8766   2.572   2.965   5.785
 2623SOL     OW 8767   3.531   1.006   6.571
 2623SOL    HW1 8768   3.613   1.020   6.626
 2623SOL    HW2 8769   3.450   1.033   6.625
 2624SOL     OW 8770   6.676   2.228   3.858
 2624SOL    HW1 8771   6.710   2.162   3.925
 2624SOL    HW2 8772   6.629   2.302   3.906
 2625SOL     OW 8773   4.487   0.253   5.693
 2625SOL    HW1 8774   4.543   0.172   5.710
 2625SOL    HW2 8775   4.449   0.248   5.600
 2626SOL     OW 8776   2.534   0.026   2.499
 2626SOL    HW1 8777   2.541   6.964   2.558
 2626SOL    HW2 8778   2.605   0.023   2.429
 2627SOL     OW 8779   0.524   1.285   4.551
 2627SOL    HW1 8780   0.570   1.251   4.633
 2627SOL    HW2 8781   0.518   1.385   4.557
 2628SOL     OW 8782   3.736   5.996   6.103
 2628SOL    HW1 8783   3.827   5.955   6.104
 2628SOL    HW2 8784   3.741   6.091   6.134
 2629SOL     OW 8785   3.036   3.724   1.296
 2629SOL    HW1 8786   3.077   3.653   1.354
 2629SOL    HW2 8787   3.059   3.814   1.333
 2630SOL     OW 8788   2.766   2.339   2.358
 2630SOL    HW1 8789   2.794   2.407   2.290
 2630SOL    HW2 8790   2.695   2.379   2.417
 2631SOL     OW 8791   4.509   6.676   4.712
 2631SOL    HW1 8792   4.482   6.590   4.670
 2631SOL    HW2 8793   4.586   6.716   4.663
 2632SOL     OW 8794   5.581   1.057   1.166
 2632SOL    HW1 8795   5.618   1.047   1.074
 2632SOL    HW2 8796   5.512   1.130   1.167
 2633SOL     OW 8797   7.009   2.654   6.071
 2633SOL    HW1 8798   6.932   2.609   6.116
 2633SOL    HW2 8799   0.028   2.726   6.130
 2634SOL     OW 8800   3.338   5.052   1.133
 2634SOL    HW1 8801   3.421   5.004   1.106
 2634SOL    HW2 8802   3.262   5.021   1.077
 2635SOL     OW 8803   5.926   4.534   3.640
 2635SOL    HW1 8804   5.932   4.582   3.552
 2635SOL    HW2 8805   5.832   4.540   3.674
 2636SOL     OW 8806   5.757   0.251   4.707
 2636SOL    HW1 8807   5.707   0.336   4.725
 2636SOL    HW2 8808   5.833   0.242   4.771
 2637SOL     OW 8809   4.860   6.424   2.724
 2637SOL    HW1 8810   4.919   6.458   2.651
 2637SOL    HW2 8811   4.910   6.359   2.781
 2638SOL     OW 8812   5.427   5.651   0.717
 2638SOL    HW1 8813   5.390   5.741   0.696
 2638SOL    HW2 8814   5.527   5.657   0.723
 2639SOL     OW 8815   6.786   6.466   6.874
 2639SOL    HW1 8816   6.831   6.471   6.785
 2639SOL    HW2 8817   6.687   6.474   6.861
 2640SOL     OW 8818   5.913   0.048   6.323
 2640SOL    HW1 8819   5.853   0.068   6.400
 2640SOL    HW2 8820   5.884   6.981   6.279
 2641SOL     OW 8821   5.569   5.132   0.465
 2641SOL    HW1 8822   5.571   5.194   0.543
 2641SOL    HW2 8823   5.499   5.062   0.480
 2642SOL     OW 8824   6.712   0.343   3.589
 2642SOL    HW1 8825   6.761   0.401   3.524
 2642SOL    HW2 8826   6.614   0.348   3.571
 2643SOL     OW 8827   1.003   0.876   1.976
 2643SOL    HW1 8828   0.966   0.943   1.911
 2643SOL    HW2 8829   0.940   0.799   1.984
 2644SOL     OW 8830   0.092   5.639   6.020
 2644SOL    HW1 8831   0.156   5.701   6.065
 2644SOL    HW2 8832   0.138   5.552   6.000
 2645SOL     OW 8833   6.034   5.455   6.003
 2645SOL    HW1 8834   5.950   5.405   6.024
 2645SOL    HW2 8835   6.110   5.415   6.054
 2646SOL     OW 8836   6.567   6.221   6.912
 2646SOL    HW1 8837   6.552   6.319   6.908
 2646SOL    HW2 8838   6.656   6.198   6.872
 2647SOL     OW 8839   3.448   3.099   0.503
 2647SOL    HW1 8840   3.544   3.125   0.508
 2647SOL    HW2 8841   3.395   3.152   0.570
 2648SOL     OW 8842   3.884   1.021   3.103
 2648SOL    HW1 8843   3.924   0.956   3.167
 2648SOL    HW2 8844   3.931   1.016   3.016
 2649SOL     OW 8845   3.497   2.713   5.275
 2649SOL    HW1 8846   3.532   2.667   5.356
 2649SOL    HW2 8847   3.411   2.670   5.247
 2650SOL     OW 8848   0.096   6.477   2.606
 2650SOL    HW1 8849   0.120   6.522   2.519
 2650SOL    HW2 8850   0.174   6.481   2.668
 2651SOL     OW 8851   0.682   0.180   3.722
 2651SOL    HW1 8852   0.754   0.248   3.735
 2651SOL    HW2 8853   0.685   0.147   3.627
 2652SOL     OW 8854   3.286   3.100   2.710
 2652SOL    HW1 8855   3.322   3.068   2.622
 2652SOL    HW2 8856   3.233   3.184   2.696
 2653SOL     OW 8857   6.264   5.268   0.095
 2653SOL    HW1 8858   6.360   5.291   0.078
 2653SOL    HW2 8859   6.239   5.187   0.043
 2654SOL     OW 8860   5.576   1.640   6.198
 2654SOL    HW1 8861   5.624   1.581   6.264
 2654SOL    HW2 8862   5.637   1.715   6.171
 2655SOL     OW 8863   4.766   5.300   5.208
 2655SOL    HW1 8864   4.694   5.347   5.157
 2655SOL    HW2 8865   4.747   5.308   5.306
 2656SOL     OW 8866   5.156   3.471   4.400
 2656SOL    HW1 8867   5.195   3.537   4.337
 2656SOL    HW2 8868   5.059   3.459   4.380
 2657SOL     OW 8869   2.748   2.398   5.556
 2657SOL    HW1 8870   2.682   2.474   5.554
 2657SOL    HW2 8871   2.837   2.433   5.586
 2658SOL     OW 8872   5.770   4.460   5.604
 2658SOL    HW1 8873   5.676   4.487   5.621
 2658SOL    HW2 8874   5.832   4.525   5.648
 2659SOL     OW 8875   6.604   1.646   3.022
 2659SOL    HW1 8876   6.611   1.636   2.923
 2659SOL    HW2 8877   6.513   1.681   3.045
 2660SOL     OW 8878   6.507   1.871   2.527
 2660SOL    HW1 8879   6.454   1.798   2.485
 2660SOL    HW2 8880   6.462   1.900   2.612
 2661SOL     OW 8881   3.782   6.407   1.914
 2661SOL    HW1 8882   3.846   6.480   1.887
 2661SOL    HW2 8883   3.689   6.435   1.893
 2662SOL     OW 8884   4.069   6.939   3.732
 2662SOL    HW1 8885   4.038   6.850   3.699
 2662SOL    HW2 8886   3.992   6.988   3.773
 2663SOL     OW 8887   0.883   4.429   3.149
 2663SOL    HW1 8888   0.894   4.407   3.246
 2663SOL    HW2 8889   0.810   4.497   3.138
 2664SOL     OW 8890   4.169   3.823   1.782
 2664SOL    HW1 8891   4.209   3.896   1.728
 2664SOL    HW2 8892   4.147   3.858   1.874
 2665SOL     OW 8893   4.580   0.849   4.498
 2665SOL    HW1 8894   4.566   0.876   4.593
 2665SOL    HW2 8895   4.622   0.758   4.495
 2666SOL     OW 8896   5.122   6.134   1.808
 2666SOL    HW1 8897   5.038   6.124   1.862
 2666SOL    HW2 8898   5.098   6.149   1.712
 2667SOL     OW 8899   1.599   4.937   3.622
 2667SOL    HW1 8900   1.678   4.921   3.681
 2667SOL    HW2 8901   1.626   4.923   3.527
 2668SOL     OW 8902   6.032   2.438   5.626
 2668SOL    HW1 8903   6.045   2.534   5.602
 2668SOL    HW2 8904   6.025   2.429   5.725
 2669SOL     OW 8905   3.970   5.379   5.723
 2669SOL    HW1 8906   3.952   5.347   5.630
 2669SOL    HW2 8907   3.906   5.334   5.786
 2670SOL     OW 8908   1.857   0.147   5.643
 2670SOL    HW1 8909   1.936   0.113   5.694
 2670SOL    HW2 8910   1.844   0.244   5.663
 2671SOL     OW 8911   3.330   3.946   5.929
 2671SOL    HW1 8912   3.368   3.991   6.010
 2671SOL    HW2 8913   3.404   3.902   5.878
 2672SOL     OW 8914   1.038   4.201   0.559
 2672SOL    HW1 8915   0.950   4.156   0.574
 2672SOL    HW2 8916   1.099   4.140   0.509
 2673SOL     OW 8917   4.557   2.249   3.841
 2673SOL    HW1 8918   4.652   2.282   3.841
 2673SOL    HW2 8919   4.509   2.286   3.761
 2674SOL     OW 8920   5.856   5.466   5.473
 2674SOL    HW1 8921   5.909   5.415   5.541
 2674SOL    HW2 8922   5.907   5.471   5.387
 2675SOL     OW 8923   0.352   3.474   4.963
 2675SOL    HW1 8924   0.359   3.398   5.027
 2675SOL    HW2 8925   0.440   3.522   4.959
 2676SOL     OW 8926   4.310   0.367   2.101
 2676SOL    HW1 8927   4.274   0.383   2.193
 2676SOL    HW2 8928   4.337   0.454   2.061
 2677SOL     OW 8929   2.865   4.755   2.432
 2677SOL    HW1 8930   2.841   4.663   2.461
 2677SOL    HW2 8931   2.858   4.762   2.333
 2678SOL     OW 8932   0.209   6.360   6.537
 2678SOL    HW1 8933   0.138   6.290   6.547
 2678SOL    HW2 8934   0.247   6.383   6.626
 2679SOL     OW 8935   2.986   4.842   1.141
 2679SOL    HW1 8936   2.988   4.743   1.122
 2679SOL    HW2 8937   2.912   4.862   1.205
 2680SOL     OW 8938   1.240   2.011   1.684
 2680SOL    HW1 8939   1.215   1.914   1.691
 2680SOL    HW2 8940   1.338   2.021   1.700
 2681SOL     OW 8941   1.344   1.232   2.894
 2681SOL    HW1 8942   1.347   1.196   2.801
 2681SOL    HW2 8943   1.280   1.310   2.897
 2682SOL     OW 8944   6.652   2.513   3.360
 2682SOL    HW1 8945   6.582   2.468   3.306
 2682SOL    HW2 8946   6.642   2.488   3.456
 2683SOL     OW 8947   1.375   0.003   1.826
 2683SOL    HW1 8948   1.413   0.068   1.892
 2683SOL    HW2 8949   1.275   0.013   1.823
 2684SOL     OW 8950   2.644   5.848   3.143
 2684SOL    HW1 8951   2.744   5.844   3.132
 2684SOL    HW2 8952   2.614   5.943   3.135
 2685SOL     OW 8953   6.003   6.055   5.059
 2685SOL    HW1 8954   5.986   6.010   5.147
 2685SOL    HW2 8955   5.972   5.996   4.985
 2686SOL     OW 8956   1.326   2.972   4.437
 2686SOL    HW1 8957   1.413   3.021   4.439
 2686SOL    HW2 8958   1.271   3.005   4.360
 2687SOL     OW 8959   5.016   4.626   3.170
 2687SOL    HW1 8960   4.950   4.663   3.234
 2687SOL    HW2 8961   4.990   4.652   3.077
 2688SOL     OW 8962   3.748   5.180   5.823
 2688SOL    HW1 8963   3.826   5.118   5.814
 2688SOL    HW2 8964   3.663   5.128   5.817
 2689SOL     OW 8965   0.319   3.005   4.023
 2689SOL    HW1 8966   0.253   2.939   4.059
 2689SOL    HW2 8967   0.400   3.008   4.082
 2690SOL     OW 8968   2.949   3.428   2.925
 2690SOL    HW1 8969   2.912   3.437   3.017
 2690SOL    HW2 8970   3.039   3.386   2.929
 2691SOL     OW 8971   1.425   5.883   1.245
 2691SOL    HW1 8972   1.384   5.834   1.323
 2691SOL    HW2 8973   1.502   5.938   1.277
 2692SOL     OW 8974   6.964   5.288   3.340
 2692SOL    HW1 8975   6.981   5.354   3.267
 2692SOL    HW2 8976   0.013   5.213   3.334
 2693SOL     OW 8977   1.886   3.781   3.668
 2693SOL    HW1 8978   1.889   3.704   3.604
 2693SOL    HW2 8979   1.928   3.753   3.755
 2694SOL     OW 8980   2.367   0.406   2.661
 2694SOL    HW1 8981   2.362   0.504   2.684
 2694SOL    HW2 8982   2.290   0.382   2.602
 2695SOL     OW 8983   3.946   2.141   3.136
 2695SOL    HW1 8984   3.990   2.132   3.047
 2695SOL    HW2 8985   4.008   2.188   3.199
 2696SOL     OW 8986   4.141   3.702   5.188
 2696SOL    HW1 8987   4.159   3.603   5.178
 2696SOL    HW2 8988   4.182   3.734   5.274
 2697SOL     OW 8989   2.377   2.170   4.313
 2697SOL    HW1 8990   2.409   2.117   4.392
 2697SOL    HW2 8991   2.335   2.109   4.246
 2698SOL     OW 8992   2.032   3.481   6.842
 2698SOL    HW1 8993   2.105   3.530   6.795
 2698SOL    HW2 8994   1.994   3.411   6.782
 2699SOL     OW 8995   3.337   5.858   2.083
 2699SOL    HW1 8996   3.251   5.897   2.050
 2699SOL    HW2 8997   3.338   5.858   2.183
 2700SOL     OW 8998   1.114   3.584   2.956
 2700SOL    HW1 8999   1.162   3.496   2.963
 2700SOL    HW2 9000   1.105   3.625   3.046
 2701SOL     OW 9001   3.197   0.202   5.863
 2701SOL    HW1 9002   3.250   0.141   5.804
 2701SOL    HW2 9003   3.150   0.148   5.933
 2702SOL     OW 9004   6.745   0.253   2.896
 2702SOL    HW1 9005   6.741   0.309   2.813
 2702SOL    HW2 9006   6.791   0.167   2.875
 2703SOL     OW 9007   1.325   1.587   3.438
 2703SOL    HW1 9008   1.314   1.511   3.502
 2703SOL    HW2 9009   1.380   1.659   3.480
 2704SOL     OW 9010   1.648   6.022   0.380
 2704SOL    HW1 9011   1.742   6.041   0.352
 2704SOL    HW2 9012   1.645   6.006   0.478
 2705SOL     OW 9013   0.257   4.318   2.321
 2705SOL    HW1 9014   0.270   4.242   2.385
 2705SOL    HW2 9015   0.336   4.324   2.260
 2706SOL     OW 9016   6.842   2.034   1.951
 2706SOL    HW1 9017   6.752   1.991   1.951
 2706SOL    HW2 9018   6.897   1.996   1.877
 2707SOL     OW 9019   2.174   1.487   6.017
 2707SOL    HW1 9020   2.176   1.578   5.976
 2707SOL    HW2 9021   2.167   1.418   5.944
 2708SOL     OW 9022   2.066   3.363   0.736
 2708SOL    HW1 9023   2.115   3.307   0.802
 2708SOL    HW2 9024   1.968   3.344   0.742
 2709SOL     OW 9025   4.345   6.837   1.846
 2709SOL    HW1 9026   4.263   6.869   1.799
 2709SOL    HW2 9027   4.335   6.854   1.944
 2710SOL     OW 9028   5.974   4.147   2.615
 2710SOL    HW1 9029   6.007   4.111   2.528
 2710SOL    HW2 9030   5.954   4.245   2.605
 2711SOL     OW 9031   1.344   6.623   1.818
 2711SOL    HW1 9032   1.255   6.628   1.862
 2711SOL    HW2 9033   1.332   6.604   1.720
 2712SOL     OW 9034   3.291   5.308   1.344
 2712SOL    HW1 9035   3.286   5.321   1.443
 2712SOL    HW2 9036   3.361   5.240   1.323
 2713SOL     OW 9037   2.060   2.700   4.863
 2713SOL    HW1 9038   2.000   2.648   4.801
 2713SOL    HW2 9039   2.096   2.639   4.933
 2714SOL     OW 9040   5.418   6.726   5.629
 2714SOL    HW1 9041   5.345   6.756   5.691
 2714SOL    HW2 9042   5.470   6.652   5.672
 2715SOL     OW 9043   6.877   0.639   7.000
 2715SOL    HW1 9044   6.795   0.608   0.030
 2715SOL    HW2 9045   6.856   0.651   6.903
 2716SOL     OW 9046   0.394   6.628   3.064
 2716SOL    HW1 9047   0.318   6.652   3.004
 2716SOL    HW2 9048   0.392   6.529   3.082
 2717SOL     OW 9049   1.353   0.797   3.064
 2717SOL    HW1 9050   1.443   0.766   3.034
 2717SOL    HW2 9051   1.353   0.897   3.067
 2718SOL     OW 9052   1.107   4.534   3.037
 2718SOL    HW1 9053   1.048   4.496   3.109
 2718SOL    HW2 9054   1.116   4.467   2.963
 2719SOL     OW 9055   4.150   4.804   2.867
 2719SOL    HW1 9056   4.104   4.833   2.952
 2719SOL    HW2 9057   4.125   4.710   2.847
 2720SOL     OW 9058   0.470   5.808   4.067
 2720SOL    HW1 9059   0.412   5.726   4.070
 2720SOL    HW2 9060   0.531   5.803   3.988
 2721SOL     OW 9061   4.973   6.856   4.891
 2721SOL    HW1 9062   5.066   6.831   4.920
 2721SOL    HW2 9063   4.934   6.919   4.958
 2722SOL     OW 9064   1.467   5.657   1.044
 2722SOL    HW1 9065   1.368   5.648   1.045
 2722SOL    HW2 9066   1.496   5.721   1.115
 2723SOL     OW 9067   1.445   1.266   5.529
 2723SOL    HW1 9068   1.536   1.288   5.565
 2723SOL    HW2 9069   1.381   1.253   5.605
 2724SOL     OW 9070   3.156   5.505   6.378
 2724SOL    HW1 9071   3.135   5.443   6.455
 2724SOL    HW2 9072   3.154   5.453   6.293
 2725SOL     OW 9073   3.157   4.881   3.395
 2725SOL    HW1 9074   3.101   4.879   3.478
 2725SOL    HW2 9075   3.100   4.859   3.316
 2726SOL     OW 9076   4.796   6.164   2.437
 2726SOL    HW1 9077   4.886   6.132   2.465
 2726SOL    HW2 9078   4.778   6.253   2.479
 2727SOL     OW 9079   1.935   5.391   3.357
 2727SOL    HW1 9080   1.982   5.311   3.321
 2727SOL    HW2 9081   1.998   5.469   3.358
 2728SOL     OW 9082   3.704   0.112   5.517
 2728SOL    HW1 9083   3.610   0.133   5.490
 2728SOL    HW2 9084   3.762   0.107   5.435
 2729SOL     OW 9085   6.636   5.156   2.525
 2729SOL    HW1 9086   6.722   5.108   2.538
 2729SOL    HW2 9087   6.587   5.117   2.447
 2730SOL     OW 9088   1.284   4.351   1.089
 2730SOL    HW1 9089   1.213   4.417   1.115
 2730SOL    HW2 9090   1.346   4.393   1.023
 2731SOL     OW 9091   2.962   3.736   1.691
 2731SOL    HW1 9092   3.039   3.690   1.647
 2731SOL    HW2 9093   2.977   3.739   1.789
 2732SOL     OW 9094   5.341   2.470   3.922
 2732SOL    HW1 9095   5.372   2.404   3.853
 2732SOL    HW2 9096   5.419   2.522   3.955
 2733SOL     OW 9097   1.821   0.957   5.749
 2733SOL    HW1 9098   1.801   0.973   5.652
 2733SOL    HW2 9099   1.739   0.972   5.803
 2734SOL     OW 9100   2.418   6.210   3.732
 2734SOL    HW1 9101   2.397   6.307   3.721
 2734SOL    HW2 9102   2.517   6.196   3.726
 2735SOL     OW 9103   2.183   4.937   1.516
 2735SOL    HW1 9104   2.238   5.021   1.519
 2735SOL    HW2 9105   2.232   4.864   1.564
 2736SOL     OW 9106   3.355   6.886   6.715
 2736SOL    HW1 9107   3.344   6.946   6.636
 2736SOL    HW2 9108   3.414   6.931   6.782
 2737SOL     OW 9109   4.167   3.685   5.593
 2737SOL    HW1 9110   4.121   3.649   5.512
 2737SOL    HW2 9111   4.100   3.702   5.666
 2738SOL     OW 9112   6.182   4.449   4.194
 2738SOL    HW1 9113   6.128   4.433   4.111
 2738SOL    HW2 9114   6.169   4.373   4.257
 2739SOL     OW 9115   5.613   3.657   0.812
 2739SOL    HW1 9116   5.681   3.726   0.838
 2739SOL    HW2 9117   5.659   3.578   0.772
 2740SOL     OW 9118   6.963   2.816   2.935
 2740SOL    HW1 9119   0.009   2.759   2.987
 2740SOL    HW2 9120   6.958   2.783   2.841
 2741SOL     OW 9121   1.196   2.519   5.723
 2741SOL    HW1 9122   1.287   2.549   5.751
 2741SOL    HW2 9123   1.184   2.536   5.625
 2742SOL     OW 9124   2.484   6.465   5.430
 2742SOL    HW1 9125   2.480   6.438   5.526
 2742SOL    HW2 9126   2.577   6.496   5.408
 2743SOL     OW 9127   6.133   4.643   0.594
 2743SOL    HW1 9128   6.106   4.633   0.690
 2743SOL    HW2 9129   6.074   4.588   0.536
 2744SOL     OW 9130   4.289   0.452   6.867
 2744SOL    HW1 9131   4.260   0.416   6.956
 2744SOL    HW2 9132   4.267   0.386   6.795
 2745SOL     OW 9133   2.400   5.864   1.341
 2745SOL    HW1 9134   2.467   5.904   1.403
 2745SOL    HW2 9135   2.309   5.897   1.364
 2746SOL     OW 9136   1.056   2.562   6.171
 2746SOL    HW1 9137   1.005   2.481   6.141
 2746SOL    HW2 9138   1.154   2.547   6.153
 2747SOL     OW 9139   5.471   5.576   4.130
 2747SOL    HW1 9140   5.516   5.488   4.118
 2747SOL    HW2 9141   5.391   5.565   4.189
 2748SOL     OW 9142   4.065   1.261   4.556
 2748SOL    HW1 9143   4.100   1.168   4.542
 2748SOL    HW2 9144   4.092   1.293   4.647
 2749SOL     OW 9145   4.864   4.357   3.469
 2749SOL    HW1 9146   4.809   4.353   3.385
 2749SOL    HW2 9147   4.833   4.285   3.532
 2750SOL     OW 9148   6.963   6.177   1.500
 2750SOL    HW1 9149   6.869   6.206   1.513
 2750SOL    HW2 9150   0.007   6.249   1.531
 2751SOL     OW 9151   1.494   7.018   0.620
 2751SOL    HW1 9152   1.525   0.089   0.654
 2751SOL    HW2 9153   1.532   7.002   0.529
 2752SOL     OW 9154   6.676   6.350   5.839
 2752SOL    HW1 9155   6.616   6.428   5.823
 2752SOL    HW2 9156   6.658   6.279   5.771
 2753SOL     OW 9157   2.785   5.599   5.031
 2753SOL    HW1 9158   2.881   5.621   5.015
 2753SOL    HW2 9159   2.764   5.613   5.128
 2754SOL     OW 9160   0.959   5.920   4.165
 2754SOL    HW1 9161   1.055   5.894   4.158
 2754SOL    HW2 9162   0.914   5.864   4.235
 2755SOL     OW 9163   3.703   5.837   2.356
 2755SOL    HW1 9164   3.669   5.810   2.266
 2755SOL    HW2 9165   3.802   5.824   2.359
 2756SOL     OW 9166   0.028   3.554   5.252
 2756SOL    HW1 9167   0.125   3.568   5.273
 2756SOL    HW2 9168   0.013   3.569   5.154
 2757SOL     OW 9169   4.730   3.568   6.594
 2757SOL    HW1 9170   4.699   3.606   6.507
 2757SOL    HW2 9171   4.661   3.586   6.664
 2758SOL     OW 9172   0.074   6.783   2.139
 2758SOL    HW1 9173   0.032   6.873   2.154
 2758SOL    HW2 9174   0.020   6.733   2.071
 2759SOL     OW 9175   3.614   3.625   5.359
 2759SOL    HW1 9176   3.626   3.620   5.259
 2759SOL    HW2 9177   3.666   3.702   5.395
 2760SOL     OW 9178   5.950   5.952   2.557
 2760SOL    HW1 9179   5.893   5.892   2.501
 2760SOL    HW2 9180   6.040   5.961   2.515
 2761SOL     OW 9181   1.570   3.245   3.202
 2761SOL    HW1 9182   1.583   3.344   3.201
 2761SOL    HW2 9183   1.616   3.207   3.282
 2762SOL     OW 9184   3.116   1.963   0.769
 2762SOL    HW1 9185   3.171   1.948   0.687
 2762SOL    HW2 9186   3.164   2.024   0.832
 2763SOL     OW 9187   6.388   1.582   4.560
 2763SOL    HW1 9188   6.310   1.537   4.603
 2763SOL    HW2 9189   6.388   1.562   4.462
 2764SOL     OW 9190   0.049   3.409   3.117
 2764SOL    HW1 9191   0.031   3.450   3.206
 2764SOL    HW2 9192   0.090   3.318   3.129
 2765SOL     OW 9193   5.633   6.622   6.121
 2765SOL    HW1 9194   5.582   6.673   6.051
 2765SOL    HW2 9195   5.609   6.658   6.211
 2766SOL     OW 9196   4.293   6.930   0.094
 2766SOL    HW1 9197   4.242   6.919   0.179
 2766SOL    HW2 9198   4.366   6.997   0.107
 2767SOL     OW 9199   0.692   5.392   6.474
 2767SOL    HW1 9200   0.640   5.385   6.389
 2767SOL    HW2 9201   0.748   5.310   6.486
 2768SOL     OW 9202   4.137   0.348   1.807
 2768SOL    HW1 9203   4.108   0.268   1.860
 2768SOL    HW2 9204   4.229   0.333   1.770
 2769SOL     OW 9205   0.663   5.029   5.428
 2769SOL    HW1 9206   0.648   5.019   5.527
 2769SOL    HW2 9207   0.650   5.125   5.402
 2770SOL     OW 9208   2.490   6.634   0.457
 2770SOL    HW1 9209   2.545   6.663   0.535
 2770SOL    HW2 9210   2.529   6.551   0.418
 2771SOL     OW 9211   4.347   0.254   5.430
 2771SOL    HW1 9212   4.285   0.315   5.481
 2771SOL    HW2 9213   4.316   0.248   5.335
 2772SOL     OW 9214   4.848   1.219   3.728
 2772SOL    HW1 9215   4.869   1.129   3.688
 2772SOL    HW2 9216   4.755   1.245   3.704
 2773SOL     OW 9217   5.921   2.247   4.841
 2773SOL    HW1 9218   5.940   2.230   4.938
 2773SOL    HW2 9219   6.000   2.221   4.787
 2774SOL     OW 9220   5.964   1.692   4.203
 2774SOL    HW1 9221   5.912   1.638   4.269
 2774SOL    HW2 9222   6.009   1.630   4.138
 2775SOL     OW 9223   6.804   3.366   4.137
 2775SOL    HW1 9224   6.904   3.375   4.138
 2775SOL    HW2 9225   6.763   3.447   4.179
 2776SOL     OW 9226   5.081   4.800   6.032
 2776SOL    HW1 9227   5.174   4.797   6.068
 2776SOL    HW2 9228   5.018   4.759   6.099
 2777SOL     OW 9229   1.933   2.306   6.854
 2777SOL    HW1 9230   1.895   2.398   6.871
 2777SOL    HW2 9231   1.858   2.243   6.834
 2778SOL     OW 9232   2.460   0.745   6.177
 2778SOL    HW1 9233   2.490   0.753   6.082
 2778SOL    HW2 9234   2.504   0.816   6.232
 2779SOL     OW 9235   5.168   1.032   1.555
 2779SOL    HW1 9236   5.264   1.046   1.530
 2779SOL    HW2 9237   5.129   1.118   1.587
 2780SOL     OW 9238   6.923   1.349   4.744
 2780SOL    HW1 9239   6.837   1.383   4.781
 2780SOL    HW2 9240   6.998   1.373   4.806
 2781SOL     OW 9241   5.956   1.067   3.318
 2781SOL    HW1 9242   5.963   1.149   3.375
 2781SOL    HW2 9243   6.036   1.009   3.335
 2782SOL     OW 9244   5.305   0.692   5.933
 2782SOL    HW1 9245   5.352   0.626   5.992
 2782SOL    HW2 9246   5.228   0.731   5.983
 2783SOL     OW 9247   5.755   3.667   1.812
 2783SOL    HW1 9248   5.853   3.649   1.800
 2783SOL    HW2 9249   5.703   3.586   1.785
 2784SOL     OW 9250   0.456   3.174   0.857
 2784SOL    HW1 9251   0.467   3.079   0.828
 2784SOL    HW2 9252   0.367   3.207   0.827
 2785SOL     OW 9253   6.057   3.288   2.400
 2785SOL    HW1 9254   6.004   3.300   2.484
 2785SOL    HW2 9255   5.996   3.257   2.327
 2786SOL     OW 9256   1.139   6.481   6.740
 2786SOL    HW1 9257   1.105   6.530   6.660
 2786SOL    HW2 9258   1.062   6.435   6.786
 2787SOL     OW 9259   0.413   5.884   6.882
 2787SOL    HW1 9260   0.338   5.854   6.823
 2787SOL    HW2 9261   0.416   5.828   6.964
 2788SOL     OW 9262   2.494   0.146   6.384
 2788SOL    HW1 9263   2.400   0.146   6.417
 2788SOL    HW2 9264   2.549   0.085   6.441
 2789SOL     OW 9265   0.974   2.509   4.758
 2789SOL    HW1 9266   0.876   2.515   4.777
 2789SOL    HW2 9267   0.995   2.558   4.673
 2790SOL     OW 9268   0.649   5.471   1.424
 2790SOL    HW1 9269   0.576   5.481   1.357
 2790SOL    HW2 9270   0.706   5.553   1.423
 2791SOL     OW 9271   1.534   2.906   4.223
 2791SOL    HW1 9272   1.610   2.970   4.212
 2791SOL    HW2 9273   1.458   2.933   4.164
 2792SOL     OW 9274   3.950   1.443   5.967
 2792SOL    HW1 9275   3.957   1.354   6.011
 2792SOL    HW2 9276   3.925   1.512   6.036
 2793SOL     OW 9277   3.751   3.918   0.217
 2793SOL    HW1 9278   3.653   3.923   0.237
 2793SOL    HW2 9279   3.771   3.830   0.174
 2794SOL     OW 9280   1.811   2.323   0.253
 2794SOL    HW1 9281   1.804   2.405   0.197
 2794SOL    HW2 9282   1.870   2.256   0.206
 2795SOL     OW 9283   1.664   6.005   0.730
 2795SOL    HW1 9284   1.577   5.994   0.778
 2795SOL    HW2 9285   1.721   5.924   0.746
 2796SOL     OW 9286   1.938   6.206   6.738
 2796SOL    HW1 9287   1.900   6.237   6.825
 2796SOL    HW2 9288   1.876   6.231   6.664
 2797SOL     OW 9289   5.383   4.872   3.099
 2797SOL    HW1 9290   5.347   4.844   3.010
 2797SOL    HW2 9291   5.442   4.951   3.088
 2798SOL     OW 9292   5.463   1.060   1.938
 2798SOL    HW1 9293   5.543   1.037   1.993
 2798SOL    HW2 9294   5.476   1.027   1.845
 2799SOL     OW 9295   3.627   6.635   4.810
 2799SOL    HW1 9296   3.535   6.604   4.837
 2799SOL    HW2 9297   3.678   6.559   4.771
 2800SOL     OW 9298   4.680   0.466   6.397
 2800SOL    HW1 9299   4.634   0.377   6.397
 2800SOL    HW2 9300   4.719   0.483   6.488
 2801SOL     OW 9301   0.315   4.562   4.167
 2801SOL    HW1 9302   0.310   4.553   4.267
 2801SOL    HW2 9303   0.386   4.502   4.131
 2802SOL     OW 9304   1.532   5.110   4.802
 2802SOL    HW1 9305   1.485   5.197   4.816
 2802SOL    HW2 9306   1.585   5.114   4.718
 2803SOL     OW 9307   3.580   2.573   6.496
 2803SOL    HW1 9308   3.672   2.601   6.468
 2803SOL    HW2 9309   3.532   2.653   6.533
 2804SOL     OW 9310   6.932   2.739   3.411
 2804SOL    HW1 9311   6.932   2.807   3.484
 2804SOL    HW2 9312   6.862   2.763   3.343
 2805SOL     OW 9313   3.770   4.186   0.867
 2805SOL    HW1 9314   3.671   4.189   0.880
 2805SOL    HW2 9315   3.792   4.164   0.772
 2806SOL     OW 9316   0.278   2.903   5.254
 2806SOL    HW1 9317   0.309   2.937   5.343
 2806SOL    HW2 9318   0.355   2.901   5.190
 2807SOL     OW 9319   4.491   0.881   3.856
 2807SOL    HW1 9320   4.527   0.811   3.918
 2807SOL    HW2 9321   4.496   0.971   3.900
 2808SOL     OW 9322   0.786   5.546   5.789
 2808SOL    HW1 9323   0.792   5.491   5.706
 2808SOL    HW2 9324   0.807   5.642   5.767
 2809SOL     OW 9325   0.201   5.832   2.103
 2809SOL    HW1 9326   0.225   5.789   2.190
 2809SOL    HW2 9327   0.270   5.810   2.034
 2810SOL     OW 9328   1.490   6.815   2.745
 2810SOL    HW1 9329   1.500   6.726   2.789
 2810SOL    HW2 9330   1.577   6.842   2.703
 2811SOL     OW 9331   1.408   1.301   0.942
 2811SOL    HW1 9332   1.326   1.248   0.966
 2811SOL    HW2 9333   1.456   1.256   0.867
 2812SOL     OW 9334   1.327   2.241   0.488
 2812SOL    HW1 9335   1.308   2.339   0.489
 2812SOL    HW2 9336   1.381   2.218   0.407
 2813SOL     OW 9337   0.692   3.512   1.647
 2813SOL    HW1 9338   0.735   3.597   1.615
 2813SOL    HW2 9339   0.760   3.439   1.649
 2814SOL     OW 9340   2.714   4.149   6.944
 2814SOL    HW1 9341   2.807   4.182   6.959
 2814SOL    HW2 9342   2.705   4.114   6.851
 2815SOL     OW 9343   6.513   5.265   4.611
 2815SOL    HW1 9344   6.609   5.258   4.639
 2815SOL    HW2 9345   6.480   5.175   4.582
 2816SOL     OW 9346   0.984   5.589   4.846
 2816SOL    HW1 9347   1.014   5.496   4.826
 2816SOL    HW2 9348   0.884   5.593   4.845
 2817SOL     OW 9349   3.107   0.863   2.254
 2817SOL    HW1 9350   3.105   0.963   2.252
 2817SOL    HW2 9351   3.173   0.832   2.322
 2818SOL     OW 9352   1.601   0.625   0.548
 2818SOL    HW1 9353   1.521   0.661   0.596
 2818SOL    HW2 9354   1.681   0.631   0.608
 2819SOL     OW 9355   0.981   0.288   6.827
 2819SOL    HW1 9356   0.928   0.272   6.910
 2819SOL    HW2 9357   0.943   0.233   6.752
 2820SOL     OW 9358   1.386   2.083   0.139
 2820SOL    HW1 9359   1.434   2.072   0.052
 2820SOL    HW2 9360   1.428   2.158   0.191
 2821SOL     OW 9361   3.092   3.292   6.298
 2821SOL    HW1 9362   3.171   3.336   6.254
 2821SOL    HW2 9363   3.029   3.259   6.228
 2822SOL     OW 9364   4.846   2.532   0.637
 2822SOL    HW1 9365   4.835   2.492   0.728
 2822SOL    HW2 9366   4.856   2.459   0.570
 2823SOL     OW 9367   4.888   3.684   1.724
 2823SOL    HW1 9368   4.789   3.691   1.736
 2823SOL    HW2 9369   4.919   3.595   1.757
 2824SOL     OW 9370   0.993   4.607   4.697
 2824SOL    HW1 9371   1.083   4.622   4.656
 2824SOL    HW2 9372   0.982   4.510   4.720
 2825SOL     OW 9373   5.353   1.520   6.046
 2825SOL    HW1 9374   5.424   1.581   6.081
 2825SOL    HW2 9375   5.395   1.432   6.022
 2826SOL     OW 9376   2.479   2.840   6.493
 2826SOL    HW1 9377   2.434   2.925   6.466
 2826SOL    HW2 9378   2.549   2.816   6.425
 2827SOL     OW 9379   5.912   1.653   6.409
 2827SOL    HW1 9380   5.986   1.657   6.476
 2827SOL    HW2 9381   5.938   1.706   6.328
 2828SOL     OW 9382   1.625   3.746   1.395
 2828SOL    HW1 9383   1.680   3.737   1.312
 2828SOL    HW2 9384   1.680   3.788   1.468
 2829SOL     OW 9385   3.555   3.509   1.932
 2829SOL    HW1 9386   3.533   3.423   1.979
 2829SOL    HW2 9387   3.654   3.520   1.927
 2830SOL     OW 9388   3.069   5.859   4.749
 2830SOL    HW1 9389   3.067   5.871   4.650
 2830SOL    HW2 9390   3.049   5.946   4.794
 2831SOL     OW 9391   0.003   1.818   1.388
 2831SOL    HW1 9392   0.083   1.833   1.445
 2831SOL    HW2 9393   6.944   1.791   1.446
 2832SOL     OW 9394   0.835   3.971   2.560
 2832SOL    HW1 9395   0.873   3.935   2.645
 2832SOL    HW2 9396   0.814   3.895   2.498
 2833SOL     OW 9397   0.478   2.746   2.571
 2833SOL    HW1 9398   0.484   2.817   2.501
 2833SOL    HW2 9399   0.487   2.787   2.661
 2834SOL     OW 9400   3.836   6.835   4.208
 2834SOL    HW1 9401   3.759   6.835   4.144
 2834SOL    HW2 9402   3.916   6.793   4.164
 2835SOL     OW 9403   6.761   0.573   6.735
 2835SOL    HW1 9404   6.774   0.654   6.678
 2835SOL    HW2 9405   6.664   0.546   6.733
 2836SOL     OW 9406   3.315   5.483   3.143
 2836SOL    HW1 9407   3.219   5.499   3.123
 2836SOL    HW2 9408   3.352   5.560   3.194
 2837SOL     OW 9409   5.031   4.115   1.689
 2837SOL    HW1 9410   5.103   4.089   1.624
 2837SOL    HW2 9411   4.990   4.033   1.728
 2838SOL     OW 9412   6.545   3.884   6.141
 2838SOL    HW1 9413   6.592   3.911   6.057
 2838SOL    HW2 9414   6.507   3.965   6.185
 2839SOL     OW 9415   6.080   3.396   5.441
 2839SOL    HW1 9416   6.010   3.454   5.482
 2839SOL    HW2 9417   6.123   3.445   5.365
 2840SOL     OW 9418   6.305   6.461   4.594
 2840SOL    HW1 9419   6.404   6.462   4.580
 2840SOL    HW2 9420   6.281   6.523   4.669
 2841SOL     OW 9421   5.742   4.133   2.365
 2841SOL    HW1 9422   5.706   4.179   2.446
 2841SOL    HW2 9423   5.829   4.089   2.388
 2842SOL     OW 9424   0.804   6.911   3.635
 2842SOL    HW1 9425   0.758   6.906   3.723
 2842SOL    HW2 9426   0.903   6.919   3.649
 2843SOL     OW 9427   2.398   2.596   3.272
 2843SOL    HW1 9428   2.410   2.551   3.360
 2843SOL    HW2 9429   2.382   2.694   3.287
 2844SOL     OW 9430   5.228   3.599   0.613
 2844SOL    HW1 9431   5.294   3.595   0.688
 2844SOL    HW2 9432   5.169   3.518   0.617
 2845SOL     OW 9433   2.930   1.654   1.432
 2845SOL    HW1 9434   3.013   1.697   1.398
 2845SOL    HW2 9435   2.875   1.721   1.482
 2846SOL     OW 9436   6.245   6.939   6.654
 2846SOL    HW1 9437   6.226   6.962   6.558
 2846SOL    HW2 9438   6.342   6.952   6.673
 2847SOL     OW 9439   4.501   5.355   0.975
 2847SOL    HW1 9440   4.554   5.317   0.900
 2847SOL    HW2 9441   4.483   5.283   1.043
 2848SOL     OW 9442   0.517   4.146   5.990
 2848SOL    HW1 9443   0.578   4.072   6.016
 2848SOL    HW2 9444   0.570   4.218   5.945
 2849SOL     OW 9445   5.332   1.322   1.347
 2849SOL    HW1 9446   5.368   1.364   1.430
 2849SOL    HW2 9447   5.233   1.335   1.344
 2850SOL     OW 9448   0.994   0.431   1.715
 2850SOL    HW1 9449   0.958   0.372   1.788
 2850SOL    HW2 9450   1.094   0.429   1.717
 2851SOL     OW 9451   3.396   3.235   1.250
 2851SOL    HW1 9452   3.334   3.194   1.183
 2851SOL    HW2 9453   3.344   3.262   1.331
 2852SOL     OW 9454   0.377   5.310   5.557
 2852SOL    HW1 9455   0.401   5.340   5.465
 2852SOL    HW2 9456   0.395   5.384   5.622
 2853SOL     OW 9457   0.573   4.301   5.656
 2853SOL    HW1 9458   0.646   4.295   5.724
 2853SOL    HW2 9459   0.494   4.346   5.697
 2854SOL     OW 9460   3.035   0.632   6.276
 2854SOL    HW1 9461   2.984   0.595   6.354
 2854SOL    HW2 9462   3.122   0.669   6.307
 2855SOL     OW 9463   2.350   1.445   4.273
 2855SOL    HW1 9464   2.290   1.369   4.297
 2855SOL    HW2 9465   2.314   1.493   4.193
 2856SOL     OW 9466   0.292   5.531   4.338
 2856SOL    HW1 9467   0.296   5.523   4.239
 2856SOL    HW2 9468   0.262   5.623   4.363
 2857SOL     OW 9469   6.825   4.622   1.103
 2857SOL    HW1 9470   6.757   4.693   1.080
 2857SOL    HW2 9471   6.885   4.608   1.025
 2858SOL     OW 9472   5.303   4.670   2.183
 2858SOL    HW1 9473   5.378   4.677   2.117
 2858SOL    HW2 9474   5.254   4.584   2.168
 2859SOL     OW 9475   5.656   5.073   1.761
 2859SOL    HW1 9476   5.604   5.057   1.677
 2859SOL    HW2 9477   5.707   4.990   1.785
 2860SOL     OW 9478   1.084   0.359   3.109
 2860SOL    HW1 9479   1.013   0.429   3.099
 2860SOL    HW2 9480   1.041   0.273   3.137
 2861SOL     OW 9481   4.851   4.232   5.769
 2861SOL    HW1 9482   4.854   4.210   5.671
 2861SOL    HW2 9483   4.824   4.328   5.780
 2862SOL     OW 9484   4.715   1.684   0.809
 2862SOL    HW1 9485   4.696   1.722   0.899
 2862SOL    HW2 9486   4.761   1.752   0.753
 2863SOL     OW 9487   5.712   2.370   5.403
 2863SOL    HW1 9488   5.731   2.461   5.366
 2863SOL    HW2 9489   5.798   2.321   5.416
 2864SOL     OW 9490   3.503   4.163   0.587
 2864SOL    HW1 9491   3.427   4.192   0.530
 2864SOL    HW2 9492   3.525   4.067   0.568
 2865SOL     OW 9493   5.663   5.091   5.348
 2865SOL    HW1 9494   5.645   5.190   5.342
 2865SOL    HW2 9495   5.688   5.068   5.442
 2866SOL     OW 9496   3.848   4.699   0.807
 2866SOL    HW1 9497   3.831   4.668   0.900
 2866SOL    HW2 9498   3.914   4.774   0.808
 2867SOL     OW 9499   6.142   6.166   3.318
 2867SOL    HW1 9500   6.129   6.263   3.338
 2867SOL    HW2 9501   6.165   6.116   3.402
 2868SOL     OW 9502   0.414   0.287   5.798
 2868SOL    HW1 9503   0.350   0.328   5.863
 2868SOL    HW2 9504   0.496   0.256   5.847
 2869SOL     OW 9505   6.331   4.568   3.954
 2869SOL    HW1 9506   6.295   4.545   4.044
 2869SOL    HW2 9507   6.393   4.496   3.923
 2870SOL     OW 9508   6.982   1.878   1.762
 2870SOL    HW1 9509   6.933   1.806   1.713
 2870SOL    HW2 9510   0.029   1.922   1.701
 2871SOL     OW 9511   5.239   1.554   3.131
 2871SOL    HW1 9512   5.312   1.609   3.172
 2871SOL    HW2 9513   5.246   1.459   3.164
 2872SOL     OW 9514   2.267   2.138   2.295
 2872SOL    HW1 9515   2.355   2.133   2.247
 2872SOL    HW2 9516   2.220   2.050   2.287
 2873SOL     OW 9517   1.197   0.046   1.504
 2873SOL    HW1 9518   1.120   0.110   1.508
 2873SOL    HW2 9519   1.282   0.094   1.526
 2874SOL     OW 9520   2.045   1.494   3.488
 2874SOL    HW1 9521   2.092   1.538   3.565
 2874SOL    HW2 9522   2.016   1.564   3.422
 2875SOL     OW 9523   2.472   6.996   3.128
 2875SOL    HW1 9524   2.482   6.996   3.029
 2875SOL    HW2 9525   2.412   6.921   3.156
 2876SOL     OW 9526   1.479   6.025   0.945
 2876SOL    HW1 9527   1.489   6.123   0.932
 2876SOL    HW2 9528   1.470   6.005   1.043
 2877SOL     OW 9529   1.572   2.678   5.580
 2877SOL    HW1 9530   1.624   2.687   5.496
 2877SOL    HW2 9531   1.535   2.767   5.606
 2878SOL     OW 9532   4.053   3.197   4.387
 2878SOL    HW1 9533   4.072   3.284   4.343
 2878SOL    HW2 9534   4.078   3.202   4.484
 2879SOL     OW 9535   5.107   4.434   0.115
 2879SOL    HW1 9536   5.113   4.529   0.085
 2879SOL    HW2 9537   5.123   4.429   0.213
 2880SOL     OW 9538   1.858   1.343   3.677
 2880SOL    HW1 9539   1.918   1.422   3.665
 2880SOL    HW2 9540   1.786   1.344   3.608
 2881SOL     OW 9541   5.416   4.898   0.807
 2881SOL    HW1 9542   5.346   4.924   0.873
 2881SOL    HW2 9543   5.372   4.856   0.727
 2882SOL     OW 9544   4.318   6.687   6.973
 2882SOL    HW1 9545   4.263   6.631   0.016
 2882SOL    HW2 9546   4.309   6.784   6.998
 2883SOL     OW 9547   5.899   6.620   3.527
 2883SOL    HW1 9548   5.966   6.584   3.592
 2883SOL    HW2 9549   5.839   6.685   3.573
 2884SOL     OW 9550   6.120   5.782   3.965
 2884SOL    HW1 9551   6.126   5.831   3.878
 2884SOL    HW2 9552   6.030   5.740   3.974
 2885SOL     OW 9553   1.608   2.553   3.965
 2885SOL    HW1 9554   1.608   2.646   3.929
 2885SOL    HW2 9555   1.696   2.533   4.006
 2886SOL     OW 9556   2.183   4.749   5.611
 2886SOL    HW1 9557   2.271   4.771   5.653
 2886SOL    HW2 9558   2.163   4.652   5.625
 2887SOL     OW 9559   0.062   5.697   3.082
 2887SOL    HW1 9560   0.104   5.756   3.151
 2887SOL    HW2 9561   7.001   5.743   3.042
 2888SOL     OW 9562   4.847   6.832   6.095
 2888SOL    HW1 9563   4.833   6.794   6.186
 2888SOL    HW2 9564   4.788   6.912   6.082
 2889SOL     OW 9565   4.629   6.157   4.153
 2889SOL    HW1 9566   4.622   6.226   4.225
 2889SOL    HW2 9567   4.589   6.071   4.186
 2890SOL     OW 9568   0.940   2.368   0.457
 2890SOL    HW1 9569   0.993   2.289   0.489
 2890SOL    HW2 9570   0.846   2.339   0.438
 2891SOL     OW 9571   0.639   1.670   5.487
 2891SOL    HW1 9572   0.548   1.641   5.516
 2891SOL    HW2 9573   0.701   1.591   5.484
 2892SOL     OW 9574   5.445   4.446   1.859
 2892SOL    HW1 9575   5.426   4.374   1.926
 2892SOL    HW2 9576   5.368   4.509   1.855
 2893SOL     OW 9577   6.896   5.540   5.136
 2893SOL    HW1 9578   6.947   5.469   5.185
 2893SOL    HW2 9579   6.868   5.505   5.047
 2894SOL     OW 9580   2.375   5.605   1.805
 2894SOL    HW1 9581   2.414   5.538   1.868
 2894SOL    HW2 9582   2.407   5.586   1.712
 2895SOL     OW 9583   4.069   6.817   5.847
 2895SOL    HW1 9584   4.075   6.913   5.822
 2895SOL    HW2 9585   4.144   6.766   5.806
 2896SOL     OW 9586   6.176   0.428   4.742
 2896SOL    HW1 9587   6.127   0.506   4.704
 2896SOL    HW2 9588   6.239   0.459   4.813
 2897SOL     OW 9589   3.530   5.005   3.154
 2897SOL    HW1 9590   3.602   4.969   3.094
 2897SOL    HW2 9591   3.469   5.064   3.102
 2898SOL     OW 9592   4.745   2.309   2.084
 2898SOL    HW1 9593   4.680   2.235   2.104
 2898SOL    HW2 9594   4.837   2.280   2.110
 2899SOL     OW 9595   6.995   3.397   0.788
 2899SOL    HW1 9596   6.979   3.443   0.875
 2899SOL    HW2 9597   0.074   3.403   0.765
 2900SOL     OW 9598   2.293   2.627   6.020
 2900SOL    HW1 9599   2.245   2.714   6.020
 2900SOL    HW2 9600   2.258   2.569   5.946
 2901SOL     OW 9601   0.901   3.839   2.803
 2901SOL    HW1 9602   0.959   3.886   2.870
 2901SOL    HW2 9603   0.892   3.743   2.828
 2902SOL     OW 9604   5.757   5.275   3.514
 2902SOL    HW1 9605   5.740   5.320   3.427
 2902SOL    HW2 9606   5.845   5.305   3.551
 2903SOL     OW 9607   6.375   4.860   0.532
 2903SOL    HW1 9608   6.281   4.832   0.551
 2903SOL    HW2 9609   6.415   4.799   0.465
 2904SOL     OW 9610   2.347   4.557   4.907
 2904SOL    HW1 9611   2.313   4.475   4.950
 2904SOL    HW2 9612   2.285   4.586   4.834
 2905SOL     OW 9613   1.978   5.439   1.239
 2905SOL    HW1 9614   1.879   5.434   1.252
 2905SOL    HW2 9615   2.019   5.351   1.263
 2906SOL     OW 9616   6.464   6.223   5.243
 2906SOL    HW1 9617   6.383   6.202   5.189
 2906SOL    HW2 9618   6.439   6.284   5.318
 2907SOL     OW 9619   0.734   1.044   5.344
 2907SOL    HW1 9620   0.672   1.067   5.269
 2907SOL    HW2 9621   0.804   1.115   5.352
 2908SOL     OW 9622   4.160   6.974   3.448
 2908SOL    HW1 9623   4.094   6.900   3.460
 2908SOL    HW2 9624   4.252   6.939   3.463
 2909SOL     OW 9625   6.764   6.782   1.683
 2909SOL    HW1 9626   6.827   6.798   1.606
 2909SOL    HW2 9627   6.748   6.683   1.692
 2910SOL     OW 9628   0.776   1.192   4.435
 2910SOL    HW1 9629   0.688   1.225   4.469
 2910SOL    HW2 9630   0.766   1.097   4.406
 2911SOL     OW 9631   0.316   4.329   5.933
 2911SOL    HW1 9632   0.378   4.391   5.885
 2911SOL    HW2 9633   0.369   4.258   5.979
 2912SOL     OW 9634   1.097   1.052   1.251
 2912SOL    HW1 9635   1.111   1.131   1.311
 2912SOL    HW2 9636   1.129   0.969   1.297
 2913SOL     OW 9637   1.990   6.589   3.137
 2913SOL    HW1 9638   2.036   6.531   3.205
 2913SOL    HW2 9639   1.931   6.655   3.185
 2914SOL     OW 9640   3.868   5.248   1.177
 2914SOL    HW1 9641   3.859   5.149   1.163
 2914SOL    HW2 9642   3.861   5.268   1.275
 2915SOL     OW 9643   2.866   0.286   3.420
 2915SOL    HW1 9644   2.846   0.190   3.441
 2915SOL    HW2 9645   2.936   0.320   3.483
 2916SOL     OW 9646   1.248   5.595   0.243
 2916SOL    HW1 9647   1.192   5.573   0.164
 2916SOL    HW2 9648   1.320   5.526   0.253
 2917SOL     OW 9649   2.698   6.667   2.792
 2917SOL    HW1 9650   2.608   6.683   2.752
 2917SOL    HW2 9651   2.766   6.663   2.719
 2918SOL     OW 9652   5.306   2.443   1.950
 2918SOL    HW1 9653   5.301   2.543   1.952
 2918SOL    HW2 9654   5.403   2.415   1.950
 2919SOL     OW 9655   0.008   6.067   4.857
 2919SOL    HW1 9656   0.084   6.132   4.849
 2919SOL    HW2 9657   6.939   6.118   4.857
 2920SOL     OW 9658   2.483   2.444   1.696
 2920SOL    HW1 9659   2.446   2.536   1.704
 2920SOL    HW2 9660   2.566   2.437   1.753
 2921SOL     OW 9661   1.636   5.939   3.308
 2921SOL    HW1 9662   1.609   5.943   3.404
 2921SOL    HW2 9663   1.736   5.939   3.302
 2922SOL     OW 9664   4.185   5.266   4.216
 2922SOL    HW1 9665   4.260   5.200   4.208
 2922SOL    HW2 9666   4.119   5.232   4.283
 2923SOL     OW 9667   0.400   5.653   4.795
 2923SOL    HW1 9668   0.317   5.708   4.789
 2923SOL    HW2 9669   0.421   5.635   4.891
 2924SOL     OW 9670   5.596   2.092   6.414
 2924SOL    HW1 9671   5.625   2.026   6.345
 2924SOL    HW2 9672   5.543   2.044   6.485
 2925SOL     OW 9673   5.932   6.687   4.867
 2925SOL    HW1 9674   5.908   6.647   4.956
 2925SOL    HW2 9675   5.905   6.625   4.794
 2926SOL     OW 9676   6.538   2.469   3.923
 2926SOL    HW1 9677   6.469   2.403   3.953
 2926SOL    HW2 9678   6.526   2.555   3.972
 2927SOL     OW 9679   1.085   2.108   2.093
 2927SOL    HW1 9680   1.174   2.150   2.077
 2927SOL    HW2 9681   1.098   2.010   2.111
 2928SOL     OW 9682   6.015   3.141   0.267
 2928SOL    HW1 9683   6.023   3.171   0.362
 2928SOL    HW2 9684   6.089   3.180   0.213
 2929SOL     OW 9685   2.059   2.267   4.306
 2929SOL    HW1 9686   2.145   2.319   4.300
 2929SOL    HW2 9687   2.041   2.243   4.401
 2930SOL     OW 9688   0.108   3.666   4.305
 2930SOL    HW1 9689   0.020   3.700   4.337
 2930SOL    HW2 9690   0.177   3.737   4.316
 2931SOL     OW 9691   5.785   4.932   5.926
 2931SOL    HW1 9692   5.861   4.879   5.964
 2931SOL    HW2 9693   5.708   4.871   5.909
 2932SOL     OW 9694   5.900   5.227   1.673
 2932SOL    HW1 9695   5.814   5.183   1.698
 2932SOL    HW2 9696   5.975   5.184   1.723
 2933SOL     OW 9697   0.991   6.862   0.077
 2933SOL    HW1 9698   1.025   6.785   0.130
 2933SOL    HW2 9699   0.997   6.946   0.131
 2934SOL     OW 9700   4.450   5.342   1.621
 2934SOL    HW1 9701   4.437   5.247   1.594
 2934SOL    HW2 9702   4.362   5.389   1.619
 2935SOL     OW 9703   0.647   2.781   5.924
 2935SOL    HW1 9704   0.692   2.853   5.977
 2935SOL    HW2 9705   0.650   2.696   5.976
 2936SOL     OW 9706   4.779   6.709   2.414
 2936SOL    HW1 9707   4.766   6.779   2.485
 2936SOL    HW2 9708   4.743   6.743   2.327
 2937SOL     OW 9709   5.687   3.918   3.023
 2937SOL    HW1 9710   5.614   3.986   3.024
 2937SOL    HW2 9711   5.709   3.895   2.928
 2938SOL     OW 9712   0.584   5.813   6.578
 2938SOL    HW1 9713   0.586   5.823   6.678
 2938SOL    HW2 9714   0.672   5.778   6.547
 2939SOL     OW 9715   6.986   5.992   1.268
 2939SOL    HW1 9716   6.973   5.893   1.267
 2939SOL    HW2 9717   6.990   6.024   1.362
 2940SOL     OW 9718   4.928   6.292   3.702
 2940SOL    HW1 9719   5.007   6.353   3.710
 2940SOL    HW2 9720   4.951   6.203   3.742
 2941SOL     OW 9721   2.310   4.676   2.581
 2941SOL    HW1 9722   2.377   4.657   2.510
 2941SOL    HW2 9723   2.221   4.696   2.539
 2942SOL     OW 9724   3.356   1.988   1.633
 2942SOL    HW1 9725   3.432   2.003   1.696
 2942SOL    HW2 9726   3.363   1.896   1.593
 2943SOL     OW 9727   5.911   3.723   3.189
 2943SOL    HW1 9728   5.964   3.749   3.108
 2943SOL    HW2 9729   5.973   3.708   3.266
 2944SOL     OW 9730   1.807   5.993   2.223
 2944SOL    HW1 9731   1.793   5.977   2.321
 2944SOL    HW2 9732   1.779   6.086   2.201
 2945SOL     OW 9733   5.250   3.799   1.400
 2945SOL    HW1 9734   5.155   3.771   1.409
 2945SOL    HW2 9735   5.306   3.749   1.465
 2946SOL     OW 9736   3.770   2.938   4.105
 2946SOL    HW1 9737   3.700   3.009   4.103
 2946SOL    HW2 9738   3.803   2.921   4.012
 2947SOL     OW 9739   6.147   5.652   1.099
 2947SOL    HW1 9740   6.176   5.677   1.007
 2947SOL    HW2 9741   6.161   5.554   1.114
 2948SOL     OW 9742   6.865   3.653   1.935
 2948SOL    HW1 9743   6.931   3.585   1.968
 2948SOL    HW2 9744   6.915   3.732   1.898
 2949SOL     OW 9745   2.213   6.160   0.477
 2949SOL    HW1 9746   2.260   6.230   0.531
 2949SOL    HW2 9747   2.244   6.165   0.382
 2950SOL     OW 9748   6.205   5.977   2.441
 2950SOL    HW1 9749   6.273   5.946   2.507
 2950SOL    HW2 9750   6.250   6.035   2.372
 2951SOL     OW 9751   0.702   1.662   1.318
 2951SOL    HW1 9752   0.707   1.691   1.413
 2951SOL    HW2 9753   0.618   1.697   1.276
 2952SOL     OW 9754   6.933   1.734   5.376
 2952SOL    HW1 9755   6.893   1.795   5.308
 2952SOL    HW2 9756   6.931   1.778   5.465
 2953SOL     OW 9757   1.627   5.186   3.210
 2953SOL    HW1 9758   1.684   5.104   3.200
 2953SOL    HW2 9759   1.618   5.209   3.307
 2954SOL     OW 9760   0.784   4.125   6.223
 2954SOL    HW1 9761   0.744   4.215   6.241
 2954SOL    HW2 9762   0.712   4.056   6.224
 2955SOL     OW 9763   1.528   4.662   6.098
 2955SOL    HW1 9764   1.592   4.658   6.175
 2955SOL    HW2 9765   1.444   4.613   6.122
 2956SOL     OW 9766   5.276   4.512   4.363
 2956SOL    HW1 9767   5.272   4.433   4.302
 2956SOL    HW2 9768   5.197   4.510   4.425
 2957SOL     OW 9769   2.417   5.556   1.531
 2957SOL    HW1 9770   2.511   5.542   1.562
 2957SOL    HW2 9771   2.418   5.604   1.443
 2958SOL     OW 9772   1.590   4.016   2.347
 2958SOL    HW1 9773   1.645   4.076   2.406
 2958SOL    HW2 9774   1.505   4.063   2.323
 2959SOL     OW 9775   0.182   3.626   3.703
 2959SOL    HW1 9776   0.239   3.543   3.702
 2959SOL    HW2 9777   0.196   3.675   3.789
 2960SOL     OW 9778   4.692   6.909   1.332
 2960SOL    HW1 9779   4.761   6.980   1.316
 2960SOL    HW2 9780   4.619   6.919   1.264
 2961SOL     OW 9781   5.657   2.718   1.687
 2961SOL    HW1 9782   5.725   2.693   1.618
 2961SOL    HW2 9783   5.626   2.636   1.735
 2962SOL     OW 9784   6.800   0.214   3.806
 2962SOL    HW1 9785   6.775   0.273   3.729
 2962SOL    HW2 9786   6.719   0.167   3.840
 2963SOL     OW 9787   1.608   0.922   5.355
 2963SOL    HW1 9788   1.603   0.839   5.409
 2963SOL    HW2 9789   1.626   0.899   5.259
 2964SOL     OW 9790   1.490   0.749   6.475
 2964SOL    HW1 9791   1.557   0.682   6.508
 2964SOL    HW2 9792   1.535   0.815   6.416
 2965SOL     OW 9793   6.225   0.472   6.125
 2965SOL    HW1 9794   6.317   0.500   6.097
 2965SOL    HW2 9795   6.232   0.403   6.197
 2966SOL     OW 9796   2.909   5.827   2.155
 2966SOL    HW1 9797   2.823   5.809   2.203
 2966SOL    HW2 9798   2.985   5.787   2.207
 2967SOL     OW 9799   5.648   6.760   5.240
 2967SOL    HW1 9800   5.623   6.823   5.167
 2967SOL    HW2 9801   5.653   6.810   5.327
 2968SOL     OW 9802   0.920   4.166   0.874
 2968SOL    HW1 9803   1.004   4.115   0.860
 2968SOL    HW2 9804   0.862   4.117   0.940
 2969SOL     OW 9805   4.556   2.762   5.123
 2969SOL    HW1 9806   4.611   2.710   5.189
 2969SOL    HW2 9807   4.542   2.706   5.041
 2970SOL     OW 9808   2.762   2.532   5.310
 2970SOL    HW1 9809   2.845   2.577   5.343
 2970SOL    HW2 9810   2.783   2.438   5.282
 2971SOL     OW 9811   4.967   2.952   6.977
 2971SOL    HW1 9812   5.006   2.960   0.050
 2971SOL    HW2 9813   5.037   2.920   6.913
 2972SOL     OW 9814   6.817   5.590   5.982
 2972SOL    HW1 9815   6.804   5.513   5.921
 2972SOL    HW2 9816   6.915   5.610   5.990
 2973SOL     OW 9817   5.189   1.064   4.469
 2973SOL    HW1 9818   5.232   1.131   4.529
 2973SOL    HW2 9819   5.257   1.024   4.409
 2974SOL     OW 9820   4.878   6.817   1.923
 2974SOL    HW1 9821   4.925   6.741   1.877
 2974SOL    HW2 9822   4.844   6.881   1.854
 2975SOL     OW 9823   6.093   3.594   4.889
 2975SOL    HW1 9824   6.075   3.512   4.835
 2975SOL    HW2 9825   6.083   3.675   4.831
 2976SOL     OW 9826   3.308   1.135   1.599
 2976SOL    HW1 9827   3.312   1.040   1.631
 2976SOL    HW2 9828   3.241   1.185   1.654
 2977SOL     OW 9829   1.217   0.915   1.513
 2977SOL    HW1 9830   1.213   0.997   1.570
 2977SOL    HW2 9831   1.137   0.858   1.532
 2978SOL     OW 9832   3.982   5.487   6.473
 2978SOL    HW1 9833   3.984   5.530   6.563
 2978SOL    HW2 9834   4.075   5.464   6.445
 2979SOL     OW 9835   3.103   0.869   4.734
 2979SOL    HW1 9836   3.085   0.911   4.645
 2979SOL    HW2 9837   3.021   0.878   4.792
 2980SOL     OW 9838   3.159   3.002   4.282
 2980SOL    HW1 9839   3.141   2.991   4.380
 2980SOL    HW2 9840   3.231   2.939   4.254
 2981SOL     OW 9841   2.256   1.262   1.373
 2981SOL    HW1 9842   2.243   1.356   1.402
 2981SOL    HW2 9843   2.342   1.227   1.412
 2982SOL     OW 9844   1.996   0.744   1.181
 2982SOL    HW1 9845   1.910   0.795   1.178
 2982SOL    HW2 9846   1.986   0.664   1.240
 2983SOL     OW 9847   6.390   3.386   5.729
 2983SOL    HW1 9848   6.469   3.324   5.730
 2983SOL    HW2 9849   6.415   3.472   5.774
 2984SOL     OW 9850   0.415   5.933   1.466
 2984SOL    HW1 9851   0.479   5.881   1.410
 2984SOL    HW2 9852   0.327   5.885   1.470
 2985SOL     OW 9853   5.756   0.357   6.997
 2985SOL    HW1 9854   5.837   0.358   0.038
 2985SOL    HW2 9855   5.674   0.364   0.034
 2986SOL     OW 9856   3.557   3.230   1.979
 2986SOL    HW1 9857   3.553   3.205   1.882
 2986SOL    HW2 9858   3.652   3.233   2.009
 2987SOL     OW 9859   2.510   6.103   4.558
 2987SOL    HW1 9860   2.561   6.076   4.640
 2987SOL    HW2 9861   2.547   6.055   4.479
 2988SOL     OW 9862   6.345   1.727   5.536
 2988SOL    HW1 9863   6.326   1.769   5.625
 2988SOL    HW2 9864   6.326   1.793   5.464
 2989SOL     OW 9865   5.725   3.402   4.525
 2989SOL    HW1 9866   5.662   3.384   4.601
 2989SOL    HW2 9867   5.796   3.465   4.554
 2990SOL     OW 9868   5.304   2.002   4.982
 2990SOL    HW1 9869   5.391   2.012   5.031
 2990SOL    HW2 9870   5.254   2.088   4.985
 2991SOL     OW 9871   0.210   3.354   0.540
 2991SOL    HW1 9872   0.133   3.394   0.489
 2991SOL    HW2 9873   0.259   3.290   0.480
 2992SOL     OW 9874   0.677   3.790   4.449
 2992SOL    HW1 9875   0.742   3.732   4.399
 2992SOL    HW2 9876   0.586   3.781   4.409
 2993SOL     OW 9877   3.255   4.660   0.999
 2993SOL    HW1 9878   3.183   4.696   0.940
 2993SOL    HW2 9879   3.309   4.594   0.949
 2994SOL     OW 9880   3.238   5.232   4.618
 2994SOL    HW1 9881   3.168   5.248   4.687
 2994SOL    HW2 9882   3.227   5.140   4.580
 2995SOL     OW 9883   4.683   0.881   1.662
 2995SOL    HW1 9884   4.716   0.813   1.727
 2995SOL    HW2 9885   4.587   0.863   1.640
 2996SOL     OW 9886   6.593   0.816   3.802
 2996SOL    HW1 9887   6.655   0.761   3.747
 2996SOL    HW2 9888   6.513   0.762   3.827
 2997SOL     OW 9889   5.030   6.243   4.261
 2997SOL    HW1 9890   4.983   6.304   4.197
 2997SOL    HW2 9891   5.112   6.288   4.296
 2998SOL     OW 9892   2.438   1.067   1.674
 2998SOL    HW1 9893   2.375   1.093   1.747
 2998SOL    HW2 9894   2.525   1.039   1.714
 2999SOL     OW 9895   1.915   4.412   0.967
 2999SOL    HW1 9896   1.909   4.432   1.064
 2999SOL    HW2 9897   1.844   4.346   0.942
 3000SOL     OW 9898   2.232   4.198   5.485
 3000SOL    HW1 9899   2.197   4.106   5.504
 3000SOL    HW2 9900   2.275   4.200   5.395
 3001SOL     OW 9901   3.952   1.019   6.441
 3001SOL    HW1 9902   3.904   0.942   6.399
 3001SOL    HW2 9903   3.956   1.005   6.540
 3002SOL     OW 9904   1.739   1.949   1.908
 3002SOL    HW1 9905   1.784   2.000   1.982
 3002SOL    HW2 9906   1.776   1.857   1.903
 3003SOL     OW 9907   1.510   6.295   0.853
 3003SOL    HW1 9908   1.609   6.284   0.843
 3003SOL    HW2 9909   1.481   6.379   0.807
 3004SOL     OW 9910   2.938   6.684   3.446
 3004SOL    HW1 9911   2.975   6.741   3.373
 3004SOL    HW2 9912   2.839   6.673   3.432
 3005SOL     OW 9913   2.268   1.885   0.683
 3005SOL    HW1 9914   2.364   1.858   0.671
 3005SOL    HW2 9915   2.235   1.850   0.771
 3006SOL     OW 9916   5.035   1.345   5.833
 3006SOL    HW1 9917   5.073   1.425   5.879
 3006SOL    HW2 9918   5.103   1.307   5.769
 3007SOL     OW 9919   6.422   5.866   6.397
 3007SOL    HW1 9920   6.406   5.816   6.482
 3007SOL    HW2 9921   6.335   5.885   6.353
 3008SOL     OW 9922   4.589   3.845   5.523
 3008SOL    HW1 9923   4.600   3.856   5.425
 3008SOL    HW2 9924   4.576   3.748   5.545
 3009SOL     OW 9925   6.082   2.952   2.654
 3009SOL    HW1 9926   6.108   3.042   2.689
 3009SOL    HW2 9927   6.127   2.935   2.567
 3010SOL     OW 9928   4.621   5.267   1.904
 3010SOL    HW1 9929   4.597   5.216   1.987
 3010SOL    HW2 9930   4.548   5.259   1.837
 3011SOL     OW 9931   6.300   0.203   0.331
 3011SOL    HW1 9932   6.270   0.133   0.396
 3011SOL    HW2 9933   6.243   0.198   0.248
 3012SOL     OW 9934   1.970   1.646   5.079
 3012SOL    HW1 9935   2.024   1.715   5.126
 3012SOL    HW2 9936   1.974   1.661   4.980
 3013SOL     OW 9937   0.755   4.590   5.577
 3013SOL    HW1 9938   0.764   4.490   5.579
 3013SOL    HW2 9939   0.707   4.617   5.493
 3014SOL     OW 9940   4.881   0.022   6.378
 3014SOL    HW1 9941   4.838   6.964   6.331
 3014SOL    HW2 9942   4.827   0.046   6.460
 3015SOL     OW 9943   1.913   0.668   5.908
 3015SOL    HW1 9944   2.007   0.654   5.877
 3015SOL    HW2 9945   1.883   0.760   5.881
 3016SOL     OW 9946   2.078   0.389   4.158
 3016SOL    HW1 9947   2.128   0.430   4.234
 3016SOL    HW2 9948   1.992   0.351   4.191
 3017SOL     OW 9949   1.518   5.820   0.265
 3017SOL    HW1 9950   1.566   5.904   0.289
 3017SOL    HW2 9951   1.422   5.841   0.246
 3018SOL     OW 9952   3.328   1.701   1.640
 3018SOL    HW1 9953   3.381   1.659   1.566
 3018SOL    HW2 9954   3.255   1.639   1.669
 3019SOL     OW 9955   1.701   6.990   5.844
 3019SOL    HW1 9956   1.725   0.027   5.923
 3019SOL    HW2 9957   1.727   0.019   5.760
 3020SOL     OW 9958   5.528   4.819   0.095
 3020SOL    HW1 9959   5.484   4.797   0.008
 3020SOL    HW2 9960   5.625   4.836   0.080
 3021SOL     OW 9961   4.742   0.615   4.488
 3021SOL    HW1 9962   4.787   0.579   4.406
 3021SOL    HW2 9963   4.810   0.640   4.556
 3022SOL     OW 9964   4.041   5.940   3.740
 3022SOL    HW1 9965   4.077   6.033   3.728
 3022SOL    HW2 9966   4.036   5.920   3.838
 3023SOL     OW 9967   6.026   4.609   5.089
 3023SOL    HW1 9968   5.939   4.618   5.137
 3023SOL    HW2 9969   6.050   4.512   5.082
 3024SOL     OW 9970   0.052   0.997   0.261
 3024SOL    HW1 9971   0.031   1.088   0.226
 3024SOL    HW2 9972   0.060   1.000   0.361
 3025SOL     OW 9973   4.250   5.689   0.104
 3025SOL    HW1 9974   4.283   5.598   0.079
 3025SOL    HW2 9975   4.255   5.701   0.203
 3026SOL     OW 9976   0.433   0.649   1.981
 3026SOL    HW1 9977   0.343   0.609   1.962
 3026SOL    HW2 9978   0.436   0.743   1.946
 3027SOL     OW 9979   3.932   6.775   0.531
 3027SOL    HW1 9980   3.929   6.717   0.449
 3027SOL    HW2 9981   3.891   6.725   0.607
 3028SOL     OW 9982   3.250   3.693   4.823
 3028SOL    HW1 9983   3.285   3.731   4.738
 3028SOL    HW2 9984   3.307   3.616   4.852
 3029SOL     OW 9985   6.452   3.346   4.805
 3029SOL    HW1 9986   6.493   3.424   4.853
 3029SOL    HW2 9987   6.401   3.290   4.871
 3030SOL     OW 9988   1.697   2.983   6.493
 3030SOL    HW1 9989   1.681   3.002   6.590
 3030SOL    HW2 9990   1.781   2.930   6.482
 3031SOL     OW 9991   0.855   5.351   0.650
 3031SOL    HW1 9992   0.803   5.402   0.581
 3031SOL    HW2 9993   0.860   5.405   0.734
 3032SOL     OW 9994   2.538   6.747   3.561
 3032SOL    HW1 9995   2.576   6.780   3.648
 3032SOL    HW2 9996   2.553   6.816   3.490
 3033SOL     OW 9997   1.461   1.948   5.965
 3033SOL    HW1 9998   1.495   1.909   6.051
 3033SOL    HW2 9999   1.512   2.031   5.944
 3034SOL     OW10000   5.316   3.054   2.837
 3034SOL    HW110001   5.297   3.115   2.759
 3034SOL    HW210002   5.247   2.982   2.841
 3035SOL     OW10003   0.268   3.439   0.099
 3035SOL    HW110004   0.242   3.534   0.088
 3035SOL    HW210005   0.193   3.388   0.140
 3036SOL     OW10006   3.469   2.474   5.858
 3036SOL    HW110007   3.431   2.545   5.798
 3036SOL    HW210008   3.396   2.410   5.884
 3037SOL     OW10009   0.939   5.315   6.661
 3037SOL    HW110010   0.956   5.414   6.661
 3037SOL    HW210011   0.959   5.278   6.570
 3038SOL     OW10012   6.086   5.469   6.363
 3038SOL    HW110013   6.088   5.388   6.421
 3038SOL    HW210014   6.161   5.465   6.296
 3039SOL     OW10015   5.936   3.927   5.928
 3039SOL    HW110016   5.870   4.003   5.930
 3039SOL    HW210017   5.935   3.880   6.016
 3040SOL     OW10018   4.693   5.907   5.886
 3040SOL    HW110019   4.723   5.892   5.792
 3040SOL    HW210020   4.742   5.985   5.925
 3041SOL     OW10021   0.987   4.438   5.861
 3041SOL    HW110022   0.926   4.510   5.895
 3041SOL    HW210023   1.078   4.476   5.844
 3042SOL     OW10024   0.121   4.938   3.770
 3042SOL    HW110025   0.075   5.002   3.831
 3042SOL    HW210026   0.141   4.853   3.818
 3043SOL     OW10027   2.684   4.977   1.650
 3043SOL    HW110028   2.692   5.074   1.631
 3043SOL    HW210029   2.731   4.955   1.736
 3044SOL     OW10030   3.758   3.463   4.697
 3044SOL    HW110031   3.842   3.515   4.709
 3044SOL    HW210032   3.744   3.444   4.600
 3045SOL     OW10033   5.446   1.706   2.331
 3045SOL    HW110034   5.497   1.668   2.254
 3045SOL    HW210035   5.507   1.718   2.409
 3046SOL     OW10036   5.870   6.664   1.676
 3046SOL    HW110037   5.865   6.692   1.771
 3046SOL    HW210038   5.854   6.565   1.669
 3047SOL     OW10039   6.365   1.280   4.501
 3047SOL    HW110040   6.435   1.252   4.434
 3047SOL    HW210041   6.287   1.318   4.453
 3048SOL     OW10042   4.420   4.842   1.493
 3048SOL    HW110043   4.419   4.755   1.542
 3048SOL    HW210044   4.514   4.872   1.480
 3049SOL     OW10045   0.924   2.009   2.511
 3049SOL    HW110046   0.990   2.073   2.472
 3049SOL    HW210047   0.833   2.028   2.474
 3050SOL     OW10048   3.305   2.260   6.608
 3050SOL    HW110049   3.252   2.345   6.619
 3050SOL    HW210050   3.393   2.270   6.653
 3051SOL     OW10051   2.435   5.281   5.422
 3051SOL    HW110052   2.360   5.337   5.456
 3051SOL    HW210053   2.444   5.294   5.324
 3052SOL     OW10054   0.109   6.635   4.034
 3052SOL    HW110055   0.190   6.611   3.981
 3052SOL    HW210056   0.038   6.671   3.973
 3053SOL     OW10057   0.797   3.977   6.856
 3053SOL    HW110058   0.777   4.067   6.894
 3053SOL    HW210059   0.761   3.906   6.918
 3054SOL     OW10060   5.430   0.395   2.983
 3054SOL    HW110061   5.438   0.394   3.082
 3054SOL    HW210062   5.476   0.476   2.946
 3055SOL     OW10063   5.749   6.501   0.525
 3055SOL    HW110064   5.838   6.471   0.490
 3055SOL    HW210065   5.726   6.590   0.484
 3056SOL     OW10066   4.017   1.539   6.538
 3056SOL    HW110067   4.011   1.441   6.518
 3056SOL    HW210068   3.938   1.586   6.500
 3057SOL     OW10069   5.225   3.850   3.181
 3057SOL    HW110070   5.170   3.917   3.232
 3057SOL    HW210071   5.294   3.811   3.242
 3058SOL     OW10072   0.295   5.555   5.807
 3058SOL    HW110073   0.223   5.560   5.738
 3058SOL    HW210074   0.278   5.478   5.868
 3059SOL     OW10075   1.434   1.836   2.113
 3059SOL    HW110076   1.422   1.931   2.141
 3059SOL    HW210077   1.401   1.775   2.185
 3060SOL     OW10078   5.460   4.093   3.618
 3060SOL    HW110079   5.446   4.031   3.694
 3060SOL    HW210080   5.528   4.055   3.555
 3061SOL     OW10081   5.723   6.807   3.666
 3061SOL    HW110082   5.657   6.808   3.740
 3061SOL    HW210083   5.690   6.863   3.590
 3062SOL     OW10084   3.846   5.203   1.572
 3062SOL    HW110085   3.895   5.278   1.527
 3062SOL    HW210086   3.755   5.194   1.531
 3063SOL     OW10087   6.466   4.833   1.921
 3063SOL    HW110088   6.455   4.756   1.983
 3063SOL    HW210089   6.458   4.919   1.973
 3064SOL     OW10090   5.026   2.263   6.637
 3064SOL    HW110091   4.962   2.309   6.698
 3064SOL    HW210092   5.062   2.329   6.570
 3065SOL     OW10093   5.598   1.105   6.605
 3065SOL    HW110094   5.563   1.147   6.688
 3065SOL    HW210095   5.589   1.169   6.529
 3066SOL     OW10096   5.354   0.052   5.541
 3066SOL    HW110097   5.392   0.041   5.633
 3066SOL    HW210098   5.256   0.071   5.548
 3067SOL     OW10099   1.268   2.269   5.151
 3067SOL    HW110100   1.289   2.187   5.098
 3067SOL    HW210101   1.172   2.267   5.179
 3068SOL     OW10102   6.448   0.392   0.468
 3068SOL    HW110103   6.540   0.357   0.484
 3068SOL    HW210104   6.391   0.320   0.427
 3069SOL     OW10105   5.273   6.445   4.026
 3069SOL    HW110106   5.345   6.472   3.961
 3069SOL    HW210107   5.247   6.350   4.010
 3070SOL     OW10108   2.232   0.907   1.205
 3070SOL    HW110109   2.197   0.998   1.225
 3070SOL    HW210110   2.156   0.841   1.207
 3071SOL     OW10111   5.985   4.607   5.413
 3071SOL    HW110112   5.885   4.602   5.409
 3071SOL    HW210113   6.014   4.698   5.382
 3072SOL     OW10114   1.973   6.886   6.044
 3072SOL    HW110115   1.940   6.811   5.987
 3072SOL    HW210116   1.984   6.968   5.988
 3073SOL     OW10117   0.156   5.354   2.041
 3073SOL    HW110118   0.220   5.399   1.979
 3073SOL    HW210119   0.171   5.255   2.038
 3074SOL     OW10120   3.366   2.880   1.611
 3074SOL    HW110121   3.389   2.842   1.522
 3074SOL    HW210122   3.450   2.903   1.660
 3075SOL     OW10123   3.918   4.880   1.438
 3075SOL    HW110124   3.882   4.789   1.459
 3075SOL    HW210125   3.904   4.900   1.340
 3076SOL     OW10126   1.077   1.178   4.681
 3076SOL    HW110127   1.082   1.185   4.781
 3076SOL    HW210128   1.142   1.241   4.639
 3077SOL     OW10129   6.642   3.810   2.002
 3077SOL    HW110130   6.721   3.749   2.010
 3077SOL    HW210131   6.564   3.770   2.050
 3078SOL     OW10132   0.186   3.400   1.753
 3078SOL    HW110133   0.166   3.468   1.823
 3078SOL    HW210134   0.113   3.331   1.751
 3079SOL     OW10135   2.247   3.984   4.555
 3079SOL    HW110136   2.217   3.918   4.486
 3079SOL    HW210137   2.338   3.959   4.588
 3080SOL     OW10138   4.270   4.934   1.237
 3080SOL    HW110139   4.366   4.907   1.228
 3080SOL    HW210140   4.250   5.008   1.173
 3081SOL     OW10141   2.056   3.807   6.306
 3081SOL    HW110142   1.970   3.857   6.311
 3081SOL    HW210143   2.124   3.851   6.365
 3082SOL     OW10144   5.534   4.663   5.103
 3082SOL    HW110145   5.522   4.697   5.009
 3082SOL    HW210146   5.496   4.571   5.110
 3083SOL     OW10147   3.688   5.490   1.765
 3083SOL    HW110148   3.706   5.588   1.769
 3083SOL    HW210149   3.618   5.471   1.696
 3084SOL     OW10150   6.901   4.854   3.626
 3084SOL    HW110151   6.986   4.880   3.672
 3084SOL    HW210152   6.920   4.835   3.529
 3085SOL     OW10153   5.900   5.406   0.316
 3085SOL    HW110154   5.804   5.431   0.304
 3085SOL    HW210155   5.907   5.330   0.380
 3086SOL     OW10156   6.381   6.171   6.302
 3086SOL    HW110157   6.425   6.184   6.391
 3086SOL    HW210158   6.293   6.126   6.314
 3087SOL     OW10159   3.847   0.240   2.198
 3087SOL    HW110160   3.785   0.251   2.276
 3087SOL    HW210161   3.797   0.200   2.121
 3088SOL     OW10162   1.975   3.816   5.640
 3088SOL    HW110163   2.006   3.852   5.552
 3088SOL    HW210164   2.049   3.823   5.707
 3089SOL     OW10165   4.627   5.338   5.568
 3089SOL    HW110166   4.546   5.387   5.534
 3089SOL    HW210167   4.687   5.401   5.616
 3090SOL     OW10168   0.607   2.922   2.369
 3090SOL    HW110169   0.705   2.939   2.354
 3090SOL    HW210170   0.564   2.898   2.282
 3091SOL     OW10171   1.052   3.030   1.165
 3091SOL    HW110172   0.966   2.982   1.151
 3091SOL    HW210173   1.091   3.005   1.253
 3092SOL     OW10174   6.195   1.285   2.069
 3092SOL    HW110175   6.189   1.291   1.970
 3092SOL    HW210176   6.286   1.313   2.099
 3093SOL     OW10177   6.655   5.544   6.662
 3093SOL    HW110178   6.559   5.538   6.637
 3093SOL    HW210179   6.668   5.616   6.730
 3094SOL     OW10180   2.510   1.733   6.610
 3094SOL    HW110181   2.493   1.731   6.511
 3094SOL    HW210182   2.446   1.672   6.656
 3095SOL     OW10183   1.212   4.140   5.098
 3095SOL    HW110184   1.219   4.164   5.195
 3095SOL    HW210185   1.217   4.041   5.087
 3096SOL     OW10186   1.391   3.284   4.235
 3096SOL    HW110187   1.358   3.189   4.234
 3096SOL    HW210188   1.476   3.289   4.289
 3097SOL     OW10189   5.838   2.872   5.031
 3097SOL    HW110190   5.925   2.906   5.067
 3097SOL    HW210191   5.800   2.940   4.969
 3098SOL     OW10192   1.820   3.140   2.710
 3098SOL    HW110193   1.782   3.122   2.801
 3098SOL    HW210194   1.842   3.053   2.666
 3099SOL     OW10195   0.263   6.917   5.256
 3099SOL    HW110196   0.216   6.914   5.168
 3099SOL    HW210197   0.217   6.982   5.317
 3100SOL     OW10198   5.348   4.816   1.691
 3100SOL    HW110199   5.431   4.834   1.637
 3100SOL    HW210200   5.329   4.718   1.690
 3101SOL     OW10201   4.827   6.984   5.097
 3101SOL    HW110202   4.829   6.972   5.197
 3101SOL    HW210203   4.845   0.062   5.075
 3102SOL     OW10204   5.950   4.533   1.980
 3102SOL    HW110205   5.867   4.554   1.927
 3102SOL    HW210206   5.975   4.612   2.036
 3103SOL     OW10207   2.174   1.984   1.528
 3103SOL    HW110208   2.230   2.045   1.585
 3103SOL    HW210209   2.078   2.008   1.537
 3104SOL     OW10210   5.672   2.642   4.974
 3104SOL    HW110211   5.729   2.724   4.979
 3104SOL    HW210212   5.579   2.664   5.005
 3105SOL     OW10213   5.511   3.862   0.644
 3105SOL    HW110214   5.513   3.788   0.712
 3105SOL    HW210215   5.505   3.823   0.552
 3106SOL     OW10216   5.209   1.705   5.554
 3106SOL    HW110217   5.280   1.637   5.535
 3106SOL    HW210218   5.207   1.723   5.652
 3107SOL     OW10219   3.309   1.942   5.257
 3107SOL    HW110220   3.242   1.947   5.183
 3107SOL    HW210221   3.358   2.030   5.263
 3108SOL     OW10222   2.155   4.171   3.338
 3108SOL    HW110223   2.189   4.174   3.243
 3108SOL    HW210224   2.136   4.264   3.369
 3109SOL     OW10225   6.846   6.621   3.605
 3109SOL    HW110226   6.805   6.712   3.610
 3109SOL    HW210227   6.942   6.630   3.577
 3110SOL     OW10228   1.138   5.456   3.396
 3110SOL    HW110229   1.097   5.517   3.465
 3110SOL    HW210230   1.066   5.406   3.349
 3111SOL     OW10231   5.976   3.844   3.762
 3111SOL    HW110232   5.991   3.915   3.830
 3111SOL    HW210233   5.879   3.843   3.735
 3112SOL     OW10234   3.816   1.295   6.902
 3112SOL    HW110235   3.775   1.360   6.966
 3112SOL    HW210236   3.915   1.307   6.901
 3113SOL     OW10237   1.423   6.302   3.391
 3113SOL    HW110238   1.394   6.217   3.348
 3113SOL    HW210239   1.464   6.362   3.322
 3114SOL     OW10240   4.565   0.538   5.707
 3114SOL    HW110241   4.554   0.439   5.700
 3114SOL    HW210242   4.535   0.569   5.797
 3115SOL     OW10243   5.527   5.355   5.318
 3115SOL    HW110244   5.587   5.434   5.304
 3115SOL    HW210245   5.496   5.321   5.229
 3116SOL     OW10246   0.642   1.190   6.591
 3116SOL    HW110247   0.598   1.127   6.527
 3116SOL    HW210248   0.686   1.264   6.540
 3117SOL     OW10249   4.446   0.066   0.922
 3117SOL    HW110250   4.444   6.995   0.878
 3117SOL    HW210251   4.353   0.094   0.946
 3118SOL     OW10252   1.699   1.442   3.903
 3118SOL    HW110253   1.733   1.424   3.811
 3118SOL    HW210254   1.768   1.412   3.970
 3119SOL     OW10255   4.819   5.834   4.895
 3119SOL    HW110256   4.829   5.850   4.797
 3119SOL    HW210257   4.900   5.785   4.929
 3120SOL     OW10258   2.144   5.028   6.623
 3120SOL    HW110259   2.237   4.991   6.616
 3120SOL    HW210260   2.124   5.082   6.541
 3121SOL     OW10261   4.269   2.252   4.269
 3121SOL    HW110262   4.197   2.204   4.219
 3121SOL    HW210263   4.349   2.262   4.209
 3122SOL     OW10264   5.715   5.181   5.901
 3122SOL    HW110265   5.755   5.090   5.887
 3122SOL    HW210266   5.750   5.220   5.986
 3123SOL     OW10267   1.379   1.389   3.216
 3123SOL    HW110268   1.470   1.369   3.179
 3123SOL    HW210269   1.387   1.457   3.288
 3124SOL     OW10270   4.670   0.042   4.846
 3124SOL    HW110271   4.573   0.056   4.865
 3124SOL    HW210272   4.706   6.991   4.908
 3125SOL     OW10273   1.922   1.376   5.771
 3125SOL    HW110274   1.922   1.468   5.811
 3125SOL    HW210275   1.880   1.312   5.835
 3126SOL     OW10276   5.230   4.786   5.755
 3126SOL    HW110277   5.268   4.839   5.679
 3126SOL    HW210278   5.153   4.836   5.795
 3127SOL     OW10279   0.214   1.497   5.408
 3127SOL    HW110280   0.143   1.502   5.479
 3127SOL    HW210281   0.176   1.530   5.321
 3128SOL     OW10282   3.529   0.496   0.606
 3128SOL    HW110283   3.588   0.482   0.685
 3128SOL    HW210284   3.455   0.428   0.607
 3129SOL     OW10285   4.429   3.862   0.227
 3129SOL    HW110286   4.386   3.851   0.317
 3129SOL    HW210287   4.493   3.787   0.211
 3130SOL     OW10288   0.176   5.682   2.391
 3130SOL    HW110289   0.176   5.619   2.469
 3130SOL    HW210290   0.146   5.772   2.422
 3131SOL     OW10291   6.356   3.948   2.890
 3131SOL    HW110292   6.440   3.923   2.841
 3131SOL    HW210293   6.322   3.869   2.941
 3132SOL     OW10294   4.759   4.151   0.359
 3132SOL    HW110295   4.770   4.219   0.286
 3132SOL    HW210296   4.825   4.077   0.346
 3133SOL     OW10297   4.877   6.959   4.637
 3133SOL    HW110298   4.912   6.919   4.722
 3133SOL    HW210299   4.803   0.004   4.657
 3134SOL     OW10300   6.216   5.044   2.458
 3134SOL    HW110301   6.291   5.084   2.511
 3134SOL    HW210302   6.236   4.948   2.439
 3135SOL     OW10303   3.528   5.818   6.811
 3135SOL    HW110304   3.546   5.872   6.729
 3135SOL    HW210305   3.546   5.722   6.792
 3136SOL     OW10306   6.017   0.619   3.092
 3136SOL    HW110307   6.011   0.707   3.046
 3136SOL    HW210308   6.106   0.610   3.137
 3137SOL     OW10309   4.667   5.895   0.484
 3137SOL    HW110310   4.714   5.970   0.437
 3137SOL    HW210311   4.689   5.808   0.439
 3138SOL     OW10312   6.657   6.631   5.309
 3138SOL    HW110313   6.621   6.698   5.374
 3138SOL    HW210314   6.669   6.543   5.356
 3139SOL     OW10315   1.965   5.185   1.747
 3139SOL    HW110316   1.916   5.193   1.833
 3139SOL    HW210317   2.042   5.121   1.758
 3140SOL     OW10318   6.907   6.157   0.275
 3140SOL    HW110319   6.987   6.139   0.217
 3140SOL    HW210320   6.845   6.220   0.227
 3141SOL     OW10321   5.711   1.880   6.685
 3141SOL    HW110322   5.723   1.908   6.780
 3141SOL    HW210323   5.620   1.907   6.654
 3142SOL     OW10324   4.755   0.928   3.734
 3142SOL    HW110325   4.666   0.885   3.752
 3142SOL    HW210326   4.817   0.908   3.810
 3143SOL     OW10327   6.779   1.242   0.906
 3143SOL    HW110328   6.813   1.331   0.876
 3143SOL    HW210329   6.756   1.186   0.826
 3144SOL     OW10330   3.333   4.642   0.061
 3144SOL    HW110331   3.364   4.736   0.076
 3144SOL    HW210332   3.289   4.607   0.144
 3145SOL     OW10333   0.439   6.074   0.329
 3145SOL    HW110334   0.445   6.158   0.384
 3145SOL    HW210335   0.516   6.070   0.266
 3146SOL     OW10336   6.874   1.866   4.228
 3146SOL    HW110337   6.900   1.770   4.215
 3146SOL    HW210338   6.837   1.878   4.320
 3147SOL     OW10339   3.950   6.369   0.060
 3147SOL    HW110340   3.867   6.350   0.112
 3147SOL    HW210341   3.928   6.375   6.981
 3148SOL     OW10342   6.820   5.026   1.530
 3148SOL    HW110343   6.913   5.057   1.509
 3148SOL    HW210344   6.825   4.944   1.587
 3149SOL     OW10345   3.457   2.779   6.893
 3149SOL    HW110346   3.551   2.795   6.924
 3149SOL    HW210347   3.398   2.763   6.973
 3150SOL     OW10348   0.044   6.630   5.750
 3150SOL    HW110349   0.019   6.727   5.750
 3150SOL    HW210350   0.010   6.587   5.834
 3151SOL     OW10351   6.997   0.849   5.350
 3151SOL    HW110352   0.046   0.777   5.371
 3151SOL    HW210353   6.984   0.907   5.430
 3152SOL     OW10354   1.711   2.654   5.333
 3152SOL    HW110355   1.809   2.659   5.317
 3152SOL    HW210356   1.663   2.701   5.259
 3153SOL     OW10357   5.328   5.457   1.755
 3153SOL    HW110358   5.283   5.494   1.836
 3153SOL    HW210359   5.403   5.397   1.784
 3154SOL     OW10360   4.003   1.404   0.818
 3154SOL    HW110361   4.052   1.477   0.865
 3154SOL    HW210362   3.925   1.375   0.875
 3155SOL     OW10363   1.163   4.829   6.787
 3155SOL    HW110364   1.146   4.917   6.743
 3155SOL    HW210365   1.215   4.844   6.871
 3156SOL     OW10366   4.384   4.584   0.922
 3156SOL    HW110367   4.337   4.524   0.857
 3156SOL    HW210368   4.348   4.677   0.914
 3157SOL     OW10369   1.282   0.901   4.966
 3157SOL    HW110370   1.307   0.941   5.055
 3157SOL    HW210371   1.364   0.876   4.916
 3158SOL     OW10372   2.000   1.042   5.330
 3158SOL    HW110373   1.915   1.040   5.383
 3158SOL    HW210374   2.055   1.121   5.358
 3159SOL     OW10375   4.908   0.341   0.801
 3159SOL    HW110376   4.990   0.395   0.822
 3159SOL    HW210377   4.928   0.244   0.816
 3160SOL     OW10378   1.820   0.741   5.165
 3160SOL    HW110379   1.918   0.755   5.175
 3160SOL    HW210380   1.795   0.738   5.069
 3161SOL     OW10381   1.869   3.215   2.238
 3161SOL    HW110382   1.840   3.295   2.185
 3161SOL    HW210383   1.955   3.235   2.285
 3162SOL     OW10384   1.077   5.555   1.582
 3162SOL    HW110385   1.044   5.546   1.676
 3162SOL    HW210386   1.173   5.580   1.583
 3163SOL     OW10387   4.243   4.155   0.402
 3163SOL    HW110388   4.150   4.123   0.382
 3163SOL    HW210389   4.270   4.224   0.335
 3164SOL     OW10390   2.686   6.789   3.785
 3164SOL    HW110391   2.733   6.720   3.839
 3164SOL    HW210392   2.752   6.854   3.748
 3165SOL     OW10393   1.403   6.074   6.289
 3165SOL    HW110394   1.348   6.001   6.248
 3165SOL    HW210395   1.387   6.160   6.240
 3166SOL     OW10396   4.593   0.961   5.151
 3166SOL    HW110397   4.546   1.049   5.158
 3166SOL    HW210398   4.525   0.889   5.138
 3167SOL     OW10399   5.677   3.128   1.158
 3167SOL    HW110400   5.695   3.029   1.155
 3167SOL    HW210401   5.620   3.154   1.081
 3168SOL     OW10402   4.458   1.517   0.367
 3168SOL    HW110403   4.519   1.576   0.315
 3168SOL    HW210404   4.487   1.514   0.463
 3169SOL     OW10405   1.814   4.272   1.563
 3169SOL    HW110406   1.715   4.272   1.549
 3169SOL    HW210407   1.856   4.334   1.497
 3170SOL     OW10408   2.172   3.838   3.872
 3170SOL    HW110409   2.076   3.847   3.899
 3170SOL    HW210410   2.204   3.746   3.892
 3171SOL     OW10411   5.269   1.726   3.706
 3171SOL    HW110412   5.182   1.702   3.664
 3171SOL    HW210413   5.261   1.721   3.806
 3172SOL     OW10414   5.598   4.432   1.640
 3172SOL    HW110415   5.582   4.348   1.589
 3172SOL    HW210416   5.524   4.446   1.706
 3173SOL     OW10417   5.082   2.398   0.869
 3173SOL    HW110418   5.014   2.411   0.941
 3173SOL    HW210419   5.147   2.328   0.897
 3174SOL     OW10420   3.391   2.455   6.241
 3174SOL    HW110421   3.433   2.546   6.230
 3174SOL    HW210422   3.379   2.414   6.151
 3175SOL     OW10423   5.464   0.046   5.798
 3175SOL    HW110424   5.505   0.016   5.884
 3175SOL    HW210425   5.496   0.138   5.776
 3176SOL     OW10426   0.321   4.985   3.559
 3176SOL    HW110427   0.394   5.052   3.571
 3176SOL    HW210428   0.263   4.982   3.640
 3177SOL     OW10429   5.404   3.041   3.726
 3177SOL    HW110430   5.375   2.961   3.673
 3177SOL    HW210431   5.397   3.020   3.823
 3178SOL     OW10432   0.593   0.624   2.203
 3178SOL    HW110433   0.535   0.652   2.126
 3178SOL    HW210434   0.551   0.653   2.289
 3179SOL     OW10435   1.133   2.659   2.589
 3179SOL    HW110436   1.081   2.681   2.672
 3179SOL    HW210437   1.206   2.726   2.577
 3180SOL     OW10438   6.993   5.828   6.935
 3180SOL    HW110439   0.005   5.911   6.983
 3180SOL    HW210440   0.055   5.777   6.905
 3181SOL     OW10441   1.000   6.605   5.767
 3181SOL    HW110442   1.049   6.551   5.698
 3181SOL    HW210443   1.063   6.668   5.811
 3182SOL     OW10444   1.831   0.358   1.098
 3182SOL    HW110445   1.844   0.353   0.999
 3182SOL    HW210446   1.873   0.278   1.141
 3183SOL     OW10447   4.116   3.068   1.137
 3183SOL    HW110448   4.073   3.034   1.221
 3183SOL    HW210449   4.122   3.168   1.141
 3184SOL     OW10450   6.341   1.925   4.229
 3184SOL    HW110451   6.384   1.836   4.213
 3184SOL    HW210452   6.244   1.920   4.203
 3185SOL     OW10453   0.460   6.022   6.421
 3185SOL    HW110454   0.477   5.957   6.496
 3185SOL    HW210455   0.363   6.024   6.400
 3186SOL     OW10456   0.301   2.719   6.421
 3186SOL    HW110457   0.301   2.633   6.472
 3186SOL    HW210458   0.393   2.738   6.386
 3187SOL     OW10459   5.259   6.439   2.922
 3187SOL    HW110460   5.278   6.532   2.890
 3187SOL    HW210461   5.320   6.375   2.875
 3188SOL     OW10462   1.935   6.175   0.403
 3188SOL    HW110463   2.027   6.137   0.390
 3188SOL    HW210464   1.918   6.188   0.500
 3189SOL     OW10465   3.485   1.364   5.423
 3189SOL    HW110466   3.438   1.293   5.476
 3189SOL    HW210467   3.503   1.443   5.483
 3190SOL     OW10468   6.124   6.164   4.402
 3190SOL    HW110469   6.067   6.171   4.321
 3190SOL    HW210470   6.220   6.175   4.375
 3191SOL     OW10471   3.509   5.655   1.387
 3191SOL    HW110472   3.485   5.726   1.454
 3191SOL    HW210473   3.555   5.697   1.309
 3192SOL     OW10474   5.573   0.994   2.574
 3192SOL    HW110475   5.539   1.010   2.481
 3192SOL    HW210476   5.557   1.076   2.629
 3193SOL     OW10477   3.407   6.496   5.000
 3193SOL    HW110478   3.327   6.462   4.951
 3193SOL    HW210479   3.440   6.426   5.064
 3194SOL     OW10480   1.770   0.135   6.556
 3194SOL    HW110481   1.675   0.111   6.577
 3194SOL    HW210482   1.817   0.054   6.520
 3195SOL     OW10483   1.080   0.922   0.848
 3195SOL    HW110484   1.158   0.983   0.855
 3195SOL    HW210485   1.088   0.867   0.765
 3196SOL     OW10486   5.678   6.890   3.418
 3196SOL    HW110487   5.629   6.806   3.393
 3196SOL    HW210488   5.769   6.890   3.375
 3197SOL     OW10489   2.133   0.232   6.227
 3197SOL    HW110490   2.107   0.328   6.218
 3197SOL    HW210491   2.050   0.177   6.242
 3198SOL     OW10492   5.782   2.412   3.885
 3198SOL    HW110493   5.775   2.382   3.790
 3198SOL    HW210494   5.757   2.337   3.946
 3199SOL     OW10495   5.056   3.689   2.570
 3199SOL    HW110496   5.024   3.595   2.564
 3199SOL    HW210497   5.152   3.690   2.600
 3200SOL     OW10498   5.313   3.564   3.813
 3200SOL    HW110499   5.409   3.580   3.835
 3200SOL    HW210500   5.255   3.615   3.876
 3201SOL     OW10501   5.939   4.339   2.398
 3201SOL    HW110502   6.002   4.315   2.324
 3201SOL    HW210503   5.845   4.331   2.365
 3202SOL     OW10504   2.457   3.355   6.915
 3202SOL    HW110505   2.469   3.385   7.009
 3202SOL    HW210506   2.409   3.425   6.863
 3203SOL     OW10507   3.236   6.694   1.416
 3203SOL    HW110508   3.201   6.601   1.405
 3203SOL    HW210509   3.160   6.759   1.412
 3204SOL     OW10510   3.611   1.274   4.073
 3204SOL    HW110511   3.667   1.198   4.106
 3204SOL    HW210512   3.544   1.299   4.142
 3205SOL     OW10513   4.643   3.233   6.131
 3205SOL    HW110514   4.612   3.287   6.209
 3205SOL    HW210515   4.573   3.167   6.106
 3206SOL     OW10516   2.813   3.884   1.367
 3206SOL    HW110517   2.878   3.809   1.354
 3206SOL    HW210518   2.837   3.934   1.451
 3207SOL     OW10519   1.888   5.465   5.193
 3207SOL    HW110520   1.980   5.497   5.218
 3207SOL    HW210521   1.854   5.405   5.265
 3208SOL     OW10522   6.588   4.976   6.747
 3208SOL    HW110523   6.669   4.977   6.689
 3208SOL    HW210524   6.612   4.943   6.838
 3209SOL     OW10525   5.046   6.503   6.252
 3209SOL    HW110526   4.957   6.460   6.236
 3209SOL    HW210527   5.044   6.597   6.220
 3210SOL     OW10528   5.185   5.831   1.842
 3210SOL    HW110529   5.156   5.927   1.836
 3210SOL    HW210530   5.258   5.814   1.775
 3211SOL     OW10531   2.046   6.281   6.443
 3211SOL    HW110532   1.948   6.279   6.462
 3211SOL    HW210533   2.093   6.324   6.520
 3212SOL     OW10534   2.563   6.945   3.365
 3212SOL    HW110535   2.662   6.955   3.366
 3212SOL    HW210536   2.527   6.973   3.277
 3213SOL     OW10537   1.244   6.683   6.339
 3213SOL    HW110538   1.190   6.601   6.359
 3213SOL    HW210539   1.185   6.754   6.303
 3214SOL     OW10540   3.498   0.697   2.913
 3214SOL    HW110541   3.426   0.760   2.941
 3214SOL    HW210542   3.556   0.674   2.992
 3215SOL     OW10543   1.628   3.371   1.842
 3215SOL    HW110544   1.641   3.469   1.856
 3215SOL    HW210545   1.716   3.324   1.855
 3216SOL     OW10546   6.382   4.874   1.132
 3216SOL    HW110547   6.351   4.826   1.214
 3216SOL    HW210548   6.472   4.914   1.149
 3217SOL     OW10549   0.164   6.106   2.302
 3217SOL    HW110550   0.255   6.070   2.282
 3217SOL    HW210551   0.162   6.143   2.395
 3218SOL     OW10552   5.417   1.223   2.731
 3218SOL    HW110553   5.512   1.254   2.730
 3218SOL    HW210554   5.391   1.199   2.824
 3219SOL     OW10555   6.846   1.622   4.939
 3219SOL    HW110556   6.823   1.579   5.027
 3219SOL    HW210557   6.771   1.609   4.875
 3220SOL     OW10558   0.211   4.405   6.363
 3220SOL    HW110559   0.142   4.389   6.433
 3220SOL    HW210560   0.213   4.327   6.300
 3221SOL     OW10561   3.169   1.514   1.802
 3221SOL    HW110562   3.088   1.522   1.860
 3221SOL    HW210563   3.251   1.530   1.857
 3222SOL     OW10564   3.056   1.209   3.242
 3222SOL    HW110565   3.012   1.121   3.225
 3222SOL    HW210566   2.999   1.265   3.301
 3223SOL     OW10567   1.565   5.063   0.421
 3223SOL    HW110568   1.468   5.070   0.396
 3223SOL    HW210569   1.573   5.062   0.521
 3224SOL     OW10570   4.024   1.653   4.014
 3224SOL    HW110571   3.965   1.573   4.027
 3224SOL    HW210572   3.983   1.732   4.059
 3225SOL     OW10573   4.325   0.961   4.385
 3225SOL    HW110574   4.269   0.943   4.466
 3225SOL    HW210575   4.420   0.937   4.405
 3226SOL     OW10576   5.702   0.377   0.759
 3226SOL    HW110577   5.650   0.320   0.822
 3226SOL    HW210578   5.669   0.471   0.763
 3227SOL     OW10579   5.779   4.600   5.201
 3227SOL    HW110580   5.759   4.510   5.241
 3227SOL    HW210581   5.695   4.639   5.164
 3228SOL     OW10582   2.648   4.289   0.296
 3228SOL    HW110583   2.624   4.193   0.281
 3228SOL    HW210584   2.745   4.295   0.320
 3229SOL     OW10585   1.688   1.928   0.524
 3229SOL    HW110586   1.758   1.988   0.485
 3229SOL    HW210587   1.729   1.872   0.596
 3230SOL     OW10588   3.127   6.233   5.528
 3230SOL    HW110589   3.161   6.228   5.434
 3230SOL    HW210590   3.051   6.170   5.540
 3231SOL     OW10591   1.849   2.014   2.874
 3231SOL    HW110592   1.945   2.030   2.853
 3231SOL    HW210593   1.808   2.099   2.908
 3232SOL     OW10594   3.791   4.999   4.567
 3232SOL    HW110595   3.751   4.910   4.543
 3232SOL    HW210596   3.718   5.064   4.587
 3233SOL     OW10597   1.162   0.660   0.314
 3233SOL    HW110598   1.163   0.632   0.218
 3233SOL    HW210599   1.246   0.710   0.335
 3234SOL     OW10600   3.131   3.047   0.747
 3234SOL    HW110601   3.084   3.125   0.707
 3234SOL    HW210602   3.159   2.984   0.674
 3235SOL     OW10603   1.033   0.667   3.605
 3235SOL    HW110604   1.132   0.659   3.616
 3235SOL    HW210605   1.009   0.647   3.510
 3236SOL     OW10606   4.625   0.971   0.521
 3236SOL    HW110607   4.686   1.031   0.469
 3236SOL    HW210608   4.530   0.995   0.501
 3237SOL     OW10609   5.704   1.616   5.279
 3237SOL    HW110610   5.643   1.536   5.283
 3237SOL    HW210611   5.711   1.657   5.370
 3238SOL     OW10612   6.401   4.954   1.650
 3238SOL    HW110613   6.397   5.050   1.678
 3238SOL    HW210614   6.427   4.897   1.727
 3239SOL     OW10615   6.819   0.335   4.928
 3239SOL    HW110616   6.752   0.278   4.881
 3239SOL    HW210617   6.852   0.407   4.867
 3240SOL     OW10618   0.092   0.750   0.132
 3240SOL    HW110619   0.088   0.838   0.180
 3240SOL    HW210620   0.006   0.734   0.084
 3241SOL     OW10621   6.445   3.193   5.458
 3241SOL    HW110622   6.527   3.220   5.407
 3241SOL    HW210623   6.462   3.201   5.556
 3242SOL     OW10624   6.101   3.781   4.645
 3242SOL    HW110625   6.191   3.754   4.612
 3242SOL    HW210626   6.075   3.868   4.602
 3243SOL     OW10627   6.077   4.435   3.942
 3243SOL    HW110628   6.081   4.528   3.904
 3243SOL    HW210629   5.982   4.409   3.955
 3244SOL     OW10630   4.968   6.893   0.304
 3244SOL    HW110631   4.879   6.863   0.270
 3244SOL    HW210632   4.957   6.932   0.396
 3245SOL     OW10633   3.763   6.885   4.950
 3245SOL    HW110634   3.796   6.873   4.856
 3245SOL    HW210635   3.663   6.886   4.949
 3246SOL     OW10636   0.348   0.164   2.598
 3246SOL    HW110637   0.359   0.217   2.682
 3246SOL    HW210638   0.346   0.226   2.520
 3247SOL     OW10639   0.777   4.439   3.479
 3247SOL    HW110640   0.752   4.459   3.574
 3247SOL    HW210641   0.760   4.343   3.459
 3248SOL     OW10642   5.392   1.983   3.682
 3248SOL    HW110643   5.479   1.950   3.646
 3248SOL    HW210644   5.341   1.906   3.721
 3249SOL     OW10645   2.945   3.726   3.213
 3249SOL    HW110646   2.906   3.634   3.222
 3249SOL    HW210647   2.906   3.786   3.282
 3250SOL     OW10648   4.708   5.410   2.648
 3250SOL    HW110649   4.801   5.390   2.678
 3250SOL    HW210650   4.683   5.351   2.572
 3251SOL     OW10651   2.734   1.927   2.891
 3251SOL    HW110652   2.660   1.990   2.867
 3251SOL    HW210653   2.804   1.929   2.819
 3252SOL     OW10654   1.800   1.115   3.090
 3252SOL    HW110655   1.874   1.139   3.028
 3252SOL    HW210656   1.805   1.017   3.112
 3253SOL     OW10657   6.539   3.389   0.240
 3253SOL    HW110658   6.440   3.385   0.227
 3253SOL    HW210659   6.568   3.484   0.248
 3254SOL     OW10660   6.231   6.392   1.150
 3254SOL    HW110661   6.160   6.453   1.185
 3254SOL    HW210662   6.189   6.311   1.111
 3255SOL     OW10663   4.925   6.175   1.605
 3255SOL    HW110664   4.921   6.275   1.600
 3255SOL    HW210665   4.833   6.138   1.610
 3256SOL     OW10666   5.006   2.826   1.417
 3256SOL    HW110667   4.928   2.766   1.402
 3256SOL    HW210668   5.087   2.772   1.438
 3257SOL     OW10669   2.803   1.673   2.771
 3257SOL    HW110670   2.732   1.731   2.811
 3257SOL    HW210671   2.893   1.708   2.796
 3258SOL     OW10672   1.772   5.261   4.147
 3258SOL    HW110673   1.772   5.179   4.091
 3258SOL    HW210674   1.848   5.320   4.119
 3259SOL     OW10675   5.066   4.065   4.315
 3259SOL    HW110676   5.141   4.023   4.366
 3259SOL    HW210677   4.979   4.024   4.343
 3260SOL     OW10678   1.359   4.513   3.158
 3260SOL    HW110679   1.343   4.495   3.255
 3260SOL    HW210680   1.272   4.529   3.112
 3261SOL     OW10681   5.620   0.006   4.111
 3261SOL    HW110682   5.621   0.097   4.070
 3261SOL    HW210683   5.543   7.017   4.175
 3262SOL     OW10684   2.838   1.759   3.431
 3262SOL    HW110685   2.813   1.723   3.341
 3262SOL    HW210686   2.755   1.786   3.480
 3263SOL     OW10687   0.268   0.974   2.139
 3263SOL    HW110688   0.248   0.880   2.166
 3263SOL    HW210689   0.268   1.033   2.219
 3264SOL     OW10690   1.769   4.914   6.885
 3264SOL    HW110691   1.763   4.838   6.949
 3264SOL    HW210692   1.691   4.909   6.821
 3265SOL     OW10693   6.809   5.206   0.073
 3265SOL    HW110694   6.881   5.187   0.006
 3265SOL    HW210695   6.846   5.264   0.146
 3266SOL     OW10696   3.431   5.261   5.924
 3266SOL    HW110697   3.443   5.184   5.987
 3266SOL    HW210698   3.452   5.232   5.831
 3267SOL     OW10699   3.455   0.054   0.265
 3267SOL    HW110700   3.402   0.113   0.325
 3267SOL    HW210701   3.551   0.081   0.267
 3268SOL     OW10702   5.749   5.478   1.953
 3268SOL    HW110703   5.827   5.503   2.011
 3268SOL    HW210704   5.717   5.559   1.904
 3269SOL     OW10705   1.416   4.646   1.101
 3269SOL    HW110706   1.469   4.730   1.097
 3269SOL    HW210707   1.456   4.578   1.040
 3270SOL     OW10708   0.505   2.941   5.485
 3270SOL    HW110709   0.504   2.842   5.500
 3270SOL    HW210710   0.583   2.982   5.533
 3271SOL     OW10711   1.026   3.726   1.670
 3271SOL    HW110712   1.004   3.694   1.762
 3271SOL    HW210713   0.942   3.744   1.619
 3272SOL     OW10714   4.445   6.249   0.831
 3272SOL    HW110715   4.394   6.195   0.898
 3272SOL    HW210716   4.517   6.193   0.792
 3273SOL     OW10717   4.216   3.703   6.589
 3273SOL    HW110718   4.190   3.703   6.685
 3273SOL    HW210719   4.137   3.731   6.534
 3274SOL     OW10720   5.706   0.040   1.954
 3274SOL    HW110721   5.712   0.129   1.910
 3274SOL    HW210722   5.738   0.047   2.049
 3275SOL     OW10723   5.078   0.796   1.462
 3275SOL    HW110724   5.001   0.820   1.403
 3275SOL    HW210725   5.078   0.857   1.542
 3276SOL     OW10726   5.495   6.666   0.200
 3276SOL    HW110727   5.474   6.755   0.240
 3276SOL    HW210728   5.458   6.661   0.108
 3277SOL     OW10729   3.182   2.124   2.356
 3277SOL    HW110730   3.182   2.071   2.271
 3277SOL    HW210731   3.273   2.122   2.397
 3278SOL     OW10732   5.942   0.838   6.741
 3278SOL    HW110733   5.975   0.912   6.801
 3278SOL    HW210734   5.913   0.877   6.654
 3279SOL     OW10735   3.206   0.399   1.556
 3279SOL    HW110736   3.134   0.465   1.536
 3279SOL    HW210737   3.249   0.422   1.643
 3280SOL     OW10738   6.362   3.584   4.316
 3280SOL    HW110739   6.350   3.611   4.412
 3280SOL    HW210740   6.298   3.635   4.259
 3281SOL     OW10741   6.045   3.181   1.656
 3281SOL    HW110742   6.007   3.101   1.703
 3281SOL    HW210743   6.022   3.176   1.559
 3282SOL     OW10744   0.103   5.139   4.918
 3282SOL    HW110745   0.145   5.216   4.870
 3282SOL    HW210746   0.168   5.063   4.920
 3283SOL     OW10747   3.383   2.159   0.370
 3283SOL    HW110748   3.443   2.086   0.403
 3283SOL    HW210749   3.294   2.121   0.347
 3284SOL     OW10750   2.327   6.484   4.283
 3284SOL    HW110751   2.371   6.395   4.289
 3284SOL    HW210752   2.386   6.548   4.234
 3285SOL     OW10753   3.756   2.085   4.323
 3285SOL    HW110754   3.821   2.141   4.374
 3285SOL    HW210755   3.683   2.054   4.384
 3286SOL     OW10756   1.782   2.351   2.748
 3286SOL    HW110757   1.732   2.307   2.823
 3286SOL    HW210758   1.771   2.450   2.756
 3287SOL     OW10759   2.237   0.028   0.377
 3287SOL    HW110760   2.326   7.008   0.401
 3287SOL    HW210761   2.244   0.078   0.291
 3288SOL     OW10762   2.603   5.896   1.761
 3288SOL    HW110763   2.689   5.938   1.791
 3288SOL    HW210764   2.528   5.929   1.818
 3289SOL     OW10765   4.207   1.018   6.858
 3289SOL    HW110766   4.283   1.041   6.918
 3289SOL    HW210767   4.158   0.939   6.895
 3290SOL     OW10768   0.429   5.811   0.703
 3290SOL    HW110769   0.503   5.764   0.655
 3290SOL    HW210770   0.356   5.745   0.725
 3291SOL     OW10771   5.230   6.843   5.029
 3291SOL    HW110772   5.325   6.840   5.061
 3291SOL    HW210773   5.171   6.875   5.103
 3292SOL     OW10774   6.805   2.440   0.543
 3292SOL    HW110775   6.861   2.432   0.461
 3292SOL    HW210776   6.826   2.525   0.590
 3293SOL     OW10777   6.209   5.503   3.684
 3293SOL    HW110778   6.172   5.422   3.729
 3293SOL    HW210779   6.215   5.578   3.750
 3294SOL     OW10780   4.999   3.031   5.342
 3294SOL    HW110781   4.947   2.958   5.387
 3294SOL    HW210782   5.028   3.001   5.252
 3295SOL     OW10783   0.552   2.372   2.409
 3295SOL    HW110784   0.496   2.324   2.477
 3295SOL    HW210785   0.604   2.444   2.454
 3296SOL     OW10786   1.929   1.054   6.003
 3296SOL    HW110787   1.941   0.994   5.924
 3296SOL    HW210788   1.869   1.130   5.978
 3297SOL     OW10789   3.682   0.885   5.069
 3297SOL    HW110790   3.696   0.843   5.159
 3297SOL    HW210791   3.763   0.938   5.044
 3298SOL     OW10792   4.748   3.656   6.092
 3298SOL    HW110793   4.800   3.626   6.011
 3298SOL    HW210794   4.680   3.723   6.065
 3299SOL     OW10795   2.400   5.345   3.882
 3299SOL    HW110796   2.470   5.275   3.869
 3299SOL    HW210797   2.309   5.304   3.878
 3300SOL     OW10798   2.292   0.327   3.805
 3300SOL    HW110799   2.348   0.362   3.730
 3300SOL    HW210800   2.324   0.366   3.892
 3301SOL     OW10801   0.848   1.134   3.459
 3301SOL    HW110802   0.811   1.219   3.422
 3301SOL    HW210803   0.923   1.154   3.522
 3302SOL     OW10804   1.380   5.223   5.407
 3302SOL    HW110805   1.446   5.297   5.396
 3302SOL    HW210806   1.419   5.138   5.370
 3303SOL     OW10807   3.295   3.268   0.253
 3303SOL    HW110808   3.300   3.268   0.353
 3303SOL    HW210809   3.370   3.212   0.216
 3304SOL     OW10810   2.505   4.340   0.006
 3304SOL    HW110811   2.447   4.304   0.078
 3304SOL    HW210812   2.577   4.273   7.002
 3305SOL     OW10813   3.379   3.208   0.746
 3305SOL    HW110814   3.477   3.202   0.764
 3305SOL    HW210815   3.329   3.172   0.825
 3306SOL     OW10816   2.169   0.717   6.818
 3306SOL    HW110817   2.144   0.712   6.914
 3306SOL    HW210818   2.216   0.804   6.800
 3307SOL     OW10819   1.405   6.011   4.799
 3307SOL    HW110820   1.413   6.002   4.899
 3307SOL    HW210821   1.309   6.008   4.773
 3308SOL     OW10822   4.302   4.857   0.938
 3308SOL    HW110823   4.211   4.893   0.916
 3308SOL    HW210824   4.313   4.854   1.038
 3309SOL     OW10825   5.645   3.005   2.898
 3309SOL    HW110826   5.688   3.002   2.808
 3309SOL    HW210827   5.553   2.967   2.892
 3310SOL     OW10828   6.500   4.925   5.961
 3310SOL    HW110829   6.535   4.884   5.877
 3310SOL    HW210830   6.448   5.007   5.940
 3311SOL     OW10831   2.749   3.749   0.560
 3311SOL    HW110832   2.739   3.693   0.643
 3311SOL    HW210833   2.661   3.791   0.538
 3312SOL     OW10834   4.486   2.941   6.333
 3312SOL    HW110835   4.492   2.841   6.329
 3312SOL    HW210836   4.477   2.970   6.428
 3313SOL     OW10837   6.811   0.516   4.011
 3313SOL    HW110838   6.782   0.603   4.049
 3313SOL    HW210839   6.733   0.454   4.006
 3314SOL     OW10840   3.501   5.661   2.467
 3314SOL    HW110841   3.530   5.595   2.537
 3314SOL    HW210842   3.574   5.728   2.453
 3315SOL     OW10843   0.614   5.566   4.320
 3315SOL    HW110844   0.518   5.585   4.342
 3315SOL    HW210845   0.621   5.537   4.224
 3316SOL     OW10846   4.825   2.390   6.771
 3316SOL    HW110847   4.809   2.293   6.787
 3316SOL    HW210848   4.822   2.439   6.858
 3317SOL     OW10849   5.032   2.409   1.954
 3317SOL    HW110850   5.117   2.444   1.994
 3317SOL    HW210851   4.983   2.354   2.022
 3318SOL     OW10852   3.210   2.930   0.529
 3318SOL    HW110853   3.207   2.830   0.534
 3318SOL    HW210854   3.305   2.960   0.515
 3319SOL     OW10855   6.695   5.625   3.742
 3319SOL    HW110856   6.761   5.652   3.812
 3319SOL    HW210857   6.720   5.665   3.654
 3320SOL     OW10858   6.124   6.763   1.648
 3320SOL    HW110859   6.025   6.773   1.638
 3320SOL    HW210860   6.147   6.751   1.744
 3321SOL     OW10861   4.958   2.089   0.349
 3321SOL    HW110862   4.920   2.181   0.358
 3321SOL    HW210863   4.884   2.023   0.336
 3322SOL     OW10864   6.115   3.175   0.531
 3322SOL    HW110865   6.081   3.195   0.623
 3322SOL    HW210866   6.145   3.260   0.488
 3323SOL     OW10867   1.437   2.414   1.228
 3323SOL    HW110868   1.422   2.504   1.270
 3323SOL    HW210869   1.351   2.363   1.228
 3324SOL     OW10870   5.190   5.801   5.559
 3324SOL    HW110871   5.170   5.899   5.555
 3324SOL    HW210872   5.163   5.764   5.648
 3325SOL     OW10873   2.215   4.442   5.569
 3325SOL    HW110874   2.236   4.348   5.544
 3325SOL    HW210875   2.283   4.503   5.528
 3326SOL     OW10876   3.781   1.718   2.475
 3326SOL    HW110877   3.870   1.750   2.510
 3326SOL    HW210878   3.755   1.773   2.396
 3327SOL     OW10879   0.339   5.339   6.436
 3327SOL    HW110880   0.254   5.315   6.391
 3327SOL    HW210881   0.407   5.366   6.367
 3328SOL     OW10882   4.774   2.514   5.768
 3328SOL    HW110883   4.858   2.567   5.766
 3328SOL    HW210884   4.721   2.531   5.685
 3329SOL     OW10885   6.625   6.113   5.663
 3329SOL    HW110886   6.681   6.030   5.652
 3329SOL    HW210887   6.528   6.087   5.662
 3330SOL     OW10888   0.109   3.802   2.810
 3330SOL    HW110889   0.029   3.775   2.863
 3330SOL    HW210890   0.175   3.726   2.807
 3331SOL     OW10891   2.153   3.265   0.395
 3331SOL    HW110892   2.141   3.361   0.421
 3331SOL    HW210893   2.216   3.221   0.458
 3332SOL     OW10894   6.448   4.244   1.822
 3332SOL    HW110895   6.480   4.176   1.756
 3332SOL    HW210896   6.374   4.297   1.782
 3333SOL     OW10897   3.741   5.434   6.368
 3333SOL    HW110898   3.830   5.454   6.410
 3333SOL    HW210899   3.677   5.507   6.390
 3334SOL     OW10900   2.180   3.840   1.599
 3334SOL    HW110901   2.262   3.801   1.640
 3334SOL    HW210902   2.206   3.908   1.530
 3335SOL     OW10903   6.041   4.001   4.385
 3335SOL    HW110904   5.950   3.961   4.389
 3335SOL    HW210905   6.033   4.101   4.387
 3336SOL     OW10906   2.841   6.064   5.885
 3336SOL    HW110907   2.827   6.021   5.975
 3336SOL    HW210908   2.819   5.998   5.813
 3337SOL     OW10909   3.858   1.614   0.499
 3337SOL    HW110910   3.884   1.656   0.586
 3337SOL    HW210911   3.862   1.514   0.507
 3338SOL     OW10912   6.818   4.339   0.655
 3338SOL    HW110913   6.823   4.259   0.595
 3338SOL    HW210914   6.767   4.315   0.738
 3339SOL     OW10915   0.531   5.890   6.189
 3339SOL    HW110916   0.586   5.927   6.115
 3339SOL    HW210917   0.529   5.954   6.265
 3340SOL     OW10918   3.962   7.017   1.946
 3340SOL    HW110919   4.012   0.069   1.998
 3340SOL    HW210920   3.893   6.975   2.005
 3341SOL     OW10921   0.876   0.020   2.178
 3341SOL    HW110922   0.958   6.999   2.136
 3341SOL    HW210923   0.795   6.991   2.142
 3342SOL     OW10924   2.803   0.354   4.667
 3342SOL    HW110925   2.716   0.344   4.620
 3342SOL    HW210926   2.821   0.451   4.685
 3343SOL     OW10927   6.438   2.173   1.567
 3343SOL    HW110928   6.381   2.113   1.623
 3343SOL    HW210929   6.449   2.133   1.476
 3344SOL     OW10930   6.718   2.982   5.281
 3344SOL    HW110931   6.628   2.957   5.244
 3344SOL    HW210932   6.739   3.076   5.257
 3345SOL     OW10933   3.070   3.718   6.103
 3345SOL    HW110934   3.153   3.765   6.133
 3345SOL    HW210935   2.996   3.738   6.168
 3346SOL     OW10936   1.620   5.591   2.377
 3346SOL    HW110937   1.632   5.569   2.473
 3346SOL    HW210938   1.692   5.654   2.347
 3347SOL     OW10939   5.569   3.998   4.524
 3347SOL    HW110940   5.590   4.009   4.621
 3347SOL    HW210941   5.563   4.087   4.480
 3348SOL     OW10942   4.052   3.747   3.086
 3348SOL    HW110943   3.998   3.816   3.039
 3348SOL    HW210944   4.019   3.736   3.180
 3349SOL     OW10945   6.380   3.801   5.650
 3349SOL    HW110946   6.310   3.787   5.720
 3349SOL    HW210947   6.398   3.714   5.603
 3350SOL     OW10948   1.403   2.329   0.962
 3350SOL    HW110949   1.435   2.362   1.050
 3350SOL    HW210950   1.468   2.356   0.890
 3351SOL     OW10951   5.379   1.924   0.806
 3351SOL    HW110952   5.319   1.867   0.751
 3351SOL    HW210953   5.459   1.950   0.752
 3352SOL     OW10954   0.718   3.232   0.226
 3352SOL    HW110955   0.679   3.232   0.318
 3352SOL    HW210956   0.658   3.284   0.165
 3353SOL     OW10957   1.652   6.889   6.313
 3353SOL    HW110958   1.735   6.892   6.368
 3353SOL    HW210959   1.665   6.825   6.237
 3354SOL     OW10960   1.102   1.129   2.661
 3354SOL    HW110961   1.187   1.150   2.613
 3354SOL    HW210962   1.080   1.032   2.650
 3355SOL     OW10963   6.610   1.582   2.765
 3355SOL    HW110964   6.526   1.546   2.724
 3355SOL    HW210965   6.685   1.576   2.699
 3356SOL     OW10966   2.328   3.697   6.579
 3356SOL    HW110967   2.337   3.789   6.541
 3356SOL    HW210968   2.306   3.633   6.505
 3357SOL     OW10969   2.292   5.038   2.183
 3357SOL    HW110970   2.229   4.960   2.180
 3357SOL    HW210971   2.240   5.123   2.169
 3358SOL     OW10972   6.485   4.207   2.971
 3358SOL    HW110973   6.482   4.230   3.069
 3358SOL    HW210974   6.444   4.117   2.957
 3359SOL     OW10975   1.118   1.180   1.696
 3359SOL    HW110976   1.164   1.144   1.776
 3359SOL    HW210977   1.185   1.204   1.626
 3360SOL     OW10978   1.106   0.492   6.318
 3360SOL    HW110979   1.062   0.482   6.228
 3360SOL    HW210980   1.181   0.557   6.311
 3361SOL     OW10981   5.072   0.808   2.993
 3361SOL    HW110982   5.101   0.888   2.940
 3361SOL    HW210983   5.137   0.792   3.067
 3362SOL     OW10984   2.027   1.514   5.455
 3362SOL    HW110985   2.103   1.508   5.519
 3362SOL    HW210986   1.964   1.586   5.484
 3363SOL     OW10987   0.199   1.395   6.898
 3363SOL    HW110988   0.138   1.395   6.819
 3363SOL    HW210989   0.242   1.485   6.907
 3364SOL     OW10990   1.745   4.771   5.953
 3364SOL    HW110991   1.716   4.731   5.866
 3364SOL    HW210992   1.697   4.727   6.028
 3365SOL     OW10993   5.551   1.993   5.664
 3365SOL    HW110994   5.451   2.003   5.661
 3365SOL    HW210995   5.593   2.084   5.657
 3366SOL     OW10996   5.436   1.278   5.944
 3366SOL    HW110997   5.527   1.269   5.985
 3366SOL    HW210998   5.373   1.216   5.990
 3367SOL     OW10999   1.487   0.609   2.336
 3367SOL    HW111000   1.544   0.646   2.409
 3367SOL    HW211001   1.535   0.618   2.249
 3368SOL     OW11002   6.295   0.372   5.798
 3368SOL    HW111003   6.248   0.299   5.748
 3368SOL    HW211004   6.368   0.333   5.854
 3369SOL     OW11005   3.540   6.268   5.721
 3369SOL    HW111006   3.441   6.261   5.721
 3369SOL    HW211007   3.567   6.359   5.753
 3370SOL     OW11008   4.829   0.283   4.850
 3370SOL    HW111009   4.847   0.322   4.940
 3370SOL    HW211010   4.769   0.203   4.859
 3371SOL     OW11011   0.084   5.067   1.841
 3371SOL    HW111012   7.016   5.075   1.892
 3371SOL    HW211013   0.082   4.983   1.786
 3372SOL     OW11014   0.035   1.558   2.433
 3372SOL    HW111015   6.984   1.607   2.486
 3372SOL    HW211016   0.100   1.624   2.394
 3373SOL     OW11017   0.522   2.234   5.764
 3373SOL    HW111018   0.429   2.245   5.729
 3373SOL    HW211019   0.568   2.322   5.766
 3374SOL     OW11020   3.442   5.092   5.220
 3374SOL    HW111021   3.535   5.059   5.238
 3374SOL    HW211022   3.380   5.014   5.214
 3375SOL     OW11023   4.099   3.990   5.230
 3375SOL    HW111024   4.168   3.925   5.262
 3375SOL    HW211025   4.127   4.082   5.254
 3376SOL     OW11026   3.201   3.662   2.136
 3376SOL    HW111027   3.189   3.628   2.229
 3376SOL    HW211028   3.298   3.678   2.118
 3377SOL     OW11029   3.059   5.941   5.504
 3377SOL    HW111030   3.016   5.909   5.419
 3377SOL    HW211031   3.157   5.918   5.502
 3378SOL     OW11032   0.862   1.334   1.229
 3378SOL    HW111033   0.898   1.308   1.318
 3378SOL    HW211034   0.763   1.318   1.227
 3379SOL     OW11035   1.371   4.526   6.709
 3379SOL    HW111036   1.300   4.595   6.694
 3379SOL    HW211037   1.415   4.504   6.621
 3380SOL     OW11038   0.602   3.898   6.168
 3380SOL    HW111039   0.530   3.860   6.226
 3380SOL    HW211040   0.597   3.856   6.078
 3381SOL     OW11041   3.207   3.138   0.987
 3381SOL    HW111042   3.157   3.102   0.908
 3381SOL    HW211043   3.195   3.076   1.065
 3382SOL     OW11044   6.502   6.662   0.384
 3382SOL    HW111045   6.523   6.648   0.481
 3382SOL    HW211046   6.550   6.742   0.350
 3383SOL     OW11047   6.737   4.657   2.903
 3383SOL    HW111048   6.820   4.665   2.957
 3383SOL    HW211049   6.731   4.566   2.863
 3384SOL     OW11050   3.450   2.918   4.527
 3384SOL    HW111051   3.430   2.857   4.450
 3384SOL    HW211052   3.549   2.926   4.539
 3385SOL     OW11053   6.412   3.854   3.257
 3385SOL    HW111054   6.384   3.759   3.247
 3385SOL    HW211055   6.478   3.862   3.332
 3386SOL     OW11056   6.344   4.305   4.892
 3386SOL    HW111057   6.263   4.296   4.835
 3386SOL    HW211058   6.404   4.376   4.855
 3387SOL     OW11059   2.906   1.876   3.125
 3387SOL    HW111060   2.930   1.831   3.039
 3387SOL    HW211061   2.922   1.974   3.117
 3388SOL     OW11062   5.064   2.850   2.280
 3388SOL    HW111063   5.144   2.883   2.229
 3388SOL    HW211064   4.990   2.830   2.215
 3389SOL     OW11065   5.612   4.784   3.286
 3389SOL    HW111066   5.663   4.710   3.242
 3389SOL    HW211067   5.561   4.835   3.217
 3390SOL     OW11068   5.365   2.788   5.825
 3390SOL    HW111069   5.433   2.792   5.898
 3390SOL    HW211070   5.283   2.741   5.859
 3391SOL     OW11071   3.629   1.587   4.193
 3391SOL    HW111072   3.599   1.662   4.253
 3391SOL    HW211073   3.598   1.500   4.231
 3392SOL     OW11074   4.465   5.837   3.463
 3392SOL    HW111075   4.509   5.901   3.402
 3392SOL    HW211076   4.447   5.881   3.551
 3393SOL     OW11077   6.118   0.336   6.941
 3393SOL    HW111078   6.095   0.406   6.874
 3393SOL    HW211079   6.213   0.307   6.927
 3394SOL     OW11080   5.687   2.060   1.509
 3394SOL    HW111081   5.685   2.034   1.605
 3394SOL    HW211082   5.652   2.153   1.498
 3395SOL     OW11083   1.491   3.774   4.843
 3395SOL    HW111084   1.553   3.740   4.772
 3395SOL    HW211085   1.464   3.699   4.903
 3396SOL     OW11086   0.127   3.903   4.144
 3396SOL    HW111087   0.132   3.996   4.180
 3396SOL    HW211088   0.205   3.886   4.084
 3397SOL     OW11089   3.394   6.745   5.996
 3397SOL    HW111090   3.487   6.750   6.031
 3397SOL    HW211091   3.378   6.655   5.955
 3398SOL     OW11092   0.033   6.937   4.389
 3398SOL    HW111093   0.076   7.007   4.446
 3398SOL    HW211094   0.029   6.970   4.294
 3399SOL     OW11095   4.603   5.440   4.714
 3399SOL    HW111096   4.571   5.346   4.716
 3399SOL    HW211097   4.659   5.455   4.632
 3400SOL     OW11098   4.698   2.556   6.556
 3400SOL    HW111099   4.722   2.633   6.615
 3400SOL    HW211100   4.756   2.478   6.577
 3401SOL     OW11101   5.989   5.059   0.112
 3401SOL    HW111102   6.057   5.079   0.041
 3401SOL    HW211103   6.034   5.052   0.201
 3402SOL     OW11104   4.819   5.853   1.978
 3402SOL    HW111105   4.786   5.901   2.059
 3402SOL    HW211106   4.806   5.754   1.990
 3403SOL     OW11107   2.987   1.628   5.127
 3403SOL    HW111108   2.920   1.640   5.054
 3403SOL    HW211109   2.979   1.703   5.193
 3404SOL     OW11110   4.332   0.766   1.334
 3404SOL    HW111111   4.234   0.746   1.331
 3404SOL    HW211112   4.353   0.838   1.267
 3405SOL     OW11113   5.816   3.762   0.553
 3405SOL    HW111114   5.799   3.788   0.648
 3405SOL    HW211115   5.911   3.732   0.544
 3406SOL     OW11116   1.576   4.757   1.887
 3406SOL    HW111117   1.656   4.817   1.891
 3406SOL    HW211118   1.606   4.664   1.865
 3407SOL     OW11119   1.785   5.919   2.480
 3407SOL    HW111120   1.698   5.936   2.527
 3407SOL    HW211121   1.858   5.907   2.547
 3408SOL     OW11122   5.157   4.094   2.751
 3408SOL    HW111123   5.138   4.033   2.674
 3408SOL    HW211124   5.131   4.049   2.836
 3409SOL     OW11125   2.921   0.608   5.629
 3409SOL    HW111126   3.015   0.610   5.595
 3409SOL    HW211127   2.891   0.513   5.638
 3410SOL     OW11128   6.777   0.194   6.678
 3410SOL    HW111129   6.721   0.217   6.598
 3410SOL    HW211130   6.859   0.250   6.679
 3411SOL     OW11131   4.997   2.227   2.143
 3411SOL    HW111132   5.004   2.192   2.237
 3411SOL    HW211133   5.086   2.218   2.099
 3412SOL     OW11134   3.994   4.087   0.352
 3412SOL    HW111135   3.970   3.991   0.341
 3412SOL    HW211136   3.920   4.135   0.398
 3413SOL     OW11137   4.000   2.212   2.598
 3413SOL    HW111138   3.904   2.186   2.609
 3413SOL    HW211139   4.006   2.299   2.549
 3414SOL     OW11140   3.124   1.986   5.704
 3414SOL    HW111141   3.123   1.958   5.800
 3414SOL    HW211142   3.193   2.057   5.690
 3415SOL     OW11143   0.321   5.318   3.925
 3415SOL    HW111144   0.276   5.329   3.836
 3415SOL    HW211145   0.278   5.242   3.974
 3416SOL     OW11146   1.756   4.435   5.285
 3416SOL    HW111147   1.780   4.480   5.371
 3416SOL    HW211148   1.820   4.361   5.267
 3417SOL     OW11149   5.403   0.169   2.374
 3417SOL    HW111150   5.380   0.227   2.295
 3417SOL    HW211151   5.375   0.075   2.356
 3418SOL     OW11152   3.171   1.339   6.321
 3418SOL    HW111153   3.126   1.306   6.403
 3418SOL    HW211154   3.167   1.269   6.249
 3419SOL     OW11155   4.346   3.924   0.472
 3419SOL    HW111156   4.302   4.004   0.434
 3419SOL    HW211157   4.425   3.952   0.527
 3420SOL     OW11158   4.182   2.086   4.080
 3420SOL    HW111159   4.182   2.142   3.998
 3420SOL    HW211160   4.090   2.047   4.093
 3421SOL     OW11161   0.052   6.090   4.511
 3421SOL    HW111162   6.982   6.058   4.477
 3421SOL    HW211163   0.055   6.078   4.611
 3422SOL     OW11164   2.861   1.260   1.806
 3422SOL    HW111165   2.812   1.347   1.805
 3422SOL    HW211166   2.953   1.274   1.844
 3423SOL     OW11167   2.614   0.307   1.158
 3423SOL    HW111168   2.709   0.337   1.162
 3423SOL    HW211169   2.570   0.343   1.077
 3424SOL     OW11170   4.284   1.475   2.844
 3424SOL    HW111171   4.196   1.487   2.798
 3424SOL    HW211172   4.288   1.384   2.885
 3425SOL     OW11173   4.374   4.626   1.675
 3425SOL    HW111174   4.360   4.637   1.774
 3425SOL    HW211175   4.352   4.532   1.648
 3426SOL     OW11176   4.462   3.288   0.562
 3426SOL    HW111177   4.447   3.358   0.632
 3426SOL    HW211178   4.483   3.201   0.606
 3427SOL     OW11179   0.114   2.285   6.888
 3427SOL    HW111180   0.187   2.261   6.823
 3427SOL    HW211181   0.117   2.223   6.966
 3428SOL     OW11182   4.655   4.570   2.936
 3428SOL    HW111183   4.679   4.500   3.004
 3428SOL    HW211184   4.669   4.533   2.844
 3429SOL     OW11185   1.196   3.287   6.700
 3429SOL    HW111186   1.235   3.238   6.622
 3429SOL    HW211187   1.223   3.242   6.785
 3430SOL     OW11188   1.552   6.826   0.117
 3430SOL    HW111189   1.513   6.918   0.118
 3430SOL    HW211190   1.626   6.822   0.050
 3431SOL     OW11191   0.692   5.865   0.346
 3431SOL    HW111192   0.598   5.843   0.371
 3431SOL    HW211193   0.731   5.929   0.413
 3432SOL     OW11194   3.398   1.688   6.590
 3432SOL    HW111195   3.300   1.684   6.610
 3432SOL    HW211196   3.423   1.782   6.564
 3433SOL     OW11197   4.133   0.685   4.977
 3433SOL    HW111198   4.132   0.646   5.069
 3433SOL    HW211199   4.040   0.689   4.941
 3434SOL     OW11200   4.423   2.114   2.671
 3434SOL    HW111201   4.372   2.061   2.740
 3434SOL    HW211202   4.408   2.212   2.687
 3435SOL     OW11203   0.396   1.123   0.257
 3435SOL    HW111204   0.325   1.073   0.306
 3435SOL    HW211205   0.367   1.138   0.162
 3436SOL     OW11206   3.991   6.768   3.540
 3436SOL    HW111207   3.896   6.739   3.524
 3436SOL    HW211208   4.053   6.694   3.516
 3437SOL     OW11209   3.808   6.893   6.350
 3437SOL    HW111210   3.795   6.820   6.416
 3437SOL    HW211211   3.723   6.944   6.339
 3438SOL     OW11212   1.144   3.543   6.694
 3438SOL    HW111213   1.242   3.553   6.679
 3438SOL    HW211214   1.121   3.447   6.710
 3439SOL     OW11215   2.767   5.597   3.435
 3439SOL    HW111216   2.693   5.554   3.382
 3439SOL    HW211217   2.731   5.626   3.523
 3440SOL     OW11218   4.780   2.372   0.850
 3440SOL    HW111219   4.690   2.415   0.855
 3440SOL    HW211220   4.783   2.296   0.916
 3441SOL     OW11221   3.152   0.472   3.845
 3441SOL    HW111222   3.204   0.558   3.851
 3441SOL    HW211223   3.216   0.396   3.833
 3442SOL     OW11224   1.985   5.059   2.991
 3442SOL    HW111225   1.906   5.060   2.930
 3442SOL    HW211226   2.061   5.011   2.946
 3443SOL     OW11227   6.179   0.928   3.653
 3443SOL    HW111228   6.254   0.994   3.659
 3443SOL    HW211229   6.092   0.975   3.667
 3444SOL     OW11230   4.294   5.433   7.003
 3444SOL    HW111231   4.349   5.444   0.068
 3444SOL    HW211232   4.258   5.340   7.000
 3445SOL     OW11233   6.002   4.311   4.411
 3445SOL    HW111234   5.937   4.270   4.475
 3445SOL    HW211235   6.095   4.301   4.446
 3446SOL     OW11236   3.650   6.824   2.998
 3446SOL    HW111237   3.599   6.853   2.917
 3446SOL    HW211238   3.590   6.830   3.079
 3447SOL     OW11239   5.659   5.677   6.322
 3447SOL    HW111240   5.739   5.709   6.271
 3447SOL    HW211241   5.579   5.676   6.261
 3448SOL     OW11242   3.556   2.105   1.095
 3448SOL    HW111243   3.499   2.092   1.176
 3448SOL    HW211244   3.571   2.203   1.081
 3449SOL     OW11245   6.522   5.752   3.960
 3449SOL    HW111246   6.512   5.746   3.861
 3449SOL    HW211247   6.498   5.844   3.991
 3450SOL     OW11248   1.040   1.547   1.306
 3450SOL    HW111249   1.053   1.632   1.256
 3450SOL    HW211250   0.947   1.544   1.345
 3451SOL     OW11251   1.028   5.722   4.571
 3451SOL    HW111252   0.962   5.797   4.578
 3451SOL    HW211253   1.001   5.648   4.632
 3452SOL     OW11254   5.958   2.043   6.692
 3452SOL    HW111255   5.918   2.095   6.616
 3452SOL    HW211256   5.894   1.973   6.722
 3453SOL     OW11257   5.622   5.559   5.581
 3453SOL    HW111258   5.704   5.558   5.524
 3453SOL    HW211259   5.629   5.634   5.647
 3454SOL     OW11260   0.621   0.568   0.425
 3454SOL    HW111261   0.716   0.598   0.433
 3454SOL    HW211262   0.562   0.647   0.407
 3455SOL     OW11263   1.940   2.583   4.436
 3455SOL    HW111264   1.900   2.568   4.346
 3455SOL    HW211265   1.941   2.497   4.487
 3456SOL     OW11266   6.183   6.916   1.883
 3456SOL    HW111267   6.253   6.973   1.841
 3456SOL    HW211268   6.212   6.820   1.882
 3457SOL     OW11269   2.330   5.210   3.151
 3457SOL    HW111270   2.340   5.308   3.137
 3457SOL    HW211271   2.419   5.170   3.172
 3458SOL     OW11272   5.038   5.743   1.158
 3458SOL    HW111273   4.978   5.664   1.172
 3458SOL    HW211274   5.122   5.713   1.113
 3459SOL     OW11275   6.353   6.242   3.748
 3459SOL    HW111276   6.414   6.183   3.695
 3459SOL    HW211277   6.313   6.190   3.823
 3460SOL     OW11278   4.274   3.253   6.648
 3460SOL    HW111279   4.234   3.264   6.739
 3460SOL    HW211280   4.251   3.332   6.591
 3461SOL     OW11281   3.203   5.701   2.600
 3461SOL    HW111282   3.226   5.632   2.531
 3461SOL    HW211283   3.285   5.726   2.651
 3462SOL     OW11284   5.242   3.168   3.323
 3462SOL    HW111285   5.158   3.212   3.355
 3462SOL    HW211286   5.222   3.074   3.296
 3463SOL     OW11287   2.185   2.741   0.880
 3463SOL    HW111288   2.094   2.735   0.921
 3463SOL    HW211289   2.251   2.767   0.950
 3464SOL     OW11290   4.516   2.679   6.762
 3464SOL    HW111291   4.576   2.695   6.841
 3464SOL    HW211292   4.515   2.582   6.740
 3465SOL     OW11293   2.140   3.561   2.214
 3465SOL    HW111294   2.176   3.506   2.139
 3465SOL    HW211295   2.059   3.610   2.182
 3466SOL     OW11296   6.025   4.690   3.856
 3466SOL    HW111297   5.997   4.669   3.762
 3466SOL    HW211298   6.110   4.742   3.855
 3467SOL     OW11299   3.194   2.642   1.245
 3467SOL    HW111300   3.106   2.685   1.223
 3467SOL    HW211301   3.178   2.555   1.291
 3468SOL     OW11302   3.527   1.624   0.811
 3468SOL    HW111303   3.552   1.716   0.841
 3468SOL    HW211304   3.530   1.561   0.889
 3469SOL     OW11305   4.329   6.154   5.646
 3469SOL    HW111306   4.327   6.088   5.571
 3469SOL    HW211307   4.237   6.189   5.663
 3470SOL     OW11308   0.625   2.705   1.676
 3470SOL    HW111309   0.589   2.736   1.587
 3470SOL    HW211310   0.650   2.785   1.731
 3471SOL     OW11311   4.899   3.286   3.594
 3471SOL    HW111312   4.901   3.291   3.694
 3471SOL    HW211313   4.946   3.203   3.564
 3472SOL     OW11314   4.194   1.389   3.413
 3472SOL    HW111315   4.170   1.484   3.434
 3472SOL    HW211316   4.140   1.357   3.335
 3473SOL     OW11317   0.189   4.360   1.881
 3473SOL    HW111318   0.244   4.434   1.920
 3473SOL    HW211319   0.243   4.275   1.880
 3474SOL     OW11320   5.805   5.125   4.096
 3474SOL    HW111321   5.858   5.078   4.025
 3474SOL    HW211322   5.848   5.110   4.185
 3475SOL     OW11323   6.618   4.089   4.023
 3475SOL    HW111324   6.550   4.159   4.044
 3475SOL    HW211325   6.700   4.133   3.986
 3476SOL     OW11326   1.110   0.942   3.639
 3476SOL    HW111327   1.060   0.856   3.630
 3476SOL    HW211328   1.072   0.995   3.715
 3477SOL     OW11329   0.377   4.155   1.894
 3477SOL    HW111330   0.475   4.160   1.875
 3477SOL    HW211331   0.354   4.065   1.931
 3478SOL     OW11332   1.887   0.570   0.576
 3478SOL    HW111333   1.899   0.631   0.497
 3478SOL    HW211334   1.888   0.475   0.544
 3479SOL     OW11335   1.727   4.483   4.134
 3479SOL    HW111336   1.777   4.465   4.218
 3479SOL    HW211337   1.632   4.455   4.145
 3480SOL     OW11338   1.695   4.747   0.061
 3480SOL    HW111339   1.692   4.760   0.160
 3480SOL    HW211340   1.733   4.657   0.041
 3481SOL     OW11341   6.254   1.079   4.917
 3481SOL    HW111342   6.255   1.005   4.850
 3481SOL    HW211343   6.185   1.147   4.890
 3482SOL     OW11344   6.054   4.056   5.135
 3482SOL    HW111345   5.993   4.055   5.214
 3482SOL    HW211346   6.092   4.148   5.124
 3483SOL     OW11347   5.047   2.925   4.597
 3483SOL    HW111348   5.098   3.007   4.568
 3483SOL    HW211349   5.028   2.868   4.518
 3484SOL     OW11350   2.083   3.310   5.175
 3484SOL    HW111351   2.102   3.272   5.085
 3484SOL    HW211352   2.136   3.259   5.244
 3485SOL     OW11353   0.594   2.270   6.274
 3485SOL    HW111354   0.552   2.255   6.185
 3485SOL    HW211355   0.584   2.366   6.300
 3486SOL     OW11356   2.282   6.946   4.814
 3486SOL    HW111357   2.294   6.932   4.715
 3486SOL    HW211358   2.207   7.010   4.829
 3487SOL     OW11359   5.017   1.468   6.695
 3487SOL    HW111360   5.071   1.387   6.720
 3487SOL    HW211361   5.013   1.476   6.596
 3488SOL     OW11362   5.908   0.908   4.408
 3488SOL    HW111363   5.941   0.930   4.500
 3488SOL    HW211364   5.946   0.820   4.380
 3489SOL     OW11365   3.156   6.553   0.290
 3489SOL    HW111366   3.199   6.558   0.200
 3489SOL    HW211367   3.136   6.645   0.323
 3490SOL     OW11368   3.582   5.642   0.326
 3490SOL    HW111369   3.518   5.652   0.249
 3490SOL    HW211370   3.550   5.699   0.402
 3491SOL     OW11371   4.977   4.564   6.575
 3491SOL    HW111372   5.067   4.588   6.611
 3491SOL    HW211373   4.986   4.490   6.508
 3492SOL     OW11374   6.022   4.432   2.778
 3492SOL    HW111375   6.092   4.497   2.746
 3492SOL    HW211376   6.066   4.359   2.829
 3493SOL     OW11377   5.801   3.413   4.821
 3493SOL    HW111378   5.713   3.369   4.803
 3493SOL    HW211379   5.825   3.402   4.917
 3494SOL     OW11380   4.394   1.639   1.936
 3494SOL    HW111381   4.451   1.713   1.972
 3494SOL    HW211382   4.431   1.607   1.849
 3495SOL     OW11383   0.747   2.954   2.651
 3495SOL    HW111384   0.688   2.898   2.709
 3495SOL    HW211385   0.704   2.965   2.561
 3496SOL     OW11386   5.332   5.414   1.186
 3496SOL    HW111387   5.325   5.429   1.087
 3496SOL    HW211388   5.415   5.459   1.220
 3497SOL     OW11389   3.395   0.388   2.488
 3497SOL    HW111390   3.371   0.316   2.553
 3497SOL    HW211391   3.451   0.457   2.534
 3498SOL     OW11392   2.228   1.998   1.137
 3498SOL    HW111393   2.259   1.921   1.192
 3498SOL    HW211394   2.304   2.033   1.082
 3499SOL     OW11395   6.244   5.581   5.523
 3499SOL    HW111396   6.335   5.613   5.495
 3499SOL    HW211397   6.196   5.544   5.444
 3500SOL     OW11398   1.508   2.119   4.191
 3500SOL    HW111399   1.593   2.172   4.189
 3500SOL    HW211400   1.521   2.038   4.247
 3501SOL     OW11401   1.464   0.279   5.648
 3501SOL    HW111402   1.420   0.222   5.578
 3501SOL    HW211403   1.432   0.251   5.738
 3502SOL     OW11404   4.912   3.097   2.228
 3502SOL    HW111405   4.854   3.085   2.148
 3502SOL    HW211406   4.918   3.010   2.278
 3503SOL     OW11407   6.227   5.900   6.936
 3503SOL    HW111408   6.274   5.844   7.004
 3503SOL    HW211409   6.140   5.933   6.974
 3504SOL     OW11410   1.576   1.151   0.782
 3504SOL    HW111411   1.612   1.088   0.713
 3504SOL    HW211412   1.640   1.155   0.859
 3505SOL     OW11413   5.791   4.897   6.315
 3505SOL    HW111414   5.854   4.966   6.279
 3505SOL    HW211415   5.702   4.939   6.331
 3506SOL     OW11416   5.033   4.733   4.794
 3506SOL    HW111417   5.047   4.826   4.828
 3506SOL    HW211418   5.097   4.671   4.840
 3507SOL     OW11419   2.827   6.540   0.465
 3507SOL    HW111420   2.879   6.455   0.472
 3507SOL    HW211421   2.798   6.569   0.556
 3508SOL     OW11422   3.158   2.247   5.461
 3508SOL    HW111423   3.094   2.311   5.505
 3508SOL    HW211424   3.208   2.295   5.389
 3509SOL     OW11425   4.281   5.513   6.585
 3509SOL    HW111426   4.374   5.484   6.563
 3509SOL    HW211427   4.263   5.603   6.546
 3510SOL     OW11428   2.916   0.834   0.772
 3510SOL    HW111429   2.918   0.809   0.869
 3510SOL    HW211430   2.827   0.875   0.750
 3511SOL     OW11431   2.572   4.564   1.797
 3511SOL    HW111432   2.605   4.577   1.891
 3511SOL    HW211433   2.637   4.604   1.733
 3512SOL     OW11434   0.461   4.610   6.800
 3512SOL    HW111435   0.448   4.708   6.788
 3512SOL    HW211436   0.407   4.578   6.878
 3513SOL     OW11437   5.969   2.107   6.993
 3513SOL    HW111438   6.016   2.168   0.039
 3513SOL    HW211439   5.946   2.158   6.910
 3514SOL     OW11440   4.054   1.334   2.462
 3514SOL    HW111441   4.129   1.274   2.436
 3514SOL    HW211442   3.970   1.305   2.415
 3515SOL     OW11443   6.284   5.475   4.257
 3515SOL    HW111444   6.292   5.504   4.162
 3515SOL    HW211445   6.339   5.393   4.272
 3516SOL     OW11446   4.941   0.037   1.324
 3516SOL    HW111447   4.911   0.131   1.342
 3516SOL    HW211448   4.986   0.001   1.406
 3517SOL     OW11449   6.137   0.542   0.904
 3517SOL    HW111450   6.187   0.622   0.872
 3517SOL    HW211451   6.179   0.459   0.868
 3518SOL     OW11452   5.185   1.352   5.349
 3518SOL    HW111453   5.194   1.262   5.391
 3518SOL    HW211454   5.088   1.377   5.345
 3519SOL     OW11455   3.406   1.045   0.521
 3519SOL    HW111456   3.486   1.053   0.462
 3519SOL    HW211457   3.344   0.976   0.483
 3520SOL     OW11458   2.531   6.411   4.948
 3520SOL    HW111459   2.469   6.408   5.027
 3520SOL    HW211460   2.578   6.499   4.947
 3521SOL     OW11461   2.706   2.726   0.170
 3521SOL    HW111462   2.709   2.816   0.213
 3521SOL    HW211463   2.694   2.656   0.240
 3522SOL     OW11464   0.205   5.823   6.717
 3522SOL    HW111465   0.121   5.858   6.676
 3522SOL    HW211466   0.259   5.776   6.648
 3523SOL     OW11467   1.151   5.524   6.221
 3523SOL    HW111468   1.195   5.613   6.229
 3523SOL    HW211469   1.096   5.506   6.302
 3524SOL     OW11470   5.708   1.126   3.187
 3524SOL    HW111471   5.792   1.111   3.239
 3524SOL    HW211472   5.731   1.140   3.091
 3525SOL     OW11473   6.172   4.176   3.354
 3525SOL    HW111474   6.128   4.246   3.297
 3525SOL    HW211475   6.114   4.156   3.433
 3526SOL     OW11476   0.959   6.288   2.785
 3526SOL    HW111477   1.031   6.223   2.758
 3526SOL    HW211478   0.988   6.380   2.761
 3527SOL     OW11479   6.467   2.545   5.643
 3527SOL    HW111480   6.463   2.633   5.597
 3527SOL    HW211481   6.467   2.471   5.575
 3528SOL     OW11482   2.161   6.437   4.758
 3528SOL    HW111483   2.110   6.460   4.675
 3528SOL    HW211484   2.258   6.431   4.737
 3529SOL     OW11485   4.334   5.391   0.451
 3529SOL    HW111486   4.275   5.467   0.479
 3529SOL    HW211487   4.283   5.305   0.455
 3530SOL     OW11488   6.732   0.452   1.852
 3530SOL    HW111489   6.758   0.404   1.768
 3530SOL    HW211490   6.761   0.547   1.846
 3531SOL     OW11491   5.422   1.465   0.836
 3531SOL    HW111492   5.483   1.522   0.890
 3531SOL    HW211493   5.359   1.523   0.784
 3532SOL     OW11494   1.580   1.428   1.902
 3532SOL    HW111495   1.564   1.394   1.809
 3532SOL    HW211496   1.563   1.526   1.905
 3533SOL     OW11497   0.353   0.967   2.492
 3533SOL    HW111498   0.393   1.050   2.531
 3533SOL    HW211499   0.315   0.988   2.402
 3534SOL     OW11500   0.097   0.862   1.080
 3534SOL    HW111501   0.089   0.780   1.024
 3534SOL    HW211502   0.182   0.910   1.056
 3535SOL     OW11503   2.821   5.923   4.497
 3535SOL    HW111504   2.915   5.895   4.482
 3535SOL    HW211505   2.784   5.874   4.576
 3536SOL     OW11506   3.300   1.928   2.757
 3536SOL    HW111507   3.311   1.939   2.856
 3536SOL    HW211508   3.387   1.899   2.717
 3537SOL     OW11509   1.539   5.694   2.749
 3537SOL    HW111510   1.613   5.665   2.688
 3537SOL    HW211511   1.534   5.631   2.827
 3538SOL     OW11512   3.016   5.728   4.027
 3538SOL    HW111513   3.029   5.763   3.934
 3538SOL    HW211514   2.932   5.674   4.031
 3539SOL     OW11515   3.715   3.779   4.378
 3539SOL    HW111516   3.672   3.849   4.436
 3539SOL    HW211517   3.644   3.727   4.330
 3540SOL     OW11518   1.903   1.929   3.837
 3540SOL    HW111519   1.941   1.963   3.922
 3540SOL    HW211520   1.811   1.968   3.823
 3541SOL     OW11521   3.126   4.101   4.725
 3541SOL    HW111522   3.059   4.175   4.728
 3541SOL    HW211523   3.082   4.014   4.747
 3542SOL     OW11524   0.589   5.095   1.736
 3542SOL    HW111525   0.553   5.078   1.644
 3542SOL    HW211526   0.623   5.189   1.741
 3543SOL     OW11527   5.784   2.912   4.510
 3543SOL    HW111528   5.816   2.824   4.544
 3543SOL    HW211529   5.856   2.981   4.523
 3544SOL     OW11530   1.971   5.084   6.129
 3544SOL    HW111531   2.041   5.145   6.092
 3544SOL    HW211532   1.884   5.133   6.137
 3545SOL     OW11533   3.893   5.099   6.544
 3545SOL    HW111534   3.913   5.096   6.642
 3545SOL    HW211535   3.978   5.114   6.494
 3546SOL     OW11536   6.253   5.064   3.075
 3546SOL    HW111537   6.236   4.981   3.127
 3546SOL    HW211538   6.326   5.117   3.120
 3547SOL     OW11539   5.523   5.047   4.317
 3547SOL    HW111540   5.438   5.096   4.301
 3547SOL    HW211541   5.554   5.006   4.232
 3548SOL     OW11542   4.674   2.899   5.586
 3548SOL    HW111543   4.761   2.883   5.541
 3548SOL    HW211544   4.599   2.877   5.523
 3549SOL     OW11545   5.765   4.320   2.825
 3549SOL    HW111546   5.740   4.238   2.877
 3549SOL    HW211547   5.860   4.344   2.844
 3550SOL     OW11548   5.857   2.178   2.222
 3550SOL    HW111549   5.889   2.141   2.309
 3550SOL    HW211550   5.772   2.228   2.236
 3551SOL     OW11551   2.702   6.647   3.319
 3551SOL    HW111552   2.613   6.612   3.347
 3551SOL    HW211553   2.692   6.700   3.235
 3552SOL     OW11554   6.368   4.989   2.851
 3552SOL    HW111555   6.335   5.039   2.771
 3552SOL    HW211556   6.321   5.023   2.932
 3553SOL     OW11557   5.914   1.460   2.810
 3553SOL    HW111558   5.865   1.545   2.790
 3553SOL    HW211559   5.975   1.438   2.734
 3554SOL     OW11560   4.038   5.005   6.186
 3554SOL    HW111561   4.101   5.002   6.108
 3554SOL    HW211562   4.080   5.054   6.261
 3555SOL     OW11563   1.397   2.808   3.506
 3555SOL    HW111564   1.422   2.900   3.537
 3555SOL    HW211565   1.371   2.810   3.410
 3556SOL     OW11566   3.501   0.717   6.691
 3556SOL    HW111567   3.533   0.805   6.656
 3556SOL    HW211568   3.406   0.702   6.663
 3557SOL     OW11569   1.316   0.289   4.973
 3557SOL    HW111570   1.380   0.300   5.049
 3557SOL    HW211571   1.223   0.284   5.009
 3558SOL     OW11572   0.139   5.707   1.367
 3558SOL    HW111573   0.087   5.759   1.436
 3558SOL    HW211574   0.080   5.688   1.289
 3559SOL     OW11575   0.769   0.423   5.719
 3559SOL    HW111576   0.711   0.452   5.642
 3559SOL    HW211577   0.711   0.387   5.792
 3560SOL     OW11578   6.764   6.555   1.316
 3560SOL    HW111579   6.800   6.464   1.296
 3560SOL    HW211580   6.838   6.621   1.317
 3561SOL     OW11581   4.857   4.812   5.101
 3561SOL    HW111582   4.857   4.910   5.121
 3561SOL    HW211583   4.812   4.763   5.175
 3562SOL     OW11584   4.610   1.102   2.907
 3562SOL    HW111585   4.655   1.140   2.987
 3562SOL    HW211586   4.632   1.004   2.900
 3563SOL     OW11587   4.855   0.879   1.315
 3563SOL    HW111588   4.845   0.906   1.220
 3563SOL    HW211589   4.788   0.929   1.371
 3564SOL     OW11590   0.135   4.427   3.368
 3564SOL    HW111591   0.145   4.467   3.277
 3564SOL    HW211592   0.214   4.450   3.424
 3565SOL     OW11593   2.039   0.342   4.812
 3565SOL    HW111594   2.094   0.307   4.735
 3565SOL    HW211595   2.093   0.336   4.896
 3566SOL     OW11596   0.546   3.581   5.337
 3566SOL    HW111597   0.603   3.501   5.354
 3566SOL    HW211598   0.572   3.621   5.249
 3567SOL     OW11599   0.269   3.420   1.053
 3567SOL    HW111600   0.268   3.433   0.954
 3567SOL    HW211601   0.244   3.506   1.098
 3568SOL     OW11602   4.848   3.945   3.356
 3568SOL    HW111603   4.816   3.925   3.448
 3568SOL    HW211604   4.940   3.983   3.360
 3569SOL     OW11605   3.685   3.329   3.712
 3569SOL    HW111606   3.734   3.290   3.789
 3569SOL    HW211607   3.706   3.426   3.704
 3570SOL     OW11608   0.209   2.321   5.990
 3570SOL    HW111609   0.156   2.298   5.908
 3570SOL    HW211610   0.238   2.416   5.986
 3571SOL     OW11611   2.127   6.551   5.003
 3571SOL    HW111612   2.155   6.520   4.912
 3571SOL    HW211613   2.058   6.487   5.039
 3572SOL     OW11614   4.702   4.684   2.002
 3572SOL    HW111615   4.772   4.644   2.061
 3572SOL    HW211616   4.680   4.620   1.928
 3573SOL     OW11617   6.995   3.825   3.390
 3573SOL    HW111618   6.918   3.792   3.335
 3573SOL    HW211619   6.970   3.825   3.487
 3574SOL     OW11620   2.055   2.586   5.533
 3574SOL    HW111621   2.120   2.539   5.473
 3574SOL    HW211622   2.085   2.577   5.628
 3575SOL     OW11623   5.329   0.283   0.445
 3575SOL    HW111624   5.255   0.351   0.447
 3575SOL    HW211625   5.319   0.225   0.364
 3576SOL     OW11626   1.704   3.205   1.034
 3576SOL    HW111627   1.630   3.172   1.093
 3576SOL    HW211628   1.750   3.282   1.078
 3577SOL     OW11629   2.669   3.051   5.654
 3577SOL    HW111630   2.655   3.018   5.561
 3577SOL    HW211631   2.751   3.108   5.657
 3578SOL     OW11632   3.160   3.001   6.296
 3578SOL    HW111633   3.126   3.094   6.306
 3578SOL    HW211634   3.147   2.951   6.382
 3579SOL     OW11635   0.689   3.023   1.931
 3579SOL    HW111636   0.614   3.058   1.988
 3579SOL    HW211637   0.664   3.032   1.835
 3580SOL     OW11638   0.653   4.089   1.893
 3580SOL    HW111639   0.745   4.051   1.880
 3580SOL    HW211640   0.660   4.188   1.905
 3581SOL     OW11641   1.801   6.902   2.919
 3581SOL    HW111642   1.772   6.970   2.985
 3581SOL    HW211643   1.881   6.935   2.869
 3582SOL     OW11644   3.786   4.648   6.367
 3582SOL    HW111645   3.689   4.625   6.367
 3582SOL    HW211646   3.839   4.572   6.404
 3583SOL     OW11647   0.710   5.167   0.810
 3583SOL    HW111648   0.755   5.231   0.748
 3583SOL    HW211649   0.738   5.074   0.789
 3584SOL     OW11650   6.314   4.695   5.162
 3584SOL    HW111651   6.224   4.658   5.139
 3584SOL    HW211652   6.307   4.794   5.173
 3585SOL     OW11653   2.915   1.455   3.029
 3585SOL    HW111654   3.015   1.454   3.030
 3585SOL    HW211655   2.881   1.521   3.096
 3586SOL     OW11656   6.696   2.445   5.045
 3586SOL    HW111657   6.783   2.462   5.092
 3586SOL    HW211658   6.695   2.353   5.007
 3587SOL     OW11659   2.677   6.779   6.418
 3587SOL    HW111660   2.739   6.750   6.491
 3587SOL    HW211661   2.593   6.815   6.457
 3588SOL     OW11662   6.447   4.447   4.557
 3588SOL    HW111663   6.529   4.395   4.533
 3588SOL    HW211664   6.469   4.544   4.565
 3589SOL     OW11665   6.968   0.404   6.034
 3589SOL    HW111666   6.903   0.349   5.982
 3589SOL    HW211667   6.983   0.491   5.987
 3590SOL     OW11668   6.598   5.188   0.397
 3590SOL    HW111669   6.507   5.202   0.435
 3590SOL    HW211670   6.621   5.266   0.338
 3591SOL     OW11671   5.760   1.614   6.667
 3591SOL    HW111672   5.723   1.704   6.690
 3591SOL    HW211673   5.821   1.622   6.588
 3592SOL     OW11674   1.781   6.308   1.419
 3592SOL    HW111675   1.685   6.296   1.444
 3592SOL    HW211676   1.802   6.406   1.413
 3593SOL     OW11677   4.418   3.162   5.463
 3593SOL    HW111678   4.506   3.181   5.419
 3593SOL    HW211679   4.412   3.065   5.485
 3594SOL     OW11680   4.483   4.768   5.163
 3594SOL    HW111681   4.397   4.774   5.112
 3594SOL    HW211682   4.522   4.677   5.151
 3595SOL     OW11683   5.592   6.672   4.852
 3595SOL    HW111684   5.566   6.768   4.866
 3595SOL    HW211685   5.511   6.615   4.859
 3596SOL     OW11686   3.950   2.153   3.824
 3596SOL    HW111687   4.002   2.238   3.829
 3596SOL    HW211688   4.011   2.078   3.796
 3597SOL     OW11689   2.417   3.283   5.364
 3597SOL    HW111690   2.428   3.220   5.288
 3597SOL    HW211691   2.451   3.240   5.448
 3598SOL     OW11692   1.315   5.571   5.289
 3598SOL    HW111693   1.234   5.626   5.267
 3598SOL    HW211694   1.308   5.482   5.242
 3599SOL     OW11695   3.572   1.306   4.782
 3599SOL    HW111696   3.514   1.225   4.778
 3599SOL    HW211697   3.667   1.278   4.800
 3600SOL     OW11698   3.300   3.657   0.470
 3600SOL    HW111699   3.213   3.676   0.515
 3600SOL    HW211700   3.361   3.610   0.533
 3601SOL     OW11701   5.009   0.648   5.011
 3601SOL    HW111702   4.953   0.729   5.031
 3601SOL    HW211703   5.002   0.626   4.914
 3602SOL     OW11704   2.325   1.855   1.352
 3602SOL    HW111705   2.255   1.899   1.409
 3602SOL    HW211706   2.371   1.784   1.405
 3603SOL     OW11707   2.650   0.717   5.578
 3603SOL    HW111708   2.750   0.718   5.574
 3603SOL    HW211709   2.612   0.732   5.487
 3604SOL     OW11710   6.976   0.350   3.082
 3604SOL    HW111711   7.007   0.442   3.057
 3604SOL    HW211712   6.888   0.332   3.038
 3605SOL     OW11713   1.389   6.428   4.061
 3605SOL    HW111714   1.377   6.329   4.070
 3605SOL    HW211715   1.476   6.447   4.015
 3606SOL     OW11716   2.719   6.396   2.566
 3606SOL    HW111717   2.660   6.404   2.485
 3606SOL    HW211718   2.664   6.374   2.646
 3607SOL     OW11719   5.530   1.659   2.607
 3607SOL    HW111720   5.611   1.669   2.665
 3607SOL    HW211721   5.451   1.701   2.652
 3608SOL     OW11722   2.610   1.953   6.163
 3608SOL    HW111723   2.655   1.864   6.147
 3608SOL    HW211724   2.633   2.015   6.089
 3609SOL     OW11725   2.767   0.854   4.624
 3609SOL    HW111726   2.790   0.880   4.530
 3609SOL    HW211727   2.798   0.761   4.641
 3610SOL     OW11728   1.716   0.055   4.969
 3610SOL    HW111729   1.705   6.974   4.960
 3610SOL    HW211730   1.721   0.096   4.878
 3611SOL     OW11731   5.490   5.122   3.050
 3611SOL    HW111732   5.513   5.193   3.117
 3611SOL    HW211733   5.421   5.156   2.987
 3612SOL     OW11734   6.146   1.356   0.014
 3612SOL    HW111735   6.194   1.275   0.047
 3612SOL    HW211736   6.187   1.438   0.055
 3613SOL     OW11737   4.709   5.990   2.215
 3613SOL    HW111738   4.729   6.054   2.289
 3613SOL    HW211739   4.669   6.039   2.139
 3614SOL     OW11740   3.559   5.269   6.518
 3614SOL    HW111741   3.630   5.321   6.471
 3614SOL    HW211742   3.590   5.245   6.610
 3615SOL     OW11743   5.383   2.161   5.962
 3615SOL    HW111744   5.378   2.260   5.973
 3615SOL    HW211745   5.479   2.134   5.951
 3616SOL     OW11746   1.127   1.955   6.977
 3616SOL    HW111747   1.213   1.964   6.927
 3616SOL    HW211748   1.111   2.038   0.012
 3617SOL     OW11749   3.849   5.998   5.521
 3617SOL    HW111750   3.940   6.030   5.546
 3617SOL    HW211751   3.788   6.076   5.508
 3618SOL     OW11752   1.359   5.333   4.286
 3618SOL    HW111753   1.372   5.304   4.191
 3618SOL    HW211754   1.264   5.314   4.313
 3619SOL     OW11755   5.601   3.860   1.675
 3619SOL    HW111756   5.577   3.923   1.749
 3619SOL    HW211757   5.680   3.805   1.702
 3620SOL     OW11758   5.928   5.694   5.111
 3620SOL    HW111759   5.935   5.664   5.016
 3620SOL    HW211760   5.831   5.701   5.137
 3621SOL     OW11761   3.078   3.140   3.348
 3621SOL    HW111762   3.150   3.087   3.393
 3621SOL    HW211763   3.094   3.238   3.363
 3622SOL     OW11764   1.205   5.988   6.711
 3622SOL    HW111765   1.270   6.056   6.677
 3622SOL    HW211766   1.235   5.956   6.801
 3623SOL     OW11767   0.933   5.758   6.203
 3623SOL    HW111768   0.866   5.692   6.172
 3623SOL    HW211769   1.001   5.773   6.131
 3624SOL     OW11770   2.602   2.616   1.479
 3624SOL    HW111771   2.605   2.524   1.441
 3624SOL    HW211772   2.645   2.617   1.569
 3625SOL     OW11773   6.681   2.175   0.561
 3625SOL    HW111774   6.591   2.198   0.598
 3625SOL    HW211775   6.731   2.260   0.542
 3626SOL     OW11776   1.576   2.898   4.952
 3626SOL    HW111777   1.651   2.831   4.941
 3626SOL    HW211778   1.489   2.854   4.928
 3627SOL     OW11779   3.440   2.103   2.207
 3627SOL    HW111780   3.530   2.122   2.166
 3627SOL    HW211781   3.404   2.187   2.248
 3628SOL     OW11782   6.743   2.333   1.394
 3628SOL    HW111783   6.726   2.416   1.341
 3628SOL    HW211784   6.742   2.254   1.332
 3629SOL     OW11785   1.207   1.447   4.327
 3629SOL    HW111786   1.115   1.409   4.337
 3629SOL    HW211787   1.275   1.377   4.347
 3630SOL     OW11788   0.119   2.643   1.941
 3630SOL    HW111789   0.180   2.566   1.960
 3630SOL    HW211790   0.164   2.728   1.968
 3631SOL     OW11791   1.834   0.217   2.521
 3631SOL    HW111792   1.810   0.168   2.437
 3631SOL    HW211793   1.896   0.162   2.576
 3632SOL     OW11794   4.676   3.875   1.520
 3632SOL    HW111795   4.658   3.785   1.561
 3632SOL    HW211796   4.605   3.894   1.451
 3633SOL     OW11797   3.984   4.169   6.693
 3633SOL    HW111798   4.081   4.175   6.719
 3633SOL    HW211799   3.931   4.238   6.741
 3634SOL     OW11800   3.325   5.671   6.536
 3634SOL    HW111801   3.267   5.636   6.462
 3634SOL    HW211802   3.280   5.748   6.580
 3635SOL     OW11803   1.552   5.920   1.933
 3635SOL    HW111804   1.508   5.981   1.999
 3635SOL    HW211805   1.634   5.963   1.898
 3636SOL     OW11806   0.374   5.082   6.582
 3636SOL    HW111807   0.466   5.045   6.581
 3636SOL    HW211808   0.371   5.165   6.527
 3637SOL     OW11809   6.066   3.364   6.971
 3637SOL    HW111810   5.988   3.421   6.999
 3637SOL    HW211811   6.044   3.318   6.885
 3638SOL     OW11812   6.572   3.382   2.791
 3638SOL    HW111813   6.561   3.356   2.887
 3638SOL    HW211814   6.636   3.320   2.746
 3639SOL     OW11815   3.824   2.954   3.835
 3639SOL    HW111816   3.901   2.980   3.777
 3639SOL    HW211817   3.746   2.928   3.778
 3640SOL     OW11818   4.124   2.040   1.750
 3640SOL    HW111819   4.029   2.071   1.760
 3640SOL    HW211820   4.157   2.004   1.837
 3641SOL     OW11821   5.897   4.000   2.828
 3641SOL    HW111822   5.872   4.061   2.903
 3641SOL    HW211823   5.925   4.054   2.749
 3642SOL     OW11824   5.223   3.286   6.008
 3642SOL    HW111825   5.148   3.297   6.073
 3642SOL    HW211826   5.221   3.361   5.942
 3643SOL     OW11827   4.239   5.462   5.218
 3643SOL    HW111828   4.176   5.434   5.146
 3643SOL    HW211829   4.296   5.538   5.185
 3644SOL     OW11830   2.677   0.648   1.690
 3644SOL    HW111831   2.686   0.704   1.772
 3644SOL    HW211832   2.692   0.705   1.609
 3645SOL     OW11833   1.353   4.108   3.079
 3645SOL    HW111834   1.452   4.095   3.082
 3645SOL    HW211835   1.320   4.139   3.168
 3646SOL     OW11836   1.531   4.348   5.501
 3646SOL    HW111837   1.512   4.417   5.431
 3646SOL    HW211838   1.518   4.256   5.462
 3647SOL     OW11839   2.833   0.180   6.336
 3647SOL    HW111840   2.832   0.149   6.241
 3647SOL    HW211841   2.784   0.267   6.343
 3648SOL     OW11842   4.529   5.437   3.659
 3648SOL    HW111843   4.483   5.434   3.570
 3648SOL    HW211844   4.579   5.351   3.672
 3649SOL     OW11845   5.842   2.985   0.089
 3649SOL    HW111846   5.900   3.034   0.153
 3649SOL    HW211847   5.867   2.888   0.088
 3650SOL     OW11848   5.648   6.106   6.840
 3650SOL    HW111849   5.565   6.160   6.822
 3650SOL    HW211850   5.728   6.156   6.805
 3651SOL     OW11851   0.798   1.842   5.633
 3651SOL    HW111852   0.815   1.931   5.590
 3651SOL    HW211853   0.739   1.787   5.573
 3652SOL     OW11854   4.171   1.443   1.687
 3652SOL    HW111855   4.152   1.541   1.683
 3652SOL    HW211856   4.265   1.425   1.660
 3653SOL     OW11857   1.072   1.770   1.105
 3653SOL    HW111858   1.006   1.696   1.095
 3653SOL    HW211859   1.026   1.858   1.091
 3654SOL     OW11860   4.606   6.302   1.697
 3654SOL    HW111861   4.576   6.397   1.699
 3654SOL    HW211862   4.644   6.276   1.786
 3655SOL     OW11863   1.597   1.379   4.273
 3655SOL    HW111864   1.538   1.315   4.322
 3655SOL    HW211865   1.549   1.413   4.193
 3656SOL     OW11866   0.255   0.431   1.583
 3656SOL    HW111867   0.234   0.400   1.490
 3656SOL    HW211868   0.265   0.530   1.583
 3657SOL     OW11869   6.062   5.707   5.883
 3657SOL    HW111870   6.141   5.711   5.821
 3657SOL    HW211871   6.062   5.618   5.930
 3658SOL     OW11872   1.657   5.093   5.573
 3658SOL    HW111873   1.701   5.156   5.637
 3658SOL    HW211874   1.700   5.101   5.483
 3659SOL     OW11875   0.206   2.132   6.198
 3659SOL    HW111876   0.176   2.055   6.142
 3659SOL    HW211877   0.213   2.214   6.141
 3660SOL     OW11878   5.138   5.730   6.316
 3660SOL    HW111879   5.063   5.765   6.260
 3660SOL    HW211880   5.194   5.668   6.262
 3661SOL     OW11881   0.134   1.469   4.561
 3661SOL    HW111882   0.221   1.456   4.609
 3661SOL    HW211883   0.083   1.383   4.561
 3662SOL     OW11884   2.790   1.771   5.559
 3662SOL    HW111885   2.743   1.832   5.623
 3662SOL    HW211886   2.882   1.753   5.593
 3663SOL     OW11887   2.448   2.494   6.800
 3663SOL    HW111888   2.418   2.423   6.863
 3663SOL    HW211889   2.537   2.469   6.761
 3664SOL     OW11890   3.424   1.554   1.413
 3664SOL    HW111891   3.386   1.495   1.341
 3664SOL    HW211892   3.456   1.639   1.372
 3665SOL     OW11893   0.799   5.855   5.733
 3665SOL    HW111894   0.716   5.847   5.678
 3665SOL    HW211895   0.777   5.901   5.820
 3666SOL     OW11896   2.240   2.848   4.546
 3666SOL    HW111897   2.280   2.855   4.638
 3666SOL    HW211898   2.256   2.757   4.510
 3667SOL     OW11899   1.771   6.676   1.158
 3667SOL    HW111900   1.789   6.716   1.068
 3667SOL    HW211901   1.680   6.635   1.158
 3668SOL     OW11902   6.659   0.876   1.031
 3668SOL    HW111903   6.625   0.808   1.095
 3668SOL    HW211904   6.687   0.832   0.946
 3669SOL     OW11905   0.882   1.368   3.873
 3669SOL    HW111906   0.919   1.459   3.893
 3669SOL    HW211907   0.831   1.371   3.787
 3670SOL     OW11908   2.719   6.940   1.723
 3670SOL    HW111909   2.757   6.975   1.809
 3670SOL    HW211910   2.658   7.009   1.684
 3671SOL     OW11911   7.006   0.631   4.333
 3671SOL    HW111912   6.955   0.623   4.418
 3671SOL    HW211913   7.002   0.544   4.284
 3672SOL     OW11914   3.668   6.477   3.748
 3672SOL    HW111915   3.665   6.508   3.653
 3672SOL    HW211916   3.603   6.401   3.760
 3673SOL     OW11917   3.295   6.967   0.843
 3673SOL    HW111918   3.303   0.047   0.825
 3673SOL    HW211919   3.367   6.939   0.907
 3674SOL     OW11920   0.976   4.612   6.787
 3674SOL    HW111921   1.050   4.680   6.782
 3674SOL    HW211922   1.013   4.526   6.823
 3675SOL     OW11923   1.377   0.534   4.057
 3675SOL    HW111924   1.354   0.518   4.153
 3675SOL    HW211925   1.330   0.467   4.000
 3676SOL     OW11926   3.656   1.232   4.498
 3676SOL    HW111927   3.616   1.156   4.447
 3676SOL    HW211928   3.584   1.282   4.546
 3677SOL     OW11929   1.633   0.987   4.542
 3677SOL    HW111930   1.598   0.987   4.448
 3677SOL    HW211931   1.668   0.896   4.564
 3678SOL     OW11932   1.401   0.815   3.995
 3678SOL    HW111933   1.381   0.725   4.035
 3678SOL    HW211934   1.328   0.838   3.930
 3679SOL     OW11935   4.203   0.493   2.332
 3679SOL    HW111936   4.240   0.541   2.411
 3679SOL    HW211937   4.156   0.410   2.362
 3680SOL     OW11938   3.141   1.894   4.467
 3680SOL    HW111939   3.154   1.988   4.436
 3680SOL    HW211940   3.225   1.842   4.454
 3681SOL     OW11941   0.843   6.385   4.035
 3681SOL    HW111942   0.807   6.350   4.122
 3681SOL    HW211943   0.939   6.356   4.025
 3682SOL     OW11944   5.390   2.109   1.152
 3682SOL    HW111945   5.359   2.026   1.198
 3682SOL    HW211946   5.485   2.097   1.121
 3683SOL     OW11947   6.258   1.556   0.170
 3683SOL    HW111948   6.249   1.643   0.219
 3683SOL    HW211949   6.274   1.483   0.236
 3684SOL     OW11950   2.379   6.400   5.171
 3684SOL    HW111951   2.332   6.314   5.150
 3684SOL    HW211952   2.413   6.398   5.265
 3685SOL     OW11953   1.983   6.015   4.669
 3685SOL    HW111954   1.907   6.078   4.688
 3685SOL    HW211955   1.975   5.935   4.729
 3686SOL     OW11956   0.642   3.733   1.246
 3686SOL    HW111957   0.731   3.758   1.208
 3686SOL    HW211958   0.593   3.675   1.182
 3687SOL     OW11959   6.030   4.340   5.020
 3687SOL    HW111960   6.056   4.354   4.924
 3687SOL    HW211961   5.940   4.296   5.024
 3688SOL     OW11962   6.305   2.525   1.253
 3688SOL    HW111963   6.307   2.619   1.289
 3688SOL    HW211964   6.321   2.527   1.155
 3689SOL     OW11965   1.029   0.149   6.225
 3689SOL    HW111966   1.029   0.152   6.125
 3689SOL    HW211967   0.941   0.114   6.257
 3690SOL     OW11968   5.225   5.471   1.479
 3690SOL    HW111969   5.286   5.464   1.558
 3690SOL    HW211970   5.273   5.517   1.404
 3691SOL     OW11971   1.990   3.014   0.708
 3691SOL    HW111972   1.965   3.023   0.804
 3691SOL    HW211973   1.963   2.924   0.675
 3692SOL     OW11974   1.099   2.844   5.329
 3692SOL    HW111975   1.179   2.808   5.282
 3692SOL    HW211976   1.021   2.784   5.313
 3693SOL     OW11977   0.117   1.409   2.170
 3693SOL    HW111978   0.084   1.476   2.236
 3693SOL    HW211979   0.215   1.422   2.155
 3694SOL     OW11980   6.681   0.389   2.669
 3694SOL    HW111981   6.619   0.391   2.590
 3694SOL    HW211982   6.773   0.365   2.638
 3695SOL     OW11983   5.770   3.437   3.156
 3695SOL    HW111984   5.817   3.383   3.225
 3695SOL    HW211985   5.801   3.410   3.065
 3696SOL     OW11986   4.458   0.569   4.481
 3696SOL    HW111987   4.416   0.625   4.552
 3696SOL    HW211988   4.558   0.570   4.492
 3697SOL     OW11989   6.598   6.346   3.224
 3697SOL    HW111990   6.614   6.377   3.130
 3697SOL    HW211991   6.664   6.391   3.285
 3698SOL     OW11992   1.423   0.306   2.935
 3698SOL    HW111993   1.391   0.335   3.025
 3698SOL    HW211994   1.431   0.206   2.933
 3699SOL     OW11995   2.154   2.472   3.012
 3699SOL    HW111996   2.248   2.498   3.032
 3699SOL    HW211997   2.152   2.379   2.976
 3700SOL     OW11998   0.658   5.317   4.889
 3700SOL    HW111999   0.689   5.286   4.799
 3700SOL    HW212000   0.599   5.248   4.930
 3701SOL     OW12001   0.948   0.914   2.268
 3701SOL    HW112002   0.999   0.924   2.182
 3701SOL    HW212003   0.961   0.821   2.302
 3702SOL     OW12004   5.913   3.940   3.365
 3702SOL    HW112005   5.915   3.903   3.272
 3702SOL    HW212006   5.818   3.946   3.396
 3703SOL     OW12007   1.179   1.860   3.553
 3703SOL    HW112008   1.269   1.888   3.520
 3703SOL    HW212009   1.190   1.803   3.635
 3704SOL     OW12010   6.412   0.759   0.575
 3704SOL    HW112011   6.506   0.792   0.576
 3704SOL    HW212012   6.411   0.659   0.576
 3705SOL     OW12013   5.603   4.331   3.711
 3705SOL    HW112014   5.599   4.417   3.662
 3705SOL    HW212015   5.533   4.268   3.676
 3706SOL     OW12016   1.374   4.398   6.266
 3706SOL    HW112017   1.429   4.396   6.183
 3706SOL    HW212018   1.279   4.380   6.244
 3707SOL     OW12019   1.088   4.838   3.377
 3707SOL    HW112020   0.997   4.799   3.390
 3707SOL    HW212021   1.134   4.842   3.466
 3708SOL     OW12022   2.318   6.120   1.203
 3708SOL    HW112023   2.402   6.071   1.180
 3708SOL    HW212024   2.249   6.056   1.236
 3709SOL     OW12025   1.298   1.196   1.497
 3709SOL    HW112026   1.298   1.279   1.440
 3709SOL    HW212027   1.341   1.121   1.447
 3710SOL     OW12028   0.908   4.101   5.146
 3710SOL    HW112029   0.997   4.142   5.165
 3710SOL    HW212030   0.896   4.019   5.201
 3711SOL     OW12031   0.877   5.952   4.627
 3711SOL    HW112032   0.794   5.905   4.659
 3711SOL    HW212033   0.852   6.040   4.588
 3712SOL     OW12034   1.934   5.681   4.472
 3712SOL    HW112035   2.017   5.673   4.417
 3712SOL    HW212036   1.885   5.594   4.472
 3713SOL     OW12037   6.046   0.674   4.319
 3713SOL    HW112038   6.142   0.701   4.309
 3713SOL    HW212039   6.035   0.621   4.404
 3714SOL     OW12040   0.725   4.442   0.611
 3714SOL    HW112041   0.760   4.401   0.527
 3714SOL    HW212042   0.627   4.461   0.600
 3715SOL     OW12043   5.575   4.923   3.803
 3715SOL    HW112044   5.488   4.961   3.773
 3715SOL    HW212045   5.648   4.955   3.743
 3716SOL     OW12046   5.394   5.341   4.800
 3716SOL    HW112047   5.419   5.430   4.761
 3716SOL    HW212048   5.314   5.306   4.752
 3717SOL     OW12049   4.901   1.133   0.779
 3717SOL    HW112050   4.804   1.108   0.788
 3717SOL    HW212051   4.949   1.113   0.864
 3718SOL     OW12052   6.038   6.633   6.491
 3718SOL    HW112053   6.071   6.693   6.565
 3718SOL    HW212054   5.942   6.655   6.472
 3719SOL     OW12055   3.500   3.963   6.943
 3719SOL    HW112056   3.408   3.967   6.903
 3719SOL    HW212057   3.558   4.031   6.900
 3720SOL     OW12058   0.197   3.192   0.768
 3720SOL    HW112059   0.100   3.167   0.770
 3720SOL    HW212060   0.214   3.252   0.691
 3721SOL     OW12061   6.471   0.314   5.472
 3721SOL    HW112062   6.429   0.224   5.460
 3721SOL    HW212063   6.428   0.379   5.409
 3722SOL     OW12064   5.799   0.047   2.431
 3722SOL    HW112065   5.812   0.098   2.516
 3722SOL    HW212066   5.705   0.012   2.427
 3723SOL     OW12067   4.525   3.565   6.796
 3723SOL    HW112068   4.590   3.498   6.833
 3723SOL    HW212069   4.432   3.533   6.812
 3724SOL     OW12070   0.568   4.664   4.672
 3724SOL    HW112071   0.497   4.709   4.618
 3724SOL    HW212072   0.644   4.727   4.687
 3725SOL     OW12073   1.267   6.290   0.458
 3725SOL    HW112074   1.335   6.355   0.492
 3725SOL    HW212075   1.293   6.261   0.366
 3726SOL     OW12076   6.083   4.160   5.743
 3726SOL    HW112077   6.151   4.117   5.683
 3726SOL    HW212078   6.030   4.089   5.789
 3727SOL     OW12079   6.547   2.813   3.720
 3727SOL    HW112080   6.623   2.754   3.748
 3727SOL    HW212081   6.513   2.862   3.800
 3728SOL     OW12082   2.490   3.881   0.761
 3728SOL    HW112083   2.415   3.815   0.759
 3728SOL    HW212084   2.552   3.858   0.836
 3729SOL     OW12085   0.137   0.841   5.839
 3729SOL    HW112086   0.232   0.822   5.813
 3729SOL    HW212087   0.133   0.927   5.890
 3730SOL     OW12088   5.129   5.272   4.749
 3730SOL    HW112089   5.039   5.292   4.788
 3730SOL    HW212090   5.117   5.221   4.663
 3731SOL     OW12091   7.001   1.957   0.193
 3731SOL    HW112092   0.069   1.966   0.143
 3731SOL    HW212093   7.018   1.970   0.291
 3732SOL     OW12094   3.745   2.781   6.950
 3732SOL    HW112095   3.763   2.702   7.008
 3732SOL    HW212096   3.787   2.862   6.991
 3733SOL     OW12097   1.499   0.386   3.555
 3733SOL    HW112098   1.588   0.344   3.539
 3733SOL    HW212099   1.449   0.333   3.624
 3734SOL     OW12100   4.030   0.345   1.157
 3734SOL    HW112101   4.001   0.436   1.129
 3734SOL    HW212102   3.957   0.279   1.139
 3735SOL     OW12103   4.782   6.621   2.902
 3735SOL    HW112104   4.817   6.548   2.843
 3735SOL    HW212105   4.712   6.673   2.853
 3736SOL     OW12106   6.890   1.192   6.859
 3736SOL    HW112107   6.864   1.133   6.935
 3736SOL    HW212108   6.850   1.156   6.774
 3737SOL     OW12109   6.274   2.042   2.625
 3737SOL    HW112110   6.187   2.077   2.658
 3737SOL    HW212111   6.349   2.084   2.676
 3738SOL     OW12112   6.826   0.486   1.594
 3738SOL    HW112113   6.764   0.548   1.545
 3738SOL    HW212114   6.849   0.409   1.535
 3739SOL     OW12115   3.116   3.510   6.914
 3739SOL    HW112116   3.021   3.489   6.889
 3739SOL    HW212117   3.168   3.425   6.922
 3740SOL     OW12118   4.583   5.731   6.898
 3740SOL    HW112119   4.489   5.746   6.866
 3740SOL    HW212120   4.600   5.633   6.906
 3741SOL     OW12121   5.317   2.843   0.616
 3741SOL    HW112122   5.408   2.805   0.627
 3741SOL    HW212123   5.285   2.881   0.702
 3742SOL     OW12124   4.090   5.994   1.185
 3742SOL    HW112125   4.136   6.058   1.123
 3742SOL    HW212126   4.027   5.936   1.133
 3743SOL     OW12127   3.550   3.985   1.119
 3743SOL    HW112128   3.539   4.005   1.021
 3743SOL    HW212129   3.514   3.895   1.140
 3744SOL     OW12130   6.862   6.382   2.654
 3744SOL    HW112131   6.798   6.458   2.647
 3744SOL    HW212132   6.955   6.417   2.666
 3745SOL     OW12133   4.794   2.704   2.391
 3745SOL    HW112134   4.887   2.689   2.425
 3745SOL    HW212135   4.798   2.747   2.301
 3746SOL     OW12136   6.247   0.885   4.300
 3746SOL    HW112137   6.318   0.824   4.334
 3746SOL    HW212138   6.255   0.975   4.344
 3747SOL     OW12139   3.623   6.181   5.475
 3747SOL    HW112140   3.650   6.269   5.435
 3747SOL    HW212141   3.601   6.195   5.572
 3748SOL     OW12142   4.989   2.374   3.552
 3748SOL    HW112143   5.023   2.402   3.642
 3748SOL    HW212144   4.891   2.355   3.558
 3749SOL     OW12145   6.285   6.465   2.674
 3749SOL    HW112146   6.197   6.456   2.627
 3749SOL    HW212147   6.289   6.553   2.722
 3750SOL     OW12148   5.297   4.185   0.982
 3750SOL    HW112149   5.230   4.111   0.990
 3750SOL    HW212150   5.387   4.151   1.010
 3751SOL     OW12151   1.381   4.032   1.831
 3751SOL    HW112152   1.330   4.033   1.917
 3751SOL    HW212153   1.335   3.971   1.766
 3752SOL     OW12154   0.616   6.454   5.977
 3752SOL    HW112155   0.630   6.411   6.067
 3752SOL    HW212156   0.690   6.428   5.916
 3753SOL     OW12157   7.017   0.924   4.545
 3753SOL    HW112158   0.067   0.915   4.473
 3753SOL    HW212159   0.031   0.991   4.613
 3754SOL     OW12160   6.606   6.494   1.829
 3754SOL    HW112161   6.515   6.467   1.799
 3754SOL    HW212162   6.674   6.430   1.792
 3755SOL     OW12163   4.983   2.553   2.946
 3755SOL    HW112164   5.021   2.641   2.973
 3755SOL    HW212165   4.958   2.555   2.849
 3756SOL     OW12166   3.159   0.468   6.994
 3756SOL    HW112167   3.150   0.511   0.065
 3756SOL    HW212168   3.256   0.459   6.970
 3757SOL     OW12169   3.491   4.696   6.828
 3757SOL    HW112170   3.422   4.668   6.895
 3757SOL    HW212171   3.465   4.784   6.788
 3758SOL     OW12172   0.320   0.656   3.247
 3758SOL    HW112173   0.317   0.583   3.315
 3758SOL    HW212174   0.301   0.743   3.291
 3759SOL     OW12175   5.008   4.997   0.242
 3759SOL    HW112176   5.038   5.025   0.151
 3759SOL    HW212177   5.061   4.918   0.272
 3760SOL     OW12178   2.247   2.487   5.280
 3760SOL    HW112179   2.342   2.520   5.272
 3760SOL    HW212180   2.245   2.407   5.340
 3761SOL     OW12181   0.343   6.723   4.161
 3761SOL    HW112182   0.372   6.706   4.066
 3761SOL    HW212183   0.244   6.706   4.168
 3762SOL     OW12184   0.896   3.799   6.461
 3762SOL    HW112185   0.800   3.807   6.485
 3762SOL    HW212186   0.923   3.702   6.463
 3763SOL     OW12187   6.468   3.582   5.898
 3763SOL    HW112188   6.441   3.654   5.962
 3763SOL    HW212189   6.568   3.579   5.892
 3764SOL     OW12190   2.263   6.845   3.705
 3764SOL    HW112191   2.196   6.911   3.669
 3764SOL    HW212192   2.215   6.764   3.739
 3765SOL     OW12193   6.431   1.043   3.697
 3765SOL    HW112194   6.470   0.965   3.747
 3765SOL    HW212195   6.407   1.115   3.762
 3766SOL     OW12196   1.392   0.023   4.835
 3766SOL    HW112197   1.485   0.060   4.842
 3766SOL    HW212198   1.329   0.096   4.808
 3767SOL     OW12199   1.657   4.072   1.036
 3767SOL    HW112200   1.652   3.972   1.048
 3767SOL    HW212201   1.570   4.105   1.001
 3768SOL     OW12202   4.606   6.417   0.604
 3768SOL    HW112203   4.656   6.497   0.571
 3768SOL    HW212204   4.653   6.378   0.684
 3769SOL     OW12205   4.554   6.415   5.089
 3769SOL    HW112206   4.643   6.371   5.084
 3769SOL    HW212207   4.484   6.353   5.052
 3770SOL     OW12208   2.188   1.229   0.331
 3770SOL    HW112209   2.205   1.294   0.257
 3770SOL    HW212210   2.136   1.274   0.404
 3771SOL     OW12211   4.897   1.149   5.227
 3771SOL    HW112212   4.866   1.156   5.132
 3771SOL    HW212213   4.881   1.237   5.273
 3772SOL     OW12214   4.949   1.152   2.806
 3772SOL    HW112215   4.890   1.219   2.761
 3772SOL    HW212216   4.908   1.062   2.799
 3773SOL     OW12217   6.659   2.579   6.693
 3773SOL    HW112218   6.617   2.649   6.636
 3773SOL    HW212219   6.759   2.583   6.682
 3774SOL     OW12220   1.102   1.835   2.134
 3774SOL    HW112221   1.016   1.823   2.085
 3774SOL    HW212222   1.178   1.812   2.074
 3775SOL     OW12223   5.809   2.860   3.625
 3775SOL    HW112224   5.828   2.958   3.631
 3775SOL    HW212225   5.727   2.838   3.678
 3776SOL     OW12226   3.226   2.876   6.548
 3776SOL    HW112227   3.317   2.837   6.558
 3776SOL    HW212228   3.198   2.918   6.635
 3777SOL     OW12229   1.454   4.318   3.603
 3777SOL    HW112230   1.493   4.394   3.551
 3777SOL    HW212231   1.525   4.274   3.657
 3778SOL     OW12232   2.450   6.732   2.019
 3778SOL    HW112233   2.353   6.707   2.022
 3778SOL    HW212234   2.504   6.652   1.996
 3779SOL     OW12235   3.100   4.907   6.556
 3779SOL    HW112236   3.042   4.987   6.567
 3779SOL    HW212237   3.092   4.849   6.637
 3780SOL     OW12238   2.763   0.148   4.865
 3780SOL    HW112239   2.791   0.236   4.827
 3780SOL    HW212240   2.731   0.161   4.959
 3781SOL     OW12241   2.814   5.338   4.745
 3781SOL    HW112242   2.907   5.325   4.779
 3781SOL    HW212243   2.793   5.269   4.676
 3782SOL     OW12244   2.276   1.610   3.137
 3782SOL    HW112245   2.190   1.660   3.153
 3782SOL    HW212246   2.263   1.545   3.062
 3783SOL     OW12247   4.759   5.586   5.995
 3783SOL    HW112248   4.761   5.680   5.959
 3783SOL    HW212249   4.769   5.521   5.919
 3784SOL     OW12250   4.589   1.322   3.752
 3784SOL    HW112251   4.504   1.278   3.781
 3784SOL    HW212252   4.579   1.421   3.758
 3785SOL     OW12253   1.520   1.284   1.670
 3785SOL    HW112254   1.444   1.220   1.664
 3785SOL    HW212255   1.607   1.234   1.666
 3786SOL     OW12256   3.556   5.214   2.661
 3786SOL    HW112257   3.642   5.251   2.696
 3786SOL    HW212258   3.482   5.236   2.724
 3787SOL     OW12259   4.063   1.030   4.253
 3787SOL    HW112260   4.072   1.129   4.241
 3787SOL    HW212261   4.143   0.994   4.300
 3788SOL     OW12262   5.857   3.895   2.211
 3788SOL    HW112263   5.760   3.898   2.187
 3788SOL    HW212264   5.912   3.922   2.132
 3789SOL     OW12265   0.981   5.081   2.796
 3789SOL    HW112266   0.961   5.116   2.705
 3789SOL    HW212267   1.001   5.158   2.857
 3790SOL     OW12268   2.128   3.097   3.933
 3790SOL    HW112269   2.176   3.180   3.905
 3790SOL    HW212270   2.188   3.018   3.922
 3791SOL     OW12271   5.212   0.205   2.632
 3791SOL    HW112272   5.296   0.211   2.578
 3791SOL    HW212273   5.134   0.191   2.571
 3792SOL     OW12274   0.159   0.001   6.005
 3792SOL    HW112275   0.179   6.923   5.984
 3792SOL    HW212276   0.075   0.006   6.059
 3793SOL     OW12277   2.122   6.624   2.898
 3793SOL    HW112278   2.084   6.613   2.990
 3793SOL    HW212279   2.151   6.534   2.864
 3794SOL     OW12280   3.961   6.094   2.459
 3794SOL    HW112281   3.973   6.025   2.387
 3794SOL    HW212282   3.907   6.056   2.533
 3795SOL     OW12283   4.857   0.324   0.449
 3795SOL    HW112284   4.772   0.275   0.468
 3795SOL    HW212285   4.894   0.293   0.361
 3796SOL     OW12286   1.867   2.422   1.279
 3796SOL    HW112287   1.946   2.361   1.274
 3796SOL    HW212288   1.880   2.487   1.354
 3797SOL     OW12289   0.573   5.436   2.783
 3797SOL    HW112290   0.533   5.527   2.800
 3797SOL    HW212291   0.500   5.370   2.768
 3798SOL     OW12292   1.290   4.555   1.721
 3798SOL    HW112293   1.210   4.601   1.682
 3798SOL    HW212294   1.304   4.586   1.815
 3799SOL     OW12295   1.522   0.633   5.220
 3799SOL    HW112296   1.529   0.533   5.226
 3799SOL    HW212297   1.574   0.665   5.141
 3800SOL     OW12298   4.877   2.561   4.862
 3800SOL    HW112299   4.933   2.557   4.945
 3800SOL    HW212300   4.900   2.485   4.802
 3801SOL     OW12301   7.003   0.375   6.693
 3801SOL    HW112302   0.043   0.402   6.617
 3801SOL    HW212303   6.936   0.447   6.712
 3802SOL     OW12304   1.518   2.310   5.582
 3802SOL    HW112305   1.593   2.330   5.644
 3802SOL    HW212306   1.462   2.393   5.569
 3803SOL     OW12307   3.604   1.544   1.132
 3803SOL    HW112308   3.514   1.508   1.155
 3803SOL    HW212309   3.654   1.565   1.215
 3804SOL     OW12310   5.000   2.700   5.737
 3804SOL    HW112311   5.028   2.655   5.653
 3804SOL    HW212312   5.003   2.800   5.724
 3805SOL     OW12313   2.188   3.959   1.078
 3805SOL    HW112314   2.105   4.008   1.106
 3805SOL    HW212315   2.185   3.942   0.980
 3806SOL     OW12316   3.028   1.598   0.349
 3806SOL    HW112317   3.007   1.580   0.253
 3806SOL    HW212318   2.997   1.522   0.405
 3807SOL     OW12319   1.234   6.946   3.081
 3807SOL    HW112320   1.320   6.997   3.092
 3807SOL    HW212321   1.200   6.959   2.988
 3808SOL     OW12322   3.377   0.741   0.641
 3808SOL    HW112323   3.444   0.797   0.690
 3808SOL    HW212324   3.420   0.655   0.612
 3809SOL     OW12325   4.268   0.575   6.345
 3809SOL    HW112326   4.273   0.671   6.316
 3809SOL    HW212327   4.215   0.569   6.430
 3810SOL     OW12328   2.898   3.180   5.652
 3810SOL    HW112329   2.944   3.140   5.573
 3810SOL    HW212330   2.966   3.219   5.715
 3811SOL     OW12331   0.248   0.551   6.392
 3811SOL    HW112332   0.165   0.501   6.368
 3811SOL    HW212333   0.248   0.640   6.347
 3812SOL     OW12334   5.587   1.537   5.682
 3812SOL    HW112335   5.577   1.617   5.742
 3812SOL    HW212336   5.498   1.510   5.647
 3813SOL     OW12337   3.815   4.845   1.781
 3813SOL    HW112338   3.894   4.783   1.774
 3813SOL    HW212339   3.734   4.793   1.807
 3814SOL     OW12340   1.336   6.452   2.717
 3814SOL    HW112341   1.406   6.493   2.775
 3814SOL    HW212342   1.247   6.457   2.764
 3815SOL     OW12343   5.925   2.116   1.935
 3815SOL    HW112344   5.871   2.144   2.014
 3815SOL    HW212345   5.934   2.192   1.871
 3816SOL     OW12346   0.479   6.672   1.741
 3816SOL    HW112347   0.430   6.585   1.736
 3816SOL    HW212348   0.414   6.747   1.729
 3817SOL     OW12349   5.371   1.476   5.506
 3817SOL    HW112350   5.280   1.454   5.470
 3817SOL    HW212351   5.441   1.436   5.446
 3818SOL     OW12352   4.948   5.374   2.756
 3818SOL    HW112353   5.033   5.393   2.708
 3818SOL    HW212354   4.968   5.334   2.846
 3819SOL     OW12355   5.672   4.312   6.194
 3819SOL    HW112356   5.628   4.369   6.124
 3819SOL    HW212357   5.762   4.350   6.215
 3820SOL     OW12358   5.460   6.218   4.469
 3820SOL    HW112359   5.550   6.260   4.484
 3820SOL    HW212360   5.388   6.285   4.488
 3821SOL     OW12361   0.705   4.145   1.442
 3821SOL    HW112362   0.646   4.064   1.442
 3821SOL    HW212363   0.783   4.129   1.382
 3822SOL     OW12364   2.032   4.795   1.972
 3822SOL    HW112365   1.954   4.852   1.948
 3822SOL    HW212366   2.052   4.805   2.070
 3823SOL     OW12367   2.956   2.670   5.420
 3823SOL    HW112368   2.948   2.740   5.491
 3823SOL    HW212369   2.991   2.713   5.336
 3824SOL     OW12370   6.864   2.449   6.495
 3824SOL    HW112371   6.787   2.385   6.495
 3824SOL    HW212372   6.941   2.409   6.445
 3825SOL     OW12373   6.751   0.161   6.277
 3825SOL    HW112374   6.808   0.191   6.354
 3825SOL    HW212375   6.655   0.182   6.296
 3826SOL     OW12376   6.832   2.544   0.992
 3826SOL    HW112377   6.923   2.511   0.966
 3826SOL    HW212378   6.765   2.472   0.975
 3827SOL     OW12379   4.932   3.066   1.067
 3827SOL    HW112380   4.980   3.142   1.024
 3827SOL    HW212381   4.875   3.020   0.998
 3828SOL     OW12382   4.133   0.920   1.731
 3828SOL    HW112383   4.175   0.837   1.768
 3828SOL    HW212384   4.204   0.985   1.704
 3829SOL     OW12385   1.076   5.534   3.659
 3829SOL    HW112386   1.093   5.539   3.757
 3829SOL    HW212387   0.985   5.571   3.638
 3830SOL     OW12388   2.938   0.613   4.736
 3830SOL    HW112389   2.920   0.651   4.827
 3830SOL    HW212390   3.037   0.611   4.720
 3831SOL     OW12391   4.147   1.811   2.202
 3831SOL    HW112392   4.109   1.722   2.226
 3831SOL    HW212393   4.207   1.843   2.276
 3832SOL     OW12394   5.566   6.925   2.460
 3832SOL    HW112395   5.472   6.936   2.428
 3832SOL    HW212396   5.589   6.828   2.460
 3833SOL     OW12397   1.476   5.330   0.198
 3833SOL    HW112398   1.502   5.419   0.235
 3833SOL    HW212399   1.444   5.271   0.272
 3834SOL     OW12400   2.449   2.204   0.735
 3834SOL    HW112401   2.456   2.300   0.762
 3834SOL    HW212402   2.408   2.197   0.645
 3835SOL     OW12403   3.602   6.053   4.485
 3835SOL    HW112404   3.663   5.983   4.448
 3835SOL    HW212405   3.651   6.107   4.554
 3836SOL     OW12406   1.759   3.310   5.379
 3836SOL    HW112407   1.848   3.354   5.385
 3836SOL    HW212408   1.763   3.233   5.317
 3837SOL     OW12409   3.527   3.721   0.084
 3837SOL    HW112410   3.455   3.651   0.077
 3837SOL    HW212411   3.490   3.809   0.056
 3838SOL     OW12412   5.779   3.478   5.277
 3838SOL    HW112413   5.816   3.526   5.356
 3838SOL    HW212414   5.703   3.419   5.305
 3839SOL     OW12415   6.359   6.424   6.203
 3839SOL    HW112416   6.284   6.479   6.241
 3839SOL    HW212417   6.356   6.333   6.244
 3840SOL     OW12418   2.695   0.578   3.751
 3840SOL    HW112419   2.695   0.534   3.661
 3840SOL    HW212420   2.787   0.579   3.789
 3841SOL     OW12421   0.371   4.174   4.901
 3841SOL    HW112422   0.328   4.084   4.900
 3841SOL    HW212423   0.364   4.212   4.993
 3842SOL     OW12424   1.530   4.952   6.535
 3842SOL    HW112425   1.470   4.897   6.478
 3842SOL    HW212426   1.548   4.904   6.621
 3843SOL     OW12427   6.016   3.994   0.622
 3843SOL    HW112428   6.028   3.914   0.682
 3843SOL    HW212429   5.918   4.010   0.607
 3844SOL     OW12430   2.522   4.104   6.292
 3844SOL    HW112431   2.450   4.170   6.270
 3844SOL    HW212432   2.610   4.139   6.260
 3845SOL     OW12433   3.154   3.606   3.803
 3845SOL    HW112434   3.200   3.670   3.741
 3845SOL    HW212435   3.076   3.565   3.756
 3846SOL     OW12436   0.148   4.021   3.824
 3846SOL    HW112437   0.199   3.962   3.761
 3846SOL    HW212438   0.054   3.988   3.831
 3847SOL     OW12439   0.863   6.981   0.877
 3847SOL    HW112440   0.945   0.005   0.837
 3847SOL    HW212441   0.785   0.024   0.866
 3848SOL     OW12442   3.051   5.076   0.723
 3848SOL    HW112443   3.143   5.065   0.684
 3848SOL    HW212444   3.024   5.172   0.716
 3849SOL     OW12445   2.190   1.770   5.983
 3849SOL    HW112446   2.141   1.790   6.068
 3849SOL    HW212447   2.289   1.767   6.002
 3850SOL     OW12448   2.397   3.558   1.354
 3850SOL    HW112449   2.440   3.552   1.263
 3850SOL    HW212450   2.366   3.652   1.369
 3851SOL     OW12451   2.121   3.060   1.577
 3851SOL    HW112452   2.086   3.101   1.661
 3851SOL    HW212453   2.069   3.095   1.499
 3852SOL     OW12454   4.657   0.893   5.910
 3852SOL    HW112455   4.667   0.907   5.812
 3852SOL    HW212456   4.635   0.980   5.955
 3853SOL     OW12457   1.150   2.731   2.087
 3853SOL    HW112458   1.172   2.777   2.001
 3853SOL    HW212459   1.079   2.663   2.071
 3854SOL     OW12460   1.771   3.233   4.872
 3854SOL    HW112461   1.824   3.308   4.831
 3854SOL    HW212462   1.829   3.153   4.882
 3855SOL     OW12463   0.269   1.731   5.015
 3855SOL    HW112464   0.355   1.734   4.963
 3855SOL    HW212465   0.195   1.769   4.959
 3856SOL     OW12466   0.602   0.081   5.540
 3856SOL    HW112467   0.657   0.087   5.623
 3856SOL    HW212468   0.598   0.170   5.495
 3857SOL     OW12469   1.249   6.868   6.934
 3857SOL    HW112470   1.158   6.835   6.956
 3857SOL    HW212471   1.248   6.967   6.923
 3858SOL     OW12472   2.435   5.216   6.794
 3858SOL    HW112473   2.409   5.122   6.814
 3858SOL    HW212474   2.394   5.245   6.708
 3859SOL     OW12475   6.835   2.754   1.480
 3859SOL    HW112476   6.862   2.821   1.550
 3859SOL    HW212477   6.739   2.730   1.493
 3860SOL     OW12478   1.969   6.380   5.248
 3860SOL    HW112479   1.878   6.402   5.214
 3860SOL    HW212480   1.972   6.283   5.275
 3861SOL     OW12481   4.205   4.280   6.947
 3861SOL    HW112482   4.171   4.354   6.889
 3861SOL    HW212483   4.295   4.251   6.914
 3862SOL     OW12484   0.775   5.139   5.980
 3862SOL    HW112485   0.834   5.194   6.039
 3862SOL    HW212486   0.823   5.055   5.953
 3863SOL     OW12487   3.027   3.242   0.608
 3863SOL    HW112488   3.029   3.267   0.511
 3863SOL    HW212489   3.017   3.324   0.664
 3864SOL     OW12490   2.994   1.606   0.078
 3864SOL    HW112491   2.922   1.541   0.051
 3864SOL    HW212492   3.078   1.585   0.028
 3865SOL     OW12493   4.200   0.910   2.394
 3865SOL    HW112494   4.254   0.925   2.311
 3865SOL    HW212495   4.243   0.838   2.448
 3866SOL     OW12496   3.609   6.533   6.199
 3866SOL    HW112497   3.646   6.616   6.156
 3866SOL    HW212498   3.538   6.558   6.265
 3867SOL     OW12499   1.779   4.345   3.278
 3867SOL    HW112500   1.785   4.248   3.302
 3867SOL    HW212501   1.737   4.395   3.354
 3868SOL     OW12502   1.615   5.253   2.722
 3868SOL    HW112503   1.697   5.210   2.686
 3868SOL    HW212504   1.601   5.225   2.817
 3869SOL     OW12505   1.497   1.641   3.715
 3869SOL    HW112506   1.545   1.712   3.664
 3869SOL    HW212507   1.554   1.610   3.791
 3870SOL     OW12508   4.001   3.914   0.680
 3870SOL    HW112509   4.065   3.962   0.740
 3870SOL    HW212510   4.052   3.851   0.622
 3871SOL     OW12511   3.084   1.507   4.301
 3871SOL    HW112512   3.017   1.576   4.332
 3871SOL    HW212513   3.036   1.422   4.281
 3872SOL     OW12514   4.103   3.501   0.431
 3872SOL    HW112515   4.029   3.479   0.367
 3872SOL    HW212516   4.159   3.419   0.446
 3873SOL     OW12517   5.207   4.609   1.861
 3873SOL    HW112518   5.212   4.702   1.897
 3873SOL    HW212519   5.116   4.593   1.823
 3874SOL     OW12520   5.018   6.121   6.271
 3874SOL    HW112521   5.112   6.134   6.238
 3874SOL    HW212522   5.018   6.055   6.346
 3875SOL     OW12523   2.276   4.137   0.263
 3875SOL    HW112524   2.318   4.167   0.349
 3875SOL    HW212525   2.347   4.102   0.202
 3876SOL     OW12526   5.520   3.873   2.459
 3876SOL    HW112527   5.619   3.888   2.457
 3876SOL    HW212528   5.473   3.950   2.416
 3877SOL     OW12529   5.495   1.563   1.820
 3877SOL    HW112530   5.506   1.463   1.814
 3877SOL    HW212531   5.405   1.584   1.858
 3878SOL     OW12532   4.625   6.081   4.461
 3878SOL    HW112533   4.600   6.143   4.535
 3878SOL    HW212534   4.571   5.997   4.468
 3879SOL     OW12535   2.942   5.483   1.329
 3879SOL    HW112536   2.995   5.569   1.328
 3879SOL    HW212537   3.002   5.408   1.357
 3880SOL     OW12538   5.644   2.235   4.048
 3880SOL    HW112539   5.610   2.160   3.992
 3880SOL    HW212540   5.641   2.209   4.145
 3881SOL     OW12541   1.104   5.291   0.845
 3881SOL    HW112542   1.041   5.363   0.875
 3881SOL    HW212543   1.056   5.203   0.847
 3882SOL     OW12544   0.938   5.995   6.598
 3882SOL    HW112545   1.029   5.986   6.640
 3882SOL    HW212546   0.903   6.087   6.616
 3883SOL     OW12547   3.362   2.209   6.354
 3883SOL    HW112548   3.428   2.280   6.329
 3883SOL    HW212549   3.315   2.235   6.438
 3884SOL     OW12550   1.969   4.857   5.737
 3884SOL    HW112551   1.978   4.858   5.837
 3884SOL    HW212552   2.054   4.823   5.697
 3885SOL     OW12553   0.344   1.964   5.299
 3885SOL    HW112554   0.354   1.885   5.238
 3885SOL    HW212555   0.343   1.933   5.394
 3886SOL     OW12556   0.282   6.374   5.367
 3886SOL    HW112557   0.225   6.294   5.349
 3886SOL    HW212558   0.223   6.454   5.384
 3887SOL     OW12559   5.594   2.991   4.720
 3887SOL    HW112560   5.512   3.024   4.673
 3887SOL    HW212561   5.651   2.940   4.656
 3888SOL     OW12562   6.130   2.273   2.134
 3888SOL    HW112563   6.046   2.235   2.172
 3888SOL    HW212564   6.148   2.232   2.045
 3889SOL     OW12565   6.574   5.737   0.055
 3889SOL    HW112566   6.565   5.836   0.063
 3889SOL    HW212567   6.586   5.713   6.977
 3890SOL     OW12568   6.574   3.010   2.423
 3890SOL    HW112569   6.557   3.108   2.437
 3890SOL    HW212570   6.621   2.996   2.336
 3891SOL     OW12571   5.665   5.359   6.396
 3891SOL    HW112572   5.666   5.436   6.460
 3891SOL    HW212573   5.614   5.283   6.436
 3892SOL     OW12574   5.620   5.702   4.371
 3892SOL    HW112575   5.635   5.801   4.369
 3892SOL    HW212576   5.575   5.673   4.287
 3893SOL     OW12577   2.989   6.164   3.967
 3893SOL    HW112578   2.904   6.112   3.958
 3893SOL    HW212579   2.986   6.218   4.051
 3894SOL     OW12580   5.157   5.555   6.785
 3894SOL    HW112581   5.084   5.623   6.776
 3894SOL    HW212582   5.244   5.602   6.796
 3895SOL     OW12583   2.095   1.866   5.737
 3895SOL    HW112584   2.130   1.812   5.814
 3895SOL    HW212585   2.002   1.836   5.715
 3896SOL     OW12586   6.611   2.811   6.524
 3896SOL    HW112587   6.649   2.781   6.436
 3896SOL    HW212588   6.686   2.837   6.585
 3897SOL     OW12589   3.247   6.829   3.054
 3897SOL    HW112590   3.155   6.795   3.072
 3897SOL    HW212591   3.313   6.755   3.070
 3898SOL     OW12592   2.866   3.519   4.541
 3898SOL    HW112593   2.860   3.482   4.634
 3898SOL    HW212594   2.870   3.444   4.475
 3899SOL     OW12595   4.001   1.776   5.363
 3899SOL    HW112596   3.906   1.771   5.330
 3899SOL    HW212597   4.016   1.706   5.433
 3900SOL     OW12598   0.057   2.533   4.019
 3900SOL    HW112599   6.978   2.547   4.037
 3900SOL    HW212600   0.087   2.596   3.946
 3901SOL     OW12601   2.513   5.168   5.167
 3901SOL    HW112602   2.559   5.231   5.105
 3901SOL    HW212603   2.418   5.157   5.138
 3902SOL     OW12604   4.406   4.690   2.977
 3902SOL    HW112605   4.343   4.656   3.047
 3902SOL    HW212606   4.494   4.642   2.985
 3903SOL     OW12607   4.532   3.380   5.751
 3903SOL    HW112608   4.571   3.388   5.659
 3903SOL    HW212609   4.551   3.288   5.787
 3904SOL     OW12610   2.340   6.751   0.257
 3904SOL    HW112611   2.423   6.700   0.236
 3904SOL    HW212612   2.337   6.773   0.354
 3905SOL     OW12613   5.596   0.353   6.485
 3905SOL    HW112614   5.572   0.312   6.396
 3905SOL    HW212615   5.590   0.453   6.478
 3906SOL     OW12616   0.200   6.266   4.792
 3906SOL    HW112617   0.201   6.342   4.857
 3906SOL    HW212618   0.278   6.274   4.731
 3907SOL     OW12619   0.695   1.678   5.082
 3907SOL    HW112620   0.682   1.764   5.131
 3907SOL    HW212621   0.788   1.645   5.098
 3908SOL     OW12622   2.579   1.280   4.362
 3908SOL    HW112623   2.504   1.341   4.340
 3908SOL    HW212624   2.550   1.185   4.347
 3909SOL     OW12625   5.068   3.346   1.566
 3909SOL    HW112626   5.152   3.372   1.518
 3909SOL    HW212627   5.058   3.246   1.563
 3910SOL     OW12628   2.798   2.532   1.066
 3910SOL    HW112629   2.739   2.492   1.136
 3910SOL    HW212630   2.879   2.571   1.109
 3911SOL     OW12631   0.357   0.905   1.407
 3911SOL    HW112632   0.335   0.906   1.505
 3911SOL    HW212633   0.422   0.832   1.388
 3912SOL     OW12634   4.491   4.255   6.899
 3912SOL    HW112635   4.488   4.192   6.977
 3912SOL    HW212636   4.578   4.243   6.851
 3913SOL     OW12637   4.099   5.732   1.588
 3913SOL    HW112638   4.137   5.770   1.504
 3913SOL    HW212639   4.117   5.795   1.664
 3914SOL     OW12640   6.423   2.165   0.012
 3914SOL    HW112641   6.365   2.104   6.977
 3914SOL    HW212642   6.386   2.173   0.105
 3915SOL     OW12643   5.086   0.408   5.425
 3915SOL    HW112644   5.176   0.451   5.420
 3915SOL    HW212645   5.023   0.468   5.474
 3916SOL     OW12646   1.706   2.808   2.315
 3916SOL    HW112647   1.658   2.751   2.381
 3916SOL    HW212648   1.641   2.837   2.243
 3917SOL     OW12649   3.955   4.818   2.162
 3917SOL    HW112650   3.862   4.826   2.126
 3917SOL    HW212651   3.956   4.844   2.259
 3918SOL     OW12652   5.073   0.126   0.633
 3918SOL    HW112653   5.095   0.223   0.623
 3918SOL    HW212654   5.062   0.104   0.730
 3919SOL     OW12655   5.026   5.730   3.701
 3919SOL    HW112656   4.991   5.730   3.608
 3919SOL    HW212657   5.053   5.823   3.727
 3920SOL     OW12658   3.281   1.847   5.516
 3920SOL    HW112659   3.210   1.892   5.571
 3920SOL    HW212660   3.277   1.882   5.423
 3921SOL     OW12661   1.634   3.623   5.963
 3921SOL    HW112662   1.710   3.688   5.966
 3921SOL    HW212663   1.629   3.581   5.872
 3922SOL     OW12664   4.846   3.048   3.305
 3922SOL    HW112665   4.824   3.145   3.293
 3922SOL    HW212666   4.846   3.002   3.216
 3923SOL     OW12667   6.110   1.738   1.651
 3923SOL    HW112668   6.108   1.658   1.711
 3923SOL    HW212669   6.038   1.730   1.582
 3924SOL     OW12670   4.749   4.675   4.536
 3924SOL    HW112671   4.686   4.598   4.526
 3924SOL    HW212672   4.839   4.650   4.501
 3925SOL     OW12673   4.097   5.907   1.788
 3925SOL    HW112674   4.191   5.923   1.816
 3925SOL    HW212675   4.058   5.992   1.753
 3926SOL     OW12676   0.811   5.895   4.966
 3926SOL    HW112677   0.829   5.825   4.897
 3926SOL    HW212678   0.725   5.875   5.012
 3927SOL     OW12679   5.751   1.050   5.358
 3927SOL    HW112680   5.774   1.010   5.446
 3927SOL    HW212681   5.829   1.104   5.324
 3928SOL     OW12682   3.951   5.791   2.416
 3928SOL    HW112683   4.022   5.803   2.485
 3928SOL    HW212684   3.976   5.717   2.354
 3929SOL     OW12685   0.814   1.723   5.876
 3929SOL    HW112686   0.727   1.678   5.896
 3929SOL    HW212687   0.807   1.772   5.790
 3930SOL     OW12688   1.656   5.611   3.696
 3930SOL    HW112689   1.682   5.610   3.792
 3930SOL    HW212690   1.565   5.571   3.685
 3931SOL     OW12691   0.904   2.481   0.182
 3931SOL    HW112692   0.907   2.544   0.259
 3931SOL    HW212693   0.852   2.399   0.207
 3932SOL     OW12694   2.376   4.423   2.681
 3932SOL    HW112695   2.340   4.515   2.664
 3932SOL    HW212696   2.301   4.357   2.678
 3933SOL     OW12697   2.132   5.963   1.294
 3933SOL    HW112698   2.107   5.873   1.258
 3933SOL    HW212699   2.084   5.979   1.381
 3934SOL     OW12700   2.271   6.208   1.481
 3934SOL    HW112701   2.224   6.122   1.498
 3934SOL    HW212702   2.255   6.237   1.386
 3935SOL     OW12703   0.090   3.002   4.788
 3935SOL    HW112704   0.083   3.102   4.786
 3935SOL    HW212705   0.045   2.967   4.871
 3936SOL     OW12706   0.295   4.482   4.418
 3936SOL    HW112707   0.241   4.469   4.501
 3936SOL    HW212708   0.350   4.400   4.401
 3937SOL     OW12709   1.003   6.194   0.352
 3937SOL    HW112710   1.100   6.206   0.371
 3937SOL    HW212711   0.958   6.154   0.431
 3938SOL     OW12712   0.341   3.149   0.420
 3938SOL    HW112713   0.370   3.065   0.467
 3938SOL    HW212714   0.421   3.207   0.402
 3939SOL     OW12715   1.639   6.219   3.896
 3939SOL    HW112716   1.568   6.211   3.826
 3939SOL    HW212717   1.654   6.316   3.917
 3940SOL     OW12718   2.361   5.827   6.358
 3940SOL    HW112719   2.394   5.862   6.271
 3940SOL    HW212720   2.264   5.850   6.368
 3941SOL     OW12721   5.134   5.674   2.215
 3941SOL    HW112722   5.180   5.587   2.232
 3941SOL    HW212723   5.046   5.676   2.262
 3942SOL     OW12724   6.508   6.217   6.536
 3942SOL    HW112725   6.472   6.153   6.604
 3942SOL    HW212726   6.469   6.308   6.553
 3943SOL     OW12727   1.657   3.620   6.700
 3943SOL    HW112728   1.599   3.685   6.750
 3943SOL    HW212729   1.752   3.632   6.728
 3944SOL     OW12730   4.618   3.141   6.971
 3944SOL    HW112731   4.654   3.076   6.904
 3944SOL    HW212732   4.613   3.096   0.043
 3945SOL     OW12733   5.867   0.718   3.313
 3945SOL    HW112734   5.903   0.669   3.233
 3945SOL    HW212735   5.940   0.775   3.352
 3946SOL     OW12736   0.132   3.018   0.243
 3946SOL    HW112737   0.046   3.032   0.293
 3946SOL    HW212738   0.208   3.055   0.297
 3947SOL     OW12739   5.264   6.572   2.086
 3947SOL    HW112740   5.224   6.642   2.145
 3947SOL    HW212741   5.257   6.483   2.130
 3948SOL     OW12742   2.120   1.856   5.164
 3948SOL    HW112743   2.141   1.878   5.260
 3948SOL    HW212744   2.145   1.933   5.106
 3949SOL     OW12745   6.495   6.941   2.469
 3949SOL    HW112746   6.431   6.896   2.408
 3949SOL    HW212747   6.588   6.908   2.451
 3950SOL     OW12748   3.077   4.530   1.657
 3950SOL    HW112749   3.172   4.514   1.682
 3950SOL    HW212750   3.017   4.501   1.731
 3951SOL     OW12751   0.496   2.761   3.922
 3951SOL    HW112752   0.509   2.666   3.893
 3951SOL    HW212753   0.513   2.768   4.020
 3952SOL     OW12754   5.758   4.122   0.133
 3952SOL    HW112755   5.798   4.143   0.044
 3952SOL    HW212756   5.823   4.071   0.188
 3953SOL     OW12757   3.017   3.893   5.876
 3953SOL    HW112758   3.058   3.873   5.787
 3953SOL    HW212759   3.058   3.835   5.946
 3954SOL     OW12760   0.193   3.295   4.778
 3954SOL    HW112761   0.122   3.334   4.720
 3954SOL    HW212762   0.262   3.365   4.797
 3955SOL     OW12763   6.035   3.740   0.354
 3955SOL    HW112764   5.995   3.669   0.296
 3955SOL    HW212765   6.040   3.707   0.449
 3956SOL     OW12766   6.449   2.810   5.283
 3956SOL    HW112767   6.359   2.767   5.292
 3956SOL    HW212768   6.483   2.835   5.373
 3957SOL     OW12769   0.914   1.807   1.895
 3957SOL    HW112770   0.843   1.877   1.893
 3957SOL    HW212771   0.950   1.792   1.803
 3958SOL     OW12772   5.292   6.098   0.818
 3958SOL    HW112773   5.209   6.061   0.776
 3958SOL    HW212774   5.325   6.176   0.764
 3959SOL     OW12775   2.178   5.371   1.822
 3959SOL    HW112776   2.252   5.437   1.838
 3959SOL    HW212777   2.148   5.378   1.727
 3960SOL     OW12778   5.143   3.131   0.658
 3960SOL    HW112779   5.075   3.057   0.654
 3960SOL    HW212780   5.223   3.105   0.605
 3961SOL     OW12781   6.556   0.463   1.363
 3961SOL    HW112782   6.480   0.407   1.394
 3961SOL    HW212783   6.630   0.404   1.331
 3962SOL     OW12784   0.026   0.424   6.310
 3962SOL    HW112785   0.014   0.427   6.210
 3962SOL    HW212786   0.009   0.331   6.343
 3963SOL     OW12787   5.024   4.456   3.703
 3963SOL    HW112788   5.011   4.541   3.755
 3963SOL    HW212789   4.969   4.461   3.619
 3964SOL     OW12790   5.613   5.456   0.381
 3964SOL    HW112791   5.572   5.412   0.461
 3964SOL    HW212792   5.637   5.551   0.404
 3965SOL     OW12793   3.459   3.753   1.161
 3965SOL    HW112794   3.472   3.654   1.171
 3965SOL    HW212795   3.364   3.771   1.136
 3966SOL     OW12796   6.852   4.149   6.144
 3966SOL    HW112797   6.932   4.207   6.124
 3966SOL    HW212798   6.770   4.192   6.106
 3967SOL     OW12799   2.077   6.374   0.244
 3967SOL    HW112800   2.177   6.365   0.238
 3967SOL    HW212801   2.045   6.333   0.329
 3968SOL     OW12802   4.676   1.789   1.052
 3968SOL    HW112803   4.605   1.843   1.097
 3968SOL    HW212804   4.729   1.739   1.120
 3969SOL     OW12805   0.126   6.535   1.068
 3969SOL    HW112806   0.109   6.445   1.029
 3969SOL    HW212807   0.212   6.571   1.033
 3970SOL     OW12808   5.039   4.271   3.896
 3970SOL    HW112809   5.083   4.339   3.955
 3970SOL    HW212810   5.024   4.310   3.805
 3971SOL     OW12811   0.290   6.243   4.023
 3971SOL    HW112812   0.321   6.154   3.991
 3971SOL    HW212813   0.192   6.241   4.040
 3972SOL     OW12814   1.115   6.850   6.157
 3972SOL    HW112815   1.027   6.837   6.111
 3972SOL    HW212816   1.172   6.912   6.104
 3973SOL     OW12817   3.613   3.119   3.032
 3973SOL    HW112818   3.613   3.019   3.038
 3973SOL    HW212819   3.537   3.149   2.975
 3974SOL     OW12820   5.199   1.047   6.734
 3974SOL    HW112821   5.268   0.977   6.714
 3974SOL    HW212822   5.178   1.045   6.832
 3975SOL     OW12823   0.164   6.637   5.361
 3975SOL    HW112824   0.121   6.697   5.294
 3975SOL    HW212825   0.192   6.692   5.441
 3976SOL     OW12826   0.624   3.070   6.342
 3976SOL    HW112827   0.541   3.108   6.382
 3976SOL    HW212828   0.685   3.144   6.313
 3977SOL     OW12829   3.044   5.678   4.972
 3977SOL    HW112830   3.069   5.586   4.942
 3977SOL    HW212831   3.073   5.745   4.904
 3978SOL     OW12832   6.318   3.655   6.860
 3978SOL    HW112833   6.247   3.669   6.929
 3978SOL    HW212834   6.278   3.666   6.768
 3979SOL     OW12835   0.972   6.337   3.343
 3979SOL    HW112836   0.881   6.344   3.384
 3979SOL    HW212837   0.998   6.240   3.338
 3980SOL     OW12838   4.943   4.086   4.077
 3980SOL    HW112839   5.011   4.099   4.149
 3980SOL    HW212840   4.962   4.150   4.002
 3981SOL     OW12841   6.807   1.606   6.124
 3981SOL    HW112842   6.838   1.678   6.186
 3981SOL    HW212843   6.745   1.544   6.173
 3982SOL     OW12844   2.093   2.836   4.238
 3982SOL    HW112845   2.038   2.755   4.219
 3982SOL    HW212846   2.186   2.822   4.204
 3983SOL     OW12847   3.185   6.729   3.982
 3983SOL    HW112848   3.126   6.677   3.919
 3983SOL    HW212849   3.130   6.762   4.059
 3984SOL     OW12850   1.968   5.933   2.015
 3984SOL    HW112851   2.059   5.910   2.050
 3984SOL    HW212852   1.910   5.965   2.090
 3985SOL     OW12853   1.687   3.075   1.626
 3985SOL    HW112854   1.707   2.979   1.605
 3985SOL    HW212855   1.752   3.108   1.695
 3986SOL     OW12856   1.061   2.213   2.332
 3986SOL    HW112857   1.150   2.254   2.348
 3986SOL    HW212858   1.064   2.158   2.248
 3987SOL     OW12859   1.518   4.039   5.474
 3987SOL    HW112860   1.600   4.050   5.531
 3987SOL    HW212861   1.515   3.945   5.440
 3988SOL     OW12862   5.028   6.965   1.553
 3988SOL    HW112863   5.068   7.014   1.631
 3988SOL    HW212864   5.062   6.871   1.552
 3989SOL     OW12865   3.934   0.496   5.797
 3989SOL    HW112866   3.900   0.589   5.816
 3989SOL    HW212867   3.856   0.436   5.780
 3990SOL     OW12868   0.070   1.915   3.530
 3990SOL    HW112869   0.009   1.937   3.454
 3990SOL    HW212870   0.122   1.833   3.507
 3991SOL     OW12871   0.810   2.131   3.547
 3991SOL    HW112872   0.755   2.059   3.503
 3991SOL    HW212873   0.851   2.188   3.476
 3992SOL     OW12874   5.846   3.472   6.350
 3992SOL    HW112875   5.758   3.425   6.351
 3992SOL    HW212876   5.873   3.489   6.256
 3993SOL     OW12877   2.109   0.823   4.250
 3993SOL    HW112878   2.068   0.870   4.328
 3993SOL    HW212879   2.114   0.887   4.173
 3994SOL     OW12880   3.004   2.216   3.391
 3994SOL    HW112881   2.990   2.254   3.483
 3994SOL    HW212882   3.041   2.124   3.398
 3995SOL     OW12883   1.533   3.032   1.993
 3995SOL    HW112884   1.472   2.988   2.059
 3995SOL    HW212885   1.594   2.964   1.953
 3996SOL     OW12886   6.009   6.434   5.281
 3996SOL    HW112887   5.961   6.402   5.363
 3996SOL    HW212888   5.947   6.492   5.228
 3997SOL     OW12889   5.519   3.397   3.307
 3997SOL    HW112890   5.563   3.347   3.233
 3997SOL    HW212891   5.427   3.361   3.322
 3998SOL     OW12892   4.570   1.591   3.728
 3998SOL    HW112893   4.487   1.632   3.764
 3998SOL    HW212894   4.601   1.642   3.648
 3999SOL     OW12895   4.128   3.361   1.082
 3999SOL    HW112896   4.142   3.379   1.179
 3999SOL    HW212897   4.112   3.447   1.034
 4000SOL     OW12898   2.169   5.041   2.627
 4000SOL    HW112899   2.170   5.134   2.590
 4000SOL    HW212900   2.261   5.002   2.623
 4001SOL     OW12901   6.631   5.698   4.792
 4001SOL    HW112902   6.687   5.642   4.853
 4001SOL    HW212903   6.640   5.663   4.698
 4002SOL     OW12904   4.158   3.554   4.527
 4002SOL    HW112905   4.243   3.595   4.492
 4002SOL    HW212906   4.084   3.570   4.460
 4003SOL     OW12907   2.067   1.418   4.502
 4003SOL    HW112908   2.021   1.361   4.570
 4003SOL    HW212909   2.162   1.387   4.491
 4004SOL     OW12910   1.441   4.456   4.168
 4004SOL    HW112911   1.366   4.499   4.119
 4004SOL    HW212912   1.429   4.471   4.266
 4005SOL     OW12913   4.975   3.294   6.943
 4005SOL    HW112914   4.932   3.294   0.015
 4005SOL    HW212915   5.051   3.229   6.942
 4006SOL     OW12916   6.885   5.653   2.321
 4006SOL    HW112917   6.966   5.713   2.324
 4006SOL    HW212918   6.852   5.637   2.414
 4007SOL     OW12919   6.819   0.669   2.087
 4007SOL    HW112920   6.883   0.606   2.131
 4007SOL    HW212921   6.844   0.763   2.109
 4008SOL     OW12922   2.571   1.098   1.168
 4008SOL    HW112923   2.539   1.100   1.262
 4008SOL    HW212924   2.668   1.122   1.165
 4009SOL     OW12925   4.246   2.358   0.596
 4009SOL    HW112926   4.199   2.441   0.626
 4009SOL    HW212927   4.259   2.361   0.497
 4010SOL     OW12928   1.614   4.338   1.129
 4010SOL    HW112929   1.622   4.249   1.083
 4010SOL    HW212930   1.704   4.365   1.163
 4011SOL     OW12931   6.349   6.294   5.970
 4011SOL    HW112932   6.332   6.217   6.032
 4011SOL    HW212933   6.379   6.374   6.023
 4012SOL     OW12934   5.736   6.309   2.818
 4012SOL    HW112935   5.754   6.407   2.823
 4012SOL    HW212936   5.787   6.269   2.742
 4013SOL     OW12937   6.873   1.660   6.543
 4013SOL    HW112938   6.893   1.574   6.496
 4013SOL    HW212939   6.875   1.735   6.477
 4014SOL     OW12940   3.287   5.331   2.074
 4014SOL    HW112941   3.351   5.376   2.012
 4014SOL    HW212942   3.239   5.257   2.025
 4015SOL     OW12943   4.147   5.112   6.427
 4015SOL    HW112944   4.178   5.053   6.502
 4015SOL    HW212945   4.226   5.157   6.385
 4016SOL     OW12946   5.289   4.846   4.570
 4016SOL    HW112947   5.231   4.766   4.554
 4016SOL    HW212948   5.377   4.815   4.607
 4017SOL     OW12949   0.997   5.049   5.648
 4017SOL    HW112950   1.019   4.977   5.581
 4017SOL    HW212951   0.981   5.007   5.737
 4018SOL     OW12952   3.898   5.726   0.605
 4018SOL    HW112953   3.975   5.675   0.643
 4018SOL    HW212954   3.923   5.763   0.516
 4019SOL     OW12955   6.049   4.036   2.360
 4019SOL    HW112956   6.000   3.964   2.311
 4019SOL    HW212957   6.147   4.030   2.340
 4020SOL     OW12958   6.354   5.346   4.831
 4020SOL    HW112959   6.257   5.323   4.817
 4020SOL    HW212960   6.409   5.296   4.764
 4021SOL     OW12961   4.906   4.729   6.249
 4021SOL    HW112962   4.851   4.649   6.274
 4021SOL    HW212963   4.942   4.771   6.331
 4022SOL     OW12964   2.763   6.291   1.315
 4022SOL    HW112965   2.737   6.383   1.286
 4022SOL    HW212966   2.702   6.260   1.388
 4023SOL     OW12967   0.775   1.534   4.325
 4023SOL    HW112968   0.793   1.546   4.227
 4023SOL    HW212969   0.791   1.620   4.373
 4024SOL     OW12970   0.815   6.629   4.959
 4024SOL    HW112971   0.750   6.691   5.003
 4024SOL    HW212972   0.905   6.672   4.955
 4025SOL     OW12973   6.635   5.462   4.131
 4025SOL    HW112974   6.637   5.371   4.174
 4025SOL    HW212975   6.601   5.454   4.038
 4026SOL     OW12976   0.389   6.538   4.544
 4026SOL    HW112977   0.422   6.450   4.579
 4026SOL    HW212978   0.366   6.598   4.620
 4027SOL     OW12979   3.422   5.034   4.821
 4027SOL    HW112980   3.368   5.103   4.870
 4027SOL    HW212981   3.365   4.953   4.806
 4028SOL     OW12982   5.015   1.032   3.600
 4028SOL    HW112983   4.975   0.991   3.519
 4028SOL    HW212984   5.084   0.971   3.639
 4029SOL     OW12985   1.714   6.271   0.594
 4029SOL    HW112986   1.750   6.312   0.678
 4029SOL    HW212987   1.635   6.214   0.616
 4030SOL     OW12988   0.789   1.940   2.216
 4030SOL    HW112989   0.724   1.973   2.285
 4030SOL    HW212990   0.882   1.949   2.252
 4031SOL     OW12991   6.060   6.268   0.767
 4031SOL    HW112992   6.005   6.201   0.718
 4031SOL    HW212993   6.079   6.345   0.706
 4032SOL     OW12994   5.007   0.715   2.647
 4032SOL    HW112995   4.982   0.803   2.606
 4032SOL    HW212996   4.957   0.642   2.601
 4033SOL     OW12997   2.115   2.358   2.271
 4033SOL    HW112998   2.143   2.428   2.338
 4033SOL    HW212999   2.177   2.280   2.277
 4034SOL     OW13000   1.338   2.787   4.889
 4034SOL    HW113001   1.296   2.794   4.798
 4034SOL    HW213002   1.391   2.702   4.895
 4035SOL     OW13003   4.493   1.996   1.711
 4035SOL    HW113004   4.424   1.986   1.782
 4035SOL    HW213005   4.577   2.033   1.751
 4036SOL     OW13006   3.036   5.478   3.460
 4036SOL    HW113007   2.938   5.488   3.447
 4036SOL    HW213008   3.083   5.498   3.374
 4037SOL     OW13009   2.477   1.685   5.984
 4037SOL    HW113010   2.569   1.688   5.945
 4037SOL    HW213011   2.464   1.598   6.031
 4038SOL     OW13012   3.341   4.585   5.619
 4038SOL    HW113013   3.257   4.538   5.645
 4038SOL    HW213014   3.397   4.525   5.563
 4039SOL     OW13015   5.462   5.185   1.370
 4039SOL    HW113016   5.516   5.256   1.417
 4039SOL    HW213017   5.391   5.151   1.431
 4040SOL     OW13018   3.142   6.768   5.206
 4040SOL    HW113019   3.055   6.779   5.254
 4040SOL    HW213020   3.128   6.778   5.107
 4041SOL     OW13021   1.526   6.224   1.504
 4041SOL    HW113022   1.485   6.305   1.546
 4041SOL    HW213023   1.483   6.141   1.541
 4042SOL     OW13024   0.277   1.238   2.584
 4042SOL    HW113025   0.326   1.261   2.668
 4042SOL    HW213026   0.180   1.259   2.596
 4043SOL     OW13027   5.000   3.286   6.193
 4043SOL    HW113028   4.996   3.229   6.276
 4043SOL    HW213029   4.973   3.380   6.216
 4044SOL     OW13030   4.810   3.964   2.730
 4044SOL    HW113031   4.877   3.892   2.712
 4044SOL    HW213032   4.756   3.940   2.811
 4045SOL     OW13033   4.736   0.616   5.328
 4045SOL    HW113034   4.735   0.668   5.414
 4045SOL    HW213035   4.760   0.676   5.252
 4046SOL     OW13036   5.000   1.687   3.068
 4046SOL    HW113037   4.932   1.618   3.042
 4046SOL    HW213038   5.082   1.641   3.102
 4047SOL     OW13039   3.020   2.692   6.448
 4047SOL    HW113040   3.088   2.762   6.470
 4047SOL    HW213041   2.937   2.736   6.415
 4048SOL     OW13042   5.099   1.841   2.842
 4048SOL    HW113043   5.034   1.906   2.803
 4048SOL    HW213044   5.049   1.772   2.895
 4049SOL     OW13045   4.184   3.738   0.575
 4049SOL    HW113046   4.259   3.790   0.534
 4049SOL    HW213047   4.154   3.668   0.511
 4050SOL     OW13048   0.981   5.463   2.222
 4050SOL    HW113049   1.032   5.386   2.183
 4050SOL    HW213050   1.021   5.549   2.191
 4051SOL     OW13051   5.556   1.141   5.110
 4051SOL    HW113052   5.483   1.085   5.147
 4051SOL    HW213053   5.643   1.112   5.150
 4052SOL     OW13054   5.578   1.980   3.272
 4052SOL    HW113055   5.665   1.930   3.276
 4052SOL    HW213056   5.534   1.976   3.362
 4053SOL     OW13057   0.917   5.303   4.056
 4053SOL    HW113058   0.878   5.387   4.017
 4053SOL    HW213059   1.004   5.284   4.012
 4054SOL     OW13060   3.762   3.733   1.150
 4054SOL    HW113061   3.679   3.764   1.197
 4054SOL    HW213062   3.738   3.686   1.065
 4055SOL     OW13063   0.565   3.847   6.985
 4055SOL    HW113064   0.534   3.923   6.928
 4055SOL    HW213065   0.514   3.846   0.053
 4056SOL     OW13066   4.631   3.717   0.119
 4056SOL    HW113067   4.615   3.629   0.076
 4056SOL    HW213068   4.717   3.756   0.086
 4057SOL     OW13069   7.015   3.449   0.368
 4057SOL    HW113070   7.000   3.547   0.353
 4057SOL    HW213071   0.028   3.406   0.283
 4058SOL     OW13072   2.595   0.427   5.430
 4058SOL    HW113073   2.651   0.457   5.508
 4058SOL    HW213074   2.620   0.334   5.405
 4059SOL     OW13075   0.729   1.412   3.648
 4059SOL    HW113076   0.651   1.474   3.642
 4059SOL    HW213077   0.803   1.447   3.591
 4060SOL     OW13078   6.981   6.466   5.143
 4060SOL    HW113079   6.967   6.367   5.148
 4060SOL    HW213080   0.059   6.484   5.122
 4061SOL     OW13081   0.834   5.295   1.225
 4061SOL    HW113082   0.745   5.255   1.245
 4061SOL    HW213083   0.825   5.394   1.214
 4062SOL     OW13084   2.188   3.326   1.339
 4062SOL    HW113085   2.236   3.354   1.423
 4062SOL    HW213086   2.098   3.290   1.363
 4063SOL     OW13087   4.693   0.411   0.157
 4063SOL    HW113088   4.630   0.442   0.086
 4063SOL    HW213089   4.641   0.388   0.240
 4064SOL     OW13090   1.730   1.219   5.929
 4064SOL    HW113091   1.681   1.165   5.860
 4064SOL    HW213092   1.665   1.247   6.000
 4065SOL     OW13093   2.499   6.940   0.802
 4065SOL    HW113094   2.453   0.002   0.763
 4065SOL    HW213095   2.568   6.907   0.739
 4066SOL     OW13096   1.154   3.525   3.487
 4066SOL    HW113097   1.149   3.453   3.418
 4066SOL    HW213098   1.183   3.486   3.574
 4067SOL     OW13099   5.238   4.813   0.592
 4067SOL    HW113100   5.282   4.844   0.508
 4067SOL    HW213101   5.151   4.861   0.605
 4068SOL     OW13102   2.299   2.768   5.135
 4068SOL    HW113103   2.306   2.862   5.100
 4068SOL    HW213104   2.371   2.712   5.094
 4069SOL     OW13105   4.485   7.012   6.397
 4069SOL    HW113106   4.388   0.003   6.377
 4069SOL    HW213107   4.513   6.917   6.385
 4070SOL     OW13108   1.459   3.577   3.618
 4070SOL    HW113109   1.453   3.562   3.519
 4070SOL    HW213110   1.489   3.670   3.637
 4071SOL     OW13111   1.781   0.740   4.292
 4071SOL    HW113112   1.793   0.733   4.193
 4071SOL    HW213113   1.810   0.655   4.335
 4072SOL     OW13114   2.590   5.388   3.034
 4072SOL    HW113115   2.606   5.315   2.967
 4072SOL    HW213116   2.502   5.432   3.015
 4073SOL     OW13117   4.068   4.797   0.208
 4073SOL    HW113118   4.011   4.721   0.237
 4073SOL    HW213119   4.057   4.811   0.110
 4074SOL     OW13120   1.276   5.910   3.025
 4074SOL    HW113121   1.288   5.879   2.931
 4074SOL    HW213122   1.235   5.837   3.080
 4075SOL     OW13123   6.942   0.847   0.750
 4075SOL    HW113124   6.849   0.811   0.738
 4075SOL    HW213125   7.000   0.776   0.789
 4076SOL     OW13126   2.277   4.588   4.624
 4076SOL    HW113127   2.182   4.565   4.605
 4076SOL    HW213128   2.337   4.520   4.584
 4077SOL     OW13129   3.288   0.820   1.415
 4077SOL    HW113130   3.196   0.847   1.443
 4077SOL    HW213131   3.353   0.848   1.485
 4078SOL     OW13132   3.132   4.862   2.506
 4078SOL    HW113133   3.156   4.900   2.596
 4078SOL    HW213134   3.034   4.840   2.505
 4079SOL     OW13135   0.857   1.629   4.083
 4079SOL    HW113136   0.815   1.720   4.073
 4079SOL    HW213137   0.937   1.636   4.142
 4080SOL     OW13138   6.693   2.161   5.014
 4080SOL    HW113139   6.656   2.096   4.948
 4080SOL    HW213140   6.788   2.181   4.993
 4081SOL     OW13141   2.118   3.567   3.751
 4081SOL    HW113142   2.123   3.584   3.653
 4081SOL    HW213143   2.023   3.548   3.777
 4082SOL     OW13144   1.003   3.478   1.066
 4082SOL    HW113145   0.996   3.445   1.160
 4082SOL    HW213146   1.010   3.400   1.003
 4083SOL     OW13147   5.591   3.010   4.315
 4083SOL    HW113148   5.591   3.109   4.326
 4083SOL    HW213149   5.672   2.971   4.359
 4084SOL     OW13150   0.407   1.574   4.258
 4084SOL    HW113151   0.464   1.637   4.312
 4084SOL    HW213152   0.465   1.524   4.194
 4085SOL     OW13153   2.586   6.409   0.298
 4085SOL    HW113154   2.667   6.462   0.271
 4085SOL    HW213155   2.616   6.319   0.332
 4086SOL     OW13156   0.854   4.950   0.398
 4086SOL    HW113157   0.864   5.049   0.409
 4086SOL    HW213158   0.944   4.909   0.382
 4087SOL     OW13159   1.613   1.764   2.800
 4087SOL    HW113160   1.546   1.691   2.808
 4087SOL    HW213161   1.602   1.828   2.877
 4088SOL     OW13162   6.413   2.220   0.585
 4088SOL    HW113163   6.327   2.247   0.627
 4088SOL    HW213164   6.396   2.180   0.495
 4089SOL     OW13165   1.060   1.517   5.541
 4089SOL    HW113166   1.096   1.434   5.499
 4089SOL    HW213167   1.135   1.569   5.580
 4090SOL     OW13168   1.782   5.046   5.848
 4090SOL    HW113169   1.836   5.026   5.767
 4090SOL    HW213170   1.778   4.965   5.906
 4091SOL     OW13171   4.494   6.030   0.121
 4091SOL    HW113172   4.539   5.942   0.138
 4091SOL    HW213173   4.560   6.094   0.082
 4092SOL     OW13174   0.468   2.375   4.547
 4092SOL    HW113175   0.453   2.445   4.477
 4092SOL    HW213176   0.382   2.329   4.568
 4093SOL     OW13177   5.930   0.761   4.900
 4093SOL    HW113178   6.029   0.762   4.905
 4093SOL    HW213179   5.892   0.823   4.968
 4094SOL     OW13180   2.716   4.519   5.380
 4094SOL    HW113181   2.779   4.521   5.302
 4094SOL    HW213182   2.682   4.426   5.393
 4095SOL     OW13183   1.776   4.186   6.122
 4095SOL    HW113184   1.745   4.183   6.218
 4095SOL    HW213185   1.722   4.122   6.068
 4096SOL     OW13186   4.083   4.751   1.935
 4096SOL    HW113187   4.176   4.716   1.946
 4096SOL    HW213188   4.040   4.760   2.025
 4097SOL     OW13189   3.383   3.834   4.644
 4097SOL    HW113190   3.347   3.927   4.643
 4097SOL    HW213191   3.471   3.832   4.691
 4098SOL     OW13192   0.381   2.297   2.624
 4098SOL    HW113193   0.345   2.382   2.584
 4098SOL    HW213194   0.318   2.222   2.606
 4099SOL     OW13195   3.669   6.180   1.819
 4099SOL    HW113196   3.701   6.267   1.855
 4099SOL    HW213197   3.651   6.117   1.895
 4100SOL     OW13198   3.691   6.151   3.285
 4100SOL    HW113199   3.682   6.206   3.202
 4100SOL    HW213200   3.787   6.147   3.313
 4101SOL     OW13201   4.790   0.891   6.212
 4101SOL    HW113202   4.869   0.850   6.165
 4101SOL    HW213203   4.724   0.819   6.233
 4102SOL     OW13204   5.853   1.225   0.609
 4102SOL    HW113205   5.914   1.246   0.686
 4102SOL    HW213206   5.902   1.167   0.544
 4103SOL     OW13207   0.625   0.241   2.480
 4103SOL    HW113208   0.613   0.148   2.515
 4103SOL    HW213209   0.631   0.239   2.381
 4104SOL     OW13210   1.717   4.591   2.609
 4104SOL    HW113211   1.808   4.549   2.617
 4104SOL    HW213212   1.655   4.548   2.674
 4105SOL     OW13213   5.131   5.041   0.013
 4105SOL    HW113214   5.231   5.038   0.022
 4105SOL    HW213215   5.105   5.116   6.971
 4106SOL     OW13216   6.569   3.803   4.856
 4106SOL    HW113217   6.629   3.864   4.908
 4106SOL    HW213218   6.479   3.845   4.844
 4107SOL     OW13219   6.873   0.841   1.198
 4107SOL    HW113220   6.969   0.850   1.170
 4107SOL    HW213221   6.813   0.854   1.119
 4108SOL     OW13222   6.590   3.209   5.712
 4108SOL    HW113223   6.686   3.232   5.700
 4108SOL    HW213224   6.581   3.111   5.731
 4109SOL     OW13225   3.279   5.922   2.970
 4109SOL    HW113226   3.320   5.845   3.018
 4109SOL    HW213227   3.346   5.997   2.965
 4110SOL     OW13228   4.851   3.176   5.667
 4110SOL    HW113229   4.761   3.133   5.654
 4110SOL    HW213230   4.852   3.226   5.753
 4111SOL     OW13231   4.598   2.935   0.162
 4111SOL    HW113232   4.512   2.884   0.154
 4111SOL    HW213233   4.645   2.908   0.246
 4112SOL     OW13234   3.666   0.814   4.385
 4112SOL    HW113235   3.760   0.783   4.370
 4112SOL    HW213236   3.602   0.754   4.337
 4113SOL     OW13237   3.462   5.233   4.374
 4113SOL    HW113238   3.505   5.323   4.366
 4113SOL    HW213239   3.403   5.218   4.294
 4114SOL     OW13240   2.565   2.138   2.607
 4114SOL    HW113241   2.645   2.190   2.636
 4114SOL    HW213242   2.492   2.201   2.581
 4115SOL     OW13243   5.142   4.896   1.875
 4115SOL    HW113244   5.221   4.896   1.813
 4115SOL    HW213245   5.059   4.880   1.822
 4116SOL     OW13246   3.129   0.712   1.825
 4116SOL    HW113247   3.195   0.641   1.800
 4116SOL    HW213248   3.168   0.802   1.808
 4117SOL     OW13249   1.096   5.685   2.156
 4117SOL    HW113250   1.073   5.741   2.077
 4117SOL    HW213251   1.195   5.690   2.173
 4118SOL     OW13252   2.635   6.834   0.207
 4118SOL    HW113253   2.624   6.850   0.109
 4118SOL    HW213254   2.718   6.780   0.222
 4119SOL     OW13255   4.360   1.150   3.046
 4119SOL    HW113256   4.367   1.156   3.145
 4119SOL    HW213257   4.451   1.158   3.005
 4120SOL     OW13258   3.620   1.059   1.597
 4120SOL    HW113259   3.712   1.063   1.558
 4120SOL    HW213260   3.579   1.151   1.596
 4121SOL     OW13261   6.402   2.743   4.791
 4121SOL    HW113262   6.379   2.834   4.759
 4121SOL    HW213263   6.493   2.718   4.760
 4122SOL     OW13264   1.666   5.635   6.499
 4122SOL    HW113265   1.639   5.674   6.587
 4122SOL    HW213266   1.618   5.549   6.484
 4123SOL     OW13267   5.213   3.781   6.426
 4123SOL    HW113268   5.204   3.861   6.485
 4123SOL    HW213269   5.126   3.730   6.425
 4124SOL     OW13270   5.131   6.576   3.621
 4124SOL    HW113271   5.154   6.619   3.533
 4124SOL    HW213272   5.182   6.491   3.630
 4125SOL     OW13273   5.162   1.581   1.333
 4125SOL    HW113274   5.118   1.513   1.391
 4125SOL    HW213275   5.103   1.603   1.256
 4126SOL     OW13276   2.276   4.685   4.059
 4126SOL    HW113277   2.328   4.711   4.141
 4126SOL    HW213278   2.180   4.707   4.072
 4127SOL     OW13279   6.622   3.672   5.433
 4127SOL    HW113280   6.580   3.726   5.360
 4127SOL    HW213281   6.664   3.732   5.500
 4128SOL     OW13282   0.918   1.984   2.766
 4128SOL    HW113283   0.932   2.006   2.669
 4128SOL    HW213284   0.833   1.933   2.777
 4129SOL     OW13285   5.654   2.118   5.960
 4129SOL    HW113286   5.721   2.190   5.941
 4129SOL    HW213287   5.669   2.082   6.052
 4130SOL     OW13288   5.838   3.595   1.207
 4130SOL    HW113289   5.832   3.624   1.303
 4130SOL    HW213290   5.885   3.666   1.154
 4131SOL     OW13291   6.457   4.179   3.245
 4131SOL    HW113292   6.369   4.144   3.279
 4131SOL    HW213293   6.532   4.131   3.291
 4132SOL     OW13294   4.937   1.901   4.234
 4132SOL    HW113295   4.953   1.962   4.312
 4132SOL    HW213296   4.839   1.895   4.216
 4133SOL     OW13297   2.821   1.973   1.306
 4133SOL    HW113298   2.900   1.973   1.367
 4133SOL    HW213299   2.740   2.002   1.357
 4134SOL     OW13300   0.976   1.762   6.892
 4134SOL    HW113301   0.889   1.778   6.844
 4134SOL    HW213302   1.023   1.849   6.904
 4135SOL     OW13303   1.157   0.501   1.347
 4135SOL    HW113304   1.254   0.528   1.343
 4135SOL    HW213305   1.139   0.432   1.277
 4136SOL     OW13306   0.965   1.852   3.404
 4136SOL    HW113307   1.033   1.864   3.477
 4136SOL    HW213308   0.987   1.913   3.328
 4137SOL     OW13309   3.119   4.047   6.129
 4137SOL    HW113310   3.164   4.135   6.113
 4137SOL    HW213311   3.087   4.009   6.042
 4138SOL     OW13312   4.056   5.271   2.885
 4138SOL    HW113313   3.977   5.253   2.944
 4138SOL    HW213314   4.125   5.321   2.937
 4139SOL     OW13315   1.956   1.204   6.911
 4139SOL    HW113316   2.014   1.242   6.839
 4139SOL    HW213317   1.878   1.158   6.869
 4140SOL     OW13318   4.539   1.471   5.179
 4140SOL    HW113319   4.617   1.507   5.128
 4140SOL    HW213320   4.534   1.517   5.268
 4141SOL     OW13321   5.065   5.861   0.386
 4141SOL    HW113322   5.091   5.765   0.395
 4141SOL    HW213323   4.973   5.867   0.348
 4142SOL     OW13324   5.999   3.544   1.770
 4142SOL    HW113325   6.079   3.485   1.768
 4142SOL    HW213326   5.916   3.490   1.756
 4143SOL     OW13327   0.721   2.685   1.363
 4143SOL    HW113328   0.656   2.761   1.358
 4143SOL    HW213329   0.671   2.598   1.370
 4144SOL     OW13330   4.602   0.189   2.416
 4144SOL    HW113331   4.572   0.259   2.480
 4144SOL    HW213332   4.577   0.098   2.450
 4145SOL     OW13333   2.734   0.044   2.967
 4145SOL    HW113334   2.681   0.124   2.997
 4145SOL    HW213335   2.831   0.067   2.963
 4146SOL     OW13336   4.783   5.640   0.424
 4146SOL    HW113337   4.865   5.640   0.481
 4146SOL    HW213338   4.705   5.608   0.478
 4147SOL     OW13339   3.532   2.386   5.589
 4147SOL    HW113340   3.525   2.309   5.526
 4147SOL    HW213341   3.559   2.352   5.679
 4148SOL     OW13342   6.116   0.302   3.018
 4148SOL    HW113343   6.070   0.388   3.039
 4148SOL    HW213344   6.157   0.265   3.102
 4149SOL     OW13345   5.525   4.136   1.643
 4149SOL    HW113346   5.426   4.132   1.631
 4149SOL    HW213347   5.570   4.127   1.554
 4150SOL     OW13348   5.006   0.219   6.162
 4150SOL    HW113349   4.966   0.182   6.245
 4150SOL    HW213350   4.958   0.304   6.137
 4151SOL     OW13351   6.941   5.522   0.799
 4151SOL    HW113352   0.013   5.533   0.840
 4151SOL    HW213353   6.885   5.464   0.859
 4152SOL     OW13354   3.982   4.367   1.318
 4152SOL    HW113355   3.954   4.325   1.405
 4152SOL    HW213356   3.926   4.330   1.244
 4153SOL     OW13357   6.791   5.299   6.091
 4153SOL    HW113358   6.866   5.363   6.109
 4153SOL    HW213359   6.703   5.346   6.102
 4154SOL     OW13360   5.008   2.960   5.707
 4154SOL    HW113361   5.065   3.008   5.774
 4154SOL    HW213362   4.938   3.022   5.672
 4155SOL     OW13363   1.036   3.173   1.928
 4155SOL    HW113364   0.989   3.117   1.996
 4155SOL    HW213365   1.131   3.142   1.918
 4156SOL     OW13366   6.144   0.198   5.611
 4156SOL    HW113367   6.167   0.126   5.546
 4156SOL    HW213368   6.057   0.178   5.654
 4157SOL     OW13369   3.220   0.784   4.970
 4157SOL    HW113370   3.292   0.839   5.013
 4157SOL    HW213371   3.210   0.811   4.874
 4158SOL     OW13372   1.281   6.736   3.964
 4158SOL    HW113373   1.320   6.645   3.980
 4158SOL    HW213374   1.185   6.735   3.991
 4159SOL     OW13375   0.726   2.991   5.138
 4159SOL    HW113376   0.809   2.955   5.096
 4159SOL    HW213377   0.751   3.054   5.211
 4160SOL     OW13378   1.314   1.529   0.250
 4160SOL    HW113379   1.284   1.578   0.331
 4160SOL    HW213380   1.405   1.491   0.265
 4161SOL     OW13381   6.343   1.757   0.550
 4161SOL    HW113382   6.254   1.802   0.546
 4161SOL    HW213383   6.353   1.708   0.636
 4162SOL     OW13384   6.627   0.332   5.154
 4162SOL    HW113385   6.543   0.281   5.135
 4162SOL    HW213386   6.701   0.296   5.098
 4163SOL     OW13387   6.084   1.547   3.995
 4163SOL    HW113388   6.158   1.516   4.054
 4163SOL    HW213389   6.000   1.497   4.017
 4164SOL     OW13390   2.304   6.945   5.863
 4164SOL    HW113391   2.332   6.913   5.954
 4164SOL    HW213392   2.382   6.985   5.816
 4165SOL     OW13393   3.576   6.125   2.363
 4165SOL    HW113394   3.517   6.143   2.285
 4165SOL    HW213395   3.631   6.043   2.345
 4166SOL     OW13396   5.779   3.161   0.769
 4166SOL    HW113397   5.810   3.073   0.733
 4166SOL    HW213398   5.702   3.146   0.830
 4167SOL     OW13399   2.238   3.001   1.114
 4167SOL    HW113400   2.269   2.908   1.095
 4167SOL    HW213401   2.155   2.997   1.170
 4168SOL     OW13402   1.488   4.471   0.922
 4168SOL    HW113403   1.533   4.419   0.994
 4168SOL    HW213404   1.538   4.461   0.836
 4169SOL     OW13405   5.945   3.559   4.325
 4169SOL    HW113406   5.992   3.471   4.324
 4169SOL    HW213407   5.905   3.574   4.415
 4170SOL     OW13408   4.603   2.580   5.554
 4170SOL    HW113409   4.597   2.646   5.479
 4170SOL    HW213410   4.576   2.489   5.521
 4171SOL     OW13411   5.616   3.766   2.055
 4171SOL    HW113412   5.550   3.841   2.061
 4171SOL    HW213413   5.645   3.755   1.960
 4172SOL     OW13414   1.932   1.926   0.693
 4172SOL    HW113415   1.935   1.910   0.791
 4172SOL    HW213416   1.964   1.845   0.645
 4173SOL     OW13417   5.143   3.889   5.566
 4173SOL    HW113418   5.240   3.866   5.558
 4173SOL    HW213419   5.128   3.981   5.530
 4174SOL     OW13420   5.308   0.553   4.333
 4174SOL    HW113421   5.272   0.461   4.318
 4174SOL    HW213422   5.328   0.565   4.430
 4175SOL     OW13423   3.290   1.698   3.306
 4175SOL    HW113424   3.369   1.645   3.336
 4175SOL    HW213425   3.218   1.637   3.274
 4176SOL     OW13426   6.040   5.980   2.811
 4176SOL    HW113427   6.136   6.008   2.808
 4176SOL    HW213428   6.005   5.972   2.718
 4177SOL     OW13429   0.103   5.517   2.601
 4177SOL    HW113430   0.003   5.529   2.600
 4177SOL    HW213431   0.124   5.422   2.626
 4178SOL     OW13432   4.329   2.436   5.710
 4178SOL    HW113433   4.315   2.389   5.798
 4178SOL    HW213434   4.427   2.443   5.692
 4179SOL     OW13435   5.766   2.870   5.859
 4179SOL    HW113436   5.831   2.945   5.869
 4179SOL    HW213437   5.733   2.866   5.764
 4180SOL     OW13438   4.436   3.961   1.446
 4180SOL    HW113439   4.414   4.029   1.376
 4180SOL    HW213440   4.448   4.006   1.534
 4181SOL     OW13441   0.190   1.171   0.471
 4181SOL    HW113442   0.119   1.144   0.535
 4181SOL    HW213443   0.194   1.271   0.466
 4182SOL     OW13444   5.813   1.385   3.805
 4182SOL    HW113445   5.861   1.341   3.730
 4182SOL    HW213446   5.850   1.353   3.892
 4183SOL     OW13447   1.326   1.890   1.177
 4183SOL    HW113448   1.254   1.822   1.161
 4183SOL    HW213449   1.408   1.864   1.126
 4184SOL     OW13450   3.996   5.310   0.639
 4184SOL    HW113451   4.079   5.272   0.598
 4184SOL    HW213452   3.943   5.358   0.570
 4185SOL     OW13453   0.370   6.999   4.046
 4185SOL    HW113454   0.362   6.921   4.108
 4185SOL    HW213455   0.296   6.997   3.979
 4186SOL     OW13456   3.651   4.341   1.390
 4186SOL    HW113457   3.660   4.380   1.482
 4186SOL    HW213458   3.608   4.251   1.396
 4187SOL     OW13459   4.224   4.338   6.537
 4187SOL    HW113460   4.248   4.385   6.453
 4187SOL    HW213461   4.181   4.403   6.600
 4188SOL     OW13462   5.164   6.387   4.757
 4188SOL    HW113463   5.118   6.303   4.730
 4188SOL    HW213464   5.097   6.461   4.764
 4189SOL     OW13465   2.121   2.912   3.568
 4189SOL    HW113466   2.160   2.889   3.657
 4189SOL    HW213467   2.126   3.010   3.554
 4190SOL     OW13468   3.356   0.254   1.384
 4190SOL    HW113469   3.306   0.303   1.455
 4190SOL    HW213470   3.345   0.300   1.296
 4191SOL     OW13471   6.926   2.419   2.465
 4191SOL    HW113472   6.827   2.405   2.457
 4191SOL    HW213473   6.971   2.330   2.472
 4192SOL     OW13474   6.334   1.244   2.968
 4192SOL    HW113475   6.429   1.221   2.947
 4192SOL    HW213476   6.289   1.165   3.011
 4193SOL     OW13477   2.150   6.802   2.446
 4193SOL    HW113478   2.225   6.738   2.463
 4193SOL    HW213479   2.086   6.762   2.380
 4194SOL     OW13480   0.253   0.848   3.981
 4194SOL    HW113481   0.224   0.779   4.047
 4194SOL    HW213482   0.324   0.906   4.021
 4195SOL     OW13483   5.218   0.947   2.381
 4195SOL    HW113484   5.291   1.008   2.352
 4195SOL    HW213485   5.159   0.994   2.447
 4196SOL     OW13486   4.632   2.151   3.287
 4196SOL    HW113487   4.586   2.074   3.243
 4196SOL    HW213488   4.639   2.228   3.224
 4197SOL     OW13489   4.528   4.478   3.954
 4197SOL    HW113490   4.444   4.533   3.954
 4197SOL    HW213491   4.554   4.457   3.860
 4198SOL     OW13492   5.427   4.012   5.807
 4198SOL    HW113493   5.409   3.949   5.731
 4198SOL    HW213494   5.419   3.963   5.894
 4199SOL     OW13495   2.968   3.982   5.011
 4199SOL    HW113496   2.932   3.957   4.922
 4199SOL    HW213497   2.898   3.968   5.081
 4200SOL     OW13498   2.393   0.284   6.115
 4200SOL    HW113499   2.442   0.219   6.174
 4200SOL    HW213500   2.294   0.271   6.127
 4201SOL     OW13501   6.397   6.748   4.577
 4201SOL    HW113502   6.439   6.659   4.560
 4201SOL    HW213503   6.298   6.741   4.564
 4202SOL     OW13504   5.533   4.155   4.837
 4202SOL    HW113505   5.452   4.142   4.895
 4202SOL    HW213506   5.509   4.212   4.758
 4203SOL     OW13507   5.061   5.012   3.748
 4203SOL    HW113508   5.150   4.994   3.789
 4203SOL    HW213509   5.073   5.075   3.671
 4204SOL     OW13510   2.974   4.262   1.052
 4204SOL    HW113511   2.946   4.257   0.956
 4204SOL    HW213512   2.920   4.197   1.106
 4205SOL     OW13513   2.837   5.083   3.058
 4205SOL    HW113514   2.895   5.147   3.108
 4205SOL    HW213515   2.798   5.130   2.979
 4206SOL     OW13516   5.641   0.052   4.555
 4206SOL    HW113517   5.705   0.027   4.483
 4206SOL    HW213518   5.689   0.101   4.627
 4207SOL     OW13519   1.019   0.740   1.062
 4207SOL    HW113520   1.044   0.825   1.016
 4207SOL    HW213521   1.007   0.757   1.160
 4208SOL     OW13522   0.992   3.261   1.311
 4208SOL    HW113523   0.893   3.261   1.300
 4208SOL    HW213524   1.031   3.179   1.270
 4209SOL     OW13525   3.048   0.230   4.693
 4209SOL    HW113526   3.110   0.284   4.749
 4209SOL    HW213527   2.954   0.264   4.704
 4210SOL     OW13528   5.167   2.286   0.523
 4210SOL    HW113529   5.072   2.295   0.552
 4210SOL    HW213530   5.184   2.350   0.448
 4211SOL     OW13531   4.836   3.851   3.628
 4211SOL    HW113532   4.876   3.765   3.597
 4211SOL    HW213533   4.831   3.852   3.728
 4212SOL     OW13534   6.203   6.865   3.084
 4212SOL    HW113535   6.297   6.879   3.053
 4212SOL    HW213536   6.140   6.911   3.022
 4213SOL     OW13537   0.817   0.661   2.014
 4213SOL    HW113538   0.787   0.631   1.924
 4213SOL    HW213539   0.746   0.639   2.082
 4214SOL     OW13540   2.201   4.272   4.498
 4214SOL    HW113541   2.251   4.186   4.504
 4214SOL    HW213542   2.131   4.274   4.568
 4215SOL     OW13543   0.661   5.398   5.341
 4215SOL    HW113544   0.692   5.481   5.386
 4215SOL    HW213545   0.738   5.352   5.298
 4216SOL     OW13546   2.502   3.527   5.468
 4216SOL    HW113547   2.461   3.436   5.456
 4216SOL    HW213548   2.601   3.520   5.459
 4217SOL     OW13549   7.002   0.646   3.042
 4217SOL    HW113550   0.072   0.679   3.007
 4217SOL    HW213551   7.004   0.647   3.142
 4218SOL     OW13552   3.016   0.143   2.860
 4218SOL    HW113553   2.942   0.196   2.821
 4218SOL    HW213554   3.061   0.196   2.932
 4219SOL     OW13555   4.664   6.732   3.278
 4219SOL    HW113556   4.673   6.787   3.361
 4219SOL    HW213557   4.754   6.720   3.236
 4220SOL     OW13558   0.860   3.914   3.540
 4220SOL    HW113559   0.877   3.817   3.522
 4220SOL    HW213560   0.811   3.924   3.627
 4221SOL     OW13561   5.267   6.133   5.849
 4221SOL    HW113562   5.275   6.222   5.893
 4221SOL    HW213563   5.214   6.142   5.764
 4222SOL     OW13564   3.890   2.302   0.184
 4222SOL    HW113565   3.981   2.302   0.223
 4222SOL    HW213566   3.824   2.337   0.251
 4223SOL     OW13567   3.139   3.849   2.519
 4223SOL    HW113568   3.045   3.815   2.513
 4223SOL    HW213569   3.157   3.880   2.613
 4224SOL     OW13570   4.089   2.033   5.324
 4224SOL    HW113571   4.086   2.057   5.421
 4224SOL    HW213572   4.054   1.940   5.312
 4225SOL     OW13573   5.457   0.743   5.125
 4225SOL    HW113574   5.441   0.649   5.155
 4225SOL    HW213575   5.468   0.745   5.026
 4226SOL     OW13576   1.627   0.914   3.314
 4226SOL    HW113577   1.710   0.892   3.264
 4226SOL    HW213578   1.547   0.892   3.257
 4227SOL     OW13579   6.507   4.114   0.388
 4227SOL    HW113580   6.469   4.092   0.298
 4227SOL    HW213581   6.485   4.209   0.410
 4228SOL     OW13582   6.147   5.560   2.865
 4228SOL    HW113583   6.118   5.596   2.954
 4228SOL    HW213584   6.075   5.501   2.828
 4229SOL     OW13585   4.990   4.937   5.825
 4229SOL    HW113586   5.023   4.875   5.896
 4229SOL    HW213587   5.056   5.011   5.812
 4230SOL     OW13588   3.351   0.372   4.474
 4230SOL    HW113589   3.436   0.350   4.522
 4230SOL    HW213590   3.301   0.288   4.454
 4231SOL     OW13591   4.128   6.085   5.059
 4231SOL    HW113592   4.156   5.990   5.044
 4231SOL    HW213593   4.163   6.116   5.148
 4232SOL     OW13594   2.127   3.869   2.152
 4232SOL    HW113595   2.151   3.808   2.077
 4232SOL    HW213596   2.104   3.815   2.233
 4233SOL     OW13597   5.490   6.780   1.152
 4233SOL    HW113598   5.436   6.781   1.068
 4233SOL    HW213599   5.553   6.858   1.152
 4234SOL     OW13600   3.066   4.151   5.529
 4234SOL    HW113601   3.066   4.235   5.475
 4234SOL    HW213602   3.094   4.171   5.622
 4235SOL     OW13603   0.279   3.626   5.234
 4235SOL    HW113604   0.362   3.618   5.179
 4235SOL    HW213605   0.304   3.633   5.331
 4236SOL     OW13606   0.960   3.910   4.974
 4236SOL    HW113607   1.027   3.922   4.901
 4236SOL    HW213608   0.947   3.997   5.023
 4237SOL     OW13609   5.335   4.312   4.640
 4237SOL    HW113610   5.399   4.291   4.565
 4237SOL    HW213611   5.250   4.346   4.602
 4238SOL     OW13612   4.236   5.038   3.907
 4238SOL    HW113613   4.263   5.098   3.832
 4238SOL    HW213614   4.275   5.071   3.992
 4239SOL     OW13615   5.273   5.461   6.077
 4239SOL    HW113616   5.187   5.416   6.053
 4239SOL    HW213617   5.301   5.434   6.169
 4240SOL     OW13618   2.695   4.898   6.004
 4240SOL    HW113619   2.684   4.817   6.061
 4240SOL    HW213620   2.790   4.904   5.973
 4241SOL     OW13621   4.039   1.170   0.400
 4241SOL    HW113622   4.087   1.091   0.363
 4241SOL    HW213623   4.018   1.234   0.325
 4242SOL     OW13624   1.517   0.250   2.591
 4242SOL    HW113625   1.455   0.315   2.547
 4242SOL    HW213626   1.612   0.280   2.577
 4243SOL     OW13627   1.694   3.122   2.959
 4243SOL    HW113628   1.675   3.121   3.058
 4243SOL    HW213629   1.619   3.078   2.911
 4244SOL     OW13630   2.998   6.500   0.993
 4244SOL    HW113631   2.985   6.404   0.969
 4244SOL    HW213632   3.078   6.509   1.051
 4245SOL     OW13633   6.323   2.921   1.602
 4245SOL    HW113634   6.319   2.998   1.538
 4245SOL    HW213635   6.371   2.948   1.685
 4246SOL     OW13636   4.616   2.044   4.022
 4246SOL    HW113637   4.568   2.109   3.963
 4246SOL    HW213638   4.617   2.078   4.116
 4247SOL     OW13639   2.265   4.230   6.539
 4247SOL    HW113640   2.346   4.205   6.593
 4247SOL    HW213641   2.203   4.284   6.596
 4248SOL     OW13642   1.988   0.410   2.749
 4248SOL    HW113643   1.965   0.334   2.688
 4248SOL    HW213644   2.083   0.400   2.781
 4249SOL     OW13645   6.487   0.773   5.891
 4249SOL    HW113646   6.502   0.737   5.799
 4249SOL    HW213647   6.413   0.722   5.935
 4250SOL     OW13648   6.367   5.489   4.535
 4250SOL    HW113649   6.417   5.405   4.557
 4250SOL    HW213650   6.360   5.497   4.435
 4251SOL     OW13651   5.474   2.508   5.418
 4251SOL    HW113652   5.474   2.543   5.512
 4251SOL    HW213653   5.555   2.451   5.404
 4252SOL     OW13654   6.993   6.687   0.250
 4252SOL    HW113655   7.005   6.780   0.288
 4252SOL    HW213656   6.933   6.691   0.171
 4253SOL     OW13657   4.902   5.512   3.048
 4253SOL    HW113658   4.866   5.512   2.954
 4253SOL    HW213659   4.827   5.492   3.112
 4254SOL     OW13660   2.102   2.143   5.742
 4254SOL    HW113661   2.078   2.161   5.837
 4254SOL    HW213662   2.094   2.045   5.724
 4255SOL     OW13663   1.248   2.939   3.322
 4255SOL    HW113664   1.247   3.023   3.267
 4255SOL    HW213665   1.169   2.883   3.299
 4256SOL     OW13666   0.144   6.187   1.160
 4256SOL    HW113667   0.094   6.115   1.208
 4256SOL    HW213668   0.210   6.229   1.222
 4257SOL     OW13669   6.951   0.895   3.599
 4257SOL    HW113670   6.971   0.984   3.639
 4257SOL    HW213671   6.961   0.825   3.670
 4258SOL     OW13672   3.135   5.319   1.095
 4258SOL    HW113673   3.184   5.269   1.166
 4258SOL    HW213674   3.128   5.416   1.120
 4259SOL     OW13675   0.884   0.291   0.733
 4259SOL    HW113676   0.915   0.263   0.643
 4259SOL    HW213677   0.946   0.361   0.770
 4260SOL     OW13678   5.738   0.863   4.747
 4260SOL    HW113679   5.797   0.816   4.813
 4260SOL    HW213680   5.774   0.955   4.731
 4261SOL     OW13681   2.734   6.262   4.328
 4261SOL    HW113682   2.676   6.333   4.288
 4261SOL    HW213683   2.680   6.179   4.342
 4262SOL     OW13684   2.466   4.791   5.637
 4262SOL    HW113685   2.487   4.802   5.540
 4262SOL    HW213686   2.468   4.880   5.682
 4263SOL     OW13687   2.392   2.265   3.241
 4263SOL    HW113688   2.388   2.351   3.291
 4263SOL    HW213689   2.482   2.256   3.198
 4264SOL     OW13690   4.693   2.254   5.830
 4264SOL    HW113691   4.770   2.201   5.795
 4264SOL    HW213692   4.724   2.347   5.850
 4265SOL     OW13693   2.150   6.703   5.848
 4265SOL    HW113694   2.154   6.801   5.869
 4265SOL    HW213695   2.144   6.650   5.933
 4266SOL     OW13696   1.443   5.186   1.476
 4266SOL    HW113697   1.447   5.139   1.388
 4266SOL    HW213698   1.356   5.234   1.484
 4267SOL     OW13699   0.961   4.718   4.417
 4267SOL    HW113700   1.002   4.809   4.413
 4267SOL    HW213701   0.965   4.684   4.511
 4268SOL     OW13702   1.104   4.347   6.228
 4268SOL    HW113703   1.052   4.357   6.313
 4268SOL    HW213704   1.068   4.270   6.176
 4269SOL     OW13705   2.660   1.678   4.476
 4269SOL    HW113706   2.613   1.639   4.554
 4269SOL    HW213707   2.717   1.608   4.432
 4270SOL     OW13708   3.745   3.184   0.209
 4270SOL    HW113709   3.824   3.159   0.153
 4270SOL    HW213710   3.708   3.272   0.177
 4271SOL     OW13711   6.855   0.437   0.838
 4271SOL    HW113712   6.861   0.413   0.935
 4271SOL    HW213713   6.760   0.454   0.813
 4272SOL     OW13714   6.443   1.021   5.796
 4272SOL    HW113715   6.467   0.949   5.862
 4272SOL    HW213716   6.442   1.110   5.843
 4273SOL     OW13717   2.790   6.032   4.102
 4273SOL    HW113718   2.745   5.944   4.085
 4273SOL    HW213719   2.722   6.105   4.095
 4274SOL     OW13720   0.635   1.380   2.061
 4274SOL    HW113721   0.703   1.435   2.014
 4274SOL    HW213722   0.678   1.331   2.137
 4275SOL     OW13723   0.262   2.564   3.470
 4275SOL    HW113724   0.173   2.525   3.490
 4275SOL    HW213725   0.253   2.633   3.398
 4276SOL     OW13726   2.150   6.012   2.969
 4276SOL    HW113727   2.190   6.016   3.060
 4276SOL    HW213728   2.107   5.923   2.954
 4277SOL     OW13729   0.046   5.435   3.094
 4277SOL    HW113730   0.053   5.534   3.098
 4277SOL    HW213731   0.137   5.394   3.092
 4278SOL     OW13732   1.201   6.610   1.578
 4278SOL    HW113733   1.106   6.600   1.607
 4278SOL    HW213734   1.210   6.692   1.521
 4279SOL     OW13735   1.026   2.399   3.552
 4279SOL    HW113736   1.092   2.462   3.592
 4279SOL    HW213737   0.944   2.395   3.609
 4280SOL     OW13738   1.915   6.417   6.048
 4280SOL    HW113739   1.999   6.472   6.059
 4280SOL    HW213740   1.837   6.468   6.084
 4281SOL     OW13741   5.953   5.808   3.050
 4281SOL    HW113742   5.915   5.726   3.008
 4281SOL    HW213743   5.984   5.872   2.979
 4282SOL     OW13744   5.059   5.044   2.104
 4282SOL    HW113745   4.979   4.993   2.136
 4282SOL    HW213746   5.101   4.995   2.027
 4283SOL     OW13747   5.598   1.285   4.596
 4283SOL    HW113748   5.650   1.267   4.680
 4283SOL    HW213749   5.500   1.272   4.614
 4284SOL     OW13750   4.441   5.920   6.563
 4284SOL    HW113751   4.396   5.870   6.637
 4284SOL    HW213752   4.379   5.926   6.484
 4285SOL     OW13753   3.590   1.323   6.735
 4285SOL    HW113754   3.596   1.284   6.643
 4285SOL    HW213755   3.664   1.287   6.791
 4286SOL     OW13756   5.167   0.397   6.609
 4286SOL    HW113757   5.097   0.353   6.666
 4286SOL    HW213758   5.139   0.492   6.590
 4287SOL     OW13759   3.363   1.151   1.034
 4287SOL    HW113760   3.461   1.128   1.033
 4287SOL    HW213761   3.322   1.120   1.119
 4288SOL     OW13762   6.902   6.105   1.826
 4288SOL    HW113763   6.823   6.055   1.862
 4288SOL    HW213764   6.985   6.072   1.871
 4289SOL     OW13765   0.596   4.628   4.963
 4289SOL    HW113766   0.596   4.623   4.863
 4289SOL    HW213767   0.519   4.685   4.993
 4290SOL     OW13768   0.344   1.597   2.811
 4290SOL    HW113769   0.415   1.568   2.747
 4290SOL    HW213770   0.363   1.558   2.901
 4291SOL     OW13771   3.954   4.461   6.527
 4291SOL    HW113772   3.900   4.387   6.567
 4291SOL    HW213773   4.011   4.425   6.453
 4292SOL     OW13774   6.745   1.102   1.658
 4292SOL    HW113775   6.673   1.167   1.637
 4292SOL    HW213776   6.764   1.105   1.756
 4293SOL     OW13777   3.768   2.398   0.429
 4293SOL    HW113778   3.827   2.336   0.481
 4293SOL    HW213779   3.690   2.425   0.485
 4294SOL     OW13780   3.002   2.018   6.478
 4294SOL    HW113781   2.914   2.021   6.429
 4294SOL    HW213782   3.077   2.014   6.412
 4295SOL     OW13783   4.592   5.909   3.073
 4295SOL    HW113784   4.497   5.882   3.090
 4295SOL    HW213785   4.612   5.899   2.976
 4296SOL     OW13786   2.545   6.421   2.332
 4296SOL    HW113787   2.502   6.335   2.305
 4296SOL    HW213788   2.571   6.472   2.250
 4297SOL     OW13789   4.998   5.263   0.405
 4297SOL    HW113790   5.049   5.345   0.380
 4297SOL    HW213791   5.002   5.198   0.329
 4298SOL     OW13792   1.680   0.204   0.704
 4298SOL    HW113793   1.665   0.240   0.612
 4298SOL    HW213794   1.630   0.260   0.770
 4299SOL     OW13795   0.654   3.183   6.783
 4299SOL    HW113796   0.688   3.115   6.718
 4299SOL    HW213797   0.564   3.153   6.817
 4300SOL     OW13798   3.376   0.871   1.685
 4300SOL    HW113799   3.423   0.786   1.662
 4300SOL    HW213800   3.444   0.940   1.710
 4301SOL     OW13801   2.183   5.755   6.122
 4301SOL    HW113802   2.094   5.780   6.084
 4301SOL    HW213803   2.256   5.788   6.061
 4302SOL     OW13804   3.445   4.797   5.884
 4302SOL    HW113805   3.455   4.794   5.785
 4302SOL    HW213806   3.348   4.787   5.908
 4303SOL     OW13807   4.573   5.118   3.324
 4303SOL    HW113808   4.617   5.149   3.240
 4303SOL    HW213809   4.640   5.120   3.399
 4304SOL     OW13810   3.362   4.180   1.623
 4304SOL    HW113811   3.321   4.101   1.669
 4304SOL    HW213812   3.423   4.149   1.550
 4305SOL     OW13813   0.970   6.146   6.049
 4305SOL    HW113814   0.995   6.114   6.141
 4305SOL    HW213815   0.942   6.241   6.054
 4306SOL     OW13816   5.980   3.826   5.388
 4306SOL    HW113817   6.041   3.860   5.459
 4306SOL    HW213818   6.015   3.852   5.298
 4307SOL     OW13819   0.434   1.037   6.194
 4307SOL    HW113820   0.492   1.031   6.113
 4307SOL    HW213821   0.374   1.116   6.187
 4308SOL     OW13822   4.343   6.013   6.306
 4308SOL    HW113823   4.410   6.082   6.334
 4308SOL    HW213824   4.279   6.054   6.242
 4309SOL     OW13825   1.509   1.198   6.867
 4309SOL    HW113826   1.464   1.277   6.826
 4309SOL    HW213827   1.442   1.142   6.916
 4310SOL     OW13828   6.556   1.998   2.933
 4310SOL    HW113829   6.551   2.083   2.881
 4310SOL    HW213830   6.492   1.932   2.895
 4311SOL     OW13831   0.753   0.592   1.603
 4311SOL    HW113832   0.839   0.547   1.623
 4311SOL    HW213833   0.690   0.580   1.680
 4312SOL     OW13834   6.990   3.990   2.168
 4312SOL    HW113835   7.006   4.089   2.173
 4312SOL    HW213836   6.897   3.973   2.137
 4313SOL     OW13837   0.726   3.301   6.218
 4313SOL    HW113838   0.651   3.337   6.163
 4313SOL    HW213839   0.800   3.368   6.221
 4314SOL     OW13840   0.965   1.271   6.230
 4314SOL    HW113841   0.894   1.201   6.240
 4314SOL    HW213842   1.038   1.236   6.171
 4315SOL     OW13843   2.693   1.507   5.482
 4315SOL    HW113844   2.751   1.586   5.505
 4315SOL    HW213845   2.705   1.484   5.386
 4316SOL     OW13846   4.274   5.906   2.100
 4316SOL    HW113847   4.319   5.926   2.013
 4316SOL    HW213848   4.222   5.987   2.130
 4317SOL     OW13849   5.109   0.713   5.284
 4317SOL    HW113850   5.034   0.763   5.326
 4317SOL    HW213851   5.082   0.679   5.194
 4318SOL     OW13852   1.487   6.352   4.552
 4318SOL    HW113853   1.549   6.385   4.623
 4318SOL    HW213854   1.509   6.397   4.465
 4319SOL     OW13855   0.956   4.153   2.415
 4319SOL    HW113856   0.881   4.107   2.462
 4319SOL    HW213857   0.939   4.152   2.316
 4320SOL     OW13858   2.951   0.157   0.812
 4320SOL    HW113859   2.942   0.124   0.718
 4320SOL    HW213860   2.860   0.167   0.853
 4321SOL     OW13861   6.778   6.469   3.363
 4321SOL    HW113862   6.839   6.497   3.290
 4321SOL    HW213863   6.789   6.529   3.442
 4322SOL     OW13864   1.917   2.006   4.510
 4322SOL    HW113865   1.898   2.008   4.412
 4322SOL    HW213866   2.015   1.998   4.526
 4323SOL     OW13867   4.462   5.161   0.225
 4323SOL    HW113868   4.418   5.247   0.251
 4323SOL    HW213869   4.397   5.104   0.175
 4324SOL     OW13870   0.721   4.789   5.776
 4324SOL    HW113871   0.676   4.870   5.739
 4324SOL    HW213872   0.732   4.721   5.703
 4325SOL     OW13873   2.132   6.391   1.647
 4325SOL    HW113874   2.188   6.429   1.721
 4325SOL    HW213875   2.190   6.334   1.588
 4326SOL     OW13876   5.143   2.133   2.369
 4326SOL    HW113877   5.092   2.053   2.403
 4326SOL    HW213878   5.196   2.107   2.289
 4327SOL     OW13879   2.379   5.618   3.497
 4327SOL    HW113880   2.418   5.531   3.465
 4327SOL    HW213881   2.347   5.607   3.591
 4328SOL     OW13882   6.353   0.768   3.332
 4328SOL    HW113883   6.412   0.848   3.338
 4328SOL    HW213884   6.340   0.729   3.424
 4329SOL     OW13885   6.758   2.941   6.716
 4329SOL    HW113886   6.839   2.883   6.721
 4329SOL    HW213887   6.757   3.003   6.795
 4330SOL     OW13888   2.388   5.495   4.556
 4330SOL    HW113889   2.321   5.559   4.595
 4330SOL    HW213890   2.428   5.535   4.473
 4331SOL     OW13891   5.979   2.213   2.498
 4331SOL    HW113892   6.012   2.194   2.591
 4331SOL    HW213893   6.048   2.267   2.449
 4332SOL     OW13894   0.796   5.745   1.418
 4332SOL    HW113895   0.714   5.778   1.371
 4332SOL    HW213896   0.811   5.799   1.501
 4333SOL     OW13897   4.051   2.296   6.300
 4333SOL    HW113898   4.027   2.208   6.259
 4333SOL    HW213899   4.112   2.280   6.378
 4334SOL     OW13900   0.230   2.726   3.840
 4334SOL    HW113901   0.179   2.781   3.775
 4334SOL    HW213902   0.313   2.774   3.868
 4335SOL     OW13903   2.406   4.055   1.658
 4335SOL    HW113904   2.506   4.057   1.658
 4335SOL    HW213905   2.373   4.072   1.751
 4336SOL     OW13906   2.477   5.657   5.385
 4336SOL    HW113907   2.433   5.588   5.327
 4336SOL    HW213908   2.454   5.640   5.480
 4337SOL     OW13909   0.255   4.550   3.675
 4337SOL    HW113910   0.317   4.578   3.602
 4337SOL    HW213911   0.250   4.450   3.679
 4338SOL     OW13912   2.981   2.506   5.868
 4338SOL    HW113913   3.012   2.526   5.961
 4338SOL    HW213914   2.882   2.496   5.867
 4339SOL     OW13915   4.087   5.196   5.247
 4339SOL    HW113916   4.060   5.103   5.223
 4339SOL    HW213917   4.181   5.197   5.279
 4340SOL     OW13918   6.632   4.130   1.427
 4340SOL    HW113919   6.719   4.172   1.455
 4340SOL    HW213920   6.650   4.047   1.374
 4341SOL     OW13921   5.348   6.042   1.260
 4341SOL    HW113922   5.271   6.098   1.291
 4341SOL    HW213923   5.413   6.032   1.336
 4342SOL     OW13924   5.439   2.825   2.510
 4342SOL    HW113925   5.394   2.743   2.474
 4342SOL    HW213926   5.405   2.843   2.603
 4343SOL     OW13927   3.428   0.464   6.418
 4343SOL    HW113928   3.339   0.464   6.463
 4343SOL    HW213929   3.466   0.556   6.418
 4344SOL     OW13930   0.251   3.827   3.081
 4344SOL    HW113931   0.292   3.829   2.990
 4344SOL    HW213932   0.187   3.903   3.091
 4345SOL     OW13933   3.496   3.489   2.281
 4345SOL    HW113934   3.421   3.549   2.310
 4345SOL    HW213935   3.576   3.544   2.258
 4346SOL     OW13936   0.478   3.218   2.899
 4346SOL    HW113937   0.422   3.300   2.895
 4346SOL    HW213938   0.567   3.240   2.939
 4347SOL     OW13939   6.366   5.697   0.827
 4347SOL    HW113940   6.448   5.708   0.772
 4347SOL    HW213941   6.357   5.601   0.856
 4348SOL     OW13942   6.061   5.072   5.766
 4348SOL    HW113943   6.072   5.014   5.847
 4348SOL    HW213944   6.125   5.041   5.695
 4349SOL     OW13945   0.367   3.437   3.972
 4349SOL    HW113946   0.326   3.413   3.884
 4349SOL    HW213947   0.354   3.362   4.037
 4350SOL     OW13948   3.984   0.985   3.873
 4350SOL    HW113949   3.952   0.894   3.847
 4350SOL    HW213950   3.935   1.016   3.955
 4351SOL     OW13951   0.664   5.680   0.640
 4351SOL    HW113952   0.731   5.752   0.622
 4351SOL    HW213953   0.685   5.601   0.583
 4352SOL     OW13954   3.577   5.024   1.834
 4352SOL    HW113955   3.562   4.927   1.856
 4352SOL    HW213956   3.673   5.046   1.849
 4353SOL     OW13957   2.857   2.935   0.999
 4353SOL    HW113958   2.921   2.897   0.932
 4353SOL    HW213959   2.844   3.032   0.980
 4354SOL     OW13960   5.885   6.238   2.602
 4354SOL    HW113961   5.917   6.145   2.584
 4354SOL    HW213962   5.938   6.302   2.546
 4355SOL     OW13963   1.785   4.806   2.479
 4355SOL    HW113964   1.721   4.832   2.406
 4355SOL    HW213965   1.758   4.718   2.516
 4356SOL     OW13966   6.102   2.912   5.141
 4356SOL    HW113967   6.132   2.981   5.208
 4356SOL    HW213968   6.174   2.899   5.073
 4357SOL     OW13969   5.981   0.062   1.801
 4357SOL    HW113970   5.978   0.134   1.870
 4357SOL    HW213971   6.048   7.010   1.828
 4358SOL     OW13972   2.823   0.328   0.297
 4358SOL    HW113973   2.817   0.359   0.202
 4358SOL    HW213974   2.732   0.306   0.331
 4359SOL     OW13975   2.574   2.167   1.096
 4359SOL    HW113976   2.673   2.154   1.093
 4359SOL    HW213977   2.530   2.100   1.037
 4360SOL     OW13978   2.026   5.406   4.140
 4360SOL    HW113979   2.073   5.333   4.091
 4360SOL    HW213980   2.045   5.494   4.096
 4361SOL     OW13981   0.188   2.160   0.103
 4361SOL    HW113982   0.146   2.226   0.166
 4361SOL    HW213983   0.272   2.125   0.144
 4362SOL     OW13984   1.024   5.107   3.402
 4362SOL    HW113985   1.031   5.007   3.403
 4362SOL    HW213986   1.068   5.145   3.483
 4363SOL     OW13987   3.738   1.013   1.940
 4363SOL    HW113988   3.831   0.981   1.957
 4363SOL    HW213989   3.736   1.066   1.856
 4364SOL     OW13990   4.126   3.579   2.848
 4364SOL    HW113991   4.066   3.501   2.833
 4364SOL    HW213992   4.097   3.628   2.930
 4365SOL     OW13993   2.057   1.112   1.283
 4365SOL    HW113994   2.133   1.170   1.312
 4365SOL    HW213995   1.994   1.166   1.226
 4366SOL     OW13996   5.266   6.812   4.743
 4366SOL    HW113997   5.317   6.756   4.808
 4366SOL    HW213998   5.209   6.877   4.793
 4367SOL     OW13999   2.590   6.310   2.811
 4367SOL    HW114000   2.634   6.221   2.816
 4367SOL    HW214001   2.605   6.360   2.897
 4368SOL     OW14002   4.816   3.870   3.926
 4368SOL    HW114003   4.804   3.784   3.977
 4368SOL    HW214004   4.833   3.945   3.990
 4369SOL     OW14005   5.067   4.061   3.692
 4369SOL    HW114006   5.047   3.965   3.715
 4369SOL    HW214007   5.095   4.109   3.774
 4370SOL     OW14008   3.991   4.623   1.178
 4370SOL    HW114009   3.909   4.653   1.129
 4370SOL    HW214010   3.974   4.535   1.223
 4371SOL     OW14011   2.507   1.128   2.293
 4371SOL    HW114012   2.412   1.117   2.263
 4371SOL    HW214013   2.509   1.135   2.393
 4372SOL     OW14014   1.902   3.844   3.953
 4372SOL    HW114015   1.858   3.861   4.041
 4372SOL    HW214016   1.903   3.929   3.900
 4373SOL     OW14017   4.058   0.659   6.767
 4373SOL    HW114018   4.152   0.627   6.781
 4373SOL    HW214019   4.031   0.718   6.843
 4374SOL     OW14020   2.850   6.696   0.251
 4374SOL    HW114021   2.918   6.769   0.249
 4374SOL    HW214022   2.856   6.647   0.339
 4375SOL     OW14023   4.731   1.507   5.557
 4375SOL    HW114024   4.762   1.523   5.651
 4375SOL    HW214025   4.668   1.580   5.530
 4376SOL     OW14026   2.139   6.057   6.630
 4376SOL    HW114027   2.072   6.116   6.676
 4376SOL    HW214028   2.110   6.040   6.536
 4377SOL     OW14029   5.148   6.610   6.876
 4377SOL    HW114030   5.125   6.524   6.830
 4377SOL    HW214031   5.181   6.590   6.969
 4378SOL     OW14032   2.606   5.110   2.557
 4378SOL    HW114033   2.602   5.144   2.463
 4378SOL    HW214034   2.686   5.051   2.567
 4379SOL     OW14035   0.622   6.912   1.883
 4379SOL    HW114036   0.646   7.001   1.845
 4379SOL    HW214037   0.661   6.839   1.826
 4380SOL     OW14038   1.605   5.452   4.279
 4380SOL    HW114039   1.617   5.421   4.185
 4380SOL    HW214040   1.522   5.410   4.317
 4381SOL     OW14041   5.036   5.621   5.413
 4381SOL    HW114042   5.111   5.576   5.364
 4381SOL    HW214043   5.072   5.671   5.491
 4382SOL     OW14044   4.895   3.010   3.013
 4382SOL    HW114045   4.982   2.978   2.975
 4382SOL    HW214046   4.898   3.109   3.023
 4383SOL     OW14047   0.729   2.275   0.247
 4383SOL    HW114048   0.655   2.325   0.292
 4383SOL    HW214049   0.718   2.177   0.263
 4384SOL     OW14050   3.856   6.682   0.764
 4384SOL    HW114051   3.914   6.612   0.805
 4384SOL    HW214052   3.847   6.759   0.827
 4385SOL     OW14053   6.309   2.115   2.360
 4385SOL    HW114054   6.291   2.112   2.458
 4385SOL    HW214055   6.303   2.209   2.328
 4386SOL     OW14056   1.080   3.944   6.841
 4386SOL    HW114057   0.984   3.957   6.816
 4386SOL    HW214058   1.086   3.920   6.938
 4387SOL     OW14059   6.527   2.735   1.515
 4387SOL    HW114060   6.454   2.794   1.552
 4387SOL    HW214061   6.502   2.639   1.527
 4388SOL     OW14062   3.014   1.678   5.682
 4388SOL    HW114063   3.069   1.594   5.685
 4388SOL    HW214064   3.063   1.752   5.729
 4389SOL     OW14065   6.159   2.486   2.322
 4389SOL    HW114066   6.147   2.423   2.244
 4389SOL    HW214067   6.125   2.576   2.297
 4390SOL     OW14068   4.349   2.440   1.808
 4390SOL    HW114069   4.429   2.481   1.764
 4390SOL    HW214070   4.269   2.497   1.791
 4391SOL     OW14071   0.647   6.336   0.728
 4391SOL    HW114072   0.734   6.382   0.743
 4391SOL    HW214073   0.572   6.402   0.740
 4392SOL     OW14074   5.361   3.794   4.516
 4392SOL    HW114075   5.271   3.838   4.519
 4392SOL    HW214076   5.432   3.863   4.526
 4393SOL     OW14077   5.423   5.763   3.936
 4393SOL    HW114078   5.428   5.698   4.011
 4393SOL    HW214079   5.491   5.835   3.950
 4394SOL     OW14080   4.286   0.616   2.564
 4394SOL    HW114081   4.218   0.575   2.624
 4394SOL    HW214082   4.375   0.617   2.611
 4395SOL     OW14083   5.083   2.003   1.573
 4395SOL    HW114084   5.001   1.950   1.597
 4395SOL    HW214085   5.086   2.086   1.629
 4396SOL     OW14086   1.845   1.058   4.066
 4396SOL    HW114087   1.852   1.047   4.165
 4396SOL    HW214088   1.758   1.019   4.034
 4397SOL     OW14089   5.751   0.121   6.567
 4397SOL    HW114090   5.690   0.198   6.547
 4397SOL    HW214091   5.820   0.151   6.632
 4398SOL     OW14092   0.014   5.213   3.882
 4398SOL    HW114093   6.997   5.286   3.940
 4398SOL    HW214094   7.006   5.229   3.787
 4399SOL     OW14095   2.745   1.496   1.749
 4399SOL    HW114096   2.656   1.540   1.744
 4399SOL    HW214097   2.772   1.462   1.659
 4400SOL     OW14098   3.391   6.068   3.360
 4400SOL    HW114099   3.476   6.083   3.310
 4400SOL    HW214100   3.407   6.001   3.433
 4401SOL     OW14101   6.324   6.330   4.886
 4401SOL    HW114102   6.260   6.364   4.816
 4401SOL    HW214103   6.272   6.292   4.962
 4402SOL     OW14104   6.322   0.301   3.245
 4402SOL    HW114105   6.410   0.264   3.215
 4402SOL    HW214106   6.265   0.227   3.281
 4403SOL     OW14107   0.334   0.206   3.255
 4403SOL    HW114108   0.319   0.145   3.178
 4403SOL    HW214109   0.363   0.153   3.335
 4404SOL     OW14110   1.723   4.461   3.523
 4404SOL    HW114111   1.766   4.427   3.607
 4404SOL    HW214112   1.652   4.527   3.545
 4405SOL     OW14113   3.063   3.931   6.360
 4405SOL    HW114114   3.134   3.860   6.365
 4405SOL    HW214115   3.076   3.984   6.277
 4406SOL     OW14116   5.342   3.594   2.274
 4406SOL    HW114117   5.282   3.673   2.258
 4406SOL    HW214118   5.432   3.626   2.304
 4407SOL     OW14119   6.902   0.315   0.267
 4407SOL    HW114120   6.952   0.281   0.347
 4407SOL    HW214121   6.966   0.331   0.192
 4408SOL     OW14122   4.352   6.363   0.194
 4408SOL    HW114123   4.378   6.453   0.158
 4408SOL    HW214124   4.405   6.345   0.277
 4409SOL     OW14125   1.851   1.489   3.057
 4409SOL    HW114126   1.878   1.570   3.005
 4409SOL    HW214127   1.766   1.452   3.019
 4410SOL     OW14128   2.119   6.013   1.563
 4410SOL    HW114129   2.039   6.054   1.607
 4410SOL    HW214130   2.144   5.928   1.611
 4411SOL     OW14131   3.626   3.145   2.722
 4411SOL    HW114132   3.672   3.064   2.686
 4411SOL    HW214133   3.543   3.162   2.670
 4412SOL     OW14134   3.678   1.805   6.197
 4412SOL    HW114135   3.614   1.742   6.153
 4412SOL    HW214136   3.718   1.865   6.128
 4413SOL     OW14137   4.620   5.254   4.179
 4413SOL    HW114138   4.620   5.154   4.170
 4413SOL    HW214139   4.570   5.294   4.102
 4414SOL     OW14140   3.500   5.417   1.565
 4414SOL    HW114141   3.552   5.348   1.514
 4414SOL    HW214142   3.490   5.499   1.509
 4415SOL     OW14143   4.126   1.512   1.337
 4415SOL    HW114144   4.095   1.601   1.373
 4415SOL    HW214145   4.069   1.439   1.375
 4416SOL     OW14146   3.202   2.096   4.133
 4416SOL    HW114147   3.238   2.133   4.218
 4416SOL    HW214148   3.258   2.019   4.104
 4417SOL     OW14149   6.938   0.646   0.344
 4417SOL    HW114150   7.015   0.638   0.281
 4417SOL    HW214151   6.868   0.706   0.305
 4418SOL     OW14152   4.915   0.912   4.058
 4418SOL    HW114153   4.848   0.926   4.130
 4418SOL    HW214154   4.996   0.968   4.076
 4419SOL     OW14155   6.618   5.507   0.422
 4419SOL    HW114156   6.685   5.507   0.496
 4419SOL    HW214157   6.528   5.528   0.459
 4420SOL     OW14158   4.528   1.019   6.729
 4420SOL    HW114159   4.570   1.100   6.687
 4420SOL    HW214160   4.446   0.994   6.679
 4421SOL     OW14161   1.422   1.983   3.533
 4421SOL    HW114162   1.519   2.007   3.526
 4421SOL    HW214163   1.384   2.021   3.618
 4422SOL     OW14164   2.046   4.272   5.705
 4422SOL    HW114165   2.105   4.343   5.666
 4422SOL    HW214166   1.951   4.304   5.704
 4423SOL     OW14167   6.465   1.650   6.039
 4423SOL    HW114168   6.451   1.743   6.073
 4423SOL    HW214169   6.510   1.595   6.110
 4424SOL     OW14170   0.535   6.611   4.326
 4424SOL    HW114171   0.490   6.608   4.415
 4424SOL    HW214172   0.475   6.655   4.259
 4425SOL     OW14173   4.821   4.269   0.087
 4425SOL    HW114174   4.901   4.302   0.137
 4425SOL    HW214175   4.811   4.321   0.003
 4426SOL     OW14176   0.652   0.231   5.903
 4426SOL    HW114177   0.702   0.166   5.846
 4426SOL    HW214178   0.692   0.234   5.994
 4427SOL     OW14179   0.904   5.950   3.902
 4427SOL    HW114180   0.882   6.039   3.864
 4427SOL    HW214181   0.928   5.960   3.999
 4428SOL     OW14182   2.032   6.327   3.070
 4428SOL    HW114183   2.093   6.319   2.991
 4428SOL    HW214184   2.004   6.422   3.082
 4429SOL     OW14185   3.712   0.095   2.935
 4429SOL    HW114186   3.689   0.011   2.984
 4429SOL    HW214187   3.683   0.087   2.840
 4430SOL     OW14188   1.295   0.388   1.734
 4430SOL    HW114189   1.296   0.317   1.805
 4430SOL    HW214190   1.364   0.365   1.665
 4431SOL     OW14191   1.682   1.798   3.629
 4431SOL    HW114192   1.746   1.730   3.664
 4431SOL    HW214193   1.689   1.882   3.683
 4432SOL     OW14194   2.898   3.335   3.514
 4432SOL    HW114195   2.913   3.239   3.537
 4432SOL    HW214196   2.987   3.381   3.507
 4433SOL     OW14197   6.258   0.574   3.182
 4433SOL    HW114198   6.290   0.479   3.183
 4433SOL    HW214199   6.304   0.626   3.253
 4434SOL     OW14200   4.879   2.166   4.795
 4434SOL    HW114201   4.907   2.221   4.717
 4434SOL    HW214202   4.780   2.171   4.806
 4435SOL     OW14203   4.021   3.309   2.261
 4435SOL    HW114204   4.086   3.291   2.188
 4435SOL    HW214205   4.010   3.408   2.271
 4436SOL     OW14206   5.163   0.431   0.858
 4436SOL    HW114207   5.224   0.508   0.840
 4436SOL    HW214208   5.217   0.348   0.874
 4437SOL     OW14209   3.669   0.192   5.015
 4437SOL    HW114210   3.574   0.185   5.046
 4437SOL    HW214211   3.722   0.244   5.082
 4438SOL     OW14212   3.997   3.894   6.659
 4438SOL    HW114213   3.995   3.994   6.658
 4438SOL    HW214214   3.903   3.859   6.660
 4439SOL     OW14215   2.113   4.818   2.219
 4439SOL    HW114216   2.195   4.761   2.209
 4439SOL    HW214217   2.076   4.807   2.312
 4440SOL     OW14218   6.825   0.955   6.977
 4440SOL    HW114219   6.812   0.934   0.055
 4440SOL    HW214220   6.737   0.948   6.929
 4441SOL     OW14221   5.919   1.846   3.704
 4441SOL    HW114222   5.985   1.770   3.709
 4441SOL    HW214223   5.969   1.932   3.693
 4442SOL     OW14224   2.263   6.483   1.864
 4442SOL    HW114225   2.356   6.480   1.901
 4442SOL    HW214226   2.216   6.563   1.900
 4443SOL     OW14227   2.810   1.516   5.893
 4443SOL    HW114228   2.869   1.498   5.972
 4443SOL    HW214229   2.864   1.508   5.809
 4444SOL     OW14230   5.194   0.414   2.802
 4444SOL    HW114231   5.287   0.411   2.840
 4444SOL    HW214232   5.193   0.365   2.715
 4445SOL     OW14233   1.224   1.164   6.540
 4445SOL    HW114234   1.246   1.261   6.551
 4445SOL    HW214235   1.125   1.153   6.533
 4446SOL     OW14236   5.330   5.215   3.902
 4446SOL    HW114237   5.312   5.308   3.870
 4446SOL    HW214238   5.355   5.158   3.824
 4447SOL     OW14239   4.886   3.171   4.859
 4447SOL    HW114240   4.817   3.111   4.899
 4447SOL    HW214241   4.925   3.230   4.930
 4448SOL     OW14242   1.958   2.880   6.513
 4448SOL    HW114243   2.032   2.942   6.539
 4448SOL    HW214244   1.988   2.824   6.436
 4449SOL     OW14245   0.392   1.585   5.589
 4449SOL    HW114246   0.331   1.559   5.514
 4449SOL    HW214247   0.344   1.574   5.676
 4450SOL     OW14248   3.594   4.077   3.225
 4450SOL    HW114249   3.553   4.144   3.163
 4450SOL    HW214250   3.562   4.094   3.318
 4451SOL     OW14251   0.166   4.393   1.586
 4451SOL    HW114252   0.256   4.404   1.543
 4451SOL    HW214253   0.177   4.386   1.685
 4452SOL     OW14254   6.369   3.977   6.435
 4452SOL    HW114255   6.383   4.023   6.348
 4452SOL    HW214256   6.371   4.044   6.510
 4453SOL     OW14257   5.128   1.678   1.630
 4453SOL    HW114258   5.039   1.640   1.605
 4453SOL    HW214259   5.129   1.777   1.613
 4454SOL     OW14260   5.263   2.721   1.439
 4454SOL    HW114261   5.272   2.819   1.456
 4454SOL    HW214262   5.324   2.694   1.365
 4455SOL     OW14263   4.585   1.778   2.064
 4455SOL    HW114264   4.679   1.751   2.085
 4455SOL    HW214265   4.581   1.878   2.055
 4456SOL     OW14266   0.843   5.830   2.623
 4456SOL    HW114267   0.773   5.859   2.688
 4456SOL    HW214268   0.866   5.734   2.639
 4457SOL     OW14269   4.958   1.829   6.502
 4457SOL    HW114270   4.999   1.907   6.455
 4457SOL    HW214271   5.024   1.790   6.566
 4458SOL     OW14272   4.000   1.745   0.303
 4458SOL    HW114273   4.080   1.685   0.297
 4458SOL    HW214274   3.931   1.702   0.363
 4459SOL     OW14275   5.103   6.161   5.618
 4459SOL    HW114276   5.082   6.257   5.600
 4459SOL    HW214277   5.186   6.135   5.569
 4460SOL     OW14278   1.086   1.612   6.256
 4460SOL    HW114279   1.105   1.522   6.297
 4460SOL    HW214280   1.144   1.681   6.300
 4461SOL     OW14281   1.996   6.715   2.195
 4461SOL    HW114282   1.896   6.728   2.191
 4461SOL    HW214283   2.026   6.662   2.116
 4462SOL     OW14284   6.831   5.767   0.960
 4462SOL    HW114285   6.786   5.678   0.952
 4462SOL    HW214286   6.811   5.822   0.879
 4463SOL     OW14287   1.626   3.546   5.704
 4463SOL    HW114288   1.593   3.452   5.700
 4463SOL    HW214289   1.705   3.557   5.643
 4464SOL     OW14290   5.878   3.344   6.725
 4464SOL    HW114291   5.798   3.404   6.724
 4464SOL    HW214292   5.856   3.260   6.775
 4465SOL     OW14293   0.793   6.132   1.773
 4465SOL    HW114294   0.889   6.102   1.771
 4465SOL    HW214295   0.735   6.061   1.733
 4466SOL     OW14296   0.696   3.041   3.363
 4466SOL    HW114297   0.637   3.115   3.331
 4466SOL    HW214298   0.747   3.072   3.443
 4467SOL     OW14299   1.498   0.056   3.119
 4467SOL    HW114300   1.489   0.021   3.026
 4467SOL    HW214301   1.553   0.139   3.118
 4468SOL     OW14302   1.669   2.225   0.643
 4468SOL    HW114303   1.578   2.184   0.647
 4468SOL    HW214304   1.663   2.318   0.608
 4469SOL     OW14305   4.639   0.008   0.601
 4469SOL    HW114306   4.596   7.001   0.687
 4469SOL    HW214307   4.635   0.107   0.589
 4470SOL     OW14308   4.478   5.624   1.501
 4470SOL    HW114309   4.445   5.619   1.407
 4470SOL    HW214310   4.449   5.542   1.551
 4471SOL     OW14311   6.551   3.181   0.772
 4471SOL    HW114312   6.620   3.253   0.782
 4471SOL    HW214313   6.594   3.092   0.781
 4472SOL     OW14314   2.142   4.635   1.600
 4472SOL    HW114315   2.189   4.600   1.519
 4472SOL    HW214316   2.201   4.626   1.680
 4473SOL     OW14317   0.783   0.508   6.416
 4473SOL    HW114318   0.795   0.417   6.455
 4473SOL    HW214319   0.754   0.572   6.487
 4474SOL     OW14320   6.357   0.456   4.172
 4474SOL    HW114321   6.363   0.501   4.262
 4474SOL    HW214322   6.262   0.457   4.141
 4475SOL     OW14323   1.668   3.564   0.562
 4475SOL    HW114324   1.655   3.556   0.661
 4475SOL    HW214325   1.700   3.477   0.525
 4476SOL     OW14326   5.262   6.776   1.770
 4476SOL    HW114327   5.346   6.725   1.789
 4476SOL    HW214328   5.282   6.850   1.706
 4477SOL     OW14329   1.386   1.101   0.298
 4477SOL    HW114330   1.476   1.136   0.273
 4477SOL    HW214331   1.364   1.130   0.391
 4478SOL     OW14332   1.799   5.170   1.996
 4478SOL    HW114333   1.768   5.157   2.090
 4478SOL    HW214334   1.741   5.238   1.951
 4479SOL     OW14335   0.733   0.290   6.149
 4479SOL    HW114336   0.647   0.341   6.158
 4479SOL    HW214337   0.808   0.355   6.136
 4480SOL     OW14338   0.651   4.801   3.672
 4480SOL    HW114339   0.626   4.826   3.766
 4480SOL    HW214340   0.686   4.882   3.625
 4481SOL     OW14341   1.170   0.208   3.753
 4481SOL    HW114342   1.136   0.298   3.780
 4481SOL    HW214343   1.129   0.138   3.812
 4482SOL     OW14344   0.694   4.483   3.719
 4482SOL    HW114345   0.677   4.581   3.713
 4482SOL    HW214346   0.748   4.463   3.801
 4483SOL     OW14347   5.033   3.076   1.581
 4483SOL    HW114348   4.990   3.018   1.651
 4483SOL    HW214349   4.977   3.072   1.497
 4484SOL     OW14350   3.786   3.371   6.428
 4484SOL    HW114351   3.850   3.297   6.448
 4484SOL    HW214352   3.792   3.441   6.499
 4485SOL     OW14353   4.629   0.627   6.819
 4485SOL    HW114354   4.675   0.558   6.762
 4485SOL    HW214355   4.556   0.583   6.871
 4486SOL     OW14356   6.360   2.279   4.007
 4486SOL    HW114357   6.263   2.291   4.029
 4486SOL    HW214358   6.390   2.189   4.037
 4487SOL     OW14359   2.651   3.419   5.720
 4487SOL    HW114360   2.690   3.440   5.630
 4487SOL    HW214361   2.557   3.388   5.709
 4488SOL     OW14362   0.147   1.752   6.360
 4488SOL    HW114363   0.177   1.657   6.350
 4488SOL    HW214364   0.151   1.779   6.456
 4489SOL     OW14365   6.383   0.767   3.021
 4489SOL    HW114366   6.482   0.773   3.033
 4489SOL    HW214367   6.344   0.712   3.096
 4490SOL     OW14368   6.637   2.490   3.620
 4490SOL    HW114369   6.713   2.425   3.627
 4490SOL    HW214370   6.618   2.527   3.711
 4491SOL     OW14371   1.645   3.508   3.239
 4491SOL    HW114372   1.677   3.591   3.284
 4491SOL    HW214373   1.689   3.499   3.149
 4492SOL     OW14374   4.498   4.082   6.288
 4492SOL    HW114375   4.424   4.121   6.233
 4492SOL    HW214376   4.528   3.996   6.246
 4493SOL     OW14377   5.341   5.083   3.679
 4493SOL    HW114378   5.297   5.165   3.643
 4493SOL    HW214379   5.326   5.007   3.615
 4494SOL     OW14380   6.026   2.633   3.413
 4494SOL    HW114381   6.020   2.705   3.344
 4494SOL    HW214382   6.122   2.615   3.433
 4495SOL     OW14383   4.188   6.561   1.989
 4495SOL    HW114384   4.202   6.555   1.890
 4495SOL    HW214385   4.136   6.481   2.020
 4496SOL     OW14386   5.538   4.525   5.986
 4496SOL    HW114387   5.585   4.571   5.911
 4496SOL    HW214388   5.439   4.538   5.976
 4497SOL     OW14389   5.817   5.485   1.200
 4497SOL    HW114390   5.793   5.388   1.209
 4497SOL    HW214391   5.736   5.536   1.171
 4498SOL     OW14392   0.639   3.587   6.912
 4498SOL    HW114393   0.727   3.549   6.882
 4498SOL    HW214394   0.655   3.671   6.963
 4499SOL     OW14395   5.592   3.105   6.479
 4499SOL    HW114396   5.683   3.135   6.450
 4499SOL    HW214397   5.557   3.168   6.547
 4500SOL     OW14398   3.309   3.792   4.243
 4500SOL    HW114399   3.321   3.844   4.158
 4500SOL    HW214400   3.305   3.856   4.320
 4501SOL     OW14401   1.836   4.819   4.370
 4501SOL    HW114402   1.754   4.863   4.333
 4501SOL    HW214403   1.903   4.889   4.393
 4502SOL     OW14404   6.204   3.177   0.073
 4502SOL    HW114405   6.182   3.098   0.017
 4502SOL    HW214406   6.182   3.261   0.023
 4503SOL     OW14407   1.597   2.838   3.160
 4503SOL    HW114408   1.664   2.810   3.091
 4503SOL    HW214409   1.509   2.855   3.116
 4504SOL     OW14410   4.443   2.451   4.700
 4504SOL    HW114411   4.449   2.410   4.790
 4504SOL    HW214412   4.397   2.388   4.637
 4505SOL     OW14413   1.308   5.196   6.276
 4505SOL    HW114414   1.238   5.238   6.336
 4505SOL    HW214415   1.378   5.264   6.255
 4506SOL     OW14416   4.392   0.047   5.021
 4506SOL    HW114417   4.392   6.978   4.973
 4506SOL    HW214418   4.350   0.036   5.111
 4507SOL     OW14419   6.479   4.041   1.648
 4507SOL    HW114420   6.524   4.096   1.577
 4507SOL    HW214421   6.535   3.961   1.668
 4508SOL     OW14422   1.161   3.979   0.427
 4508SOL    HW114423   1.218   3.992   0.508
 4508SOL    HW214424   1.089   3.913   0.448
 4509SOL     OW14425   1.205   1.814   4.045
 4509SOL    HW114426   1.301   1.839   4.060
 4509SOL    HW214427   1.171   1.765   4.125
 4510SOL     OW14428   3.779   6.519   5.080
 4510SOL    HW114429   3.705   6.552   5.138
 4510SOL    HW214430   3.859   6.499   5.137
 4511SOL     OW14431   6.382   2.984   6.073
 4511SOL    HW114432   6.328   3.065   6.052
 4511SOL    HW214433   6.469   3.011   6.114
 4512SOL     OW14434   2.677   4.968   0.693
 4512SOL    HW114435   2.705   5.028   0.768
 4512SOL    HW214436   2.608   5.014   0.638
 4513SOL     OW14437   5.664   0.973   2.098
 4513SOL    HW114438   5.713   1.053   2.132
 4513SOL    HW214439   5.714   0.933   2.021
 4514SOL     OW14440   3.424   0.954   5.035
 4514SOL    HW114441   3.418   0.986   5.129
 4514SOL    HW214442   3.515   0.917   5.018
 4515SOL     OW14443   6.378   5.249   1.229
 4515SOL    HW114444   6.413   5.171   1.177
 4515SOL    HW214445   6.389   5.231   1.327
 4516SOL     OW14446   1.082   6.988   4.851
 4516SOL    HW114447   1.178   7.009   4.831
 4516SOL    HW214448   1.027   7.002   4.769
 4517SOL     OW14449   3.692   6.798   6.061
 4517SOL    HW114450   3.784   6.808   6.100
 4517SOL    HW214451   3.664   6.885   6.020
 4518SOL     OW14452   1.372   1.233   4.345
 4518SOL    HW114453   1.348   1.179   4.264
 4518SOL    HW214454   1.355   1.178   4.427
 4519SOL     OW14455   6.233   2.614   4.574
 4519SOL    HW114456   6.327   2.610   4.540
 4519SOL    HW214457   6.233   2.645   4.669
 4520SOL     OW14458   0.376   4.071   2.554
 4520SOL    HW114459   0.423   4.012   2.488
 4520SOL    HW214460   0.279   4.076   2.531
 4521SOL     OW14461   5.082   1.759   6.200
 4521SOL    HW114462   5.075   1.693   6.125
 4521SOL    HW214463   5.178   1.769   6.226
 4522SOL     OW14464   5.766   0.471   3.067
 4522SOL    HW114465   5.844   0.530   3.086
 4522SOL    HW214466   5.692   0.492   3.132
 4523SOL     OW14467   4.294   3.032   6.882
 4523SOL    HW114468   4.214   3.091   6.884
 4523SOL    HW214469   4.373   3.084   6.850
 4524SOL     OW14470   6.365   0.470   4.937
 4524SOL    HW114471   6.373   0.393   5.000
 4524SOL    HW214472   6.451   0.481   4.887
 4525SOL     OW14473   6.623   1.662   5.582
 4525SOL    HW114474   6.643   1.640   5.487
 4525SOL    HW214475   6.527   1.689   5.591
 4526SOL     OW14476   3.880   1.356   0.569
 4526SOL    HW114477   3.915   1.388   0.657
 4526SOL    HW214478   3.941   1.286   0.532
 4527SOL     OW14479   3.948   0.758   4.342
 4527SOL    HW114480   3.987   0.844   4.309
 4527SOL    HW214481   3.935   0.696   4.265
 4528SOL     OW14482   5.225   0.145   6.036
 4528SOL    HW114483   5.188   0.060   5.997
 4528SOL    HW214484   5.151   0.194   6.083
 4529SOL     OW14485   4.095   0.327   3.748
 4529SOL    HW114486   4.127   0.273   3.670
 4529SOL    HW214487   4.174   0.367   3.795
 4530SOL     OW14488   0.724   2.773   4.697
 4530SOL    HW114489   0.705   2.679   4.671
 4530SOL    HW214490   0.694   2.788   4.792
 4531SOL     OW14491   0.354   3.979   3.614
 4531SOL    HW114492   0.311   3.904   3.565
 4531SOL    HW214493   0.360   4.059   3.555
 4532SOL     OW14494   6.358   1.524   0.742
 4532SOL    HW114495   6.419   1.459   0.697
 4532SOL    HW214496   6.327   1.486   0.829
 4533SOL     OW14497   3.312   5.500   2.321
 4533SOL    HW114498   3.312   5.431   2.249
 4533SOL    HW214499   3.403   5.541   2.328
 4534SOL     OW14500   0.204   4.333   5.691
 4534SOL    HW114501   0.261   4.325   5.773
 4534SOL    HW214502   0.209   4.248   5.638
 4535SOL     OW14503   4.756   2.082   2.995
 4535SOL    HW114504   4.782   2.178   3.009
 4535SOL    HW214505   4.792   2.027   3.070
 4536SOL     OW14506   6.925   0.669   3.754
 4536SOL    HW114507   6.847   0.671   3.691
 4536SOL    HW214508   6.910   0.599   3.823
 4537SOL     OW14509   3.876   2.952   6.212
 4537SOL    HW114510   3.961   3.000   6.233
 4537SOL    HW214511   3.878   2.861   6.255
 4538SOL     OW14512   3.431   1.470   1.882
 4538SOL    HW114513   3.519   1.502   1.914
 4538SOL    HW214514   3.444   1.394   1.818
 4539SOL     OW14515   1.675   1.696   2.454
 4539SOL    HW114516   1.713   1.753   2.382
 4539SOL    HW214517   1.658   1.751   2.535
 4540SOL     OW14518   3.275   2.952   4.759
 4540SOL    HW114519   3.337   2.941   4.682
 4540SOL    HW214520   3.294   2.881   4.828
 4541SOL     OW14521   6.309   1.240   1.470
 4541SOL    HW114522   6.407   1.250   1.483
 4541SOL    HW214523   6.289   1.226   1.373
 4542SOL     OW14524   4.871   0.048   3.413
 4542SOL    HW114525   4.800   7.004   3.447
 4542SOL    HW214526   4.929   0.001   3.348
 4543SOL     OW14527   5.517   2.190   1.945
 4543SOL    HW114528   5.493   2.151   1.857
 4543SOL    HW214529   5.572   2.273   1.931
 4544SOL     OW14530   4.057   4.779   6.417
 4544SOL    HW114531   3.963   4.752   6.440
 4544SOL    HW214532   4.055   4.843   6.340
 4545SOL     OW14533   4.352   3.191   6.259
 4545SOL    HW114534   4.408   3.107   6.260
 4545SOL    HW214535   4.322   3.210   6.166
 4546SOL     OW14536   0.362   6.944   6.853
 4546SOL    HW114537   0.388   7.013   6.920
 4546SOL    HW214538   0.295   6.882   6.894
 4547SOL     OW14539   3.945   1.736   1.365
 4547SOL    HW114540   3.881   1.803   1.402
 4547SOL    HW214541   3.895   1.652   1.342
 4548SOL     OW14542   1.639   3.389   3.734
 4548SOL    HW114543   1.563   3.441   3.697
 4548SOL    HW214544   1.606   3.322   3.800
 4549SOL     OW14545   4.764   1.558   2.992
 4549SOL    HW114546   4.729   1.477   3.039
 4549SOL    HW214547   4.822   1.529   2.916
 4550SOL     OW14548   1.653   6.380   4.796
 4550SOL    HW114549   1.749   6.389   4.825
 4550SOL    HW214550   1.627   6.283   4.798
 4551SOL     OW14551   0.408   2.538   6.149
 4551SOL    HW114552   0.357   2.506   6.228
 4551SOL    HW214553   0.345   2.573   6.080
 4552SOL     OW14554   6.812   2.948   3.802
 4552SOL    HW114555   6.838   2.987   3.891
 4552SOL    HW214556   6.789   2.852   3.814
 4553SOL     OW14557   4.856   4.565   0.546
 4553SOL    HW114558   4.888   4.650   0.588
 4553SOL    HW214559   4.756   4.563   0.547
 4554SOL     OW14560   5.536   0.110   3.470
 4554SOL    HW114561   5.599   0.033   3.475
 4554SOL    HW214562   5.447   0.084   3.508
 4555SOL     OW14563   5.093   1.711   6.964
 4555SOL    HW114564   4.995   1.723   6.975
 4555SOL    HW214565   5.123   1.629   7.014
 4556SOL     OW14566   5.075   0.993   4.956
 4556SOL    HW114567   5.135   1.067   4.987
 4556SOL    HW214568   5.130   0.914   4.930
 4557SOL     OW14569   5.067   0.170   5.562
 4557SOL    HW114570   5.069   0.249   5.500
 4557SOL    HW214571   5.072   0.202   5.656
 4558SOL     OW14572   6.184   3.811   5.848
 4558SOL    HW114573   6.091   3.839   5.874
 4558SOL    HW214574   6.240   3.802   5.930
 4559SOL     OW14575   0.269   6.256   1.801
 4559SOL    HW114576   0.313   6.288   1.884
 4559SOL    HW214577   0.187   6.204   1.825
 4560SOL     OW14578   4.974   2.996   3.571
 4560SOL    HW114579   5.045   2.927   3.563
 4560SOL    HW214580   4.920   2.998   3.487
 4561SOL     OW14581   3.141   0.678   6.740
 4561SOL    HW114582   3.156   0.587   6.700
 4561SOL    HW214583   3.145   0.671   6.839
 4562SOL     OW14584   3.106   5.238   5.403
 4562SOL    HW114585   3.084   5.184   5.322
 4562SOL    HW214586   3.034   5.226   5.472
 4563SOL     OW14587   5.396   2.792   6.454
 4563SOL    HW114588   5.362   2.805   6.361
 4563SOL    HW214589   5.406   2.694   6.472
 4564SOL     OW14590   1.573   5.536   7.016
 4564SOL    HW114591   1.600   5.631   0.011
 4564SOL    HW214592   1.477   5.532   6.990
 4565SOL     OW14593   3.308   0.697   3.835
 4565SOL    HW114594   3.287   0.735   3.744
 4565SOL    HW214595   3.330   0.772   3.898
 4566SOL     OW14596   0.644   1.859   0.545
 4566SOL    HW114597   0.712   1.788   0.529
 4566SOL    HW214598   0.592   1.837   0.628
 4567SOL     OW14599   0.074   1.108   0.802
 4567SOL    HW114600   0.162   1.100   0.848
 4567SOL    HW214601   0.033   1.017   0.792
 4568SOL     OW14602   3.179   4.946   4.579
 4568SOL    HW114603   3.093   4.962   4.530
 4568SOL    HW214604   3.159   4.922   4.674
 4569SOL     OW14605   0.335   2.356   3.118
 4569SOL    HW114606   0.278   2.317   3.191
 4569SOL    HW214607   0.389   2.284   3.075
 4570SOL     OW14608   6.382   4.883   4.218
 4570SOL    HW114609   6.291   4.861   4.254
 4570SOL    HW214610   6.390   4.982   4.206
 4571SOL     OW14611   3.566   3.122   4.102
 4571SOL    HW114612   3.528   3.163   4.019
 4571SOL    HW214613   3.552   3.185   4.179
 4572SOL     OW14614   2.206   5.815   2.109
 4572SOL    HW114615   2.303   5.788   2.106
 4572SOL    HW214616   2.170   5.796   2.201
 4573SOL     OW14617   5.415   6.824   0.625
 4573SOL    HW114618   5.418   6.924   0.636
 4573SOL    HW214619   5.507   6.790   0.607
 4574SOL     OW14620   0.488   4.577   1.687
 4574SOL    HW114621   0.574   4.610   1.724
 4574SOL    HW214622   0.432   4.655   1.658
 4575SOL     OW14623   6.478   6.484   2.205
 4575SOL    HW114624   6.536   6.533   2.270
 4575SOL    HW214625   6.517   6.491   2.114
 4576SOL     OW14626   3.056   5.969   4.219
 4576SOL    HW114627   3.041   5.902   4.146
 4576SOL    HW214628   2.993   6.046   4.208
 4577SOL     OW14629   0.949   2.023   4.064
 4577SOL    HW114630   1.007   2.005   4.143
 4577SOL    HW214631   0.997   1.994   3.981
 4578SOL     OW14632   0.108   4.385   4.113
 4578SOL    HW114633   0.184   4.441   4.144
 4578SOL    HW214634   0.091   4.401   4.016
 4579SOL     OW14635   5.266   2.257   4.363
 4579SOL    HW114636   5.195   2.251   4.433
 4579SOL    HW214637   5.224   2.265   4.273
 4580SOL     OW14638   6.945   5.507   0.236
 4580SOL    HW114639   6.918   5.483   0.329
 4580SOL    HW214640   6.871   5.557   0.191
 4581SOL     OW14641   3.277   6.335   3.453
 4581SOL    HW114642   3.193   6.350   3.400
 4581SOL    HW214643   3.312   6.243   3.435
 4582SOL     OW14644   4.668   6.905   3.518
 4582SOL    HW114645   4.608   6.973   3.560
 4582SOL    HW214646   4.706   6.846   3.590
 4583SOL     OW14647   4.342   1.538   5.625
 4583SOL    HW114648   4.381   1.625   5.657
 4583SOL    HW214649   4.387   1.510   5.541
 4584SOL     OW14650   0.870   4.875   5.305
 4584SOL    HW114651   0.789   4.925   5.335
 4584SOL    HW214652   0.948   4.938   5.301
 4585SOL     OW14653   3.613   6.852   2.686
 4585SOL    HW114654   3.515   6.850   2.702
 4585SOL    HW214655   3.652   6.762   2.704
 4586SOL     OW14656   2.728   6.545   2.152
 4586SOL    HW114657   2.683   6.565   2.065
 4586SOL    HW214658   2.817   6.504   2.135
 4587SOL     OW14659   2.461   4.629   1.152
 4587SOL    HW114660   2.374   4.674   1.131
 4587SOL    HW214661   2.489   4.652   1.246
 4588SOL     OW14662   3.884   3.912   5.383
 4588SOL    HW114663   3.880   3.952   5.474
 4588SOL    HW214664   3.965   3.945   5.335
 4589SOL     OW14665   1.039   1.890   3.842
 4589SOL    HW114666   1.065   1.812   3.785
 4589SOL    HW214667   1.095   1.890   3.925
 4590SOL     OW14668   4.625   5.596   2.857
 4590SOL    HW114669   4.540   5.618   2.906
 4590SOL    HW214670   4.616   5.506   2.814
 4591SOL     OW14671   6.350   6.399   5.433
 4591SOL    HW114672   6.251   6.413   5.427
 4591SOL    HW214673   6.377   6.390   5.529
 4592SOL     OW14674   3.206   1.878   5.968
 4592SOL    HW114675   3.123   1.870   6.023
 4592SOL    HW214676   3.273   1.935   6.016
 4593SOL     OW14677   3.926   6.740   1.064
 4593SOL    HW114678   3.940   6.822   1.009
 4593SOL    HW214679   4.011   6.717   1.112
 4594SOL     OW14680   3.040   1.701   2.915
 4594SOL    HW114681   3.049   1.611   2.872
 4594SOL    HW214682   3.131   1.742   2.926
 4595SOL     OW14683   4.087   2.764   5.979
 4595SOL    HW114684   3.993   2.796   5.970
 4595SOL    HW214685   4.089   2.676   6.027
 4596SOL     OW14686   6.191   6.899   2.157
 4596SOL    HW114687   6.196   6.933   2.063
 4596SOL    HW214688   6.119   6.829   2.163
 4597SOL     OW14689   0.114   4.744   6.575
 4597SOL    HW114690   0.097   4.740   6.673
 4597SOL    HW214691   0.045   4.690   6.527
 4598SOL     OW14692   3.277   4.576   0.318
 4598SOL    HW114693   3.232   4.662   0.344
 4598SOL    HW214694   3.353   4.559   0.380
 4599SOL     OW14695   2.046   5.161   0.313
 4599SOL    HW114696   2.000   5.156   0.224
 4599SOL    HW214697   2.012   5.240   0.364
 4600SOL     OW14698   3.964   5.072   1.788
 4600SOL    HW114699   3.925   5.130   1.717
 4600SOL    HW214700   3.911   4.987   1.796
 4601SOL     OW14701   1.541   5.821   4.548
 4601SOL    HW114702   1.516   5.916   4.535
 4601SOL    HW214703   1.463   5.762   4.528
 4602SOL     OW14704   1.834   1.346   0.781
 4602SOL    HW114705   1.790   1.294   0.855
 4602SOL    HW214706   1.888   1.284   0.724
 4603SOL     OW14707   3.242   1.154   2.003
 4603SOL    HW114708   3.165   1.217   2.005
 4603SOL    HW214709   3.257   1.119   2.096
 4604SOL     OW14710   2.124   0.715   2.471
 4604SOL    HW114711   2.177   0.698   2.553
 4604SOL    HW214712   2.135   0.638   2.407
 4605SOL     OW14713   4.908   6.770   5.690
 4605SOL    HW114714   4.949   6.804   5.775
 4605SOL    HW214715   4.821   6.725   5.711
 4606SOL     OW14716   0.048   6.168   5.480
 4606SOL    HW114717   7.009   6.211   5.410
 4606SOL    HW214718   0.080   6.238   5.544
 4607SOL     OW14719   2.653   2.368   1.286
 4607SOL    HW114720   2.589   2.300   1.251
 4607SOL    HW214721   2.736   2.322   1.320
 4608SOL     OW14722   1.836   3.482   5.111
 4608SOL    HW114723   1.918   3.430   5.137
 4608SOL    HW214724   1.758   3.421   5.107
 4609SOL     OW14725   3.273   6.646   6.709
 4609SOL    HW114726   3.197   6.636   6.645
 4609SOL    HW214727   3.290   6.744   6.726
 4610SOL     OW14728   0.382   3.234   6.869
 4610SOL    HW114729   0.284   3.239   6.850
 4610SOL    HW214730   0.398   3.246   6.967
 4611SOL     OW14731   0.870   3.393   6.812
 4611SOL    HW114732   0.791   3.335   6.797
 4611SOL    HW214733   0.899   3.435   6.726
 4612SOL     OW14734   2.426   0.514   6.285
 4612SOL    HW114735   2.400   0.463   6.203
 4612SOL    HW214736   2.472   0.598   6.258
 4613SOL     OW14737   2.878   5.608   1.955
 4613SOL    HW114738   2.893   5.526   2.009
 4613SOL    HW214739   2.872   5.688   2.015
 4614SOL     OW14740   2.276   5.026   0.258
 4614SOL    HW114741   2.191   5.078   0.265
 4614SOL    HW214742   2.259   4.931   0.284
 4615SOL     OW14743   6.897   3.022   0.342
 4615SOL    HW114744   6.834   2.998   0.268
 4615SOL    HW214745   6.869   3.109   0.382
 4616SOL     OW14746   6.200   0.687   0.320
 4616SOL    HW114747   6.163   0.705   0.228
 4616SOL    HW214748   6.292   0.649   0.313
 4617SOL     OW14749   0.031   3.469   2.006
 4617SOL    HW114750   0.094   3.473   2.084
 4617SOL    HW214751   7.011   3.377   1.998
 4618SOL     OW14752   1.264   2.251   6.074
 4618SOL    HW114753   1.324   2.323   6.110
 4618SOL    HW214754   1.263   2.255   5.974
 4619SOL     OW14755   3.338   0.290   3.783
 4619SOL    HW114756   3.421   0.249   3.818
 4619SOL    HW214757   3.324   0.263   3.688
 4620SOL     OW14758   2.647   4.742   6.214
 4620SOL    HW114759   2.548   4.743   6.228
 4620SOL    HW214760   2.679   4.647   6.210
 4621SOL     OW14761   0.395   6.685   6.980
 4621SOL    HW114762   0.418   6.753   6.911
 4621SOL    HW214763   0.350   6.729   0.039
 4622SOL     OW14764   2.410   3.201   1.207
 4622SOL    HW114765   2.342   3.246   1.265
 4622SOL    HW214766   2.367   3.127   1.157
 4623SOL     OW14767   6.223   4.580   2.651
 4623SOL    HW114768   6.183   4.623   2.571
 4623SOL    HW214769   6.294   4.639   2.689
 4624SOL     OW14770   4.797   6.572   5.295
 4624SOL    HW114771   4.865   6.558   5.223
 4624SOL    HW214772   4.746   6.487   5.310
 4625SOL     OW14773   1.289   3.601   6.270
 4625SOL    HW114774   1.219   3.669   6.290
 4625SOL    HW214775   1.369   3.646   6.231
 4626SOL     OW14776   5.518   5.741   2.020
 4626SOL    HW114777   5.552   5.681   2.092
 4626SOL    HW214778   5.418   5.747   2.027
 4627SOL     OW14779   2.150   0.562   5.660
 4627SOL    HW114780   2.101   0.581   5.576
 4627SOL    HW214781   2.215   0.637   5.679
 4628SOL     OW14782   0.207   3.666   1.168
 4628SOL    HW114783   0.165   3.678   1.258
 4628SOL    HW214784   0.271   3.741   1.150
 4629SOL     OW14785   4.013   5.018   4.901
 4629SOL    HW114786   3.924   4.974   4.911
 4629SOL    HW214787   4.000   5.114   4.875
 4630SOL     OW14788   2.267   0.023   2.480
 4630SOL    HW114789   2.366   0.029   2.470
 4630SOL    HW214790   2.236   6.952   2.447
 4631SOL     OW14791   2.366   1.032   2.570
 4631SOL    HW114792   2.451   1.085   2.562
 4631SOL    HW214793   2.386   0.936   2.552
 4632SOL     OW14794   5.857   5.525   4.180
 4632SOL    HW114795   5.771   5.477   4.195
 4632SOL    HW214796   5.856   5.612   4.229
 4633SOL     OW14797   5.454   2.563   5.697
 4633SOL    HW114798   5.446   2.659   5.724
 4633SOL    HW214799   5.542   2.527   5.728
 4634SOL     OW14800   3.755   4.702   1.106
 4634SOL    HW114801   3.697   4.641   1.052
 4634SOL    HW214802   3.715   4.713   1.198
 4635SOL     OW14803   5.121   3.994   1.011
 4635SOL    HW114804   5.122   3.894   1.014
 4635SOL    HW214805   5.031   4.026   0.983
 4636SOL     OW14806   1.143   5.285   0.556
 4636SOL    HW114807   1.118   5.292   0.652
 4636SOL    HW214808   1.105   5.362   0.506
 4637SOL     OW14809   1.929   0.660   4.740
 4637SOL    HW114810   1.905   0.582   4.797
 4637SOL    HW214811   2.029   0.671   4.739
 4638SOL     OW14812   4.666   3.706   6.354
 4638SOL    HW114813   4.645   3.699   6.256
 4638SOL    HW214814   4.752   3.756   6.366
 4639SOL     OW14815   6.891   2.927   4.979
 4639SOL    HW114816   6.868   2.930   5.076
 4639SOL    HW214817   6.848   3.004   4.932
 4640SOL     OW14818   6.144   4.199   2.850
 4640SOL    HW114819   6.196   4.129   2.899
 4640SOL    HW214820   6.164   4.193   2.753
 4641SOL     OW14821   2.569   4.527   5.641
 4641SOL    HW114822   2.633   4.514   5.566
 4641SOL    HW214823   2.526   4.617   5.634
 4642SOL     OW14824   5.875   5.814   4.303
 4642SOL    HW114825   5.966   5.798   4.340
 4642SOL    HW214826   5.879   5.884   4.231
 4643SOL     OW14827   4.088   2.431   0.959
 4643SOL    HW114828   3.994   2.465   0.965
 4643SOL    HW214829   4.143   2.496   0.907
 4644SOL     OW14830   2.585   5.150   4.793
 4644SOL    HW114831   2.660   5.120   4.850
 4644SOL    HW214832   2.620   5.183   4.705
 4645SOL     OW14833   2.014   6.090   4.950
 4645SOL    HW114834   2.080   6.052   4.885
 4645SOL    HW214835   2.058   6.163   5.003
 4646SOL     OW14836   3.813   0.572   1.550
 4646SOL    HW114837   3.892   0.514   1.571
 4646SOL    HW214838   3.731   0.516   1.541
 4647SOL     OW14839   0.282   0.703   4.660
 4647SOL    HW114840   0.265   0.789   4.611
 4647SOL    HW214841   0.345   0.646   4.608
 4648SOL     OW14842   1.497   4.756   2.409
 4648SOL    HW114843   1.483   4.659   2.392
 4648SOL    HW214844   1.549   4.796   2.334
 4649SOL     OW14845   5.898   6.586   6.087
 4649SOL    HW114846   5.890   6.488   6.065
 4649SOL    HW214847   5.809   6.629   6.076
 4650SOL     OW14848   6.871   5.108   1.986
 4650SOL    HW114849   6.815   5.027   1.969
 4650SOL    HW214850   6.893   5.113   2.084
 4651SOL     OW14851   6.870   1.619   1.859
 4651SOL    HW114852   6.964   1.641   1.886
 4651SOL    HW214853   6.848   1.666   1.774
 4652SOL     OW14854   0.608   6.162   5.613
 4652SOL    HW114855   0.622   6.149   5.711
 4652SOL    HW214856   0.556   6.246   5.599
 4653SOL     OW14857   0.824   5.898   6.983
 4653SOL    HW114858   0.751   5.845   0.009
 4653SOL    HW214859   0.818   5.886   6.884
 4654SOL     OW14860   0.886   1.778   6.423
 4654SOL    HW114861   0.790   1.787   6.396
 4654SOL    HW214862   0.935   1.727   6.353
 4655SOL     OW14863   0.347   5.506   3.292
 4655SOL    HW114864   0.305   5.477   3.206
 4655SOL    HW214865   0.295   5.584   3.329
 4656SOL     OW14866   2.314   0.358   3.250
 4656SOL    HW114867   2.388   0.425   3.247
 4656SOL    HW214868   2.313   0.312   3.339
 4657SOL     OW14869   6.020   0.093   6.741
 4657SOL    HW114870   5.972   0.092   6.829
 4657SOL    HW214871   6.094   0.027   6.742
 4658SOL     OW14872   5.279   0.600   3.466
 4658SOL    HW114873   5.347   0.534   3.496
 4658SOL    HW214874   5.223   0.629   3.544
 4659SOL     OW14875   2.402   2.605   4.483
 4659SOL    HW114876   2.491   2.571   4.451
 4659SOL    HW214877   2.390   2.583   4.580
 4660SOL     OW14878   6.631   1.285   5.934
 4660SOL    HW114879   6.534   1.293   5.957
 4660SOL    HW214880   6.652   1.351   5.862
 4661SOL     OW14881   4.034   3.897   3.503
 4661SOL    HW114882   4.021   3.836   3.425
 4661SOL    HW214883   4.002   3.988   3.480
 4662SOL     OW14884   5.767   0.461   4.132
 4662SOL    HW114885   5.750   0.547   4.084
 4662SOL    HW214886   5.792   0.390   4.065
 4663SOL     OW14887   0.788   1.572   2.263
 4663SOL    HW114888   0.782   1.592   2.361
 4663SOL    HW214889   0.728   1.634   2.213
 4664SOL     OW14890   2.992   3.646   0.565
 4664SOL    HW114891   2.986   3.562   0.619
 4664SOL    HW214892   2.902   3.689   0.559
 4665SOL     OW14893   5.401   0.907   6.612
 4665SOL    HW114894   5.404   0.856   6.526
 4665SOL    HW214895   5.469   0.981   6.608
 4666SOL     OW14896   2.892   1.295   0.249
 4666SOL    HW114897   2.834   1.373   0.274
 4666SOL    HW214898   2.834   1.217   0.226
 4667SOL     OW14899   0.586   5.987   5.397
 4667SOL    HW114900   0.499   5.986   5.347
 4667SOL    HW214901   0.583   6.060   5.465
 4668SOL     OW14902   5.563   1.390   5.312
 4668SOL    HW114903   5.523   1.394   5.220
 4668SOL    HW214904   5.542   1.302   5.354
 4669SOL     OW14905   2.400   0.477   1.324
 4669SOL    HW114906   2.465   0.404   1.306
 4669SOL    HW214907   2.379   0.525   1.238
 4670SOL     OW14908   1.844   1.159   4.589
 4670SOL    HW114909   1.870   1.225   4.660
 4670SOL    HW214910   1.750   1.128   4.605
 4671SOL     OW14911   5.567   2.831   0.766
 4671SOL    HW114912   5.570   2.741   0.722
 4671SOL    HW214913   5.660   2.869   0.770
 4672SOL     OW14914   2.876   3.389   5.250
 4672SOL    HW114915   2.923   3.476   5.237
 4672SOL    HW214916   2.887   3.332   5.168
 4673SOL     OW14917   3.858   0.231   2.533
 4673SOL    HW114918   3.923   0.179   2.589
 4673SOL    HW214919   3.850   0.324   2.568
 4674SOL     OW14920   4.027   6.451   5.889
 4674SOL    HW114921   3.993   6.488   5.803
 4674SOL    HW214922   3.983   6.499   5.965
 4675SOL     OW14923   1.317   4.030   5.996
 4675SOL    HW114924   1.282   4.119   5.970
 4675SOL    HW214925   1.251   3.986   6.059
 4676SOL     OW14926   0.232   5.376   3.680
 4676SOL    HW114927   0.307   5.351   3.618
 4676SOL    HW214928   0.156   5.313   3.668
 4677SOL     OW14929   1.100   3.631   0.443
 4677SOL    HW114930   1.176   3.609   0.504
 4677SOL    HW214931   1.059   3.717   0.472
 4678SOL     OW14932   1.776   4.088   2.081
 4678SOL    HW114933   1.749   4.095   1.985
 4678SOL    HW214934   1.694   4.093   2.139
 4679SOL     OW14935   4.090   0.433   1.554
 4679SOL    HW114936   4.084   0.366   1.480
 4679SOL    HW214937   4.097   0.386   1.642
 4680SOL     OW14938   1.657   0.653   0.222
 4680SOL    HW114939   1.643   0.660   0.321
 4680SOL    HW214940   1.652   0.556   0.195
 4681SOL     OW14941   4.862   5.492   2.324
 4681SOL    HW114942   4.904   5.473   2.236
 4681SOL    HW214943   4.815   5.410   2.357
 4682SOL     OW14944   2.973   3.755   6.665
 4682SOL    HW114945   3.022   3.830   6.710
 4682SOL    HW214946   3.037   3.683   6.641
 4683SOL     OW14947   6.035   4.087   3.873
 4683SOL    HW114948   6.112   4.147   3.850
 4683SOL    HW214949   5.952   4.141   3.880
 4684SOL     OW14950   5.661   6.253   0.112
 4684SOL    HW114951   5.695   6.164   0.082
 4684SOL    HW214952   5.690   6.323   0.047
 4685SOL     OW14953   3.660   4.015   4.510
 4685SOL    HW114954   3.608   4.020   4.596
 4685SOL    HW214955   3.684   4.107   4.481
 4686SOL     OW14956   2.561   6.050   0.135
 4686SOL    HW114957   2.602   6.104   0.209
 4686SOL    HW214958   2.547   5.956   0.166
 4687SOL     OW14959   2.412   0.174   2.776
 4687SOL    HW114960   2.393   0.263   2.733
 4687SOL    HW214961   2.492   0.133   2.732
 4688SOL     OW14962   6.050   3.050   5.736
 4688SOL    HW114963   5.999   3.062   5.821
 4688SOL    HW214964   6.090   3.138   5.708
 4689SOL     OW14965   6.412   0.644   2.334
 4689SOL    HW114966   6.371   0.722   2.288
 4689SOL    HW214967   6.498   0.671   2.376
 4690SOL     OW14968   2.512   1.719   0.592
 4690SOL    HW114969   2.460   1.696   0.510
 4690SOL    HW214970   2.571   1.799   0.573
 4691SOL     OW14971   6.848   4.239   2.348
 4691SOL    HW114972   6.909   4.264   2.273
 4691SOL    HW214973   6.754   4.235   2.314
 4692SOL     OW14974   5.082   3.083   2.509
 4692SOL    HW114975   5.046   3.134   2.431
 4692SOL    HW214976   5.125   2.998   2.477
 4693SOL     OW14977   1.347   0.372   3.175
 4693SOL    HW114978   1.367   0.302   3.243
 4693SOL    HW214979   1.253   0.363   3.143
 4694SOL     OW14980   1.737   0.554   6.478
 4694SOL    HW114981   1.831   0.558   6.510
 4694SOL    HW214982   1.711   0.459   6.462
 4695SOL     OW14983   1.928   5.475   1.910
 4695SOL    HW114984   2.017   5.442   1.879
 4695SOL    HW214985   1.855   5.431   1.857
 4696SOL     OW14986   1.934   5.546   5.941
 4696SOL    HW114987   1.902   5.537   6.035
 4696SOL    HW214988   1.859   5.577   5.883
 4697SOL     OW14989   4.196   5.439   1.637
 4697SOL    HW114990   4.187   5.452   1.736
 4697SOL    HW214991   4.138   5.505   1.589
 4698SOL     OW14992   5.291   0.893   4.748
 4698SOL    HW114993   5.284   0.983   4.704
 4698SOL    HW214994   5.214   0.836   4.720
 4699SOL     OW14995   1.571   0.086   2.013
 4699SOL    HW114996   1.592   0.180   2.043
 4699SOL    HW214997   1.541   0.032   2.092
 4700SOL     OW14998   6.462   2.478   2.010
 4700SOL    HW114999   6.488   2.406   1.946
 4700SOL    HW215000   6.498   2.457   2.100
 4701SOL     OW15001   3.151   2.473   1.719
 4701SOL    HW115002   3.237   2.424   1.728
 4701SOL    HW215003   3.093   2.454   1.798
 4702SOL     OW15004   5.528   5.202   6.589
 4702SOL    HW115005   5.584   5.126   6.619
 4702SOL    HW215006   5.551   5.284   6.642
 4703SOL     OW15007   0.865   5.627   3.473
 4703SOL    HW115008   0.800   5.558   3.441
 4703SOL    HW215009   0.913   5.666   3.394
 4704SOL     OW15010   1.363   5.028   4.469
 4704SOL    HW115011   1.419   4.962   4.519
 4704SOL    HW215012   1.403   5.119   4.477
 4705SOL     OW15013   3.544   1.724   1.798
 4705SOL    HW115014   3.466   1.711   1.737
 4705SOL    HW215015   3.533   1.810   1.848
 4706SOL     OW15016   2.318   0.104   0.654
 4706SOL    HW115017   2.314   0.072   0.560
 4706SOL    HW215018   2.225   0.123   0.687
 4707SOL     OW15019   1.961   5.744   1.834
 4707SOL    HW115020   1.965   5.803   1.915
 4707SOL    HW215021   1.943   5.650   1.862
 4708SOL     OW15022   1.953   3.012   4.848
 4708SOL    HW115023   2.018   3.083   4.875
 4708SOL    HW215024   1.998   2.923   4.850
 4709SOL     OW15025   4.835   4.115   5.517
 4709SOL    HW115026   4.782   4.193   5.483
 4709SOL    HW215027   4.791   4.030   5.490
 4710SOL     OW15028   6.039   5.881   5.287
 4710SOL    HW115029   6.021   5.812   5.217
 4710SOL    HW215030   5.984   5.860   5.368
 4711SOL     OW15031   5.334   3.741   2.605
 4711SOL    HW115032   5.348   3.790   2.691
 4711SOL    HW215033   5.388   3.784   2.533
 4712SOL     OW15034   4.628   4.458   5.660
 4712SOL    HW115035   4.598   4.373   5.617
 4712SOL    HW215036   4.674   4.515   5.593
 4713SOL     OW15037   6.068   4.189   1.051
 4713SOL    HW115038   6.042   4.231   1.137
 4713SOL    HW215039   6.160   4.149   1.059
 4714SOL     OW15040   4.217   1.579   6.912
 4714SOL    HW115041   4.276   1.614   6.839
 4714SOL    HW215042   4.133   1.633   6.915
 4715SOL     OW15043   6.565   1.600   1.944
 4715SOL    HW115044   6.663   1.603   1.924
 4715SOL    HW215045   6.540   1.507   1.969
 4716SOL     OW15046   4.083   4.795   5.637
 4716SOL    HW115047   4.013   4.724   5.640
 4716SOL    HW215048   4.131   4.797   5.725
 4717SOL     OW15049   2.784   5.006   4.922
 4717SOL    HW115050   2.737   4.924   4.890
 4717SOL    HW215051   2.801   4.999   5.020
 4718SOL     OW15052   4.489   4.684   0.105
 4718SOL    HW115053   4.487   4.640   0.015
 4718SOL    HW215054   4.581   4.676   0.144
 4719SOL     OW15055   0.221   4.268   3.722
 4719SOL    HW115056   0.321   4.268   3.719
 4719SOL    HW215057   0.189   4.180   3.759
 4720SOL     OW15058   2.235   3.234   0.111
 4720SOL    HW115059   2.223   3.256   0.208
 4720SOL    HW215060   2.330   3.250   0.084
 4721SOL     OW15061   0.239   2.951   2.692
 4721SOL    HW115062   0.309   3.020   2.671
 4721SOL    HW215063   0.183   2.982   2.769
 4722SOL     OW15064   1.265   5.926   6.979
 4722SOL    HW115065   1.252   5.829   7.000
 4722SOL    HW215066   1.182   5.976   7.004
 4723SOL     OW15067   3.871   4.356   6.863
 4723SOL    HW115068   3.852   4.453   6.846
 4723SOL    HW215069   3.910   4.345   6.955
 4724SOL     OW15070   0.902   7.005   5.053
 4724SOL    HW115071   0.968   6.993   5.127
 4724SOL    HW215072   0.948   6.994   4.965
 4725SOL     OW15073   4.836   6.026   1.345
 4725SOL    HW115074   4.791   5.950   1.297
 4725SOL    HW215075   4.768   6.076   1.398
 4726SOL     OW15076   1.737   3.217   5.623
 4726SOL    HW115077   1.760   3.120   5.611
 4726SOL    HW215078   1.766   3.268   5.542
 4727SOL     OW15079   6.984   4.604   1.587
 4727SOL    HW115080   0.032   4.531   1.568
 4727SOL    HW215081   6.921   4.612   1.511
 4728SOL     OW15082   6.052   1.821   4.441
 4728SOL    HW115083   6.018   1.748   4.500
 4728SOL    HW215084   6.053   1.789   4.346
 4729SOL     OW15085   6.364   1.802   1.981
 4729SOL    HW115086   6.433   1.730   1.968
 4729SOL    HW215087   6.400   1.870   2.045
 4730SOL     OW15088   3.157   6.691   4.373
 4730SOL    HW115089   3.205   6.725   4.454
 4730SOL    HW215090   3.224   6.655   4.307
 4731SOL     OW15091   3.009   6.322   0.496
 4731SOL    HW115092   3.106   6.301   0.502
 4731SOL    HW215093   2.956   6.249   0.539
 4732SOL     OW15094   0.267   5.134   4.650
 4732SOL    HW115095   0.292   5.230   4.662
 4732SOL    HW215096   0.207   5.124   4.572
 4733SOL     OW15097   2.240   4.189   2.521
 4733SOL    HW115098   2.142   4.195   2.539
 4733SOL    HW215099   2.256   4.126   2.444
 4734SOL     OW15100   5.195   3.561   6.749
 4734SOL    HW115101   5.100   3.564   6.778
 4734SOL    HW215102   5.200   3.533   6.653
 4735SOL     OW15103   0.602   0.914   4.983
 4735SOL    HW115104   0.637   0.990   5.037
 4735SOL    HW215105   0.568   0.842   5.044
 4736SOL     OW15106   6.460   1.980   3.203
 4736SOL    HW115107   6.366   2.003   3.228
 4736SOL    HW215108   6.464   1.956   3.106
 4737SOL     OW15109   2.318   4.936   6.853
 4737SOL    HW115110   2.351   4.904   6.764
 4737SOL    HW215111   2.219   4.950   6.849
 4738SOL     OW15112   0.871   6.191   3.814
 4738SOL    HW115113   0.865   6.223   3.719
 4738SOL    HW215114   0.851   6.266   3.877
 4739SOL     OW15115   6.276   3.135   2.776
 4739SOL    HW115116   6.346   3.073   2.741
 4739SOL    HW215117   6.248   3.105   2.868
 4740SOL     OW15118   1.486   0.717   1.031
 4740SOL    HW115119   1.450   0.667   1.110
 4740SOL    HW215120   1.484   0.815   1.050
 4741SOL     OW15121   5.152   4.565   1.517
 4741SOL    HW115122   5.085   4.571   1.592
 4741SOL    HW215123   5.138   4.641   1.454
 4742SOL     OW15124   2.675   5.746   2.300
 4742SOL    HW115125   2.700   5.694   2.382
 4742SOL    HW215126   2.594   5.802   2.320
 4743SOL     OW15127   2.897   3.194   0.023
 4743SOL    HW115128   2.953   3.112   0.032
 4743SOL    HW215129   2.946   3.273   0.060
 4744SOL     OW15130   1.906   2.213   4.928
 4744SOL    HW115131   1.857   2.191   4.844
 4744SOL    HW215132   1.849   2.271   4.986
 4745SOL     OW15133   3.351   5.247   4.977
 4745SOL    HW115134   3.391   5.200   5.055
 4745SOL    HW215135   3.404   5.329   4.956
 4746SOL     OW15136   5.992   0.919   1.268
 4746SOL    HW115137   5.948   0.939   1.355
 4746SOL    HW215138   6.091   0.928   1.277
 4747SOL     OW15139   6.539   2.828   1.257
 4747SOL    HW115140   6.514   2.809   1.352
 4747SOL    HW215141   6.601   2.907   1.255
 4748SOL     OW15142   1.791   0.572   1.287
 4748SOL    HW115143   1.853   0.535   1.356
 4748SOL    HW215144   1.792   0.512   1.207
 4749SOL     OW15145   2.476   0.471   5.919
 4749SOL    HW115146   2.435   0.414   5.990
 4749SOL    HW215147   2.460   0.429   5.830
 4750SOL     OW15148   0.695   1.867   4.694
 4750SOL    HW115149   0.635   1.922   4.636
 4750SOL    HW215150   0.743   1.800   4.638
 4751SOL     OW15151   0.956   3.494   5.559
 4751SOL    HW115152   0.926   3.399   5.569
 4751SOL    HW215153   1.032   3.511   5.621
 4752SOL     OW15154   2.295   6.040   1.895
 4752SOL    HW115155   2.220   6.028   1.960
 4752SOL    HW215156   2.266   6.011   1.804
 4753SOL     OW15157   6.961   6.931   5.529
 4753SOL    HW115158   6.951   6.913   5.627
 4753SOL    HW215159   6.906   6.865   5.477
 4754SOL     OW15160   0.314   0.258   6.309
 4754SOL    HW115161   0.276   0.348   6.329
 4754SOL    HW215162   0.307   0.200   6.390
 4755SOL     OW15163   2.375   0.879   0.850
 4755SOL    HW115164   2.464   0.920   0.828
 4755SOL    HW215165   2.352   0.811   0.781
 4756SOL     OW15166   4.633   3.127   1.445
 4756SOL    HW115167   4.592   3.056   1.502
 4756SOL    HW215168   4.724   3.096   1.415
 4757SOL     OW15169   1.915   1.733   1.960
 4757SOL    HW115170   2.007   1.773   1.958
 4757SOL    HW215171   1.920   1.643   2.003
 4758SOL     OW15172   5.149   4.390   5.266
 4758SOL    HW115173   5.064   4.396   5.214
 4758SOL    HW215174   5.138   4.324   5.340
 4759SOL     OW15175   5.883   4.502   6.335
 4759SOL    HW115176   5.861   4.586   6.286
 4759SOL    HW215177   5.980   4.481   6.324
 4760SOL     OW15178   1.968   2.736   0.647
 4760SOL    HW115179   1.987   2.638   0.640
 4760SOL    HW215180   1.870   2.752   0.638
 4761SOL     OW15181   1.269   5.642   5.846
 4761SOL    HW115182   1.307   5.635   5.754
 4761SOL    HW215183   1.249   5.551   5.881
 4762SOL     OW15184   3.754   6.862   2.366
 4762SOL    HW115185   3.673   6.916   2.389
 4762SOL    HW215186   3.752   6.777   2.417
 4763SOL     OW15187   6.052   5.355   4.622
 4763SOL    HW115188   6.051   5.454   4.611
 4763SOL    HW215189   5.962   5.317   4.598
 4764SOL     OW15190   3.942   3.671   5.008
 4764SOL    HW115191   3.965   3.634   4.918
 4764SOL    HW215192   4.024   3.671   5.065
 4765SOL     OW15193   0.064   4.635   5.375
 4765SOL    HW115194   0.098   4.632   5.468
 4765SOL    HW215195   6.985   4.611   5.374
 4766SOL     OW15196   3.471   0.247   3.506
 4766SOL    HW115197   3.537   0.275   3.436
 4766SOL    HW215198   3.409   0.178   3.468
 4767SOL     OW15199   3.958   6.128   6.449
 4767SOL    HW115200   4.007   6.080   6.522
 4767SOL    HW215201   4.006   6.116   6.363
 4768SOL     OW15202   0.432   1.027   4.788
 4768SOL    HW115203   0.489   0.985   4.859
 4768SOL    HW215204   0.491   1.070   4.719
 4769SOL     OW15205   3.467   0.496   1.507
 4769SOL    HW115206   3.520   0.580   1.492
 4769SOL    HW215207   3.415   0.474   1.425
 4770SOL     OW15208   2.900   0.554   3.940
 4770SOL    HW115209   2.989   0.531   3.902
 4770SOL    HW215210   2.896   0.524   4.036
 4771SOL     OW15211   3.826   4.327   5.302
 4771SOL    HW115212   3.798   4.278   5.219
 4771SOL    HW215213   3.794   4.277   5.382
 4772SOL     OW15214   2.445   2.489   0.768
 4772SOL    HW115215   2.485   2.565   0.717
 4772SOL    HW215216   2.347   2.504   0.779
 4773SOL     OW15217   6.605   5.411   3.868
 4773SOL    HW115218   6.628   5.495   3.820
 4773SOL    HW215219   6.644   5.332   3.819
 4774SOL     OW15220   0.779   4.403   0.884
 4774SOL    HW115221   0.839   4.324   0.872
 4774SOL    HW215222   0.763   4.447   0.796
 4775SOL     OW15223   2.508   1.425   2.420
 4775SOL    HW115224   2.535   1.515   2.454
 4775SOL    HW215225   2.530   1.418   2.323
 4776SOL     OW15226   4.207   4.965   1.730
 4776SOL    HW115227   4.113   5.000   1.737
 4776SOL    HW215228   4.222   4.897   1.802
 4777SOL     OW15229   2.694   4.335   1.690
 4777SOL    HW115230   2.781   4.364   1.728
 4777SOL    HW215231   2.622   4.398   1.720
 4778SOL     OW15232   5.262   3.337   2.222
 4778SOL    HW115233   5.281   3.434   2.234
 4778SOL    HW215234   5.347   3.286   2.214
 4779SOL     OW15235   4.853   0.722   3.228
 4779SOL    HW115236   4.803   0.777   3.162
 4779SOL    HW215237   4.950   0.721   3.203
 4780SOL     OW15238   1.765   0.235   5.333
 4780SOL    HW115239   1.768   0.320   5.281
 4780SOL    HW215240   1.756   0.256   5.431
 4781SOL     OW15241   2.058   5.612   2.469
 4781SOL    HW115242   2.027   5.549   2.540
 4781SOL    HW215243   2.157   5.608   2.461
 4782SOL     OW15244   5.397   5.667   0.283
 4782SOL    HW115245   5.482   5.613   0.279
 4782SOL    HW215246   5.390   5.724   0.202
 4783SOL     OW15247   6.313   4.025   2.252
 4783SOL    HW115248   6.289   4.027   2.155
 4783SOL    HW215249   6.412   4.013   2.261
 4784SOL     OW15250   6.537   4.407   5.633
 4784SOL    HW115251   6.557   4.391   5.537
 4784SOL    HW215252   6.594   4.482   5.667
 4785SOL     OW15253   6.445   6.535   1.097
 4785SOL    HW115254   6.363   6.481   1.117
 4785SOL    HW215255   6.525   6.475   1.092
 4786SOL     OW15256   1.567   3.076   2.574
 4786SOL    HW115257   1.524   3.144   2.514
 4786SOL    HW215258   1.664   3.099   2.586
 4787SOL     OW15259   4.050   2.078   2.336
 4787SOL    HW115260   3.983   2.106   2.405
 4787SOL    HW215261   4.095   1.993   2.365
 4788SOL     OW15262   1.332   6.075   5.482
 4788SOL    HW115263   1.273   6.149   5.452
 4788SOL    HW215264   1.280   6.012   5.540
 4789SOL     OW15265   6.282   0.034   0.582
 4789SOL    HW115266   6.377   0.003   0.590
 4789SOL    HW215267   6.221   6.981   0.618
 4790SOL     OW15268   5.113   1.072   6.971
 4790SOL    HW115269   5.054   1.145   7.006
 4790SOL    HW215270   5.115   0.996   0.018
 4791SOL     OW15271   5.000   0.539   2.956
 4791SOL    HW115272   5.060   0.467   2.922
 4791SOL    HW215273   5.041   0.628   2.935
 4792SOL     OW15274   2.931   2.236   1.675
 4792SOL    HW115275   3.015   2.189   1.702
 4792SOL    HW215276   2.911   2.310   1.739
 4793SOL     OW15277   0.392   0.034   6.174
 4793SOL    HW115278   0.383   0.120   6.223
 4793SOL    HW215279   0.321   0.029   6.103
 4794SOL     OW15280   4.013   0.907   1.972
 4794SOL    HW115281   4.061   0.936   1.890
 4794SOL    HW215282   4.064   0.834   2.017
 4795SOL     OW15283   5.925   2.679   4.576
 4795SOL    HW115284   5.869   2.620   4.634
 4795SOL    HW215285   6.022   2.656   4.589
 4796SOL     OW15286   6.314   3.640   0.596
 4796SOL    HW115287   6.329   3.739   0.606
 4796SOL    HW215288   6.401   3.592   0.608
 4797SOL     OW15289   0.356   4.733   5.073
 4797SOL    HW115290   0.277   4.678   5.102
 4797SOL    HW215291   0.386   4.791   5.149
 4798SOL     OW15292   6.998   4.330   5.492
 4798SOL    HW115293   0.057   4.334   5.556
 4798SOL    HW215294   6.993   4.238   5.451
 4799SOL     OW15295   3.851   1.351   4.818
 4799SOL    HW115296   3.924   1.346   4.887
 4799SOL    HW215297   3.852   1.440   4.774
 4800SOL     OW15298   2.003   2.077   4.052
 4800SOL    HW115299   2.013   2.152   4.118
 4800SOL    HW215300   2.076   2.082   3.984
 4801SOL     OW15301   1.658   2.479   0.521
 4801SOL    HW115302   1.725   2.474   0.447
 4801SOL    HW215303   1.566   2.488   0.483
 4802SOL     OW15304   2.011   0.622   2.158
 4802SOL    HW115305   1.948   0.573   2.219
 4802SOL    HW215306   2.105   0.599   2.182
 4803SOL     OW15307   0.877   6.839   1.633
 4803SOL    HW115308   0.905   6.746   1.611
 4803SOL    HW215309   0.794   6.863   1.582
 4804SOL     OW15310   3.837   5.656   0.334
 4804SOL    HW115311   3.741   5.656   0.308
 4804SOL    HW215312   3.864   5.564   0.363
 4805SOL     OW15313   0.670   1.585   0.471
 4805SOL    HW115314   0.651   1.577   0.569
 4805SOL    HW215315   0.703   1.498   0.436
 4806SOL     OW15316   0.763   2.870   3.156
 4806SOL    HW115317   0.856   2.852   3.188
 4806SOL    HW215318   0.716   2.931   3.220
 4807SOL     OW15319   0.637   6.660   2.191
 4807SOL    HW115320   0.600   6.747   2.160
 4807SOL    HW215321   0.602   6.586   2.133
 4808SOL     OW15322   5.266   3.318   1.387
 4808SOL    HW115323   5.242   3.234   1.338
 4808SOL    HW215324   5.316   3.379   1.326
 4809SOL     OW15325   4.548   6.213   6.331
 4809SOL    HW115326   4.595   6.198   6.418
 4809SOL    HW215327   4.613   6.251   6.264
 4810SOL     OW15328   0.972   0.153   1.305
 4810SOL    HW115329   0.993   0.071   1.250
 4810SOL    HW215330   0.942   0.227   1.245
 4811SOL     OW15331   5.368   5.990   2.897
 4811SOL    HW115332   5.354   5.910   2.839
 4811SOL    HW215333   5.460   5.986   2.937
 4812SOL     OW15334   6.551   4.714   4.595
 4812SOL    HW115335   6.565   4.760   4.507
 4812SOL    HW215336   6.635   4.721   4.649
 4813SOL     OW15337   5.537   2.462   2.650
 4813SOL    HW115338   5.470   2.438   2.721
 4813SOL    HW215339   5.607   2.521   2.689
 4814SOL     OW15340   6.814   3.527   1.505
 4814SOL    HW115341   6.823   3.429   1.525
 4814SOL    HW215342   6.717   3.550   1.494
 4815SOL     OW15343   3.772   6.288   2.843
 4815SOL    HW115344   3.735   6.267   2.753
 4815SOL    HW215345   3.872   6.285   2.840
 4816SOL     OW15346   5.275   5.501   3.141
 4816SOL    HW115347   5.214   5.500   3.062
 4816SOL    HW215348   5.226   5.537   3.220
 4817SOL     OW15349   6.734   1.939   6.456
 4817SOL    HW115350   6.659   2.001   6.480
 4817SOL    HW215351   6.806   1.946   6.524
 4818SOL     OW15352   6.836   5.973   3.874
 4818SOL    HW115353   6.828   6.072   3.859
 4818SOL    HW215354   6.888   5.932   3.799
 4819SOL     OW15355   1.816   2.980   0.920
 4819SOL    HW115356   1.735   2.921   0.917
 4819SOL    HW215357   1.803   3.051   0.989
 4820SOL     OW15358   0.617   3.297   2.486
 4820SOL    HW115359   0.704   3.289   2.535
 4820SOL    HW215360   0.633   3.283   2.388
 4821SOL     OW15361   6.794   5.696   4.002
 4821SOL    HW115362   6.703   5.657   4.016
 4821SOL    HW215363   6.795   5.791   4.035
 4822SOL     OW15364   1.943   4.358   4.314
 4822SOL    HW115365   2.023   4.418   4.310
 4822SOL    HW215366   1.971   4.267   4.345
 4823SOL     OW15367   1.724   2.826   1.844
 4823SOL    HW115368   1.742   2.818   1.942
 4823SOL    HW215369   1.810   2.828   1.794
 4824SOL     OW15370   6.111   1.744   6.620
 4824SOL    HW115371   6.200   1.759   6.577
 4824SOL    HW215372   6.100   1.806   6.698
 4825SOL     OW15373   0.982   6.806   4.035
 4825SOL    HW115374   0.939   6.831   4.121
 4825SOL    HW215375   0.925   6.739   3.987
 4826SOL     OW15376   4.009   0.585   1.019
 4826SOL    HW115377   3.958   0.545   0.943
 4826SOL    HW215378   4.076   0.651   0.984
 4827SOL     OW15379   6.867   1.981   0.650
 4827SOL    HW115380   6.811   2.055   0.612
 4827SOL    HW215381   6.947   1.968   0.592
 4828SOL     OW15382   5.711   1.257   4.888
 4828SOL    HW115383   5.733   1.354   4.890
 4828SOL    HW215384   5.671   1.230   4.975
 4829SOL     OW15385   4.368   6.243   4.966
 4829SOL    HW115386   4.362   6.169   4.899
 4829SOL    HW215387   4.287   6.241   5.024
 4830SOL     OW15388   1.778   6.273   3.321
 4830SOL    HW115389   1.696   6.219   3.304
 4830SOL    HW215390   1.856   6.230   3.276
 4831SOL     OW15391   3.058   4.664   5.319
 4831SOL    HW115392   2.989   4.636   5.252
 4831SOL    HW215393   3.012   4.694   5.403
 4832SOL     OW15394   3.938   3.586   4.365
 4832SOL    HW115395   3.861   3.534   4.403
 4832SOL    HW215396   3.903   3.660   4.308
 4833SOL     OW15397   6.118   3.483   5.129
 4833SOL    HW115398   6.135   3.514   5.035
 4833SOL    HW215399   6.032   3.432   5.132
 4834SOL     OW15400   1.155   4.717   1.156
 4834SOL    HW115401   1.094   4.675   1.088
 4834SOL    HW215402   1.250   4.695   1.133
 4835SOL     OW15403   6.848   3.034   5.688
 4835SOL    HW115404   6.943   3.044   5.658
 4835SOL    HW215405   6.807   2.955   5.643
 4836SOL     OW15406   4.614   1.847   5.854
 4836SOL    HW115407   4.551   1.834   5.777
 4836SOL    HW215408   4.610   1.768   5.914
 4837SOL     OW15409   0.211   3.700   3.983
 4837SOL    HW115410   0.171   3.684   4.074
 4837SOL    HW215411   0.298   3.652   3.976
 4838SOL     OW15412   1.978   3.539   6.015
 4838SOL    HW115413   1.940   3.487   6.092
 4838SOL    HW215414   1.995   3.477   5.939
 4839SOL     OW15415   2.371   1.211   0.666
 4839SOL    HW115416   2.342   1.208   0.761
 4839SOL    HW215417   2.378   1.306   0.636
 4840SOL     OW15418   5.889   3.337   5.058
 4840SOL    HW115419   5.846   3.247   5.063
 4840SOL    HW215420   5.836   3.402   5.113
 4841SOL     OW15421   2.758   6.335   3.338
 4841SOL    HW115422   2.681   6.392   3.366
 4841SOL    HW215423   2.840   6.364   3.388
 4842SOL     OW15424   3.827   5.758   2.960
 4842SOL    HW115425   3.839   5.767   3.059
 4842SOL    HW215426   3.741   5.711   2.940
 4843SOL     OW15427   6.972   1.677   6.894
 4843SOL    HW115428   6.923   1.737   6.957
 4843SOL    HW215429   0.021   1.730   6.843
 4844SOL     OW15430   1.265   5.920   6.132
 4844SOL    HW115431   1.336   5.932   6.062
 4844SOL    HW215432   1.177   5.903   6.088
 4845SOL     OW15433   5.006   3.721   5.191
 4845SOL    HW115434   4.971   3.701   5.283
 4845SOL    HW215435   4.938   3.693   5.123
 4846SOL     OW15436   6.127   3.353   4.456
 4846SOL    HW115437   6.180   3.282   4.409
 4846SOL    HW215438   6.189   3.420   4.495
 4847SOL     OW15439   2.429   6.587   6.052
 4847SOL    HW115440   2.447   6.592   5.954
 4847SOL    HW215441   2.360   6.517   6.070
 4848SOL     OW15442   4.766   1.158   4.012
 4848SOL    HW115443   4.794   1.210   3.931
 4848SOL    HW215444   4.846   1.140   4.070
 4849SOL     OW15445   2.595   6.301   1.066
 4849SOL    HW115446   2.589   6.207   1.099
 4849SOL    HW215447   2.526   6.357   1.113
 4850SOL     OW15448   3.611   0.120   0.922
 4850SOL    HW115449   3.546   0.161   0.858
 4850SOL    HW215450   3.604   0.021   0.917
 4851SOL     OW15451   3.773   4.612   6.778
 4851SOL    HW115452   3.831   4.679   6.731
 4851SOL    HW215453   3.681   4.650   6.788
 4852SOL     OW15454   5.429   5.024   6.030
 4852SOL    HW115455   5.442   5.011   6.129
 4852SOL    HW215456   5.484   5.103   6.000
 4853SOL     OW15457   4.576   6.908   2.533
 4853SOL    HW115458   4.540   6.830   2.482
 4853SOL    HW215459   4.524   6.919   2.618
 4854SOL     OW15460   4.012   6.526   2.251
 4854SOL    HW115461   4.112   6.518   2.250
 4854SOL    HW215462   3.986   6.622   2.244
 4855SOL     OW15463   5.201   5.112   5.879
 4855SOL    HW115464   5.143   5.174   5.932
 4855SOL    HW215465   5.261   5.061   5.940
 4856SOL     OW15466   0.510   3.922   2.368
 4856SOL    HW115467   0.459   3.843   2.402
 4856SOL    HW215468   0.593   3.891   2.321
 4857SOL     OW15469   2.510   2.344   4.899
 4857SOL    HW115470   2.458   2.261   4.877
 4857SOL    HW215471   2.553   2.335   4.989
 4858SOL     OW15472   1.905   6.576   4.461
 4858SOL    HW115473   1.970   6.500   4.460
 4858SOL    HW215474   1.882   6.600   4.555
 4859SOL     OW15475   6.845   5.808   2.953
 4859SOL    HW115476   6.794   5.874   2.898
 4859SOL    HW215477   6.781   5.753   3.007
 4860SOL     OW15478   4.180   5.376   2.400
 4860SOL    HW115479   4.143   5.367   2.308
 4860SOL    HW215480   4.237   5.458   2.404
 4861SOL     OW15481   0.047   4.320   6.075
 4861SOL    HW115482   0.068   4.398   6.133
 4861SOL    HW215483   0.124   4.256   6.074
 4862SOL     OW15484   2.058   6.241   4.017
 4862SOL    HW115485   2.127   6.182   4.059
 4862SOL    HW215486   1.970   6.226   4.062
 4863SOL     OW15487   5.485   2.061   2.622
 4863SOL    HW115488   5.538   2.141   2.594
 4863SOL    HW215489   5.458   2.070   2.717
 4864SOL     OW15490   2.253   1.563   1.061
 4864SOL    HW115491   2.179   1.588   1.123
 4864SOL    HW215492   2.251   1.464   1.045
 4865SOL     OW15493   4.210   5.831   4.982
 4865SOL    HW115494   4.135   5.806   4.920
 4865SOL    HW215495   4.251   5.748   5.020
 4866SOL     OW15496   0.554   4.888   1.904
 4866SOL    HW115497   0.566   4.962   1.837
 4866SOL    HW215498   0.462   4.851   1.895
 4867SOL     OW15499   4.920   4.654   4.211
 4867SOL    HW115500   4.887   4.644   4.117
 4867SOL    HW215501   5.000   4.713   4.212
 4868SOL     OW15502   1.852   5.868   1.410
 4868SOL    HW115503   1.764   5.899   1.374
 4868SOL    HW215504   1.837   5.811   1.490
 4869SOL     OW15505   6.240   1.975   1.036
 4869SOL    HW115506   6.168   1.936   1.093
 4869SOL    HW215507   6.305   1.904   1.011
 4870SOL     OW15508   6.751   0.289   1.090
 4870SOL    HW115509   6.689   0.213   1.069
 4870SOL    HW215510   6.707   0.375   1.065
 4871SOL     OW15511   1.924   4.017   4.375
 4871SOL    HW115512   1.906   3.982   4.467
 4871SOL    HW215513   2.018   3.996   4.349
 4872SOL     OW15514   1.010   0.566   4.040
 4872SOL    HW115515   0.924   0.516   4.026
 4872SOL    HW215516   1.074   0.509   4.091
 4873SOL     OW15517   1.043   6.754   5.334
 4873SOL    HW115518   0.955   6.724   5.297
 4873SOL    HW215519   1.053   6.853   5.319
 4874SOL     OW15520   5.849   3.140   3.631
 4874SOL    HW115521   5.784   3.215   3.617
 4874SOL    HW215522   5.941   3.177   3.639
 4875SOL     OW15523   6.722   2.675   6.305
 4875SOL    HW115524   6.743   2.746   6.238
 4875SOL    HW215525   6.753   2.587   6.270
 4876SOL     OW15526   0.168   1.930   6.983
 4876SOL    HW115527   0.185   2.024   7.012
 4876SOL    HW215528   0.145   1.929   6.886
 4877SOL     OW15529   6.377   0.882   2.014
 4877SOL    HW115530   6.311   0.911   1.944
 4877SOL    HW215531   6.328   0.859   2.098
 4878SOL     OW15532   0.428   2.905   1.801
 4878SOL    HW115533   0.343   2.936   1.760
 4878SOL    HW215534   0.440   2.807   1.785
 4879SOL     OW15535   4.885   5.859   3.186
 4879SOL    HW115536   4.812   5.800   3.155
 4879SOL    HW215537   4.916   5.917   3.110
 4880SOL     OW15538   5.860   1.588   5.617
 4880SOL    HW115539   5.882   1.670   5.564
 4880SOL    HW215540   5.761   1.582   5.631
 4881SOL     OW15541   2.621   5.555   6.617
 4881SOL    HW115542   2.571   5.642   6.620
 4881SOL    HW215543   2.698   5.563   6.554
 4882SOL     OW15544   4.746   6.719   6.842
 4882SOL    HW115545   4.841   6.735   6.813
 4882SOL    HW215546   4.725   6.777   6.921
 4883SOL     OW15547   6.024   5.401   0.073
 4883SOL    HW115548   5.994   5.404   0.168
 4883SOL    HW215549   6.113   5.354   0.067
 4884SOL     OW15550   4.054   6.351   1.406
 4884SOL    HW115551   4.049   6.252   1.413
 4884SOL    HW215552   3.965   6.387   1.378
 4885SOL     OW15553   2.071   0.150   2.991
 4885SOL    HW115554   2.097   0.079   3.055
 4885SOL    HW215555   2.132   0.229   3.001
 4886SOL     OW15556   6.142   0.760   5.775
 4886SOL    HW115557   6.237   0.735   5.759
 4886SOL    HW215558   6.090   0.750   5.690
 4887SOL     OW15559   0.134   1.967   5.723
 4887SOL    HW115560   0.103   2.052   5.765
 4887SOL    HW215561   0.147   1.897   5.794
 4888SOL     OW15562   3.327   5.984   1.790
 4888SOL    HW115563   3.345   5.885   1.789
 4888SOL    HW215564   3.381   6.027   1.717
 4889SOL     OW15565   1.601   2.928   6.235
 4889SOL    HW115566   1.631   2.959   6.325
 4889SOL    HW215567   1.640   2.987   6.164
 4890SOL     OW15568   0.781   0.398   4.386
 4890SOL    HW115569   0.720   0.355   4.452
 4890SOL    HW215570   0.874   0.400   4.422
 4891SOL     OW15571   1.542   3.843   0.749
 4891SOL    HW115572   1.627   3.828   0.698
 4891SOL    HW215573   1.561   3.836   0.847
 4892SOL     OW15574   1.512   5.385   2.229
 4892SOL    HW115575   1.532   5.467   2.283
 4892SOL    HW215576   1.425   5.346   2.260
 4893SOL     OW15577   0.964   3.532   6.450
 4893SOL    HW115578   1.029   3.550   6.524
 4893SOL    HW215579   0.928   3.439   6.459
 4894SOL     OW15580   1.875   0.791   3.205
 4894SOL    HW115581   1.912   0.699   3.193
 4894SOL    HW215582   1.924   0.837   3.278
 4895SOL     OW15583   6.252   4.488   0.252
 4895SOL    HW115584   6.204   4.407   0.219
 4895SOL    HW215585   6.195   4.569   0.237
 4896SOL     OW15586   4.004   5.921   3.452
 4896SOL    HW115587   4.080   5.965   3.499
 4896SOL    HW215588   4.035   5.837   3.408
 4897SOL     OW15589   2.665   6.156   6.502
 4897SOL    HW115590   2.749   6.183   6.454
 4897SOL    HW215591   2.633   6.231   6.559
 4898SOL     OW15592   6.304   1.802   4.810
 4898SOL    HW115593   6.388   1.752   4.789
 4898SOL    HW215594   6.261   1.831   4.724
 4899SOL     OW15595   5.291   4.587   4.947
 4899SOL    HW115596   5.337   4.539   5.022
 4899SOL    HW215597   5.342   4.575   4.862
 4900SOL     OW15598   0.439   6.691   5.628
 4900SOL    HW115599   0.352   6.729   5.596
 4900SOL    HW215600   0.514   6.735   5.580
 4901SOL     OW15601   0.022   6.730   3.339
 4901SOL    HW115602   0.027   6.815   3.289
 4901SOL    HW215603   6.994   6.660   3.284
 4902SOL     OW15604   3.339   4.797   1.804
 4902SOL    HW115605   3.322   4.792   1.706
 4902SOL    HW215606   3.406   4.728   1.829
 4903SOL     OW15607   5.481   5.693   6.108
 4903SOL    HW115608   5.442   5.781   6.081
 4903SOL    HW215609   5.428   5.619   6.068
 4904SOL     OW15610   2.939   6.438   3.578
 4904SOL    HW115611   2.955   6.527   3.536
 4904SOL    HW215612   3.024   6.406   3.621
 4905SOL     OW15613   6.331   3.570   3.268
 4905SOL    HW115614   6.389   3.530   3.339
 4905SOL    HW215615   6.252   3.615   3.310
 4906SOL     OW15616   5.466   1.327   1.128
 4906SOL    HW115617   5.429   1.334   1.220
 4906SOL    HW215618   5.392   1.329   1.061
 4907SOL     OW15619   2.204   1.839   2.251
 4907SOL    HW115620   2.134   1.835   2.322
 4907SOL    HW215621   2.288   1.795   2.283
 4908SOL     OW15622   3.755   5.028   0.470
 4908SOL    HW115623   3.747   5.018   0.569
 4908SOL    HW215624   3.769   5.124   0.447
 4909SOL     OW15625   5.914   0.521   5.391
 4909SOL    HW115626   5.981   0.495   5.460
 4909SOL    HW215627   5.916   0.456   5.315
 4910SOL     OW15628   5.851   6.847   6.151
 4910SOL    HW115629   5.899   6.760   6.148
 4910SOL    HW215630   5.794   6.856   6.069
 4911SOL     OW15631   1.103   3.399   5.996
 4911SOL    HW115632   1.038   3.442   6.059
 4911SOL    HW215633   1.183   3.368   6.046
 4912SOL     OW15634   2.585   2.421   2.062
 4912SOL    HW115635   2.546   2.364   1.990
 4912SOL    HW215636   2.683   2.406   2.066
 4913SOL     OW15637   2.819   3.527   1.952
 4913SOL    HW115638   2.877   3.608   1.951
 4913SOL    HW215639   2.739   3.543   1.894
 4914SOL     OW15640   1.619   6.461   2.397
 4914SOL    HW115641   1.542   6.514   2.360
 4914SOL    HW215642   1.586   6.370   2.424
 4915SOL     OW15643   2.607   6.137   3.209
 4915SOL    HW115644   2.550   6.167   3.287
 4915SOL    HW215645   2.688   6.196   3.203
 4916SOL     OW15646   1.911   2.204   2.552
 4916SOL    HW115647   1.905   2.238   2.458
 4916SOL    HW215648   1.846   2.254   2.609
 4917SOL     OW15649   2.305   4.932   6.316
 4917SOL    HW115650   2.333   4.846   6.276
 4917SOL    HW215651   2.316   5.006   6.249
 4918SOL     OW15652   2.306   0.675   3.847
 4918SOL    HW115653   2.382   0.615   3.872
 4918SOL    HW215654   2.243   0.683   3.923
 4919SOL     OW15655   2.446   3.229   1.646
 4919SOL    HW115656   2.510   3.302   1.669
 4919SOL    HW215657   2.357   3.270   1.625
 4920SOL     OW15658   4.495   0.781   0.176
 4920SOL    HW115659   4.412   0.830   0.201
 4920SOL    HW215660   4.529   0.730   0.255
 4921SOL     OW15661   1.036   4.694   1.680
 4921SOL    HW115662   1.071   4.786   1.697
 4921SOL    HW215663   1.039   4.675   1.582
 4922SOL     OW15664   0.703   2.755   5.644
 4922SOL    HW115665   0.673   2.780   5.736
 4922SOL    HW215666   0.796   2.719   5.648
 4923SOL     OW15667   3.032   2.360   0.187
 4923SOL    HW115668   2.989   2.450   0.178
 4923SOL    HW215669   2.962   2.289   0.178
 4924SOL     OW15670   0.067   3.404   4.169
 4924SOL    HW115671   0.139   3.335   4.170
 4924SOL    HW215672   0.087   3.476   4.236
 4925SOL     OW15673   4.646   6.104   6.593
 4925SOL    HW115674   4.564   6.054   6.563
 4925SOL    HW215675   4.689   6.055   6.669
 4926SOL     OW15676   4.438   2.849   0.627
 4926SOL    HW115677   4.391   2.855   0.538
 4926SOL    HW215678   4.491   2.764   0.631
 4927SOL     OW15679   3.336   4.118   2.497
 4927SOL    HW115680   3.431   4.134   2.522
 4927SOL    HW215681   3.286   4.082   2.577
 4928SOL     OW15682   0.886   6.475   0.772
 4928SOL    HW115683   0.979   6.437   0.769
 4928SOL    HW215684   0.875   6.539   0.695
 4929SOL     OW15685   0.678   4.985   4.542
 4929SOL    HW115686   0.678   4.974   4.443
 4929SOL    HW215687   0.721   4.906   4.585
 4930SOL     OW15688   0.288   2.936   0.631
 4930SOL    HW115689   0.229   2.989   0.692
 4930SOL    HW215690   0.366   2.900   0.683
 4931SOL     OW15691   6.883   6.615   0.963
 4931SOL    HW115692   6.808   6.550   0.974
 4931SOL    HW215693   6.962   6.584   1.016
 4932SOL     OW15694   3.811   2.030   1.082
 4932SOL    HW115695   3.720   2.071   1.091
 4932SOL    HW215696   3.866   2.054   1.162
 4933SOL     OW15697   2.670   0.370   5.119
 4933SOL    HW115698   2.656   0.325   5.207
 4933SOL    HW215699   2.704   0.463   5.134
 4934SOL     OW15700   1.695   5.793   5.616
 4934SOL    HW115701   1.704   5.787   5.517
 4934SOL    HW215702   1.648   5.878   5.641
 4935SOL     OW15703   1.972   1.189   0.597
 4935SOL    HW115704   2.004   1.100   0.565
 4935SOL    HW215705   1.975   1.255   0.521
 4936SOL     OW15706   4.612   6.218   1.437
 4936SOL    HW115707   4.540   6.161   1.399
 4936SOL    HW215708   4.578   6.266   1.518
 4937SOL     OW15709   0.950   2.919   4.977
 4937SOL    HW115710   0.948   2.927   4.877
 4937SOL    HW215711   0.961   2.823   5.003
 4938SOL     OW15712   3.321   5.102   1.910
 4938SOL    HW115713   3.403   5.092   1.855
 4938SOL    HW215714   3.318   5.031   1.979
 4939SOL     OW15715   0.870   1.489   1.571
 4939SOL    HW115716   0.907   1.472   1.662
 4939SOL    HW215717   0.856   1.402   1.524
 4940SOL     OW15718   0.626   1.979   5.857
 4940SOL    HW115719   0.567   2.054   5.828
 4940SOL    HW215720   0.661   1.932   5.775
 4941SOL     OW15721   4.178   2.790   5.388
 4941SOL    HW115722   4.178   2.739   5.473
 4941SOL    HW215723   4.158   2.728   5.312
 4942SOL     OW15724   0.537   1.805   2.991
 4942SOL    HW115725   0.438   1.800   3.006
 4942SOL    HW215726   0.577   1.871   3.053
 4943SOL     OW15727   5.533   2.784   6.915
 4943SOL    HW115728   5.505   2.689   6.909
 4943SOL    HW215729   5.592   2.806   6.837
 4944SOL     OW15730   0.935   5.074   6.963
 4944SOL    HW115731   0.845   5.118   6.966
 4944SOL    HW215732   0.996   5.126   6.903
 4945SOL     OW15733   2.238   0.343   5.494
 4945SOL    HW115734   2.173   0.412   5.525
 4945SOL    HW215735   2.287   0.377   5.414
 4946SOL     OW15736   2.681   5.145   6.727
 4946SOL    HW115737   2.588   5.165   6.759
 4946SOL    HW215738   2.746   5.162   6.801
 4947SOL     OW15739   1.119   0.346   1.088
 4947SOL    HW115740   1.142   0.323   0.994
 4947SOL    HW215741   1.089   0.442   1.092
 4948SOL     OW15742   1.842   2.077   2.129
 4948SOL    HW115743   1.938   2.105   2.119
 4948SOL    HW215744   1.790   2.151   2.172
 4949SOL     OW15745   6.893   4.189   6.424
 4949SOL    HW115746   6.864   4.116   6.485
 4949SOL    HW215747   6.867   4.167   6.330
 4950SOL     OW15748   3.796   4.835   5.800
 4950SOL    HW115749   3.802   4.753   5.743
 4950SOL    HW215750   3.766   4.810   5.892
 4951SOL     OW15751   5.204   5.923   3.356
 4951SOL    HW115752   5.147   5.944   3.277
 4951SOL    HW215753   5.177   5.982   3.433
 4952SOL     OW15754   0.397   0.321   6.813
 4952SOL    HW115755   0.408   0.382   6.734
 4952SOL    HW215756   0.425   0.370   6.896
 4953SOL     OW15757   1.442   2.567   4.998
 4953SOL    HW115758   1.541   2.580   5.005
 4953SOL    HW215759   1.413   2.495   5.062
 4954SOL     OW15760   3.052   3.729   4.590
 4954SOL    HW115761   2.984   3.663   4.559
 4954SOL    HW215762   3.130   3.680   4.629
 4955SOL     OW15763   3.954   5.901   5.795
 4955SOL    HW115764   3.941   5.822   5.735
 4955SOL    HW215765   3.879   5.965   5.782
 4956SOL     OW15766   2.939   6.977   4.792
 4956SOL    HW115767   2.890   0.037   4.831
 4956SOL    HW215768   2.883   6.936   4.720
 4957SOL     OW15769   5.977   4.288   0.247
 4957SOL    HW115770   5.895   4.300   0.192
 4957SOL    HW215771   5.974   4.199   0.293
 4958SOL     OW15772   3.686   5.633   0.763
 4958SOL    HW115773   3.739   5.564   0.812
 4958SOL    HW215774   3.747   5.683   0.701
 4959SOL     OW15775   0.044   2.331   2.762
 4959SOL    HW115776   0.067   2.246   2.715
 4959SOL    HW215777   6.964   2.335   2.777
 4960SOL     OW15778   5.226   4.543   3.551
 4960SOL    HW115779   5.171   4.512   3.629
 4960SOL    HW215780   5.206   4.486   3.472
 4961SOL     OW15781   3.174   2.124   1.777
 4961SOL    HW115782   3.187   2.062   1.854
 4961SOL    HW215783   3.216   2.085   1.695
 4962SOL     OW15784   1.178   3.080   0.326
 4962SOL    HW115785   1.196   3.093   0.229
 4962SOL    HW215786   1.191   3.167   0.374
 4963SOL     OW15787   0.647   3.603   5.944
 4963SOL    HW115788   0.658   3.699   5.920
 4963SOL    HW215789   0.694   3.546   5.876
 4964SOL     OW15790   2.439   6.342   4.700
 4964SOL    HW115791   2.461   6.247   4.679
 4964SOL    HW215792   2.468   6.363   4.793
 4965SOL     OW15793   1.553   6.397   3.138
 4965SOL    HW115794   1.596   6.308   3.154
 4965SOL    HW215795   1.618   6.470   3.157
 4966SOL     OW15796   2.975   6.265   4.235
 4966SOL    HW115797   2.889   6.263   4.285
 4966SOL    HW215798   3.051   6.247   4.297
 4967SOL     OW15799   4.452   4.739   4.790
 4967SOL    HW115800   4.399   4.667   4.836
 4967SOL    HW215801   4.550   4.724   4.806
 4968SOL     OW15802   0.437   2.749   3.209
 4968SOL    HW115803   0.481   2.805   3.140
 4968SOL    HW215804   0.455   2.652   3.191
 4969SOL     OW15805   0.067   5.607   4.094
 4969SOL    HW115806   0.045   5.628   4.189
 4969SOL    HW215807   0.015   5.668   4.034
 4970SOL     OW15808   1.764   1.749   1.200
 4970SOL    HW115809   1.693   1.740   1.130
 4970SOL    HW215810   1.803   1.841   1.196
 4971SOL     OW15811   0.014   6.012   2.897
 4971SOL    HW115812   0.108   5.994   2.925
 4971SOL    HW215813   6.977   5.929   2.908
 4972SOL     OW15814   0.474   4.414   0.855
 4972SOL    HW115815   0.573   4.405   0.861
 4972SOL    HW215816   0.434   4.411   0.947
 4973SOL     OW15817   6.375   1.367   0.374
 4973SOL    HW115818   6.426   1.294   0.328
 4973SOL    HW215819   6.297   1.327   0.423
 4974SOL     OW15820   3.336   6.484   4.640
 4974SOL    HW115821   3.341   6.576   4.678
 4974SOL    HW215822   3.380   6.420   4.702
 4975SOL     OW15823   5.232   4.992   0.973
 4975SOL    HW115824   5.202   5.073   0.923
 4975SOL    HW215825   5.154   4.934   0.993
 4976SOL     OW15826   1.351   6.786   3.548
 4976SOL    HW115827   1.394   6.877   3.548
 4976SOL    HW215828   1.320   6.765   3.455
 4977SOL     OW15829   1.422   3.975   5.755
 4977SOL    HW115830   1.393   3.894   5.704
 4977SOL    HW215831   1.385   3.971   5.848
 4978SOL     OW15832   6.124   4.365   4.739
 4978SOL    HW115833   6.143   4.459   4.712
 4978SOL    HW215834   6.049   4.329   4.684
 4979SOL     OW15835   2.550   0.021   6.143
 4979SOL    HW115836   2.624   0.069   6.096
 4979SOL    HW215837   2.536   0.062   6.233
 4980SOL     OW15838   5.249   3.014   4.203
 4980SOL    HW115839   5.221   3.101   4.244
 4980SOL    HW215840   5.311   2.966   4.265
 4981SOL     OW15841   2.997   4.964   2.818
 4981SOL    HW115842   2.950   4.890   2.866
 4981SOL    HW215843   3.094   4.944   2.811
 4982SOL     OW15844   3.947   2.638   5.584
 4982SOL    HW115845   4.046   2.641   5.595
 4982SOL    HW215846   3.923   2.568   5.517
 4983SOL     OW15847   5.915   4.614   2.948
 4983SOL    HW115848   5.975   4.556   2.892
 4983SOL    HW215849   5.915   4.707   2.913
 4984SOL     OW15850   4.865   3.518   4.070
 4984SOL    HW115851   4.844   3.422   4.091
 4984SOL    HW215852   4.922   3.556   4.143
 4985SOL     OW15853   5.570   0.599   2.362
 4985SOL    HW115854   5.521   0.626   2.279
 4985SOL    HW215855   5.545   0.661   2.437
 4986SOL     OW15856   0.863   4.957   1.173
 4986SOL    HW115857   0.881   4.997   1.263
 4986SOL    HW215858   0.784   5.003   1.132
 4987SOL     OW15859   1.054   1.398   2.297
 4987SOL    HW115860   1.035   1.313   2.347
 4987SOL    HW215861   0.968   1.443   2.275
 4988SOL     OW15862   6.307   5.601   3.993
 4988SOL    HW115863   6.239   5.673   3.984
 4988SOL    HW215864   6.398   5.642   4.001
 4989SOL     OW15865   5.552   0.251   3.929
 4989SOL    HW115866   5.489   0.193   3.877
 4989SOL    HW215867   5.511   0.342   3.941
 4990SOL     OW15868   4.512   2.179   5.648
 4990SOL    HW115869   4.580   2.128   5.595
 4990SOL    HW215870   4.556   2.221   5.728
 4991SOL     OW15871   1.166   5.056   5.972
 4991SOL    HW115872   1.222   4.990   5.921
 4991SOL    HW215873   1.070   5.029   5.966
 4992SOL     OW15874   1.080   3.372   4.166
 4992SOL    HW115875   1.142   3.395   4.090
 4992SOL    HW215876   1.102   3.428   4.245
 4993SOL     OW15877   2.484   5.881   3.719
 4993SOL    HW115878   2.386   5.898   3.710
 4993SOL    HW215879   2.532   5.968   3.733
 4994SOL     OW15880   3.680   5.110   5.347
 4994SOL    HW115881   3.701   5.199   5.388
 4994SOL    HW215882   3.720   5.037   5.402
 4995SOL     OW15883   6.981   0.644   5.853
 4995SOL    HW115884   0.041   0.704   5.841
 4995SOL    HW215885   6.919   0.655   5.775
 4996SOL     OW15886   0.501   1.427   4.041
 4996SOL    HW115887   0.447   1.394   3.964
 4996SOL    HW215888   0.556   1.352   4.077
 4997SOL     OW15889   3.861   1.751   1.015
 4997SOL    HW115890   3.785   1.722   1.073
 4997SOL    HW215891   3.878   1.849   1.028
 4998SOL     OW15892   0.769   3.756   3.230
 4998SOL    HW115893   0.728   3.737   3.141
 4998SOL    HW215894   0.702   3.739   3.303
 4999SOL     OW15895   0.823   2.502   4.006
 4999SOL    HW115896   0.726   2.510   3.983
 4999SOL    HW215897   0.878   2.533   3.928
 5000SOL     OW15898   2.900   5.927   2.706
 5000SOL    HW115899   2.941   5.846   2.747
 5000SOL    HW215900   2.946   6.009   2.740
 5001SOL     OW15901   0.780   6.140   3.152
 5001SOL    HW115902   0.689   6.128   3.193
 5001SOL    HW215903   0.783   6.227   3.103
 5002SOL     OW15904   1.717   4.766   4.052
 5002SOL    HW115905   1.707   4.667   4.056
 5002SOL    HW215906   1.643   4.810   4.102
 5003SOL     OW15907   4.044   0.346   3.296
 5003SOL    HW115908   4.094   0.401   3.230
 5003SOL    HW215909   3.989   0.405   3.355
 5004SOL     OW15910   3.699   5.462   6.908
 5004SOL    HW115911   3.739   5.517   6.835
 5004SOL    HW215912   3.616   5.506   6.941
 5005SOL     OW15913   2.711   2.827   6.692
 5005SOL    HW115914   2.647   2.787   6.626
 5005SOL    HW215915   2.666   2.833   6.782
 5006SOL     OW15916   5.150   1.722   2.249
 5006SOL    HW115917   5.157   1.767   2.160
 5006SOL    HW215918   5.242   1.706   2.285
 5007SOL     OW15919   5.601   6.240   1.810
 5007SOL    HW115920   5.504   6.221   1.825
 5007SOL    HW215921   5.654   6.156   1.826
 5008SOL     OW15922   5.517   0.624   2.882
 5008SOL    HW115923   5.593   0.659   2.826
 5008SOL    HW215924   5.457   0.699   2.908
 5009SOL     OW15925   6.514   2.490   0.585
 5009SOL    HW115926   6.614   2.490   0.585
 5009SOL    HW215927   6.480   2.397   0.577
 5010SOL     OW15928   3.501   3.584   0.621
 5010SOL    HW115929   3.499   3.552   0.716
 5010SOL    HW215930   3.595   3.585   0.588
 5011SOL     OW15931   1.703   3.274   6.512
 5011SOL    HW115932   1.607   3.302   6.508
 5011SOL    HW215933   1.714   3.186   6.465
 5012SOL     OW15934   6.189   1.556   6.069
 5012SOL    HW115935   6.279   1.514   6.054
 5012SOL    HW215936   6.135   1.552   5.985
 5013SOL     OW15937   5.981   0.193   6.073
 5013SOL    HW115938   5.969   0.155   6.164
 5013SOL    HW215939   6.079   0.196   6.050
 5014SOL     OW15940   5.904   3.220   2.138
 5014SOL    HW115941   5.825   3.271   2.105
 5014SOL    HW215942   5.893   3.123   2.114
 5015SOL     OW15943   6.197   6.482   4.150
 5015SOL    HW115944   6.204   6.575   4.113
 5015SOL    HW215945   6.128   6.480   4.223
 5016SOL     OW15946   1.854   3.595   5.532
 5016SOL    HW115947   1.915   3.534   5.482
 5016SOL    HW215948   1.908   3.659   5.586
 5017SOL     OW15949   0.376   3.343   2.039
 5017SOL    HW115950   0.394   3.433   1.999
 5017SOL    HW215951   0.323   3.287   1.974
 5018SOL     OW15952   1.008   0.138   0.132
 5018SOL    HW115953   1.013   0.124   0.231
 5018SOL    HW215954   0.928   0.194   0.110
 5019SOL     OW15955   0.991   5.095   4.651
 5019SOL    HW115956   1.027   5.049   4.732
 5019SOL    HW215957   0.892   5.105   4.659
 5020SOL     OW15958   2.459   0.358   4.920
 5020SOL    HW115959   2.545   0.370   4.968
 5020SOL    HW215960   2.418   0.270   4.945
 5021SOL     OW15961   2.066   0.945   0.537
 5021SOL    HW115962   2.116   0.863   0.564
 5021SOL    HW215963   2.010   0.925   0.457
 5022SOL     OW15964   6.987   2.989   1.308
 5022SOL    HW115965   6.991   2.900   1.261
 5022SOL    HW215966   6.962   2.974   1.403
 5023SOL     OW15967   0.042   4.312   2.579
 5023SOL    HW115968   0.047   4.367   2.663
 5023SOL    HW215969   6.994   4.354   2.516
 5024SOL     OW15970   4.474   4.144   1.030
 5024SOL    HW115971   4.374   4.139   1.028
 5024SOL    HW215972   4.502   4.228   1.077
 5025SOL     OW15973   4.611   1.588   4.804
 5025SOL    HW115974   4.622   1.686   4.823
 5025SOL    HW215975   4.633   1.571   4.707
 5026SOL     OW15976   4.727   6.724   4.475
 5026SOL    HW115977   4.738   6.797   4.408
 5026SOL    HW215978   4.815   6.681   4.493
 5027SOL     OW15979   4.807   6.219   0.885
 5027SOL    HW115980   4.899   6.256   0.895
 5027SOL    HW215981   4.790   6.152   0.957
 5028SOL     OW15982   6.448   1.611   2.397
 5028SOL    HW115983   6.423   1.573   2.486
 5028SOL    HW215984   6.545   1.636   2.398
 5029SOL     OW15985   6.128   1.763   2.668
 5029SOL    HW115986   6.145   1.859   2.646
 5029SOL    HW215987   6.122   1.710   2.583
 5030SOL     OW15988   0.021   4.214   6.817
 5030SOL    HW115989   0.054   4.272   6.743
 5030SOL    HW215990   0.073   4.128   6.817
 5031SOL     OW15991   6.701   6.840   6.369
 5031SOL    HW115992   6.780   6.895   6.398
 5031SOL    HW215993   6.674   6.867   6.276
 5032SOL     OW15994   3.084   3.321   5.792
 5032SOL    HW115995   3.062   3.410   5.832
 5032SOL    HW215996   3.182   3.316   5.773
 5033SOL     OW15997   2.033   0.507   6.453
 5033SOL    HW115998   2.034   0.474   6.359
 5033SOL    HW215999   2.119   0.555   6.473
 5034SOL     OW16000   4.996   6.620   4.777
 5034SOL    HW116001   4.981   6.695   4.841
 5034SOL    HW216002   5.013   6.657   4.686
 5035SOL     OW16003   1.962   3.218   4.096
 5035SOL    HW116004   2.028   3.163   4.045
 5035SOL    HW216005   2.010   3.272   4.165
 5036SOL     OW16006   0.381   2.213   4.953
 5036SOL    HW116007   0.356   2.292   4.897
 5036SOL    HW216008   0.383   2.131   4.896
 5037SOL     OW16009   4.173   4.075   1.088
 5037SOL    HW116010   4.082   4.040   1.109
 5037SOL    HW216011   4.213   4.118   1.169
 5038SOL     OW16012   3.952   3.934   3.785
 5038SOL    HW116013   3.996   3.910   3.699
 5038SOL    HW216014   3.990   3.878   3.859
 5039SOL     OW16015   0.910   3.528   6.184
 5039SOL    HW116016   0.939   3.530   6.280
 5039SOL    HW216017   0.873   3.618   6.159
 5040SOL     OW16018   6.993   1.031   5.561
 5040SOL    HW116019   6.997   0.982   5.647
 5040SOL    HW216020   0.063   1.073   5.541
 5041SOL     OW16021   0.101   2.926   1.771
 5041SOL    HW116022   0.156   2.853   1.729
 5041SOL    HW216023   0.028   2.885   1.825
 5042SOL     OW16024   0.675   2.528   6.415
 5042SOL    HW116025   0.771   2.542   6.442
 5042SOL    HW216026   0.639   2.613   6.377
 5043SOL     OW16027   3.901   6.651   1.844
 5043SOL    HW116028   3.983   6.635   1.899
 5043SOL    HW216029   3.928   6.676   1.751
 5044SOL     OW16030   6.815   4.731   0.625
 5044SOL    HW116031   6.768   4.817   0.607
 5044SOL    HW216032   6.749   4.662   0.652
 5045SOL     OW16033   6.389   3.146   6.697
 5045SOL    HW116034   6.420   3.055   6.669
 5045SOL    HW216035   6.299   3.164   6.658
 5046SOL     OW16036   3.544   3.378   2.854
 5046SOL    HW116037   3.626   3.404   2.905
 5046SOL    HW216038   3.565   3.303   2.792
 5047SOL     OW16039   1.361   3.856   3.881
 5047SOL    HW116040   1.341   3.778   3.940
 5047SOL    HW216041   1.286   3.867   3.815
 5048SOL     OW16042   1.943   1.069   6.264
 5048SOL    HW116043   1.990   1.157   6.278
 5048SOL    HW216044   1.940   1.048   6.167
 5049SOL     OW16045   4.772   1.469   6.979
 5049SOL    HW116046   4.856   1.422   6.950
 5049SOL    HW216047   4.744   1.533   6.907
 5050SOL     OW16048   1.609   6.800   0.725
 5050SOL    HW116049   1.704   6.780   0.702
 5050SOL    HW216050   1.573   6.868   0.661
 5051SOL     OW16051   4.492   5.166   1.195
 5051SOL    HW116052   4.564   5.217   1.241
 5051SOL    HW216053   4.512   5.068   1.199
 5052SOL     OW16054   2.705   1.400   5.203
 5052SOL    HW116055   2.635   1.343   5.245
 5052SOL    HW216056   2.700   1.390   5.103
 5053SOL     OW16057   0.149   0.633   1.969
 5053SOL    HW116058   0.112   0.724   1.949
 5053SOL    HW216059   0.085   0.582   2.025
 5054SOL     OW16060   3.706   5.205   4.112
 5054SOL    HW116061   3.648   5.285   4.118
 5054SOL    HW216062   3.757   5.193   4.197
 5055SOL     OW16063   0.115   3.827   6.335
 5055SOL    HW116064   0.085   3.737   6.366
 5055SOL    HW216065   0.061   3.853   6.254
 5056SOL     OW16066   5.306   4.239   4.267
 5056SOL    HW116067   5.228   4.180   4.288
 5056SOL    HW216068   5.288   4.289   4.183
 5057SOL     OW16069   1.071   6.089   2.101
 5057SOL    HW116070   1.040   6.047   2.186
 5057SOL    HW216071   1.065   6.188   2.109
 5058SOL     OW16072   2.757   5.598   5.306
 5058SOL    HW116073   2.664   5.605   5.343
 5058SOL    HW216074   2.818   5.561   5.375
 5059SOL     OW16075   0.004   0.510   2.168
 5059SOL    HW116076   0.065   0.515   2.247
 5059SOL    HW216077   7.010   0.414   2.142
 5060SOL     OW16078   6.258   2.016   5.681
 5060SOL    HW116079   6.219   1.982   5.767
 5060SOL    HW216080   6.322   2.090   5.700
 5061SOL     OW16081   5.516   4.562   0.246
 5061SOL    HW116082   5.450   4.569   0.172
 5061SOL    HW216083   5.468   4.553   0.333
 5062SOL     OW16084   0.253   0.445   0.945
 5062SOL    HW116085   0.288   0.482   0.859
 5062SOL    HW216086   0.325   0.447   1.014
 5063SOL     OW16087   1.648   6.046   1.319
 5063SOL    HW116088   1.671   6.100   1.238
 5063SOL    HW216089   1.612   6.106   1.390
 5064SOL     OW16090   5.074   3.563   0.159
 5064SOL    HW116091   5.122   3.517   0.084
 5064SOL    HW216092   5.014   3.633   0.121
 5065SOL     OW16093   2.439   6.094   5.410
 5065SOL    HW116094   2.480   6.042   5.335
 5065SOL    HW216095   2.481   6.066   5.496
 5066SOL     OW16096   4.795   4.989   1.061
 5066SOL    HW116097   4.844   5.053   1.120
 5066SOL    HW216098   4.713   4.957   1.108
 5067SOL     OW16099   5.286   1.297   6.800
 5067SOL    HW116100   5.283   1.355   6.718
 5067SOL    HW216101   5.261   1.204   6.776
 5068SOL     OW16102   3.010   5.350   1.983
 5068SOL    HW116103   3.016   5.278   1.913
 5068SOL    HW216104   3.091   5.346   2.041
 5069SOL     OW16105   0.528   5.008   2.984
 5069SOL    HW116106   0.529   4.923   2.931
 5069SOL    HW216107   0.594   5.073   2.945
 5070SOL     OW16108   4.850   3.234   4.164
 5070SOL    HW116109   4.843   3.201   4.070
 5070SOL    HW216110   4.845   3.156   4.227
 5071SOL     OW16111   3.989   1.088   6.724
 5071SOL    HW116112   4.001   1.187   6.720
 5071SOL    HW216113   4.072   1.046   6.761
 5072SOL     OW16114   1.394   4.087   1.031
 5072SOL    HW116115   1.387   4.043   1.121
 5072SOL    HW216116   1.328   4.162   1.026
 5073SOL     OW16117   4.188   1.427   3.994
 5073SOL    HW116118   4.123   1.501   3.980
 5073SOL    HW216119   4.167   1.380   4.080
 5074SOL     OW16120   3.131   4.163   5.810
 5074SOL    HW116121   3.049   4.107   5.806
 5074SOL    HW216122   3.205   4.112   5.854
 5075SOL     OW16123   6.757   5.950   4.158
 5075SOL    HW116124   6.693   6.023   4.133
 5075SOL    HW216125   6.818   5.982   4.231
 5076SOL     OW16126   3.515   0.675   1.077
 5076SOL    HW116127   3.457   0.669   0.995
 5076SOL    HW216128   3.598   0.726   1.056
 5077SOL     OW16129   0.591   2.352   2.105
 5077SOL    HW116130   0.610   2.383   2.198
 5077SOL    HW216131   0.674   2.311   2.066
 5078SOL     OW16132   1.209   1.122   4.064
 5078SOL    HW116133   1.147   1.052   4.098
 5078SOL    HW216134   1.164   1.211   4.069
 5079SOL     OW16135   4.405   4.961   4.940
 5079SOL    HW116136   4.420   4.878   4.887
 5079SOL    HW216137   4.475   4.969   5.011
 5080SOL     OW16138   6.043   6.688   5.897
 5080SOL    HW116139   5.985   6.677   5.977
 5080SOL    HW216140   6.053   6.599   5.851
 5081SOL     OW16141   3.342   3.493   3.039
 5081SOL    HW116142   3.393   3.454   2.962
 5081SOL    HW216143   3.350   3.593   3.037
 5082SOL     OW16144   6.449   6.737   5.476
 5082SOL    HW116145   6.370   6.740   5.538
 5082SOL    HW216146   6.417   6.716   5.384
 5083SOL     OW16147   1.594   5.712   1.715
 5083SOL    HW116148   1.673   5.700   1.655
 5083SOL    HW216149   1.607   5.794   1.771
 5084SOL     OW16150   2.148   6.290   2.768
 5084SOL    HW116151   2.151   6.213   2.832
 5084SOL    HW216152   2.085   6.268   2.694
 5085SOL     OW16153   6.331   3.326   6.024
 5085SOL    HW116154   6.431   3.330   6.014
 5085SOL    HW216155   6.288   3.360   5.940
 5086SOL     OW16156   6.955   5.306   3.626
 5086SOL    HW116157   6.865   5.265   3.643
 5086SOL    HW216158   6.959   5.341   3.532
 5087SOL     OW16159   0.317   5.893   5.306
 5087SOL    HW116160   0.330   5.855   5.398
 5087SOL    HW216161   0.241   5.846   5.261
 5088SOL     OW16162   5.477   0.099   6.866
 5088SOL    HW116163   5.441   0.143   6.784
 5088SOL    HW216164   5.577   0.107   6.868
 5089SOL     OW16165   4.977   2.718   3.905
 5089SOL    HW116166   4.892   2.764   3.930
 5089SOL    HW216167   5.055   2.777   3.928
 5090SOL     OW16168   1.411   4.672   0.614
 5090SOL    HW116169   1.314   4.684   0.634
 5090SOL    HW216170   1.422   4.594   0.552
 5091SOL     OW16171   1.671   6.048   2.837
 5091SOL    HW116172   1.702   6.128   2.785
 5091SOL    HW216173   1.573   6.034   2.820
 5092SOL     OW16174   3.629   2.868   1.711
 5092SOL    HW116175   3.658   2.816   1.631
 5092SOL    HW216176   3.705   2.876   1.775
 5093SOL     OW16177   0.993   2.114   0.765
 5093SOL    HW116178   1.001   2.103   0.666
 5093SOL    HW216179   1.023   2.206   0.791
 5094SOL     OW16180   6.584   0.261   6.461
 5094SOL    HW116181   6.495   0.220   6.441
 5094SOL    HW216182   6.575   0.360   6.463
 5095SOL     OW16183   3.065   0.144   5.043
 5095SOL    HW116184   3.112   0.096   4.969
 5095SOL    HW216185   3.057   0.241   5.019
 5096SOL     OW16186   4.285   5.124   2.412
 5096SOL    HW116187   4.323   5.100   2.323
 5096SOL    HW216188   4.252   5.218   2.410
 5097SOL     OW16189   0.850   0.807   6.804
 5097SOL    HW116190   0.949   0.806   6.796
 5097SOL    HW216191   0.818   0.721   6.844
 5098SOL     OW16192   6.672   2.734   2.708
 5098SOL    HW116193   6.589   2.695   2.668
 5098SOL    HW216194   6.750   2.717   2.648
 5099SOL     OW16195   1.181   6.896   4.582
 5099SOL    HW116196   1.255   6.831   4.599
 5099SOL    HW216197   1.164   6.902   4.483
 5100SOL     OW16198   5.379   6.171   6.484
 5100SOL    HW116199   5.423   6.220   6.559
 5100SOL    HW216200   5.361   6.077   6.512
 5101SOL     OW16201   3.975   6.067   0.337
 5101SOL    HW116202   4.041   6.114   0.279
 5101SOL    HW216203   3.883   6.085   0.303
 5102SOL     OW16204   4.010   5.727   4.814
 5102SOL    HW116205   4.044   5.640   4.778
 5102SOL    HW216206   3.935   5.760   4.756
 5103SOL     OW16207   1.238   0.706   4.560
 5103SOL    HW116208   1.292   0.682   4.480
 5103SOL    HW216209   1.183   0.788   4.540
 5104SOL     OW16210   1.433   6.763   1.189
 5104SOL    HW116211   1.418   6.811   1.103
 5104SOL    HW216212   1.455   6.667   1.171
 5105SOL     OW16213   2.350   3.078   6.420
 5105SOL    HW116214   2.277   3.082   6.488
 5105SOL    HW216215   2.358   3.167   6.375
 5106SOL     OW16216   3.163   0.350   2.310
 5106SOL    HW116217   3.128   0.432   2.264
 5106SOL    HW216218   3.241   0.375   2.366
 5107SOL     OW16219   1.256   7.006   5.983
 5107SOL    HW116220   1.347   7.016   5.943
 5107SOL    HW216221   1.204   0.072   5.969
 5108SOL     OW16222   2.899   3.470   3.799
 5108SOL    HW116223   2.863   3.401   3.736
 5108SOL    HW216224   2.843   3.473   3.882
 5109SOL     OW16225   0.088   1.474   1.085
 5109SOL    HW116226   0.034   1.423   1.152
 5109SOL    HW216227   0.144   1.411   1.031
 5110SOL     OW16228   1.760   6.185   5.450
 5110SOL    HW116229   1.817   6.174   5.368
 5110SOL    HW216230   1.793   6.125   5.522
 5111SOL     OW16231   1.749   1.139   6.732
 5111SOL    HW116232   1.736   1.101   6.641
 5111SOL    HW216233   1.660   1.155   6.775
 5112SOL     OW16234   0.408   0.025   3.476
 5112SOL    HW116235   0.419   0.023   3.576
 5112SOL    HW216236   0.497   0.007   3.433
 5113SOL     OW16237   0.835   6.937   6.568
 5113SOL    HW116238   0.834   6.880   6.650
 5113SOL    HW216239   0.925   6.931   6.524
 5114SOL     OW16240   3.890   5.626   6.736
 5114SOL    HW116241   3.882   5.704   6.674
 5114SOL    HW216242   3.963   5.643   6.802
 5115SOL     OW16243   2.071   4.029   5.152
 5115SOL    HW116244   1.998   3.967   5.125
 5115SOL    HW216245   2.153   4.009   5.098
 5116SOL     OW16246   6.961   3.339   1.248
 5116SOL    HW116247   6.950   3.337   1.347
 5116SOL    HW216248   6.986   3.248   1.215
 5117SOL     OW16249   2.524   4.523   3.761
 5117SOL    HW116250   2.436   4.534   3.716
 5117SOL    HW216251   2.514   4.461   3.839
 5118SOL     OW16252   4.495   6.813   1.530
 5118SOL    HW116253   4.438   6.894   1.542
 5118SOL    HW216254   4.566   6.833   1.462
 5119SOL     OW16255   6.440   0.035   2.713
 5119SOL    HW116256   6.389   0.115   2.682
 5119SOL    HW216257   6.466   6.998   2.634
 5120SOL     OW16258   4.029   1.453   2.714
 5120SOL    HW116259   4.002   1.374   2.770
 5120SOL    HW216260   4.047   1.422   2.620
 5121SOL     OW16261   1.501   3.392   4.772
 5121SOL    HW116262   1.505   3.311   4.713
 5121SOL    HW216263   1.446   3.372   4.853
 5122SOL     OW16264   2.393   5.721   3.184
 5122SOL    HW116265   2.333   5.747   3.259
 5122SOL    HW216266   2.481   5.767   3.194
 5123SOL     OW16267   6.034   4.134   1.886
 5123SOL    HW116268   6.062   4.091   1.800
 5123SOL    HW216269   5.949   4.185   1.872
 5124SOL     OW16270   2.825   5.892   0.420
 5124SOL    HW116271   2.797   5.896   0.516
 5124SOL    HW216272   2.854   5.799   0.398
 5125SOL     OW16273   6.684   2.174   5.803
 5125SOL    HW116274   6.683   2.104   5.873
 5125SOL    HW216275   6.743   2.145   5.727
 5126SOL     OW16276   4.581   2.688   6.332
 5126SOL    HW116277   4.654   2.707   6.267
 5126SOL    HW216278   4.620   2.655   6.418
 5127SOL     OW16279   5.495   3.291   6.655
 5127SOL    HW116280   5.554   3.369   6.678
 5127SOL    HW216281   5.475   3.239   6.738
 5128SOL     OW16282   0.366   0.086   0.087
 5128SOL    HW116283   0.437   0.043   0.143
 5128SOL    HW216284   0.276   0.057   0.120
 5129SOL     OW16285   4.352   2.372   2.419
 5129SOL    HW116286   4.320   2.343   2.509
 5129SOL    HW216287   4.445   2.409   2.426
 5130SOL     OW16288   0.679   6.849   5.023
 5130SOL    HW116289   0.760   6.907   5.029
 5130SOL    HW216290   0.630   6.852   5.110
 5131SOL     OW16291   3.689   4.900   3.779
 5131SOL    HW116292   3.629   4.874   3.854
 5131SOL    HW216293   3.783   4.873   3.800
 5132SOL     OW16294   3.554   1.607   6.778
 5132SOL    HW116295   3.496   1.650   6.709
 5132SOL    HW216296   3.563   1.509   6.758
 5133SOL     OW16297   4.843   4.774   0.071
 5133SOL    HW116298   4.943   4.766   0.068
 5133SOL    HW216299   4.811   4.824   7.009
 5134SOL     OW16300   5.688   5.726   0.433
 5134SOL    HW116301   5.706   5.731   0.531
 5134SOL    HW216302   5.675   5.818   0.396
 5135SOL     OW16303   6.965   2.662   2.600
 5135SOL    HW116304   6.943   2.568   2.575
 5135SOL    HW216305   0.038   2.665   2.642
 5136SOL     OW16306   0.914   1.382   5.779
 5136SOL    HW116307   0.819   1.411   5.787
 5136SOL    HW216308   0.969   1.456   5.741
 5137SOL     OW16309   5.453   0.381   3.528
 5137SOL    HW116310   5.394   0.374   3.609
 5137SOL    HW216311   5.442   0.298   3.473
 5138SOL     OW16312   2.891   3.294   2.517
 5138SOL    HW116313   2.886   3.194   2.518
 5138SOL    HW216314   2.863   3.328   2.427
 5139SOL     OW16315   2.754   0.512   5.904
 5139SOL    HW116316   2.657   0.513   5.927
 5139SOL    HW216317   2.776   0.594   5.850
 5140SOL     OW16318   3.328   3.425   6.212
 5140SOL    HW116319   3.374   3.506   6.178
 5140SOL    HW216320   3.394   3.364   6.255
 5141SOL     OW16321   0.303   2.863   1.266
 5141SOL    HW116322   0.293   2.801   1.188
 5141SOL    HW216323   0.242   2.941   1.255
 5142SOL     OW16324   0.509   7.003   2.403
 5142SOL    HW116325   0.516   6.958   2.314
 5142SOL    HW216326   0.424   6.977   2.447
 5143SOL     OW16327   0.310   6.379   3.089
 5143SOL    HW116328   0.368   6.311   3.044
 5143SOL    HW216329   0.266   6.337   3.168
 5144SOL     OW16330   2.403   2.832   5.388
 5144SOL    HW116331   2.365   2.760   5.330
 5144SOL    HW216332   2.383   2.922   5.348
 5145SOL     OW16333   2.562   5.648   6.026
 5145SOL    HW116334   2.579   5.677   5.932
 5145SOL    HW216335   2.629   5.691   6.087
 5146SOL     OW16336   5.868   6.246   6.736
 5146SOL    HW116337   5.897   6.339   6.714
 5146SOL    HW216338   5.948   6.188   6.746
 5147SOL     OW16339   4.967   1.961   3.627
 5147SOL    HW116340   4.883   2.011   3.646
 5147SOL    HW216341   4.991   1.904   3.706
 5148SOL     OW16342   0.389   0.730   6.758
 5148SOL    HW116343   0.439   0.816   6.751
 5148SOL    HW216344   0.331   0.732   6.840
 5149SOL     OW16345   3.821   5.630   4.238
 5149SOL    HW116346   3.757   5.674   4.174
 5149SOL    HW216347   3.915   5.647   4.209
 5150SOL     OW16348   6.137   6.875   3.627
 5150SOL    HW116349   6.052   6.880   3.679
 5150SOL    HW216350   6.201   6.814   3.674
 5151SOL     OW16351   5.621   5.999   2.116
 5151SOL    HW116352   5.555   5.932   2.081
 5151SOL    HW216353   5.573   6.068   2.171
 5152SOL     OW16354   2.263   1.751   0.165
 5152SOL    HW116355   2.251   1.694   0.084
 5152SOL    HW216356   2.180   1.750   0.220
 5153SOL     OW16357   1.238   1.784   0.523
 5153SOL    HW116358   1.237   1.820   0.430
 5153SOL    HW216359   1.332   1.759   0.548
 5154SOL     OW16360   0.458   2.862   0.845
 5154SOL    HW116361   0.539   2.841   0.899
 5154SOL    HW216362   0.377   2.824   0.889
 5155SOL     OW16363   1.608   1.555   7.018
 5155SOL    HW116364   1.534   1.619   0.022
 5155SOL    HW216365   1.569   1.466   6.992
 5156SOL     OW16366   6.246   6.041   5.396
 5156SOL    HW116367   6.334   6.064   5.354
 5156SOL    HW216368   6.200   5.972   5.341
 5157SOL     OW16369   3.274   0.675   1.196
 5157SOL    HW116370   3.364   0.679   1.152
 5157SOL    HW216371   3.272   0.738   1.273
 5158SOL     OW16372   1.388   2.111   2.183
 5158SOL    HW116373   1.431   2.122   2.272
 5158SOL    HW216374   1.408   2.191   2.126
 5159SOL     OW16375   6.053   3.464   5.838
 5159SOL    HW116376   6.031   3.540   5.776
 5159SOL    HW216377   6.099   3.392   5.786
 5160SOL     OW16378   6.555   6.614   3.508
 5160SOL    HW116379   6.526   6.586   3.599
 5160SOL    HW216380   6.569   6.533   3.451
 5161SOL     OW16381   1.141   2.433   6.840
 5161SOL    HW116382   1.066   2.500   6.846
 5161SOL    HW216383   1.111   2.354   6.788
 5162SOL     OW16384   0.189   7.013   4.998
 5162SOL    HW116385   0.257   0.011   4.927
 5162SOL    HW216386   0.159   0.082   5.036
 5163SOL     OW16387   3.153   0.318   1.963
 5163SOL    HW116388   3.095   0.236   1.968
 5163SOL    HW216389   3.133   0.377   2.041
 5164SOL     OW16390   2.915   3.990   0.576
 5164SOL    HW116391   2.880   3.897   0.585
 5164SOL    HW216392   2.878   4.046   0.649
 5165SOL     OW16393   1.390   4.231   5.705
 5165SOL    HW116394   1.429   4.253   5.616
 5165SOL    HW216395   1.410   4.136   5.728
 5166SOL     OW16396   0.545   4.629   0.399
 5166SOL    HW116397   0.469   4.666   0.346
 5166SOL    HW216398   0.581   4.548   0.353
 5167SOL     OW16399   5.376   3.159   5.181
 5167SOL    HW116400   5.385   3.069   5.224
 5167SOL    HW216401   5.284   3.168   5.143
 5168SOL     OW16402   4.429   2.270   2.972
 5168SOL    HW116403   4.505   2.325   2.938
 5168SOL    HW216404   4.387   2.315   3.051
 5169SOL     OW16405   5.046   5.586   4.649
 5169SOL    HW116406   5.064   5.545   4.739
 5169SOL    HW216407   5.000   5.519   4.591
 5170SOL     OW16408   2.121   4.065   6.393
 5170SOL    HW116409   2.081   4.100   6.308
 5170SOL    HW216410   2.177   4.135   6.435
 5171SOL     OW16411   1.730   6.719   5.845
 5171SOL    HW116412   1.729   6.818   5.829
 5171SOL    HW216413   1.802   6.677   5.790
 5172SOL     OW16414   5.852   5.749   5.461
 5172SOL    HW116415   5.874   5.652   5.461
 5172SOL    HW216416   5.895   5.793   5.540
 5173SOL     OW16417   4.561   5.518   5.263
 5173SOL    HW116418   4.652   5.554   5.242
 5173SOL    HW216419   4.522   5.474   5.182
 5174SOL     OW16420   2.076   6.935   3.164
 5174SOL    HW116421   2.155   6.878   3.186
 5174SOL    HW216422   1.996   6.900   3.212
 5175SOL     OW16423   2.872   3.015   6.593
 5175SOL    HW116424   2.845   3.103   6.555
 5175SOL    HW216425   2.790   2.962   6.616
 5176SOL     OW16426   6.372   5.780   6.639
 5176SOL    HW116427   6.355   5.694   6.687
 5176SOL    HW216428   6.405   5.849   6.704
 5177SOL     OW16429   6.248   6.771   0.583
 5177SOL    HW116430   6.231   6.727   0.671
 5177SOL    HW216431   6.344   6.798   0.578
 5178SOL     OW16432   0.819   4.375   1.519
 5178SOL    HW116433   0.759   4.298   1.500
 5178SOL    HW216434   0.822   4.435   1.439
 5179SOL     OW16435   4.922   5.965   3.457
 5179SOL    HW116436   4.911   6.052   3.410
 5179SOL    HW216437   4.892   5.890   3.397
 5180SOL     OW16438   1.786   4.438   2.385
 5180SOL    HW116439   1.770   4.487   2.300
 5180SOL    HW216440   1.744   4.487   2.461
 5181SOL     OW16441   6.331   0.975   5.314
 5181SOL    HW116442   6.334   0.878   5.290
 5181SOL    HW216443   6.344   0.985   5.413
 5182SOL     OW16444   2.362   6.421   2.662
 5182SOL    HW116445   2.435   6.416   2.730
 5182SOL    HW216446   2.281   6.372   2.696
 5183SOL     OW16447   4.211   2.298   3.895
 5183SOL    HW116448   4.229   2.347   3.810
 5183SOL    HW216449   4.275   2.328   3.966
 5184SOL     OW16450   1.670   1.401   3.486
 5184SOL    HW116451   1.687   1.317   3.434
 5184SOL    HW216452   1.573   1.422   3.485
 5185SOL     OW16453   0.211   0.804   2.691
 5185SOL    HW116454   0.167   0.730   2.641
 5185SOL    HW216455   0.266   0.858   2.628
 5186SOL     OW16456   6.515   3.511   6.953
 5186SOL    HW116457   6.439   3.560   6.911
 5186SOL    HW216458   6.496   3.413   6.952
 5187SOL     OW16459   1.359   4.812   4.867
 5187SOL    HW116460   1.389   4.892   4.920
 5187SOL    HW216461   1.336   4.738   4.930
 5188SOL     OW16462   5.975   0.371   2.361
 5188SOL    HW116463   5.928   0.402   2.443
 5188SOL    HW216464   5.913   0.380   2.282
 5189SOL     OW16465   4.177   6.712   6.684
 5189SOL    HW116466   4.097   6.670   6.727
 5189SOL    HW216467   4.258   6.692   6.739
 5190SOL     OW16468   1.992   4.540   0.145
 5190SOL    HW116469   2.072   4.483   0.165
 5190SOL    HW216470   1.988   4.616   0.210
 5191SOL     OW16471   2.591   4.598   2.173
 5191SOL    HW116472   2.560   4.505   2.192
 5191SOL    HW216473   2.667   4.596   2.108
 5192SOL     OW16474   1.021   4.631   2.387
 5192SOL    HW116475   1.048   4.725   2.408
 5192SOL    HW216476   0.983   4.626   2.295
 5193SOL     OW16477   5.314   0.907   5.776
 5193SOL    HW116478   5.326   0.818   5.820
 5193SOL    HW216479   5.403   0.950   5.762
 5194SOL     OW16480   4.660   1.193   5.491
 5194SOL    HW116481   4.564   1.207   5.468
 5194SOL    HW216482   4.707   1.281   5.493
 5195SOL     OW16483   0.605   0.504   5.498
 5195SOL    HW116484   0.602   0.584   5.438
 5195SOL    HW216485   0.512   0.480   5.526
 5196SOL     OW16486   5.640   6.522   3.466
 5196SOL    HW116487   5.738   6.530   3.485
 5196SOL    HW216488   5.596   6.469   3.539
 5197SOL     OW16489   0.888   2.988   4.710
 5197SOL    HW116490   0.955   2.995   4.635
 5197SOL    HW216491   0.817   2.922   4.685
 5198SOL     OW16492   5.767   5.123   3.214
 5198SOL    HW116493   5.791   5.140   3.119
 5198SOL    HW216494   5.695   5.185   3.242
 5199SOL     OW16495   0.308   4.835   1.238
 5199SOL    HW116496   0.345   4.862   1.149
 5199SOL    HW216497   0.213   4.865   1.245
 5200SOL     OW16498   6.773   3.803   5.149
 5200SOL    HW116499   6.686   3.849   5.166
 5200SOL    HW216500   6.758   3.704   5.142
 5201SOL     OW16501   7.018   5.683   4.354
 5201SOL    HW116502   6.930   5.686   4.402
 5201SOL    HW216503   0.067   5.738   4.403
 5202SOL     OW16504   1.195   4.916   1.322
 5202SOL    HW116505   1.229   4.993   1.267
 5202SOL    HW216506   1.175   4.838   1.263
 5203SOL     OW16507   0.043   2.984   6.944
 5203SOL    HW116508   0.013   2.899   6.900
 5203SOL    HW216509   0.101   2.961   0.005
 5204SOL     OW16510   4.758   4.695   6.741
 5204SOL    HW116511   4.748   4.790   6.771
 5204SOL    HW216512   4.839   4.687   6.683
 5205SOL     OW16513   1.287   0.103   0.445
 5205SOL    HW116514   1.338   0.063   0.521
 5205SOL    HW216515   1.305   0.052   0.361
 5206SOL     OW16516   0.555   3.702   5.075
 5206SOL    HW116517   0.524   3.795   5.057
 5206SOL    HW216518   0.649   3.692   5.042
 5207SOL     OW16519   1.973   4.593   3.741
 5207SOL    HW116520   1.900   4.537   3.782
 5207SOL    HW216521   2.061   4.547   3.755
 5208SOL     OW16522   4.754   0.777   7.017
 5208SOL    HW116523   4.828   0.718   0.032
 5208SOL    HW216524   4.689   0.723   6.963
 5209SOL     OW16525   6.052   5.831   3.322
 5209SOL    HW116526   5.991   5.786   3.386
 5209SOL    HW216527   6.009   5.836   3.232
 5210SOL     OW16528   4.853   3.964   3.068
 5210SOL    HW116529   4.832   3.962   3.166
 5210SOL    HW216530   4.865   4.059   3.039
 5211SOL     OW16531   3.793   4.034   2.190
 5211SOL    HW116532   3.715   4.097   2.194
 5211SOL    HW216533   3.812   3.998   2.282
 5212SOL     OW16534   1.354   0.840   0.401
 5212SOL    HW116535   1.371   0.925   0.350
 5212SOL    HW216536   1.399   0.846   0.490
 5213SOL     OW16537   4.366   2.576   6.459
 5213SOL    HW116538   4.430   2.610   6.391
 5213SOL    HW216539   4.411   2.574   6.549
 5214SOL     OW16540   5.836   1.602   0.117
 5214SOL    HW116541   5.852   1.508   0.144
 5214SOL    HW216542   5.750   1.634   0.158
 5215SOL     OW16543   5.876   5.459   2.759
 5215SOL    HW116544   5.895   5.385   2.694
 5215SOL    HW216545   5.808   5.521   2.720
 5216SOL     OW16546   4.388   5.621   1.220
 5216SOL    HW116547   4.479   5.607   1.180
 5216SOL    HW216548   4.380   5.715   1.253
 5217SOL     OW16549   2.837   4.978   3.800
 5217SOL    HW116550   2.745   4.940   3.811
 5217SOL    HW216551   2.900   4.935   3.865
 5218SOL     OW16552   2.250   0.197   4.271
 5218SOL    HW116553   2.198   0.249   4.204
 5218SOL    HW216554   2.248   0.100   4.247
 5219SOL     OW16555   2.823   5.907   0.775
 5219SOL    HW116556   2.854   5.900   0.870
 5219SOL    HW216557   2.763   5.829   0.754
 5220SOL     OW16558   1.118   6.924   2.103
 5220SOL    HW116559   1.171   6.925   2.188
 5220SOL    HW216560   1.179   6.911   2.025
 5221SOL     OW16561   4.514   1.629   5.391
 5221SOL    HW116562   4.600   1.648   5.344
 5221SOL    HW216563   4.462   1.714   5.400
 5222SOL     OW16564   0.639   6.995   2.809
 5222SOL    HW116565   0.633   6.918   2.873
 5222SOL    HW216566   0.552   0.026   2.808
 5223SOL     OW16567   4.889   6.973   0.538
 5223SOL    HW116568   4.795   6.988   0.569
 5223SOL    HW216569   4.948   0.027   0.573
 5224SOL     OW16570   5.401   1.164   2.990
 5224SOL    HW116571   5.303   1.178   2.980
 5224SOL    HW216572   5.426   1.165   3.087
 5225SOL     OW16573   6.103   6.644   5.478
 5225SOL    HW116574   6.126   6.741   5.486
 5225SOL    HW216575   6.070   6.626   5.385
 5226SOL     OW16576   2.121   6.634   3.768
 5226SOL    HW116577   2.141   6.670   3.859
 5226SOL    HW216578   2.061   6.554   3.776
 5227SOL     OW16579   5.368   3.248   3.552
 5227SOL    HW116580   5.322   3.201   3.476
 5227SOL    HW216581   5.373   3.186   3.630
 5228SOL     OW16582   5.223   0.394   1.234
 5228SOL    HW116583   5.129   0.424   1.218
 5228SOL    HW216584   5.248   0.327   1.164
 5229SOL     OW16585   0.816   4.344   3.911
 5229SOL    HW116586   0.916   4.343   3.917
 5229SOL    HW216587   0.780   4.259   3.948
 5230SOL     OW16588   1.166   6.411   6.288
 5230SOL    HW116589   1.145   6.429   6.192
 5230SOL    HW216590   1.081   6.388   6.336
 5231SOL     OW16591   3.528   3.195   3.512
 5231SOL    HW116592   3.509   3.215   3.416
 5231SOL    HW216593   3.536   3.281   3.563
 5232SOL     OW16594   5.063   3.282   5.272
 5232SOL    HW116595   5.035   3.195   5.312
 5232SOL    HW216596   5.009   3.301   5.190
 5233SOL     OW16597   0.595   0.673   2.958
 5233SOL    HW116598   0.541   0.599   2.999
 5233SOL    HW216599   0.690   0.642   2.946
 5234SOL     OW16600   4.262   5.837   1.338
 5234SOL    HW116601   4.333   5.887   1.387
 5234SOL    HW216602   4.229   5.892   1.261
 5235SOL     OW16603   1.186   3.677   0.889
 5235SOL    HW116604   1.108   3.678   0.826
 5235SOL    HW216605   1.176   3.601   0.953
 5236SOL     OW16606   5.090   3.286   0.934
 5236SOL    HW116607   5.132   3.242   0.855
 5236SOL    HW216608   5.075   3.383   0.913
 5237SOL     OW16609   2.301   1.970   4.146
 5237SOL    HW116610   2.326   1.887   4.194
 5237SOL    HW216611   2.278   1.948   4.051
 5238SOL     OW16612   1.952   4.148   1.104
 5238SOL    HW116613   1.969   4.216   1.174
 5238SOL    HW216614   1.860   4.111   1.114
 5239SOL     OW16615   3.095   3.561   5.198
 5239SOL    HW116616   3.136   3.534   5.111
 5239SOL    HW216617   3.098   3.661   5.206
 5240SOL     OW16618   2.626   1.866   4.885
 5240SOL    HW116619   2.563   1.805   4.934
 5240SOL    HW216620   2.596   1.960   4.896
 5241SOL     OW16621   3.091   5.793   5.769
 5241SOL    HW116622   3.080   5.875   5.712
 5241SOL    HW216623   3.183   5.756   5.755
 5242SOL     OW16624   4.270   0.985   5.901
 5242SOL    HW116625   4.245   0.944   5.988
 5242SOL    HW216626   4.342   1.053   5.915
 5243SOL     OW16627   0.561   3.902   0.258
 5243SOL    HW116628   0.629   3.836   0.289
 5243SOL    HW216629   0.594   3.995   0.277
 5244SOL     OW16630   6.171   3.661   6.632
 5244SOL    HW116631   6.122   3.575   6.623
 5244SOL    HW216632   6.117   3.735   6.592
 5245SOL     OW16633   4.583   4.302   6.504
 5245SOL    HW116634   4.504   4.244   6.484
 5245SOL    HW216635   4.627   4.271   6.588
 5246SOL     OW16636   0.825   3.577   2.915
 5246SOL    HW116637   0.829   3.540   2.822
 5246SOL    HW216638   0.917   3.573   2.956
 5247SOL     OW16639   0.310   5.479   1.012
 5247SOL    HW116640   0.259   5.394   0.995
 5247SOL    HW216641   0.278   5.550   0.949
 5248SOL     OW16642   4.663   0.077   6.897
 5248SOL    HW116643   4.633   0.086   6.802
 5248SOL    HW216644   4.759   0.052   6.900
 5249SOL     OW16645   1.462   5.364   5.752
 5249SOL    HW116646   1.427   5.271   5.758
 5249SOL    HW216647   1.412   5.414   5.682
 5250SOL     OW16648   0.452   1.344   5.974
 5250SOL    HW116649   0.416   1.435   5.952
 5250SOL    HW216650   0.501   1.349   6.061
 5251SOL     OW16651   0.499   2.878   1.459
 5251SOL    HW116652   0.432   2.887   1.385
 5251SOL    HW216653   0.521   2.969   1.495
 5252SOL     OW16654   4.048   6.405   0.611
 5252SOL    HW116655   3.978   6.360   0.667
 5252SOL    HW216656   4.123   6.436   0.669
 5253SOL     OW16657   6.107   2.850   3.652
 5253SOL    HW116658   6.083   2.756   3.674
 5253SOL    HW216659   6.029   2.896   3.610
 5254SOL     OW16660   4.592   0.726   4.074
 5254SOL    HW116661   4.500   0.702   4.103
 5254SOL    HW216662   4.633   0.788   4.141
 5255SOL     OW16663   3.554   6.692   4.402
 5255SOL    HW116664   3.527   6.597   4.389
 5255SOL    HW216665   3.641   6.709   4.356
 5256SOL     OW16666   5.812   6.617   2.387
 5256SOL    HW116667   5.877   6.652   2.454
 5256SOL    HW216668   5.821   6.518   2.380
 5257SOL     OW16669   3.309   1.193   2.633
 5257SOL    HW116670   3.359   1.210   2.548
 5257SOL    HW216671   3.353   1.245   2.707
 5258SOL     OW16672   5.960   2.361   1.778
 5258SOL    HW116673   6.051   2.362   1.736
 5258SOL    HW216674   5.947   2.446   1.829
 5259SOL     OW16675   5.388   4.262   2.072
 5259SOL    HW116676   5.458   4.255   2.143
 5259SOL    HW216677   5.302   4.225   2.106
 5260SOL     OW16678   5.202   3.189   1.992
 5260SOL    HW116679   5.217   3.206   2.089
 5260SOL    HW216680   5.231   3.269   1.939
 5261SOL     OW16681   2.256   2.297   4.594
 5261SOL    HW116682   2.290   2.375   4.647
 5261SOL    HW216683   2.211   2.232   4.656
 5262SOL     OW16684   2.500   0.427   2.107
 5262SOL    HW116685   2.491   0.453   2.010
 5262SOL    HW216686   2.456   0.339   2.122
 5263SOL     OW16687   0.728   6.478   0.999
 5263SOL    HW116688   0.774   6.482   0.910
 5263SOL    HW216689   0.754   6.394   1.046
 5264SOL     OW16690   0.677   2.179   0.751
 5264SOL    HW116691   0.772   2.150   0.742
 5264SOL    HW216692   0.659   2.205   0.846
 5265SOL     OW16693   5.964   4.958   2.622
 5265SOL    HW116694   5.927   4.925   2.708
 5265SOL    HW216695   6.063   4.943   2.621
 5266SOL     OW16696   1.207   6.798   1.384
 5266SOL    HW116697   1.213   6.893   1.416
 5266SOL    HW216698   1.282   6.779   1.321
 5267SOL     OW16699   5.040   4.178   4.945
 5267SOL    HW116700   5.007   4.259   4.896
 5267SOL    HW216701   4.962   4.126   4.980
 5268SOL     OW16702   5.726   5.036   5.592
 5268SOL    HW116703   5.706   4.940   5.609
 5268SOL    HW216704   5.771   5.076   5.673
 5269SOL     OW16705   1.171   4.612   4.936
 5269SOL    HW116706   1.152   4.618   5.034
 5269SOL    HW216707   1.085   4.625   4.885
 5270SOL     OW16708   6.792   3.227   2.792
 5270SOL    HW116709   6.764   3.214   2.887
 5270SOL    HW216710   6.803   3.138   2.748
 5271SOL     OW16711   4.998   4.575   5.084
 5271SOL    HW116712   4.965   4.669   5.083
 5271SOL    HW216713   5.098   4.575   5.076
 5272SOL     OW16714   1.899   1.190   4.323
 5272SOL    HW116715   1.896   1.186   4.423
 5272SOL    HW216716   1.806   1.196   4.287
 5273SOL     OW16717   0.917   0.617   4.732
 5273SOL    HW116718   0.993   0.553   4.749
 5273SOL    HW216719   0.933   0.665   4.646
 5274SOL     OW16720   6.777   5.158   4.624
 5274SOL    HW116721   6.800   5.079   4.567
 5274SOL    HW216722   6.833   5.157   4.707
 5275SOL     OW16723   2.187   6.477   6.618
 5275SOL    HW116724   2.263   6.500   6.678
 5275SOL    HW216725   2.101   6.509   6.659
 5276SOL     OW16726   0.176   0.378   1.338
 5276SOL    HW116727   0.081   0.365   1.311
 5276SOL    HW216728   0.217   0.451   1.283
 5277SOL     OW16729   1.327   1.520   2.643
 5277SOL    HW116730   1.230   1.533   2.619
 5277SOL    HW216731   1.339   1.530   2.742
 5278SOL     OW16732   0.574   3.951   6.494
 5278SOL    HW116733   0.505   3.892   6.453
 5278SOL    HW216734   0.549   4.047   6.482
 5279SOL     OW16735   2.241   6.556   6.371
 5279SOL    HW116736   2.229   6.655   6.376
 5279SOL    HW216737   2.218   6.515   6.459
 5280SOL     OW16738   4.524   6.688   5.126
 5280SOL    HW116739   4.610   6.699   5.176
 5280SOL    HW216740   4.519   6.595   5.090
 5281SOL     OW16741   2.654   6.984   5.094
 5281SOL    HW116742   2.646   6.935   5.007
 5281SOL    HW216743   2.750   6.983   5.124
 5282SOL     OW16744   0.927   6.582   1.648
 5282SOL    HW116745   0.920   6.487   1.616
 5282SOL    HW216746   0.860   6.597   1.720
 5283SOL     OW16747   1.054   0.916   4.174
 5283SOL    HW116748   1.052   0.822   4.141
 5283SOL    HW216749   0.962   0.956   4.168
 5284SOL     OW16750   4.584   2.880   1.657
 5284SOL    HW116751   4.581   2.939   1.737
 5284SOL    HW216752   4.666   2.823   1.659
 5285SOL     OW16753   1.286   2.000   4.433
 5285SOL    HW116754   1.287   2.058   4.514
 5285SOL    HW216755   1.378   1.965   4.415
 5286SOL     OW16756   5.726   2.827   1.182
 5286SOL    HW116757   5.816   2.827   1.225
 5286SOL    HW216758   5.730   2.774   1.097
 5287SOL     OW16759   1.950   4.985   1.400
 5287SOL    HW116760   2.028   4.957   1.455
 5287SOL    HW216761   1.924   4.911   1.338
 5288SOL     OW16762   4.049   0.735   1.311
 5288SOL    HW116763   3.982   0.742   1.385
 5288SOL    HW216764   4.029   0.654   1.255
 5289SOL     OW16765   2.405   5.052   5.815
 5289SOL    HW116766   2.367   4.966   5.849
 5289SOL    HW216767   2.470   5.088   5.881
 5290SOL     OW16768   1.642   3.244   4.404
 5290SOL    HW116769   1.662   3.341   4.393
 5290SOL    HW216770   1.725   3.191   4.384
 5291SOL     OW16771   2.801   4.763   4.409
 5291SOL    HW116772   2.893   4.753   4.447
 5291SOL    HW216773   2.734   4.725   4.473
 5292SOL     OW16774   0.207   3.875   5.596
 5292SOL    HW116775   0.258   3.886   5.681
 5292SOL    HW216776   0.231   3.949   5.533
 5293SOL     OW16777   2.528   0.308   4.332
 5293SOL    HW116778   2.572   0.273   4.414
 5293SOL    HW216779   2.431   0.282   4.332
 5294SOL     OW16780   3.873   0.177   5.298
 5294SOL    HW116781   3.865   0.266   5.254
 5294SOL    HW216782   3.866   0.105   5.229
 5295SOL     OW16783   2.872   1.410   2.406
 5295SOL    HW116784   2.864   1.482   2.337
 5295SOL    HW216785   2.818   1.435   2.487
 5296SOL     OW16786   4.691   4.859   1.393
 5296SOL    HW116787   4.720   4.776   1.441
 5296SOL    HW216788   4.734   4.939   1.435
 5297SOL     OW16789   2.923   5.149   6.884
 5297SOL    HW116790   2.929   5.114   6.790
 5297SOL    HW216791   3.010   5.133   6.931
 5298SOL     OW16792   1.859   0.309   0.433
 5298SOL    HW116793   1.892   0.243   0.500
 5298SOL    HW216794   1.759   0.311   0.434
 5299SOL     OW16795   2.520   1.181   1.419
 5299SOL    HW116796   2.584   1.258   1.423
 5299SOL    HW216797   2.503   1.147   1.511
 5300SOL     OW16798   2.802   4.643   6.891
 5300SOL    HW116799   2.891   4.626   6.934
 5300SOL    HW216800   2.734   4.660   6.962
 5301SOL     OW16801   5.272   6.868   5.809
 5301SOL    HW116802   5.335   6.944   5.821
 5301SOL    HW216803   5.178   6.901   5.808
 5302SOL     OW16804   5.565   6.165   3.446
 5302SOL    HW116805   5.551   6.228   3.523
 5302SOL    HW216806   5.651   6.188   3.400
 5303SOL     OW16807   0.977   5.264   6.094
 5303SOL    HW116808   1.061   5.232   6.049
 5303SOL    HW216809   0.962   5.360   6.070
 5304SOL     OW16810   6.984   0.832   2.389
 5304SOL    HW116811   6.979   0.873   2.480
 5304SOL    HW216812   6.928   0.749   2.387
 5305SOL     OW16813   0.755   5.000   3.520
 5305SOL    HW116814   0.842   5.041   3.548
 5305SOL    HW216815   0.680   5.056   3.555
 5306SOL     OW16816   6.903   3.341   5.961
 5306SOL    HW116817   6.856   3.429   5.949
 5306SOL    HW216818   6.957   3.322   5.879
 5307SOL     OW16819   6.528   1.490   1.663
 5307SOL    HW116820   6.583   1.437   1.599
 5307SOL    HW216821   6.510   1.436   1.745
 5308SOL     OW16822   1.615   4.081   3.087
 5308SOL    HW116823   1.646   4.175   3.073
 5308SOL    HW216824   1.654   4.022   3.016
 5309SOL     OW16825   6.211   5.626   2.433
 5309SOL    HW116826   6.283   5.666   2.376
 5309SOL    HW216827   6.194   5.685   2.511
 5310SOL     OW16828   5.244   2.681   2.750
 5310SOL    HW116829   5.175   2.656   2.683
 5310SOL    HW216830   5.290   2.598   2.784
 5311SOL     OW16831   5.746   0.094   0.569
 5311SOL    HW116832   5.655   0.135   0.573
 5311SOL    HW216833   5.774   0.066   0.660
 5312SOL     OW16834   0.126   6.617   0.709
 5312SOL    HW116835   0.177   6.698   0.736
 5312SOL    HW216836   0.110   6.560   0.790
 5313SOL     OW16837   1.192   5.937   5.684
 5313SOL    HW116838   1.151   6.019   5.725
 5313SOL    HW216839   1.120   5.871   5.663
 5314SOL     OW16840   6.037   0.763   1.789
 5314SOL    HW116841   6.004   0.745   1.881
 5314SOL    HW216842   6.135   0.744   1.785
 5315SOL     OW16843   4.521   1.455   4.304
 5315SOL    HW116844   4.617   1.442   4.329
 5315SOL    HW216845   4.515   1.476   4.206
 5316SOL     OW16846   0.566   2.177   4.363
 5316SOL    HW116847   0.501   2.143   4.295
 5316SOL    HW216848   0.537   2.267   4.395
 5317SOL     OW16849   5.836   2.212   6.522
 5317SOL    HW116850   5.757   2.173   6.475
 5317SOL    HW216851   5.811   2.299   6.564
 5318SOL     OW16852   6.714   3.937   6.528
 5318SOL    HW116853   6.629   3.901   6.489
 5318SOL    HW216854   6.782   3.863   6.534
 5319SOL     OW16855   4.137   6.706   1.635
 5319SOL    HW116856   4.148   6.802   1.663
 5319SOL    HW216857   4.216   6.678   1.581
 5320SOL     OW16858   3.171   6.037   0.785
 5320SOL    HW116859   3.209   6.068   0.872
 5320SOL    HW216860   3.090   6.092   0.763
 5321SOL     OW16861   1.671   4.326   4.546
 5321SOL    HW116862   1.654   4.309   4.643
 5321SOL    HW216863   1.731   4.405   4.537
 5322SOL     OW16864   5.521   6.617   2.271
 5322SOL    HW116865   5.503   6.561   2.190
 5322SOL    HW216866   5.605   6.586   2.315
 5323SOL     OW16867   3.819   1.100   5.928
 5323SOL    HW116868   3.828   1.119   6.026
 5323SOL    HW216869   3.899   1.048   5.896
 5324SOL     OW16870   2.122   1.255   0.929
 5324SOL    HW116871   2.109   1.164   0.889
 5324SOL    HW216872   2.189   1.250   1.003
 5325SOL     OW16873   2.204   1.861   4.823
 5325SOL    HW116874   2.279   1.843   4.886
 5325SOL    HW216875   2.226   1.821   4.733
 5326SOL     OW16876   6.336   6.149   2.286
 5326SOL    HW116877   6.361   6.211   2.360
 5326SOL    HW216878   6.399   6.161   2.209
 5327SOL     OW16879   6.132   2.220   5.023
 5327SOL    HW116880   6.137   2.287   5.097
 5327SOL    HW216881   6.204   2.238   4.957
 5328SOL     OW16882   4.450   4.992   6.868
 5328SOL    HW116883   4.423   4.953   6.956
 5328SOL    HW216884   4.405   5.081   6.855
 5329SOL     OW16885   1.025   6.620   6.522
 5329SOL    HW116886   1.057   6.715   6.522
 5329SOL    HW216887   0.959   6.608   6.448
 5330SOL     OW16888   2.668   4.087   0.742
 5330SOL    HW116889   2.645   3.992   0.761
 5330SOL    HW216890   2.585   4.136   0.715
 5331SOL     OW16891   6.148   0.640   6.615
 5331SOL    HW116892   6.073   0.658   6.680
 5331SOL    HW216893   6.215   0.713   6.621
 5332SOL     OW16894   1.280   4.821   2.229
 5332SOL    HW116895   1.372   4.849   2.255
 5332SOL    HW216896   1.215   4.852   2.299
 5333SOL     OW16897   0.645   5.962   4.240
 5333SOL    HW116898   0.725   5.907   4.264
 5333SOL    HW216899   0.582   5.907   4.185
 5334SOL     OW16900   2.956   0.144   4.443
 5334SOL    HW116901   3.008   0.175   4.363
 5334SOL    HW216902   2.999   0.179   4.526
 5335SOL     OW16903   6.764   5.739   0.268
 5335SOL    HW116904   6.713   5.773   0.189
 5335SOL    HW216905   6.701   5.725   0.345
 5336SOL     OW16906   1.119   3.971   1.455
 5336SOL    HW116907   1.180   3.934   1.525
 5336SOL    HW216908   1.034   4.001   1.498
 5337SOL     OW16909   5.361   4.382   1.356
 5337SOL    HW116910   5.372   4.479   1.375
 5337SOL    HW216911   5.304   4.340   1.427
 5338SOL     OW16912   6.338   2.288   6.311
 5338SOL    HW116913   6.258   2.310   6.367
 5338SOL    HW216914   6.412   2.352   6.332
 5339SOL     OW16915   6.567   1.314   3.357
 5339SOL    HW116916   6.500   1.249   3.320
 5339SOL    HW216917   6.632   1.339   3.285
 5340SOL     OW16918   5.180   2.027   6.132
 5340SOL    HW116919   5.255   2.047   6.069
 5340SOL    HW216920   5.142   1.937   6.111
 5341SOL     OW16921   4.198   0.524   0.470
 5341SOL    HW116922   4.230   0.609   0.511
 5341SOL    HW216923   4.212   0.449   0.535
 5342SOL     OW16924   3.337   0.929   5.600
 5342SOL    HW116925   3.255   0.947   5.545
 5342SOL    HW216926   3.345   0.831   5.616
 5343SOL     OW16927   3.668   3.738   2.228
 5343SOL    HW116928   3.743   3.800   2.249
 5343SOL    HW216929   3.598   3.743   2.299
 5344SOL     OW16930   2.514   2.072   2.880
 5344SOL    HW116931   2.428   2.068   2.930
 5344SOL    HW216932   2.496   2.087   2.783
 5345SOL     OW16933   4.896   6.460   1.608
 5345SOL    HW116934   4.911   6.527   1.680
 5345SOL    HW216935   4.844   6.501   1.533
 5346SOL     OW16936   2.427   6.556   3.215
 5346SOL    HW116937   2.447   6.506   3.300
 5346SOL    HW216938   2.424   6.492   3.139
 5347SOL     OW16939   6.851   1.706   1.594
 5347SOL    HW116940   6.858   1.614   1.557
 5347SOL    HW216941   6.775   1.755   1.551
 5348SOL     OW16942   0.482   1.317   0.455
 5348SOL    HW116943   0.577   1.325   0.482
 5348SOL    HW216944   0.476   1.277   0.363
 5349SOL     OW16945   6.144   0.772   1.523
 5349SOL    HW116946   6.208   0.726   1.585
 5349SOL    HW216947   6.058   0.789   1.570
 5350SOL     OW16948   2.632   1.437   6.222
 5350SOL    HW116949   2.656   1.493   6.301
 5350SOL    HW216950   2.550   1.475   6.179
 5351SOL     OW16951   4.681   0.050   2.182
 5351SOL    HW116952   4.619   0.082   2.110
 5351SOL    HW216953   4.660   0.097   2.267
 5352SOL     OW16954   3.460   5.789   3.533
 5352SOL    HW116955   3.411   5.784   3.621
 5352SOL    HW216956   3.554   5.758   3.546
 5353SOL     OW16957   5.840   6.309   5.461
 5353SOL    HW116958   5.790   6.392   5.485
 5353SOL    HW216959   5.786   6.256   5.395
 5354SOL     OW16960   0.741   3.911   0.834
 5354SOL    HW116961   0.681   3.990   0.845
 5354SOL    HW216962   0.762   3.873   0.924
 5355SOL     OW16963   4.277   1.905   5.117
 5355SOL    HW116964   4.195   1.851   5.138
 5355SOL    HW216965   4.261   2.001   5.143
 5356SOL     OW16966   6.162   3.447   1.160
 5356SOL    HW116967   6.092   3.445   1.088
 5356SOL    HW216968   6.120   3.471   1.247
 5357SOL     OW16969   3.485   6.693   0.376
 5357SOL    HW116970   3.574   6.649   0.371
 5357SOL    HW216971   3.443   6.692   0.285
 5358SOL     OW16972   4.715   2.956   0.900
 5358SOL    HW116973   4.724   2.861   0.928
 5358SOL    HW216974   4.645   3.001   0.956
 5359SOL     OW16975   1.941   0.594   6.716
 5359SOL    HW116976   1.972   0.544   6.635
 5359SOL    HW216977   2.015   0.652   6.749
 5360SOL     OW16978   3.402   0.218   6.808
 5360SOL    HW116979   3.462   0.272   6.749
 5360SOL    HW216980   3.395   0.261   6.898
 5361SOL     OW16981   1.978   0.547   5.431
 5361SOL    HW116982   2.010   0.641   5.418
 5361SOL    HW216983   1.917   0.522   5.357
 5362SOL     OW16984   4.459   5.454   3.077
 5362SOL    HW116985   4.500   5.400   3.004
 5362SOL    HW216986   4.360   5.450   3.070
 5363SOL     OW16987   0.834   5.507   6.066
 5363SOL    HW116988   0.828   5.480   5.970
 5363SOL    HW216989   0.747   5.547   6.095
 5364SOL     OW16990   0.637   6.065   0.725
 5364SOL    HW116991   0.618   6.161   0.741
 5364SOL    HW216992   0.680   6.025   0.807
 5365SOL     OW16993   4.415   1.978   6.208
 5365SOL    HW116994   4.463   2.040   6.269
 5365SOL    HW216995   4.413   2.017   6.116
 5366SOL     OW16996   4.135   3.276   0.127
 5366SOL    HW116997   4.218   3.260   0.180
 5366SOL    HW216998   4.158   3.274   0.030
 5367SOL     OW16999   0.089   4.943   1.014
 5367SOL    HW117000   0.030   4.923   1.092
 5367SOL    HW217001   0.056   4.894   0.933
 5368SOL     OW17002   6.140   1.345   3.745
 5368SOL    HW117003   6.159   1.286   3.666
 5368SOL    HW217004   6.086   1.294   3.812
 5369SOL     OW17005   2.051   3.952   2.820
 5369SOL    HW117006   2.037   3.876   2.756
 5369SOL    HW217007   2.136   3.999   2.797
 5370SOL     OW17008   3.998   2.994   1.378
 5370SOL    HW117009   4.022   2.995   1.474
 5370SOL    HW217010   3.914   3.046   1.363
 5371SOL     OW17011   0.837   3.846   5.271
 5371SOL    HW117012   0.744   3.859   5.303
 5371SOL    HW217013   0.836   3.788   5.190
 5372SOL     OW17014   2.640   5.180   2.831
 5372SOL    HW117015   2.632   5.086   2.862
 5372SOL    HW217016   2.670   5.181   2.735
 5373SOL     OW17017   2.968   4.811   3.177
 5373SOL    HW117018   2.923   4.739   3.125
 5373SOL    HW217019   2.928   4.900   3.154
 5374SOL     OW17020   2.841   2.196   0.742
 5374SOL    HW117021   2.781   2.261   0.789
 5374SOL    HW217022   2.808   2.103   0.757
 5375SOL     OW17023   1.787   4.843   3.793
 5375SOL    HW117024   1.836   4.764   3.756
 5375SOL    HW217025   1.761   4.826   3.887
 5376SOL     OW17026   2.121   3.886   0.753
 5376SOL    HW117027   2.032   3.878   0.797
 5376SOL    HW217028   2.162   3.796   0.744
 5377SOL     OW17029   0.463   1.781   1.236
 5377SOL    HW117030   0.483   1.859   1.177
 5377SOL    HW217031   0.365   1.776   1.252
 5378SOL     OW17032   5.085   0.458   0.398
 5378SOL    HW117033   4.987   0.446   0.408
 5378SOL    HW217034   5.122   0.503   0.480
 5379SOL     OW17035   6.815   6.356   1.741
 5379SOL    HW117036   6.825   6.264   1.779
 5379SOL    HW217037   6.900   6.383   1.696
 5380SOL     OW17038   3.076   0.245   4.187
 5380SOL    HW117039   3.159   0.254   4.131
 5380SOL    HW217040   3.022   0.168   4.153
 5381SOL     OW17041   5.930   4.148   1.517
 5381SOL    HW117042   5.989   4.067   1.505
 5381SOL    HW217043   5.837   4.125   1.490
 5382SOL     OW17044   1.893   0.106   1.544
 5382SOL    HW117045   1.837   0.029   1.575
 5382SOL    HW217046   1.879   0.184   1.605
 5383SOL     OW17047   2.276   2.102   5.143
 5383SOL    HW117048   2.361   2.071   5.186
 5383SOL    HW217049   2.220   2.149   5.212
 5384SOL     OW17050   5.925   6.655   4.494
 5384SOL    HW117051   5.864   6.637   4.572
 5384SOL    HW217052   5.969   6.569   4.466
 5385SOL     OW17053   3.516   4.072   2.256
 5385SOL    HW117054   3.497   4.060   2.158
 5385SOL    HW217055   3.456   4.141   2.294
 5386SOL     OW17056   5.093   6.238   5.320
 5386SOL    HW117057   5.166   6.179   5.355
 5386SOL    HW217058   5.076   6.312   5.385
 5387SOL     OW17059   2.754   5.661   1.719
 5387SOL    HW117060   2.694   5.737   1.745
 5387SOL    HW217061   2.826   5.651   1.788
 5388SOL     OW17062   5.660   0.328   2.842
 5388SOL    HW117063   5.689   0.392   2.914
 5388SOL    HW217064   5.580   0.365   2.795
 5389SOL     OW17065   4.843   2.167   1.404
 5389SOL    HW117066   4.932   2.210   1.387
 5389SOL    HW217067   4.835   2.085   1.348
 5390SOL     OW17068   6.116   4.859   6.198
 5390SOL    HW117069   6.051   4.791   6.164
 5390SOL    HW217070   6.170   4.819   6.273
 5391SOL     OW17071   2.334   3.129   6.799
 5391SOL    HW117072   2.356   3.220   6.834
 5391SOL    HW217073   2.373   3.060   6.859
 5392SOL     OW17074   6.230   2.931   2.441
 5392SOL    HW117075   6.253   3.016   2.393
 5392SOL    HW217076   6.307   2.868   2.435
 5393SOL     OW17077   6.575   0.107   6.834
 5393SOL    HW117078   6.550   0.035   6.770
 5393SOL    HW217079   6.650   0.161   6.797
 5394SOL     OW17080   0.935   4.009   5.863
 5394SOL    HW117081   0.981   4.066   5.795
 5394SOL    HW217082   0.996   3.935   5.891
 5395SOL     OW17083   4.313   1.751   0.233
 5395SOL    HW117084   4.298   1.686   0.308
 5395SOL    HW217085   4.380   1.713   0.169
 5396SOL     OW17086   5.264   3.224   2.640
 5396SOL    HW117087   5.317   3.289   2.587
 5396SOL    HW217088   5.188   3.189   2.586
 5397SOL     OW17089   0.179   3.154   1.427
 5397SOL    HW117090   0.243   3.191   1.359
 5397SOL    HW217091   0.105   3.107   1.379
 5398SOL     OW17092   3.439   2.633   1.762
 5398SOL    HW117093   3.521   2.684   1.788
 5398SOL    HW217094   3.361   2.695   1.758
 5399SOL     OW17095   1.155   5.656   0.831
 5399SOL    HW117096   1.221   5.583   0.813
 5399SOL    HW217097   1.203   5.744   0.834
 5400SOL     OW17098   2.765   4.732   0.522
 5400SOL    HW117099   2.778   4.798   0.595
 5400SOL    HW217100   2.667   4.719   0.505
 5401SOL     OW17101   6.037   3.109   1.390
 5401SOL    HW117102   6.063   3.019   1.425
 5401SOL    HW217103   6.078   3.123   1.300
 5402SOL     OW17104   1.343   6.283   2.478
 5402SOL    HW117105   1.261   6.234   2.509
 5402SOL    HW217106   1.362   6.359   2.541
 5403SOL     OW17107   0.079   2.834   6.260
 5403SOL    HW117108   0.160   2.793   6.302
 5403SOL    HW217109   0.083   2.933   6.271
 5404SOL     OW17110   1.703   3.415   2.959
 5404SOL    HW117111   1.792   3.454   2.934
 5404SOL    HW217112   1.710   3.316   2.966
 5405SOL     OW17113   6.788   4.831   6.197
 5405SOL    HW117114   6.837   4.759   6.247
 5405SOL    HW217115   6.693   4.833   6.226
 5406SOL     OW17116   2.200   0.299   5.097
 5406SOL    HW117117   2.252   0.371   5.142
 5406SOL    HW217118   2.262   0.228   5.065
 5407SOL     OW17119   3.779   3.569   6.608
 5407SOL    HW117120   3.813   3.662   6.597
 5407SOL    HW217121   3.690   3.571   6.653
 5408SOL     OW17122   2.718   1.209   6.907
 5408SOL    HW117123   2.662   1.200   6.825
 5408SOL    HW217124   2.793   1.143   6.903
 5409SOL     OW17125   3.741   1.120   2.485
 5409SOL    HW117126   3.671   1.076   2.429
 5409SOL    HW217127   3.813   1.155   2.425
 5410SOL     OW17128   2.545   2.141   2.165
 5410SOL    HW117129   2.568   2.071   2.233
 5410SOL    HW217130   2.594   2.225   2.185
 5411SOL     OW17131   0.671   5.599   4.783
 5411SOL    HW117132   0.660   5.514   4.834
 5411SOL    HW217133   0.580   5.637   4.763
 5412SOL     OW17134   6.001   2.854   0.956
 5412SOL    HW117135   6.000   2.766   1.003
 5412SOL    HW217136   6.040   2.923   1.017
 5413SOL     OW17137   2.089   0.379   1.799
 5413SOL    HW117138   2.125   0.307   1.859
 5413SOL    HW217139   2.126   0.367   1.706
 5414SOL     OW17140   3.983   0.713   5.245
 5414SOL    HW117141   4.053   0.741   5.311
 5414SOL    HW217142   3.892   0.729   5.283
 5415SOL     OW17143   5.895   5.230   2.114
 5415SOL    HW117144   5.842   5.314   2.105
 5415SOL    HW217145   5.989   5.246   2.083
 5416SOL     OW17146   4.348   5.582   4.553
 5416SOL    HW117147   4.298   5.552   4.634
 5416SOL    HW217148   4.340   5.512   4.481
 5417SOL     OW17149   3.108   6.824   4.947
 5417SOL    HW117150   3.195   6.832   4.898
 5417SOL    HW217151   3.044   6.893   4.912
 5418SOL     OW17152   3.787   0.368   2.930
 5418SOL    HW117153   3.719   0.431   2.969
 5418SOL    HW217154   3.763   0.274   2.953
 5419SOL     OW17155   3.401   4.215   6.806
 5419SOL    HW117156   3.372   4.284   6.873
 5419SOL    HW217157   3.320   4.172   6.765
 5420SOL     OW17158   1.070   1.133   3.026
 5420SOL    HW117159   1.113   1.216   2.991
 5420SOL    HW217160   1.077   1.060   2.958
 5421SOL     OW17161   1.638   3.628   1.861
 5421SOL    HW117162   1.579   3.680   1.799
 5421SOL    HW217163   1.725   3.676   1.873
 5422SOL     OW17164   2.254   3.540   1.030
 5422SOL    HW117165   2.217   3.472   0.968
 5422SOL    HW217166   2.272   3.498   1.119
 5423SOL     OW17167   5.924   3.793   6.639
 5423SOL    HW117168   5.923   3.819   6.736
 5423SOL    HW217169   5.865   3.714   6.625
 5424SOL     OW17170   5.409   4.434   5.167
 5424SOL    HW117171   5.480   4.371   5.198
 5424SOL    HW217172   5.321   4.405   5.203
 5425SOL     OW17173   5.264   0.450   4.589
 5425SOL    HW117174   5.342   0.388   4.574
 5425SOL    HW217175   5.179   0.398   4.583
 5426SOL     OW17176   6.156   0.361   5.147
 5426SOL    HW117177   6.181   0.387   5.054
 5426SOL    HW217178   6.056   0.366   5.158
 5427SOL     OW17179   3.880   6.054   6.812
 5427SOL    HW117180   3.864   6.013   6.902
 5427SOL    HW217181   3.960   6.012   6.770
 5428SOL     OW17182   1.194   0.407   6.893
 5428SOL    HW117183   1.120   0.351   6.857
 5428SOL    HW217184   1.244   0.449   6.817
 5429SOL     OW17185   1.396   2.503   6.786
 5429SOL    HW117186   1.415   2.601   6.789
 5429SOL    HW217187   1.306   2.486   6.825
 5430SOL     OW17188   2.671   2.748   5.487
 5430SOL    HW117189   2.715   2.680   5.428
 5430SOL    HW217190   2.606   2.802   5.434
 5431SOL     OW17191   3.753   6.178   4.689
 5431SOL    HW117192   3.806   6.097   4.714
 5431SOL    HW217193   3.734   6.233   4.771
 5432SOL     OW17194   5.460   6.363   1.187
 5432SOL    HW117195   5.472   6.375   1.089
 5432SOL    HW217196   5.364   6.376   1.211
 5433SOL     OW17197   0.167   1.449   4.265
 5433SOL    HW117198   0.170   1.413   4.358
 5433SOL    HW217199   0.256   1.488   4.240
 5434SOL     OW17200   2.722   6.943   5.749
 5434SOL    HW117201   2.709   6.853   5.707
 5434SOL    HW217202   2.722   6.934   5.848
 5435SOL     OW17203   4.723   1.135   1.750
 5435SOL    HW117204   4.711   1.046   1.707
 5435SOL    HW217205   4.682   1.135   1.841
 5436SOL     OW17206   5.398   4.156   2.366
 5436SOL    HW117207   5.310   4.201   2.383
 5436SOL    HW217208   5.456   4.165   2.447
 5437SOL     OW17209   2.867   3.414   6.828
 5437SOL    HW117210   2.885   3.330   6.880
 5437SOL    HW217211   2.783   3.403   6.775
 5438SOL     OW17212   6.677   2.582   1.263
 5438SOL    HW117213   6.613   2.659   1.255
 5438SOL    HW217214   6.738   2.581   1.185
 5439SOL     OW17215   1.323   2.127   1.282
 5439SOL    HW117216   1.316   2.032   1.251
 5439SOL    HW217217   1.398   2.135   1.347
 5440SOL     OW17218   1.321   2.092   0.967
 5440SOL    HW117219   1.353   2.036   1.043
 5440SOL    HW217220   1.359   2.184   0.975
 5441SOL     OW17221   3.511   2.007   3.649
 5441SOL    HW117222   3.494   2.091   3.598
 5441SOL    HW217223   3.575   1.949   3.598
 5442SOL     OW17224   3.967   0.779   2.317
 5442SOL    HW117225   4.067   0.784   2.319
 5442SOL    HW217226   3.938   0.698   2.266
 5443SOL     OW17227   3.358   6.940   5.197
 5443SOL    HW117228   3.415   6.883   5.138
 5443SOL    HW217229   3.271   6.893   5.214
 5444SOL     OW17230   6.847   0.103   3.493
 5444SOL    HW117231   6.805   0.183   3.535
 5444SOL    HW217232   6.923   0.132   3.435
 5445SOL     OW17233   5.650   3.590   2.287
 5445SOL    HW117234   5.659   3.648   2.368
 5445SOL    HW217235   5.662   3.646   2.204
 5446SOL     OW17236   6.506   5.301   5.589
 5446SOL    HW117237   6.415   5.311   5.549
 5446SOL    HW217238   6.533   5.388   5.630
 5447SOL     OW17239   3.252   1.864   0.548
 5447SOL    HW117240   3.220   1.773   0.574
 5447SOL    HW217241   3.303   1.858   0.462
 5448SOL     OW17242   5.309   2.341   5.649
 5448SOL    HW117243   5.380   2.275   5.625
 5448SOL    HW217244   5.348   2.433   5.647
 5449SOL     OW17245   0.852   3.302   6.499
 5449SOL    HW117246   0.911   3.223   6.483
 5449SOL    HW217247   0.769   3.294   6.443
 5450SOL     OW17248   1.864   6.770   0.659
 5450SOL    HW117249   1.903   6.799   0.746
 5450SOL    HW217250   1.933   6.719   0.607
 5451SOL     OW17251   1.343   0.412   2.435
 5451SOL    HW117252   1.390   0.482   2.382
 5451SOL    HW217253   1.272   0.455   2.490
 5452SOL     OW17254   2.723   3.660   6.103
 5452SOL    HW117255   2.778   3.703   6.174
 5452SOL    HW217256   2.638   3.713   6.090
 5453SOL     OW17257   6.173   4.963   6.689
 5453SOL    HW117258   6.120   4.903   6.628
 5453SOL    HW217259   6.265   4.925   6.701
 5454SOL     OW17260   6.945   4.585   6.972
 5454SOL    HW117261   7.013   4.536   0.008
 5454SOL    HW217262   6.870   4.614   0.013
 5455SOL     OW17263   6.343   3.469   1.505
 5455SOL    HW117264   6.260   3.479   1.451
 5455SOL    HW217265   6.321   3.423   1.592
 5456SOL     OW17266   3.448   6.694   0.668
 5456SOL    HW117267   3.477   6.785   0.696
 5456SOL    HW217268   3.439   6.691   0.569
 5457SOL     OW17269   6.554   3.521   0.576
 5457SOL    HW117270   6.538   3.427   0.607
 5457SOL    HW217271   6.652   3.540   0.577
 5458SOL     OW17272   2.552   3.863   6.912
 5458SOL    HW117273   2.607   3.780   6.911
 5458SOL    HW217274   2.529   3.890   6.819
 5459SOL     OW17275   1.998   4.829   6.028
 5459SOL    HW117276   1.910   4.790   6.001
 5459SOL    HW217277   1.983   4.905   6.091
 5460SOL     OW17278   2.903   0.388   1.216
 5460SOL    HW117279   2.901   0.484   1.243
 5460SOL    HW217280   2.891   0.330   1.296
 5461SOL     OW17281   4.430   6.839   5.336
 5461SOL    HW117282   4.528   6.851   5.351
 5461SOL    HW217283   4.415   6.802   5.244
 5462SOL     OW17284   0.579   0.140   1.416
 5462SOL    HW117285   0.606   0.133   1.320
 5462SOL    HW217286   0.565   0.236   1.439
 5463SOL     OW17287   0.057   2.906   0.800
 5463SOL    HW117288   7.007   2.978   0.786
 5463SOL    HW217289   0.042   2.832   0.734
 5464SOL     OW17290   2.012   0.148   4.038
 5464SOL    HW117291   2.029   0.244   4.058
 5464SOL    HW217292   2.091   0.109   3.991
 5465SOL     OW17293   2.645   6.778   5.407
 5465SOL    HW117294   2.690   6.737   5.486
 5465SOL    HW217295   2.551   6.802   5.430
 5466SOL     OW17296   4.513   4.457   4.594
 5466SOL    HW117297   4.456   4.539   4.589
 5466SOL    HW217298   4.491   4.396   4.519
 5467SOL     OW17299   6.100   1.885   2.071
 5467SOL    HW117300   6.192   1.877   2.032
 5467SOL    HW217301   6.055   1.966   2.032
 5468SOL     OW17302   4.134   1.279   5.430
 5468SOL    HW117303   4.052   1.235   5.466
 5468SOL    HW217304   4.108   1.363   5.381
 5469SOL     OW17305   4.079   4.518   6.287
 5469SOL    HW117306   4.168   4.487   6.253
 5469SOL    HW217307   4.089   4.607   6.330
 5470SOL     OW17308   1.393   5.111   3.534
 5470SOL    HW117309   1.434   5.028   3.574
 5470SOL    HW217310   1.466   5.173   3.505
 5471SOL     OW17311   5.995   5.613   2.089
 5471SOL    HW117312   6.022   5.569   2.174
 5471SOL    HW217313   6.041   5.569   2.012
 5472SOL     OW17314   3.828   4.965   5.520
 5472SOL    HW117315   3.791   4.943   5.610
 5472SOL    HW217316   3.926   4.982   5.526
 5473SOL     OW17317   1.244   3.404   3.721
 5473SOL    HW117318   1.229   3.452   3.807
 5473SOL    HW217319   1.324   3.442   3.675
 5474SOL     OW17320   1.985   5.585   3.855
 5474SOL    HW117321   1.907   5.646   3.866
 5474SOL    HW217322   1.971   5.528   3.774
 5475SOL     OW17323   3.071   2.491   1.453
 5475SOL    HW117324   3.014   2.570   1.476
 5475SOL    HW217325   3.120   2.460   1.535
 5476SOL     OW17326   1.123   3.097   5.633
 5476SOL    HW117327   1.063   3.155   5.689
 5476SOL    HW217328   1.191   3.055   5.692
 5477SOL     OW17329   2.087   3.137   2.890
 5477SOL    HW117330   2.002   3.090   2.865
 5477SOL    HW217331   2.151   3.131   2.814
 5478SOL     OW17332   6.674   6.169   6.051
 5478SOL    HW117333   6.601   6.101   6.048
 5478SOL    HW217334   6.696   6.199   5.959
 5479SOL     OW17335   4.896   0.554   4.767
 5479SOL    HW117336   4.874   0.460   4.792
 5479SOL    HW217337   4.813   0.610   4.769
 5480SOL     OW17338   0.413   3.528   4.410
 5480SOL    HW117339   0.373   3.570   4.491
 5480SOL    HW217340   0.420   3.596   4.337
 5481SOL     OW17341   4.865   6.575   4.270
 5481SOL    HW117342   4.943   6.530   4.226
 5481SOL    HW217343   4.810   6.621   4.201
 5482SOL     OW17344   1.710   4.499   1.433
 5482SOL    HW117345   1.614   4.500   1.404
 5482SOL    HW217346   1.726   4.572   1.499
 5483SOL     OW17347   0.179   2.725   5.691
 5483SOL    HW117348   0.188   2.673   5.607
 5483SOL    HW217349   0.130   2.811   5.672
 5484SOL     OW17350   4.515   0.272   5.153
 5484SOL    HW117351   4.607   0.261   5.191
 5484SOL    HW217352   4.486   0.187   5.108
 5485SOL     OW17353   3.228   0.077   4.843
 5485SOL    HW117354   3.315   0.050   4.801
 5485SOL    HW217355   3.162   0.097   4.771
 5486SOL     OW17356   2.741   6.126   5.232
 5486SOL    HW117357   2.826   6.091   5.271
 5486SOL    HW217358   2.665   6.065   5.254
 5487SOL     OW17359   3.076   5.531   5.393
 5487SOL    HW117360   3.140   5.545   5.317
 5487SOL    HW217361   3.080   5.435   5.422
 5488SOL     OW17362   5.743   2.372   0.786
 5488SOL    HW117363   5.827   2.356   0.838
 5488SOL    HW217364   5.701   2.284   0.762
 5489SOL     OW17365   6.579   3.672   2.959
 5489SOL    HW117366   6.657   3.619   2.993
 5489SOL    HW217367   6.505   3.610   2.934
 5490SOL     OW17368   1.681   6.327   2.840
 5490SOL    HW117369   1.744   6.404   2.844
 5490SOL    HW217370   1.615   6.334   2.914
 5491SOL     OW17371   6.629   4.301   0.869
 5491SOL    HW117372   6.649   4.210   0.833
 5491SOL    HW217373   6.670   4.311   0.960
 5492SOL     OW17374   6.730   1.927   5.985
 5492SOL    HW117375   6.751   1.856   5.918
 5492SOL    HW217376   6.802   1.929   6.055
 5493SOL     OW17377   3.871   3.978   1.065
 5493SOL    HW117378   3.838   3.887   1.093
 5493SOL    HW217379   3.797   4.045   1.076
 5494SOL     OW17380   6.166   3.963   5.545
 5494SOL    HW117381   6.215   3.897   5.602
 5494SOL    HW217382   6.231   4.019   5.494
 5495SOL     OW17383   5.794   6.815   0.278
 5495SOL    HW117384   5.772   6.738   0.218
 5495SOL    HW217385   5.877   6.860   0.246
 5496SOL     OW17386   4.080   0.161   4.233
 5496SOL    HW117387   4.173   0.179   4.200
 5496SOL    HW217388   4.024   0.242   4.221
 5497SOL     OW17389   1.181   0.676   5.723
 5497SOL    HW117390   1.188   0.637   5.631
 5497SOL    HW217391   1.183   0.603   5.791
 5498SOL     OW17392   0.825   5.580   1.138
 5498SOL    HW117393   0.757   5.591   1.066
 5498SOL    HW217394   0.825   5.661   1.197
 5499SOL     OW17395   1.988   0.390   4.469
 5499SOL    HW117396   2.030   0.470   4.427
 5499SOL    HW217397   2.035   0.369   4.555
 5500SOL     OW17398   2.549   0.251   0.686
 5500SOL    HW117399   2.585   0.261   0.593
 5500SOL    HW217400   2.457   0.211   0.681
 5501SOL     OW17401   3.679   3.847   6.668
 5501SOL    HW117402   3.709   3.891   6.753
 5501SOL    HW217403   3.596   3.794   6.686
 5502SOL     OW17404   4.721   2.810   0.363
 5502SOL    HW117405   4.770   2.722   0.362
 5502SOL    HW217406   4.714   2.843   0.457
 5503SOL     OW17407   6.394   3.534   0.899
 5503SOL    HW117408   6.441   3.486   0.973
 5503SOL    HW217409   6.358   3.468   0.833
 5504SOL     OW17410   3.976   1.696   6.930
 5504SOL    HW117411   3.990   1.785   6.972
 5504SOL    HW217412   3.889   1.658   6.960
 5505SOL     OW17413   2.907   4.899   3.539
 5505SOL    HW117414   2.832   4.834   3.527
 5505SOL    HW217415   2.902   4.940   3.630
 5506SOL     OW17416   0.079   3.320   5.744
 5506SOL    HW117417   0.170   3.279   5.737
 5506SOL    HW217418   0.079   3.408   5.696
 5507SOL     OW17419   3.058   6.934   6.738
 5507SOL    HW117420   3.023   6.886   6.658
 5507SOL    HW217421   3.155   6.956   6.724
 5508SOL     OW17422   6.694   1.057   6.365
 5508SOL    HW117423   6.695   0.967   6.409
 5508SOL    HW217424   6.646   1.050   6.278
 5509SOL     OW17425   6.419   5.188   0.691
 5509SOL    HW117426   6.389   5.216   0.600
 5509SOL    HW217427   6.439   5.090   0.690
 5510SOL     OW17428   4.344   4.953   0.106
 5510SOL    HW117429   4.250   4.974   0.135
 5510SOL    HW217430   4.356   4.854   0.103
 5511SOL     OW17431   0.111   2.190   5.511
 5511SOL    HW117432   0.175   2.114   5.502
 5511SOL    HW217433   0.062   2.203   5.424
 5512SOL     OW17434   2.436   0.629   2.276
 5512SOL    HW117435   2.476   0.560   2.216
 5512SOL    HW217436   2.423   0.714   2.226
 5513SOL     OW17437   3.826   3.937   6.929
 5513SOL    HW117438   3.765   4.010   6.898
 5513SOL    HW217439   3.888   3.972   6.998
 5514SOL     OW17440   3.113   1.199   0.341
 5514SOL    HW117441   3.080   1.142   0.416
 5514SOL    HW217442   3.034   1.243   0.297
 5515SOL     OW17443   2.697   5.705   2.574
 5515SOL    HW117444   2.678   5.731   2.669
 5515SOL    HW217445   2.792   5.673   2.567
 5516SOL     OW17446   1.556   2.333   5.285
 5516SOL    HW117447   1.508   2.348   5.371
 5516SOL    HW217448   1.490   2.315   5.212
 5517SOL     OW17449   1.301   2.141   3.313
 5517SOL    HW117450   1.378   2.083   3.287
 5517SOL    HW217451   1.296   2.147   3.412
 5518SOL     OW17452   4.725   4.953   6.878
 5518SOL    HW117453   4.626   4.945   6.878
 5518SOL    HW217454   4.753   5.030   6.821
 5519SOL     OW17455   4.967   2.811   4.345
 5519SOL    HW117456   4.944   2.907   4.324
 5519SOL    HW217457   5.037   2.780   4.281
 5520SOL     OW17458   4.914   0.408   1.651
 5520SOL    HW117459   4.818   0.433   1.667
 5520SOL    HW217460   4.965   0.489   1.622
 5521SOL     OW17461   4.527   6.375   2.345
 5521SOL    HW117462   4.555   6.346   2.437
 5521SOL    HW217463   4.608   6.402   2.292
 5522SOL     OW17464   5.976   5.889   1.080
 5522SOL    HW117465   5.935   5.922   1.165
 5522SOL    HW217466   6.029   5.807   1.098
 5523SOL     OW17467   5.272   1.732   0.968
 5523SOL    HW117468   5.284   1.828   0.945
 5523SOL    HW217469   5.361   1.692   0.991
 5524SOL     OW17470   2.666   1.421   3.523
 5524SOL    HW117471   2.657   1.499   3.585
 5524SOL    HW217472   2.629   1.446   3.433
 5525SOL     OW17473   6.252   1.030   1.811
 5525SOL    HW117474   6.327   1.036   1.745
 5525SOL    HW217475   6.193   1.110   1.802
 5526SOL     OW17476   5.631   5.356   4.078
 5526SOL    HW117477   5.689   5.280   4.107
 5526SOL    HW217478   5.588   5.334   3.991
 5527SOL     OW17479   5.974   0.575   3.528
 5527SOL    HW117480   5.951   0.623   3.443
 5527SOL    HW217481   5.894   0.526   3.561
 5528SOL     OW17482   0.658   1.459   6.909
 5528SOL    HW117483   0.751   1.467   6.944
 5528SOL    HW217484   0.595   1.512   6.966
 5529SOL     OW17485   3.614   0.564   2.321
 5529SOL    HW117486   3.707   0.564   2.286
 5529SOL    HW217487   3.613   0.598   2.415
 5530SOL     OW17488   6.994   2.266   1.107
 5530SOL    HW117489   7.007   2.211   1.025
 5530SOL    HW217490   6.974   2.207   1.185
 5531SOL     OW17491   2.267   4.265   1.585
 5531SOL    HW117492   2.314   4.177   1.593
 5531SOL    HW217493   2.239   4.296   1.676
 5532SOL     OW17494   1.192   2.755   6.818
 5532SOL    HW117495   1.224   2.741   6.911
 5532SOL    HW217496   1.095   2.779   6.819
 5533SOL     OW17497   3.155   1.633   2.302
 5533SOL    HW117498   3.175   1.539   2.277
 5533SOL    HW217499   3.212   1.695   2.247
 5534SOL     OW17500   1.610   0.317   4.567
 5534SOL    HW117501   1.641   0.229   4.603
 5534SOL    HW217502   1.552   0.362   4.634
 5535SOL     OW17503   6.962   1.658   3.011
 5535SOL    HW117504   6.863   1.664   3.021
 5535SOL    HW217505   7.006   1.664   3.100
 5536SOL     OW17506   4.114   6.142   4.307
 5536SOL    HW117507   4.155   6.225   4.269
 5536SOL    HW217508   4.137   6.136   4.404
 5537SOL     OW17509   3.028   1.908   3.695
 5537SOL    HW117510   3.085   1.986   3.670
 5537SOL    HW217511   2.992   1.865   3.613
 5538SOL     OW17512   4.682   5.216   4.460
 5538SOL    HW117513   4.752   5.148   4.482
 5538SOL    HW217514   4.664   5.214   4.362
 5539SOL     OW17515   2.486   4.759   0.517
 5539SOL    HW117516   2.428   4.791   0.592
 5539SOL    HW217517   2.430   4.705   0.454
 5540SOL     OW17518   4.884   5.537   1.808
 5540SOL    HW117519   4.965   5.512   1.861
 5540SOL    HW217520   4.806   5.551   1.869
 5541SOL     OW17521   4.858   1.569   5.787
 5541SOL    HW117522   4.797   1.516   5.846
 5541SOL    HW217523   4.941   1.516   5.768
 5542SOL     OW17524   5.329   4.635   6.941
 5542SOL    HW117525   5.262   4.591   6.882
 5542SOL    HW217526   5.418   4.634   6.896
 5543SOL     OW17527   6.943   1.830   5.617
 5543SOL    HW117528   7.018   1.880   5.660
 5543SOL    HW217529   6.905   1.764   5.682
 5544SOL     OW17530   5.906   0.601   6.878
 5544SOL    HW117531   5.817   0.566   6.907
 5544SOL    HW217532   5.893   0.670   6.808
 5545SOL     OW17533   2.782   2.597   1.708
 5545SOL    HW117534   2.820   2.539   1.780
 5545SOL    HW217535   2.834   2.682   1.702
 5546SOL     OW17536   3.462   4.819   5.580
 5546SOL    HW117537   3.413   4.878   5.515
 5546SOL    HW217538   3.429   4.725   5.571
 5547SOL     OW17539   3.339   5.552   3.834
 5547SOL    HW117540   3.296   5.552   3.924
 5547SOL    HW217541   3.319   5.638   3.786
 5548SOL     OW17542   0.697   2.484   4.630
 5548SOL    HW117543   0.757   2.433   4.568
 5548SOL    HW217544   0.602   2.460   4.612
 5549SOL     OW17545   3.771   4.739   0.046
 5549SOL    HW117546   3.682   4.767   0.010
 5549SOL    HW217547   3.778   4.763   0.142
 5550SOL     OW17548   3.097   6.430   2.405
 5550SOL    HW117549   3.026   6.501   2.411
 5550SOL    HW217550   3.187   6.474   2.402
 5551SOL     OW17551   0.515   1.064   2.915
 5551SOL    HW117552   0.533   1.051   3.012
 5551SOL    HW217553   0.598   1.093   2.869
 5552SOL     OW17554   0.869   2.330   2.028
 5552SOL    HW117555   0.865   2.301   1.933
 5552SOL    HW217556   0.926   2.267   2.081
 5553SOL     OW17557   4.473   6.635   6.789
 5553SOL    HW117558   4.415   6.641   6.870
 5553SOL    HW217559   4.561   6.679   6.806
 5554SOL     OW17560   3.364   0.961   4.101
 5554SOL    HW117561   3.312   0.967   4.186
 5554SOL    HW217562   3.300   0.947   4.025
 5555SOL     OW17563   0.733   5.842   1.931
 5555SOL    HW117564   0.716   5.744   1.937
 5555SOL    HW217565   0.696   5.877   1.845
 5556SOL     OW17566   0.879   0.989   4.767
 5556SOL    HW117567   0.953   1.043   4.727
 5556SOL    HW217568   0.917   0.925   4.834
 5557SOL     OW17569   2.567   0.317   2.974
 5557SOL    HW117570   2.539   0.409   3.001
 5557SOL    HW217571   2.495   0.276   2.918
 5558SOL     OW17572   5.077   2.631   5.495
 5558SOL    HW117573   5.152   2.656   5.432
 5558SOL    HW217574   5.046   2.539   5.474
 5559SOL     OW17575   2.274   0.439   1.578
 5559SOL    HW117576   2.320   0.437   1.490
 5559SOL    HW217577   2.266   0.534   1.610
 5560SOL     OW17578   6.746   1.095   4.277
 5560SOL    HW117579   6.833   1.057   4.246
 5560SOL    HW217580   6.762   1.162   4.348
 5561SOL     OW17581   1.699   3.786   2.336
 5561SOL    HW117582   1.719   3.740   2.423
 5561SOL    HW217583   1.659   3.876   2.354
 5562SOL     OW17584   2.884   2.188   6.670
 5562SOL    HW117585   2.950   2.229   6.732
 5562SOL    HW217586   2.931   2.129   6.604
 5563SOL     OW17587   4.212   4.271   1.530
 5563SOL    HW117588   4.215   4.273   1.431
 5563SOL    HW217589   4.119   4.292   1.561
 5564SOL     OW17590   5.688   2.421   1.801
 5564SOL    HW117591   5.772   2.366   1.800
 5564SOL    HW217592   5.685   2.474   1.886
 5565SOL     OW17593   3.119   2.825   5.231
 5565SOL    HW117594   3.157   2.877   5.307
 5565SOL    HW217595   3.182   2.752   5.205
 5566SOL     OW17596   2.294   4.568   0.730
 5566SOL    HW117597   2.389   4.556   0.702
 5566SOL    HW217598   2.254   4.478   0.749
 5567SOL     OW17599   1.698   5.519   3.274
 5567SOL    HW117600   1.685   5.521   3.175
 5567SOL    HW217601   1.791   5.488   3.294
 5568SOL     OW17602   3.691   2.280   0.856
 5568SOL    HW117603   3.630   2.238   0.789
 5568SOL    HW217604   3.773   2.223   0.867
 5569SOL     OW17605   5.103   2.076   6.399
 5569SOL    HW117606   5.084   2.174   6.405
 5569SOL    HW217607   5.123   2.052   6.304
 5570SOL     OW17608   0.745   3.395   5.267
 5570SOL    HW117609   0.832   3.438   5.243
 5570SOL    HW217610   0.753   3.350   5.356
 5571SOL     OW17611   6.450   4.596   6.877
 5571SOL    HW117612   6.403   4.508   6.882
 5571SOL    HW217613   6.521   4.600   6.946
 5572SOL     OW17614   6.420   3.014   4.714
 5572SOL    HW117615   6.457   3.054   4.631
 5572SOL    HW217616   6.457   3.061   4.794
 5573SOL     OW17617   6.893   4.235   0.057
 5573SOL    HW117618   6.963   4.242   0.129
 5573SOL    HW217619   6.937   4.237   6.986
 5574SOL     OW17620   1.044   6.580   4.258
 5574SOL    HW117621   1.061   6.534   4.171
 5574SOL    HW217622   1.113   6.554   4.324
 5575SOL     OW17623   0.913   1.198   1.496
 5575SOL    HW117624   0.994   1.175   1.551
 5575SOL    HW217625   0.862   1.114   1.476
 5576SOL     OW17626   5.664   6.135   6.160
 5576SOL    HW117627   5.718   6.082   6.225
 5576SOL    HW217628   5.634   6.221   6.203
 5577SOL     OW17629   2.605   4.621   4.533
 5577SOL    HW117630   2.547   4.544   4.506
 5577SOL    HW217631   2.587   4.644   4.628
 5578SOL     OW17632   3.436   1.952   6.441
 5578SOL    HW117633   3.404   2.038   6.401
 5578SOL    HW217634   3.457   1.967   6.538
 5579SOL     OW17635   4.853   5.162   1.835
 5579SOL    HW117636   4.866   5.164   1.736
 5579SOL    HW217637   4.771   5.215   1.858
 5580SOL     OW17638   5.417   1.594   1.462
 5580SOL    HW117639   5.421   1.652   1.543
 5580SOL    HW217640   5.324   1.594   1.425
 5581SOL     OW17641   2.776   2.466   0.583
 5581SOL    HW117642   2.732   2.378   0.567
 5581SOL    HW217643   2.798   2.474   0.681
 5582SOL     OW17644   3.286   2.985   3.531
 5582SOL    HW117645   3.363   3.013   3.473
 5582SOL    HW217646   3.320   2.951   3.618
 5583SOL     OW17647   4.495   0.543   0.019
 5583SOL    HW117648   4.421   0.533   6.970
 5583SOL    HW217649   4.494   0.635   0.056
 5584SOL     OW17650   4.908   3.301   3.048
 5584SOL    HW117651   4.932   3.388   3.005
 5584SOL    HW217652   4.839   3.316   3.119
 5585SOL     OW17653   0.633   0.016   4.822
 5585SOL    HW117654   0.633   6.976   4.904
 5585SOL    HW217655   0.678   6.986   4.747
 5586SOL     OW17656   2.998   1.260   6.528
 5586SOL    HW117657   2.899   1.258   6.516
 5586SOL    HW217658   3.019   1.257   6.626
 5587SOL     OW17659   3.606   6.414   4.113
 5587SOL    HW117660   3.564   6.326   4.091
 5587SOL    HW217661   3.536   6.486   4.105
 5588SOL     OW17662   4.799   0.073   5.933
 5588SOL    HW117663   4.841   0.153   5.976
 5588SOL    HW217664   4.717   0.047   5.984
 5589SOL     OW17665   3.038   3.621   0.291
 5589SOL    HW117666   3.048   3.633   0.390
 5589SOL    HW217667   3.082   3.697   0.243
 5590SOL     OW17668   6.695   0.651   3.583
 5590SOL    HW117669   6.692   0.684   3.488
 5590SOL    HW217670   6.644   0.565   3.589
 5591SOL     OW17671   5.636   6.999   0.115
 5591SOL    HW117672   5.542   6.967   0.097
 5591SOL    HW217673   5.681   6.935   0.178
 5592SOL     OW17674   1.127   2.382   2.587
 5592SOL    HW117675   1.122   2.482   2.591
 5592SOL    HW217676   1.147   2.354   2.493
 5593SOL     OW17677   2.425   4.437   4.437
 5593SOL    HW117678   2.459   4.428   4.343
 5593SOL    HW217679   2.329   4.407   4.441
 5594SOL     OW17680   3.117   1.615   6.314
 5594SOL    HW117681   3.198   1.674   6.305
 5594SOL    HW217682   3.146   1.525   6.347
 5595SOL     OW17683   0.476   2.256   6.026
 5595SOL    HW117684   0.507   2.223   5.937
 5595SOL    HW217685   0.379   2.281   6.021
 5596SOL     OW17686   4.485   2.531   4.284
 5596SOL    HW117687   4.413   2.480   4.331
 5596SOL    HW217688   4.491   2.623   4.323
 5597SOL     OW17689   6.920   1.985   6.620
 5597SOL    HW117690   6.890   2.069   6.665
 5597SOL    HW217691   7.017   1.971   6.638
 5598SOL     OW17692   6.489   2.134   3.628
 5598SOL    HW117693   6.530   2.163   3.541
 5598SOL    HW217694   6.535   2.181   3.703
 5599SOL     OW17695   5.320   2.392   3.383
 5599SOL    HW117696   5.294   2.315   3.325
 5599SOL    HW217697   5.237   2.443   3.409
 5600SOL     OW17698   1.769   2.550   2.045
 5600SOL    HW117699   1.864   2.533   2.070
 5600SOL    HW217700   1.727   2.610   2.113
 5601SOL     OW17701   5.534   3.317   5.748
 5601SOL    HW117702   5.543   3.269   5.836
 5601SOL    HW217703   5.552   3.414   5.762
 5602SOL     OW17704   6.468   2.543   2.615
 5602SOL    HW117705   6.379   2.497   2.616
 5602SOL    HW217706   6.532   2.492   2.674
 5603SOL     OW17707   3.920   2.027   6.193
 5603SOL    HW117708   3.849   2.047   6.261
 5603SOL    HW217709   3.876   2.009   6.105
 5604SOL     OW17710   1.190   6.145   3.793
 5604SOL    HW117711   1.127   6.205   3.743
 5604SOL    HW217712   1.189   6.169   3.890
 5605SOL     OW17713   4.344   0.443   3.867
 5605SOL    HW117714   4.411   0.483   3.805
 5605SOL    HW217715   4.313   0.512   3.932
 5606SOL     OW17716   4.574   3.091   0.705
 5606SOL    HW117717   4.625   3.058   0.784
 5606SOL    HW217718   4.493   3.034   0.692
 5607SOL     OW17719   7.008   2.511   3.304
 5607SOL    HW117720   6.942   2.439   3.325
 5607SOL    HW217721   6.981   2.596   3.351
 5608SOL     OW17722   5.278   0.289   4.176
 5608SOL    HW117723   5.206   0.329   4.119
 5608SOL    HW217724   5.363   0.339   4.162
 5609SOL     OW17725   6.511   1.318   6.976
 5609SOL    HW117726   6.581   1.353   0.019
 5609SOL    HW217727   6.461   1.244   0.003
 5610SOL     OW17728   5.839   5.817   6.128
 5610SOL    HW117729   5.848   5.719   6.110
 5610SOL    HW217730   5.784   5.859   6.055
 5611SOL     OW17731   6.062   3.925   2.048
 5611SOL    HW117732   6.104   3.846   2.003
 5611SOL    HW217733   6.075   4.006   1.990
 5612SOL     OW17734   4.061   1.971   0.722
 5612SOL    HW117735   4.017   2.041   0.778
 5612SOL    HW217736   4.160   1.989   0.718
 5613SOL     OW17737   6.265   5.356   6.118
 5613SOL    HW117738   6.333   5.416   6.074
 5613SOL    HW217739   6.302   5.263   6.124
 5614SOL     OW17740   4.895   1.895   5.057
 5614SOL    HW117741   4.874   1.989   5.080
 5614SOL    HW217742   4.827   1.860   4.992
 5615SOL     OW17743   0.608   3.241   3.622
 5615SOL    HW117744   0.585   3.217   3.716
 5615SOL    HW217745   0.533   3.216   3.562
 5616SOL     OW17746   1.750   3.620   2.572
 5616SOL    HW117747   1.801   3.535   2.559
 5616SOL    HW217748   1.660   3.600   2.610
 5617SOL     OW17749   1.218   4.923   6.273
 5617SOL    HW117750   1.268   5.010   6.274
 5617SOL    HW217751   1.283   4.848   6.261
 5618SOL     OW17752   4.498   6.940   2.812
 5618SOL    HW117753   4.473   6.886   2.892
 5618SOL    HW217754   4.587   6.982   2.826
 5619SOL     OW17755   3.108   3.412   3.176
 5619SOL    HW117756   3.203   3.436   3.158
 5619SOL    HW217757   3.086   3.326   3.129
 5620SOL     OW17758   4.980   4.415   4.784
 5620SOL    HW117759   4.988   4.490   4.849
 5620SOL    HW217760   4.891   4.371   4.795
 5621SOL     OW17761   0.903   2.529   6.559
 5621SOL    HW117762   0.861   2.616   6.584
 5621SOL    HW217763   0.996   2.545   6.525
 5622SOL     OW17764   4.866   5.501   4.258
 5622SOL    HW117765   4.868   5.444   4.175
 5622SOL    HW217766   4.787   5.561   4.255
 5623SOL     OW17767   4.743   4.816   3.855
 5623SOL    HW117768   4.722   4.740   3.915
 5623SOL    HW217769   4.707   4.797   3.763
 5624SOL     OW17770   5.104   4.077   3.266
 5624SOL    HW117771   5.152   4.117   3.344
 5624SOL    HW217772   5.071   4.150   3.206
 5625SOL     OW17773   2.696   6.635   6.183
 5625SOL    HW117774   2.684   6.687   6.268
 5625SOL    HW217775   2.607   6.622   6.139
 5626SOL     OW17776   1.360   4.667   6.411
 5626SOL    HW117777   1.275   4.648   6.459
 5626SOL    HW217778   1.390   4.586   6.361
 5627SOL     OW17779   1.300   5.128   0.372
 5627SOL    HW117780   1.245   5.191   0.427
 5627SOL    HW217781   1.249   5.103   0.290
 5628SOL     OW17782   1.662   3.382   0.024
 5628SOL    HW117783   1.613   3.461   0.062
 5628SOL    HW217784   1.753   3.376   0.064
 5629SOL     OW17785   6.869   3.416   3.558
 5629SOL    HW117786   6.835   3.329   3.523
 5629SOL    HW217787   6.825   3.435   3.646
 5630SOL     OW17788   0.934   3.424   0.519
 5630SOL    HW117789   1.008   3.472   0.470
 5630SOL    HW217790   0.863   3.490   0.543
 5631SOL     OW17791   3.838   1.076   1.422
 5631SOL    HW117792   3.898   1.011   1.470
 5631SOL    HW217793   3.821   1.044   1.329
 5632SOL     OW17794   4.109   6.134   6.193
 5632SOL    HW117795   4.044   6.114   6.120
 5632SOL    HW217796   4.148   6.225   6.179
 5633SOL     OW17797   0.960   5.468   5.573
 5633SOL    HW117798   0.957   5.434   5.666
 5633SOL    HW217799   0.948   5.393   5.508
 5634SOL     OW17800   2.709   0.782   1.447
 5634SOL    HW117801   2.626   0.838   1.447
 5634SOL    HW217802   2.696   0.702   1.388
 5635SOL     OW17803   3.344   0.499   1.789
 5635SOL    HW117804   3.408   0.500   1.866
 5635SOL    HW217805   3.395   0.499   1.703
 5636SOL     OW17806   5.475   0.332   5.665
 5636SOL    HW117807   5.504   0.380   5.583
 5636SOL    HW217808   5.404   0.385   5.711
 5637SOL     OW17809   5.172   0.074   4.800
 5637SOL    HW117810   5.120   0.107   4.720
 5637SOL    HW217811   5.176   0.146   4.869
 5638SOL     OW17812   6.031   5.634   0.692
 5638SOL    HW117813   6.102   5.567   0.668
 5638SOL    HW217814   5.964   5.591   0.753
 5639SOL     OW17815   2.968   0.546   1.629
 5639SOL    HW117816   2.888   0.490   1.647
 5639SOL    HW217817   3.003   0.582   1.715
 5640SOL     OW17818   3.076   6.931   3.313
 5640SOL    HW117819   3.175   6.925   3.327
 5640SOL    HW217820   3.047   6.860   3.250
 5641SOL     OW17821   6.811   4.165   3.582
 5641SOL    HW117822   6.750   4.220   3.525
 5641SOL    HW217823   6.905   4.173   3.548
 5642SOL     OW17824   2.260   3.547   6.347
 5642SOL    HW117825   2.160   3.539   6.346
 5642SOL    HW217826   2.290   3.598   6.267
 5643SOL     OW17827   6.047   2.377   4.424
 5643SOL    HW117828   6.092   2.466   4.432
 5643SOL    HW217829   6.102   2.317   4.366
 5644SOL     OW17830   3.892   0.591   5.511
 5644SOL    HW117831   3.953   0.512   5.511
 5644SOL    HW217832   3.806   0.568   5.466
 5645SOL     OW17833   6.116   6.507   3.710
 5645SOL    HW117834   6.152   6.560   3.787
 5645SOL    HW217835   6.190   6.453   3.670
 5646SOL     OW17836   6.714   6.733   4.124
 5646SOL    HW117837   6.630   6.698   4.164
 5646SOL    HW217838   6.698   6.827   4.092
 5647SOL     OW17839   6.723   4.129   6.735
 5647SOL    HW117840   6.712   4.032   6.713
 5647SOL    HW217841   6.815   4.159   6.708
 5648SOL     OW17842   3.003   1.231   4.569
 5648SOL    HW117843   3.060   1.215   4.649
 5648SOL    HW217844   2.989   1.329   4.556
 5649SOL     OW17845   1.042   0.086   5.680
 5649SOL    HW117846   1.082   0.012   5.626
 5649SOL    HW217847   1.004   0.155   5.619
 5650SOL     OW17848   6.794   4.744   5.940
 5650SOL    HW117849   6.792   4.792   6.027
 5650SOL    HW217850   6.886   4.747   5.902
 5651SOL     OW17851   5.748   1.661   2.238
 5651SOL    HW117852   5.820   1.648   2.307
 5651SOL    HW217853   5.734   1.759   2.223
 5652SOL     OW17854   5.955   4.451   0.476
 5652SOL    HW117855   5.866   4.474   0.515
 5652SOL    HW217856   5.943   4.412   0.385
 5653SOL     OW17857   2.079   5.973   6.378
 5653SOL    HW117858   1.998   5.921   6.406
 5653SOL    HW217859   2.061   6.019   6.291
 5654SOL     OW17860   1.658   5.931   6.712
 5654SOL    HW117861   1.709   6.006   6.755
 5654SOL    HW217862   1.582   5.969   6.659
 5655SOL     OW17863   6.837   5.349   2.954
 5655SOL    HW117864   6.822   5.250   2.957
 5655SOL    HW217865   6.920   5.372   3.004
 5656SOL     OW17866   3.565   5.686   6.364
 5656SOL    HW117867   3.490   5.667   6.428
 5656SOL    HW217868   3.552   5.776   6.323
 5657SOL     OW17869   4.405   5.680   1.988
 5657SOL    HW117870   4.368   5.754   2.044
 5657SOL    HW217871   4.335   5.612   1.971
 5658SOL     OW17872   5.345   6.433   5.726
 5658SOL    HW117873   5.317   6.418   5.820
 5658SOL    HW217874   5.422   6.374   5.703
 5659SOL     OW17875   3.000   3.953   2.756
 5659SOL    HW117876   2.956   3.889   2.820
 5659SOL    HW217877   2.931   3.992   2.695
 5660SOL     OW17878   6.367   6.200   1.603
 5660SOL    HW117879   6.388   6.247   1.518
 5660SOL    HW217880   6.306   6.123   1.584
 5661SOL     OW17881   6.138   5.709   4.349
 5661SOL    HW117882   6.176   5.789   4.302
 5661SOL    HW217883   6.185   5.627   4.318
 5662SOL     OW17884   2.391   4.975   4.848
 5662SOL    HW117885   2.390   4.950   4.945
 5662SOL    HW217886   2.462   5.044   4.833
 5663SOL     OW17887   2.854   4.150   1.287
 5663SOL    HW117888   2.773   4.092   1.295
 5663SOL    HW217889   2.841   4.233   1.342
 5664SOL     OW17890   0.067   5.927   2.501
 5664SOL    HW117891   6.991   5.930   2.533
 5664SOL    HW217892   0.071   5.965   2.408
 5665SOL     OW17893   1.524   1.258   6.130
 5665SOL    HW117894   1.571   1.332   6.178
 5665SOL    HW217895   1.426   1.278   6.126
 5666SOL     OW17896   6.002   5.715   0.249
 5666SOL    HW117897   5.991   5.812   0.227
 5666SOL    HW217898   5.913   5.670   0.243
 5667SOL     OW17899   6.560   5.471   2.988
 5667SOL    HW117900   6.490   5.404   2.964
 5667SOL    HW217901   6.641   5.425   3.024
 5668SOL     OW17902   5.947   3.512   6.094
 5668SOL    HW117903   5.974   3.495   5.999
 5668SOL    HW217904   6.011   3.466   6.155
 5669SOL     OW17905   6.825   3.419   4.944
 5669SOL    HW117906   6.732   3.449   4.969
 5669SOL    HW217907   6.892   3.482   4.985
 5670SOL     OW17908   1.426   3.753   2.335
 5670SOL    HW117909   1.522   3.778   2.348
 5670SOL    HW217910   1.373   3.781   2.415
 5671SOL     OW17911   1.050   0.942   5.648
 5671SOL    HW117912   1.090   0.940   5.556
 5671SOL    HW217913   1.072   0.857   5.696
 5672SOL     OW17914   5.192   3.758   6.091
 5672SOL    HW117915   5.155   3.796   6.006
 5672SOL    HW217916   5.222   3.833   6.150
 5673SOL     OW17917   1.518   0.189   1.013
 5673SOL    HW117918   1.509   0.280   0.973
 5673SOL    HW217919   1.441   0.173   1.074
 5674SOL     OW17920   6.233   3.130   1.170
 5674SOL    HW117921   6.149   3.148   1.119
 5674SOL    HW217922   6.310   3.172   1.122
 5675SOL     OW17923   3.498   1.158   6.330
 5675SOL    HW117924   3.508   1.109   6.416
 5675SOL    HW217925   3.472   1.253   6.349
 5676SOL     OW17926   3.515   0.042   1.405
 5676SOL    HW117927   3.606   0.067   1.372
 5676SOL    HW217928   3.454   0.120   1.398
 5677SOL     OW17929   6.979   1.130   3.705
 5677SOL    HW117930   0.045   1.083   3.733
 5677SOL    HW217931   6.951   1.193   3.777
 5678SOL     OW17932   1.970   5.342   3.663
 5678SOL    HW117933   1.900   5.362   3.594
 5678SOL    HW217934   1.936   5.271   3.724
 5679SOL     OW17935   3.335   5.483   5.190
 5679SOL    HW117936   3.262   5.455   5.127
 5679SOL    HW217937   3.353   5.410   5.255
 5680SOL     OW17938   1.892   6.918   6.465
 5680SOL    HW117939   1.962   6.960   6.406
 5680SOL    HW217940   1.911   6.821   6.475
 5681SOL     OW17941   2.828   3.871   0.067
 5681SOL    HW117942   2.839   3.807   7.010
 5681SOL    HW217943   2.736   3.863   0.105
 5682SOL     OW17944   0.993   3.838   4.052
 5682SOL    HW117945   0.970   3.877   4.140
 5682SOL    HW217946   0.974   3.904   3.980
 5683SOL     OW17947   4.094   3.293   4.634
 5683SOL    HW117948   4.139   3.372   4.593
 5683SOL    HW217949   4.108   3.294   4.733
 5684SOL     OW17950   2.942   3.746   2.947
 5684SOL    HW117951   2.899   3.773   3.033
 5684SOL    HW217952   2.958   3.647   2.947
 5685SOL     OW17953   0.600   5.533   1.860
 5685SOL    HW117954   0.630   5.488   1.776
 5685SOL    HW217955   0.631   5.481   1.939
 5686SOL     OW17956   3.404   4.915   6.707
 5686SOL    HW117957   3.457   4.932   6.624
 5686SOL    HW217958   3.403   4.998   6.763
 5687SOL     OW17959   4.144   5.758   6.471
 5687SOL    HW117960   4.045   5.746   6.461
 5687SOL    HW217961   4.190   5.725   6.389
 5688SOL     OW17962   5.702   1.922   2.269
 5688SOL    HW117963   5.615   1.972   2.273
 5688SOL    HW217964   5.767   1.975   2.214
 5689SOL     OW17965   4.448   3.037   6.609
 5689SOL    HW117966   4.390   3.116   6.631
 5689SOL    HW217967   4.405   2.953   6.642
 5690SOL     OW17968   4.295   6.522   2.238
 5690SOL    HW117969   4.267   6.580   2.161
 5690SOL    HW217970   4.386   6.484   2.220
 5691SOL     OW17971   2.718   0.485   3.506
 5691SOL    HW117972   2.707   0.553   3.435
 5691SOL    HW217973   2.783   0.415   3.476
 5692SOL     OW17974   5.770   3.313   0.085
 5692SOL    HW117975   5.810   3.228   0.052
 5692SOL    HW217976   5.688   3.335   0.032
 5693SOL     OW17977   5.000   2.494   2.674
 5693SOL    HW117978   5.026   2.398   2.665
 5693SOL    HW217979   5.063   2.550   2.620
 5694SOL     OW17980   1.705   1.779   3.974
 5694SOL    HW117981   1.798   1.815   3.963
 5694SOL    HW217982   1.699   1.688   3.932
 5695SOL     OW17983   1.771   4.009   3.586
 5695SOL    HW117984   1.802   4.042   3.497
 5695SOL    HW217985   1.827   3.932   3.614
 5696SOL     OW17986   3.318   0.422   6.069
 5696SOL    HW117987   3.379   0.383   6.138
 5696SOL    HW217988   3.275   0.348   6.018
 5697SOL     OW17989   6.215   3.505   0.133
 5697SOL    HW117990   6.183   3.456   0.052
 5697SOL    HW217991   6.214   3.604   0.115
 5698SOL     OW17992   0.902   4.313   2.893
 5698SOL    HW117993   0.900   4.376   2.970
 5698SOL    HW217994   0.851   4.230   2.917
 5699SOL     OW17995   6.565   1.972   4.865
 5699SOL    HW117996   6.628   1.910   4.818
 5699SOL    HW217997   6.471   1.945   4.844
 5700SOL     OW17998   1.034   5.601   2.961
 5700SOL    HW117999   1.036   5.658   2.879
 5700SOL    HW218000   1.118   5.617   3.014
 5701SOL     OW18001   5.322   4.893   2.380
 5701SOL    HW118002   5.296   4.815   2.324
 5701SOL    HW218003   5.357   4.966   2.321
 5702SOL     OW18004   1.908   0.463   6.957
 5702SOL    HW118005   1.879   0.368   6.945
 5702SOL    HW218006   1.919   0.506   6.867
 5703SOL     OW18007   4.843   4.319   1.712
 5703SOL    HW118008   4.762   4.274   1.676
 5703SOL    HW218009   4.921   4.257   1.705
 5704SOL     OW18010   4.939   4.245   3.050
 5704SOL    HW118011   4.865   4.297   3.091
 5704SOL    HW218012   4.948   4.270   2.954
 5705SOL     OW18013   5.842   1.706   2.654
 5705SOL    HW118014   5.930   1.702   2.702
 5705SOL    HW218015   5.857   1.733   2.559
 5706SOL     OW18016   2.005   0.909   6.955
 5706SOL    HW118017   2.059   0.955   0.008
 5706SOL    HW218018   1.908   0.915   6.978
 5707SOL     OW18019   3.347   1.757   6.273
 5707SOL    HW118020   3.403   1.809   6.338
 5707SOL    HW218021   3.403   1.731   6.194
 5708SOL     OW18022   6.556   6.904   1.793
 5708SOL    HW118023   6.637   6.873   1.742
 5708SOL    HW218024   6.477   6.904   1.732
 5709SOL     OW18025   1.241   1.499   2.125
 5709SOL    HW118026   1.260   1.588   2.168
 5709SOL    HW218027   1.170   1.452   2.176
 5710SOL     OW18028   3.189   4.309   6.425
 5710SOL    HW118029   3.154   4.289   6.334
 5710SOL    HW218030   3.161   4.401   6.453
 5711SOL     OW18031   4.641   1.172   4.867
 5711SOL    HW118032   4.586   1.191   4.949
 5711SOL    HW218033   4.738   1.173   4.891
 5712SOL     OW18034   6.813   6.160   6.808
 5712SOL    HW118035   6.793   6.186   6.714
 5712SOL    HW218036   6.912   6.155   6.821
 5713SOL     OW18037   0.200   2.686   2.726
 5713SOL    HW118038   0.228   2.781   2.731
 5713SOL    HW218039   0.213   2.642   2.815
 5714SOL     OW18040   2.074   0.809   6.300
 5714SOL    HW118041   2.060   0.902   6.334
 5714SOL    HW218042   2.143   0.763   6.355
 5715SOL     OW18043   1.239   6.768   3.296
 5715SOL    HW118044   1.245   6.829   3.217
 5715SOL    HW218045   1.148   6.726   3.298
 5716SOL     OW18046   1.738   2.671   5.023
 5716SOL    HW118047   1.796   2.680   5.104
 5716SOL    HW218048   1.789   2.624   4.951
 5717SOL     OW18049   0.526   3.369   0.066
 5717SOL    HW118050   0.431   3.388   0.090
 5717SOL    HW218051   0.563   3.443   0.010
 5718SOL     OW18052   2.279   5.240   5.004
 5718SOL    HW118053   2.192   5.192   5.016
 5718SOL    HW218054   2.288   5.270   4.909
 5719SOL     OW18055   2.636   0.523   6.938
 5719SOL    HW118056   2.721   0.549   6.893
 5719SOL    HW218057   2.643   0.427   6.968
 5720SOL     OW18058   2.232   5.913   4.017
 5720SOL    HW118059   2.306   5.847   4.001
 5720SOL    HW218060   2.261   5.979   4.087
 5721SOL     OW18061   0.081   4.248   0.549
 5721SOL    HW118062   0.047   4.205   0.632
 5721SOL    HW218063   0.177   4.271   0.560
 5722SOL     OW18064   5.385   1.398   3.717
 5722SOL    HW118065   5.292   1.427   3.741
 5722SOL    HW218066   5.405   1.311   3.760
 5723SOL     OW18067   1.240   4.402   0.585
 5723SOL    HW118068   1.169   4.332   0.593
 5723SOL    HW218069   1.259   4.441   0.676
 5724SOL     OW18070   4.841   2.445   6.288
 5724SOL    HW118071   4.788   2.371   6.330
 5724SOL    HW218072   4.788   2.485   6.213
 5725SOL     OW18073   5.098   5.772   5.825
 5725SOL    HW118074   5.018   5.827   5.802
 5725SOL    HW218075   5.076   5.710   5.901
 5726SOL     OW18076   4.271   3.829   5.398
 5726SOL    HW118077   4.263   3.823   5.498
 5726SOL    HW218078   4.354   3.781   5.369
 5727SOL     OW18079   6.103   2.058   3.679
 5727SOL    HW118080   6.167   2.008   3.737
 5727SOL    HW218081   6.085   2.148   3.719
 5728SOL     OW18082   4.876   0.738   5.996
 5728SOL    HW118083   4.941   0.752   5.921
 5728SOL    HW218084   4.785   0.766   5.967
 5729SOL     OW18085   1.204   3.098   4.823
 5729SOL    HW118086   1.198   3.108   4.922
 5729SOL    HW218087   1.281   3.038   4.800
 5730SOL     OW18088   4.085   5.748   6.892
 5730SOL    HW118089   4.099   5.689   6.972
 5730SOL    HW218090   4.111   5.842   6.916
 5731SOL     OW18091   4.460   1.366   4.742
 5731SOL    HW118092   4.515   1.423   4.804
 5731SOL    HW218093   4.509   1.280   4.724
 5732SOL     OW18094   5.692   4.219   4.091
 5732SOL    HW118095   5.719   4.140   4.145
 5732SOL    HW218096   5.763   4.289   4.095
 5733SOL     OW18097   2.384   6.876   1.245
 5733SOL    HW118098   2.465   6.935   1.241
 5733SOL    HW218099   2.305   6.931   1.274
 5734SOL     OW18100   1.439   6.430   6.489
 5734SOL    HW118101   1.483   6.515   6.460
 5734SOL    HW218102   1.366   6.406   6.425
 5735SOL     OW18103   5.083   0.728   2.311
 5735SOL    HW118104   5.137   0.803   2.349
 5735SOL    HW218105   5.005   0.709   2.370
 5736SOL     OW18106   6.115   4.462   6.731
 5736SOL    HW118107   6.199   4.444   6.783
 5736SOL    HW218108   6.042   4.491   6.794
 5737SOL     OW18109   4.653   5.545   1.957
 5737SOL    HW118110   4.624   5.452   1.938
 5737SOL    HW218111   4.575   5.607   1.952
 5738SOL     OW18112   2.220   0.457   0.655
 5738SOL    HW118113   2.315   0.466   0.624
 5738SOL    HW218114   2.205   0.515   0.735
 5739SOL     OW18115   2.232   1.287   5.839
 5739SOL    HW118116   2.164   1.221   5.873
 5739SOL    HW218117   2.322   1.245   5.841
 5740SOL     OW18118   4.950   3.439   2.590
 5740SOL    HW118119   4.948   3.373   2.665
 5740SOL    HW218120   4.963   3.390   2.503
 5741SOL     OW18121   0.545   3.603   4.108
 5741SOL    HW118122   0.643   3.584   4.104
 5741SOL    HW218123   0.494   3.525   4.071
 5742SOL     OW18124   6.004   6.952   3.337
 5742SOL    HW118125   6.098   6.984   3.334
 5742SOL    HW218126   6.000   6.856   3.310
 5743SOL     OW18127   3.311   5.432   6.906
 5743SOL    HW118128   3.211   5.430   6.902
 5743SOL    HW218129   3.347   5.468   6.820
 5744SOL     OW18130   5.198   6.694   3.389
 5744SOL    HW118131   5.207   6.789   3.361
 5744SOL    HW218132   5.173   6.637   3.311
 5745SOL     OW18133   1.176   2.857   1.844
 5745SOL    HW118134   1.077   2.856   1.855
 5745SOL    HW218135   1.208   2.950   1.831
 5746SOL     OW18136   4.886   6.665   3.142
 5746SOL    HW118137   4.971   6.611   3.141
 5746SOL    HW218138   4.838   6.652   3.056
 5747SOL     OW18139   1.550   6.523   1.073
 5747SOL    HW118140   1.554   6.423   1.084
 5747SOL    HW218141   1.525   6.545   0.979
 5748SOL     OW18142   0.021   6.297   0.947
 5748SOL    HW118143   0.072   6.290   0.861
 5748SOL    HW218144   0.066   6.243   1.017
 5749SOL     OW18145   1.846   5.566   6.205
 5749SOL    HW118146   1.754   5.603   6.191
 5749SOL    HW218147   1.895   5.625   6.269
 5750SOL     OW18148   6.787   3.145   4.566
 5750SOL    HW118149   6.746   3.053   4.569
 5750SOL    HW218150   6.872   3.141   4.512
 5751SOL     OW18151   1.190   3.858   4.825
 5751SOL    HW118152   1.289   3.861   4.841
 5751SOL    HW218153   1.165   3.927   4.757
 5752SOL     OW18154   5.247   0.677   0.810
 5752SOL    HW118155   5.262   0.739   0.733
 5752SOL    HW218156   5.269   0.724   0.895
 5753SOL     OW18157   3.594   4.174   4.814
 5753SOL    HW118158   3.690   4.147   4.802
 5753SOL    HW218159   3.574   4.180   4.912
 5754SOL     OW18160   0.553   5.775   1.280
 5754SOL    HW118161   0.515   5.683   1.272
 5754SOL    HW218162   0.545   5.822   1.192
 5755SOL     OW18163   0.738   2.966   6.109
 5755SOL    HW118164   0.700   2.993   6.197
 5755SOL    HW218165   0.818   2.907   6.125
 5756SOL     OW18166   5.571   6.027   1.423
 5756SOL    HW118167   5.651   6.086   1.431
 5756SOL    HW218168   5.596   5.942   1.376
 5757SOL     OW18169   6.969   0.818   4.015
 5757SOL    HW118170   6.906   0.874   3.961
 5757SOL    HW218171   0.020   0.779   3.955
 5758SOL     OW18172   6.109   6.595   3.092
 5758SOL    HW118173   6.146   6.685   3.116
 5758SOL    HW218174   6.057   6.602   3.006
 5759SOL     OW18175   3.123   0.137   1.523
 5759SOL    HW118176   3.167   0.226   1.538
 5759SOL    HW218177   3.159   0.071   1.590
 5760SOL     OW18178   1.767   2.561   0.083
 5760SOL    HW118179   1.813   2.559   7.013
 5760SOL    HW218180   1.745   2.655   0.108
 5761SOL     OW18181   6.342   6.994   4.635
 5761SOL    HW118182   6.420   0.037   4.632
 5761SOL    HW218183   6.372   6.901   4.614
 5762SOL     OW18184   0.540   5.397   6.231
 5762SOL    HW118185   0.565   5.308   6.194
 5762SOL    HW218186   0.541   5.466   6.158
 5763SOL     OW18187   5.880   0.252   0.351
 5763SOL    HW118188   5.793   0.207   0.337
 5763SOL    HW218189   5.895   0.267   0.448
 5764SOL     OW18190   4.879   6.280   4.039
 5764SOL    HW118191   4.812   6.213   4.073
 5764SOL    HW218192   4.832   6.350   3.986
 5765SOL     OW18193   5.909   5.217   2.556
 5765SOL    HW118194   5.817   5.178   2.547
 5765SOL    HW218195   5.974   5.144   2.575
 5766SOL     OW18196   0.448   1.153   4.308
 5766SOL    HW118197   0.509   1.189   4.237
 5766SOL    HW218198   0.473   1.193   4.397
 5767SOL     OW18199   4.050   0.025   6.435
 5767SOL    HW118200   4.115   0.050   6.363
 5767SOL    HW218201   3.987   6.974   6.401
 5768SOL     OW18202   0.568   0.897   5.502
 5768SOL    HW118203   0.481   0.884   5.455
 5768SOL    HW218204   0.631   0.947   5.442
 5769SOL     OW18205   1.800   4.034   5.521
 5769SOL    HW118206   1.825   4.020   5.617
 5769SOL    HW218207   1.825   4.127   5.493
 5770SOL     OW18208   2.294   4.082   1.914
 5770SOL    HW118209   2.279   4.181   1.922
 5770SOL    HW218210   2.295   4.042   2.006
 5771SOL     OW18211   3.639   4.940   4.081
 5771SOL    HW118212   3.703   5.016   4.096
 5771SOL    HW218213   3.688   4.853   4.089
 5772SOL     OW18214   3.305   6.993   2.144
 5772SOL    HW118215   3.314   0.068   2.109
 5772SOL    HW218216   3.380   6.974   2.208
 5773SOL     OW18217   5.188   1.559   2.621
 5773SOL    HW118218   5.125   1.620   2.572
 5773SOL    HW218219   5.273   1.551   2.569
 5774SOL     OW18220   0.777   6.570   2.396
 5774SOL    HW118221   0.833   6.633   2.449
 5774SOL    HW218222   0.733   6.619   2.321
 5775SOL     OW18223   6.301   5.365   1.525
 5775SOL    HW118224   6.349   5.447   1.492
 5775SOL    HW218225   6.203   5.373   1.504
 5776SOL     OW18226   2.989   1.282   4.003
 5776SOL    HW118227   2.990   1.277   4.103
 5776SOL    HW218228   3.059   1.347   3.972
 5777SOL     OW18229   1.966   6.336   2.063
 5777SOL    HW118230   1.986   6.337   1.965
 5777SOL    HW218231   2.033   6.279   2.110
 5778SOL     OW18232   0.507   1.381   0.819
 5778SOL    HW118233   0.560   1.302   0.788
 5778SOL    HW218234   0.544   1.413   0.907
 5779SOL     OW18235   5.838   0.955   6.093
 5779SOL    HW118236   5.881   0.905   6.168
 5779SOL    HW218237   5.900   0.957   6.015
 5780SOL     OW18238   5.158   5.339   4.407
 5780SOL    HW118239   5.195   5.269   4.469
 5780SOL    HW218240   5.060   5.350   4.425
 5781SOL     OW18241   1.106   4.716   5.197
 5781SOL    HW118242   1.202   4.737   5.213
 5781SOL    HW218243   1.053   4.739   5.279
 5782SOL     OW18244   0.515   0.794   0.309
 5782SOL    HW118245   0.528   0.851   0.228
 5782SOL    HW218246   0.477   0.850   0.383
 5783SOL     OW18247   1.935   2.458   0.668
 5783SOL    HW118248   1.861   2.391   0.675
 5783SOL    HW218249   2.000   2.444   0.743
 5784SOL     OW18250   6.692   5.902   6.654
 5784SOL    HW118251   6.617   5.941   6.708
 5784SOL    HW218252   6.719   5.967   6.583
 5785SOL     OW18253   1.055   1.285   0.556
 5785SOL    HW118254   1.020   1.308   0.465
 5785SOL    HW218255   1.071   1.369   0.608
 5786SOL     OW18256   5.548   5.326   1.816
 5786SOL    HW118257   5.614   5.395   1.846
 5786SOL    HW218258   5.577   5.236   1.848
 5787SOL     OW18259   2.133   2.615   6.366
 5787SOL    HW118260   2.172   2.540   6.314
 5787SOL    HW218261   2.174   2.617   6.458
 5788SOL     OW18262   2.697   0.944   3.506
 5788SOL    HW118263   2.675   0.944   3.409
 5788SOL    HW218264   2.627   0.892   3.556
 5789SOL     OW18265   3.821   4.708   6.089
 5789SOL    HW118266   3.789   4.681   6.180
 5789SOL    HW218267   3.900   4.769   6.098
 5790SOL     OW18268   1.428   3.242   3.459
 5790SOL    HW118269   1.396   3.175   3.392
 5790SOL    HW218270   1.523   3.223   3.482
 5791SOL     OW18271   1.984   1.053   2.911
 5791SOL    HW118272   2.066   1.108   2.902
 5791SOL    HW218273   2.005   0.958   2.888
 5792SOL     OW18274   6.791   2.213   2.789
 5792SOL    HW118275   6.792   2.159   2.873
 5792SOL    HW218276   6.789   2.152   2.710
 5793SOL     OW18277   0.464   0.647   4.318
 5793SOL    HW118278   0.440   0.613   4.409
 5793SOL    HW218279   0.381   0.671   4.268
 5794SOL     OW18280   4.986   4.361   6.398
 5794SOL    HW118281   5.019   4.267   6.403
 5794SOL    HW218282   4.887   4.362   6.386
 5795SOL     OW18283   5.764   4.426   0.081
 5795SOL    HW118284   5.708   4.494   0.127
 5795SOL    HW218285   5.711   4.382   0.009
 5796SOL     OW18286   3.532   2.090   0.695
 5796SOL    HW118287   3.511   2.007   0.746
 5796SOL    HW218288   3.563   2.066   0.604
 5797SOL     OW18289   3.422   2.062   6.044
 5797SOL    HW118290   3.510   2.065   6.091
 5797SOL    HW218291   3.376   2.150   6.054
 5798SOL     OW18292   6.587   4.889   3.992
 5798SOL    HW118293   6.500   4.871   4.038
 5798SOL    HW218294   6.576   4.878   3.894
 5799SOL     OW18295   5.755   0.407   3.616
 5799SOL    HW118296   5.790   0.315   3.594
 5799SOL    HW218297   5.656   0.410   3.598
 5800SOL     OW18298   5.622   5.039   0.924
 5800SOL    HW118299   5.591   5.040   1.019
 5800SOL    HW218300   5.553   4.995   0.867
 5801SOL     OW18301   2.704   1.288   2.979
 5801SOL    HW118302   2.771   1.358   3.005
 5801SOL    HW218303   2.620   1.332   2.947
 5802SOL     OW18304   0.400   2.731   4.896
 5802SOL    HW118305   0.432   2.818   4.933
 5802SOL    HW218306   0.368   2.745   4.802
 5803SOL     OW18307   2.074   4.335   0.498
 5803SOL    HW118308   2.142   4.332   0.425
 5803SOL    HW218309   2.052   4.242   0.526
 5804SOL     OW18310   6.336   3.201   5.009
 5804SOL    HW118311   6.429   3.165   5.019
 5804SOL    HW218312   6.270   3.128   5.023
 5805SOL     OW18313   5.890   3.545   0.195
 5805SOL    HW118314   5.804   3.585   0.228
 5805SOL    HW218315   5.870   3.461   0.146
 5806SOL     OW18316   0.276   6.598   0.427
 5806SOL    HW118317   0.217   6.549   0.363
 5806SOL    HW218318   0.309   6.534   0.497
 5807SOL     OW18319   2.111   3.623   1.860
 5807SOL    HW118320   2.149   3.536   1.894
 5807SOL    HW218321   2.170   3.657   1.787
 5808SOL     OW18322   6.737   3.214   3.078
 5808SOL    HW118323   6.659   3.238   3.135
 5808SOL    HW218324   6.790   3.142   3.122
 5809SOL     OW18325   6.444   3.449   3.985
 5809SOL    HW118326   6.372   3.464   4.053
 5809SOL    HW218327   6.403   3.421   3.899
 5810SOL     OW18328   2.404   2.324   2.447
 5810SOL    HW118329   2.359   2.258   2.387
 5810SOL    HW218330   2.416   2.411   2.398
 5811SOL     OW18331   2.506   1.440   3.211
 5811SOL    HW118332   2.449   1.361   3.233
 5811SOL    HW218333   2.449   1.522   3.206
 5812SOL     OW18334   4.349   0.678   4.697
 5812SOL    HW118335   4.316   0.597   4.744
 5812SOL    HW218336   4.317   0.760   4.745
 5813SOL     OW18337   1.372   0.910   5.670
 5813SOL    HW118338   1.425   0.887   5.589
 5813SOL    HW218339   1.314   0.832   5.695
 5814SOL     OW18340   0.527   5.143   0.998
 5814SOL    HW118341   0.588   5.156   0.920
 5814SOL    HW218342   0.531   5.048   1.028
 5815SOL     OW18343   3.381   1.625   2.939
 5815SOL    HW118344   3.361   1.710   2.988
 5815SOL    HW218345   3.389   1.645   2.841
 5816SOL     OW18346   4.723   0.257   1.031
 5816SOL    HW118347   4.686   0.313   0.958
 5816SOL    HW218348   4.823   0.264   1.031
 5817SOL     OW18349   5.135   1.773   5.070
 5817SOL    HW118350   5.206   1.828   5.026
 5817SOL    HW218351   5.045   1.810   5.048
 5818SOL     OW18352   5.819   6.323   5.921
 5818SOL    HW118353   5.899   6.291   5.970
 5818SOL    HW218354   5.843   6.339   5.825
 5819SOL     OW18355   6.187   0.223   0.787
 5819SOL    HW118356   6.232   0.142   0.750
 5819SOL    HW218357   6.126   0.262   0.718
 5820SOL     OW18358   5.717   6.221   3.089
 5820SOL    HW118359   5.633   6.270   3.113
 5820SOL    HW218360   5.743   6.243   2.995
 5821SOL     OW18361   2.757   0.387   1.651
 5821SOL    HW118362   2.793   0.364   1.742
 5821SOL    HW218363   2.724   0.481   1.651
 5822SOL     OW18364   0.365   1.402   2.075
 5822SOL    HW118365   0.353   1.342   1.996
 5822SOL    HW218366   0.460   1.398   2.106
 5823SOL     OW18367   2.688   2.222   4.116
 5823SOL    HW118368   2.598   2.205   4.075
 5823SOL    HW218369   2.678   2.284   4.193
 5824SOL     OW18370   4.850   0.354   3.876
 5824SOL    HW118371   4.824   0.450   3.864
 5824SOL    HW218372   4.773   0.296   3.849
 5825SOL     OW18373   2.586   0.666   0.787
 5825SOL    HW118374   2.570   0.669   0.688
 5825SOL    HW218375   2.623   0.754   0.816
 5826SOL     OW18376   6.731   0.825   4.536
 5826SOL    HW118377   6.830   0.837   4.532
 5826SOL    HW218378   6.708   0.770   4.617
 5827SOL     OW18379   0.831   5.343   5.112
 5827SOL    HW118380   0.761   5.326   5.043
 5827SOL    HW218381   0.913   5.288   5.091
 5828SOL     OW18382   0.061   3.174   1.683
 5828SOL    HW118383   0.082   3.089   1.731
 5828SOL    HW218384   0.114   3.178   1.598
 5829SOL     OW18385   1.763   1.173   1.677
 5829SOL    HW118386   1.831   1.123   1.624
 5829SOL    HW218387   1.748   1.126   1.764
 5830SOL     OW18388   1.832   1.604   5.931
 5830SOL    HW118389   1.743   1.559   5.934
 5830SOL    HW218390   1.820   1.700   5.906
 5831SOL     OW18391   5.698   6.781   3.125
 5831SOL    HW118392   5.765   6.764   3.198
 5831SOL    HW218393   5.607   6.793   3.164
 5832SOL     OW18394   3.513   4.056   5.076
 5832SOL    HW118395   3.509   4.066   5.176
 5832SOL    HW218396   3.426   4.022   5.042
 5833SOL     OW18397   3.733   3.261   4.875
 5833SOL    HW118398   3.649   3.216   4.844
 5833SOL    HW218399   3.753   3.338   4.814
 5834SOL     OW18400   5.970   1.042   0.439
 5834SOL    HW118401   5.949   1.021   0.343
 5834SOL    HW218402   5.970   0.958   0.493
 5835SOL     OW18403   5.176   2.351   4.095
 5835SOL    HW118404   5.233   2.382   4.019
 5835SOL    HW218405   5.095   2.304   4.060
 5836SOL     OW18406   3.343   5.890   2.362
 5836SOL    HW118407   3.267   5.929   2.413
 5836SOL    HW218408   3.384   5.815   2.414
 5837SOL     OW18409   4.740   4.451   6.328
 5837SOL    HW118410   4.689   4.389   6.388
 5837SOL    HW218411   4.678   4.519   6.288
 5838SOL     OW18412   0.806   1.448   5.516
 5838SOL    HW118413   0.896   1.489   5.529
 5838SOL    HW218414   0.816   1.356   5.477
 5839SOL     OW18415   0.192   3.530   2.711
 5839SOL    HW118416   0.272   3.493   2.757
 5839SOL    HW218417   0.109   3.488   2.750
 5840SOL     OW18418   1.635   5.202   6.478
 5840SOL    HW118419   1.590   5.113   6.483
 5840SOL    HW218420   1.715   5.196   6.418
 5841SOL     OW18421   6.667   2.334   3.050
 5841SOL    HW118422   6.673   2.433   3.041
 5841SOL    HW218423   6.759   2.294   3.041
 5842SOL     OW18424   3.982   3.223   0.476
 5842SOL    HW118425   4.007   3.245   0.571
 5842SOL    HW218426   4.055   3.168   0.435
 5843SOL     OW18427   1.330   3.369   1.825
 5843SOL    HW118428   1.417   3.369   1.873
 5843SOL    HW218429   1.344   3.393   1.729
 5844SOL     OW18430   1.154   6.328   0.122
 5844SOL    HW118431   1.253   6.322   0.117
 5844SOL    HW218432   1.115   6.317   0.031
 5845SOL     OW18433   0.848   2.361   4.439
 5845SOL    HW118434   0.841   2.261   4.435
 5845SOL    HW218435   0.941   2.388   4.414
 5846SOL     OW18436   6.768   3.094   5.953
 5846SOL    HW118437   6.771   3.193   5.966
 5846SOL    HW218438   6.780   3.073   5.856
 5847SOL     OW18439   2.097   2.778   3.020
 5847SOL    HW118440   2.138   2.687   3.021
 5847SOL    HW218441   2.129   2.830   3.099
 5848SOL     OW18442   1.566   4.537   3.760
 5848SOL    HW118443   1.645   4.513   3.816
 5848SOL    HW218444   1.486   4.486   3.792
 5849SOL     OW18445   2.382   6.729   5.472
 5849SOL    HW118446   2.370   6.630   5.468
 5849SOL    HW218447   2.391   6.758   5.567
 5850SOL     OW18448   0.791   4.482   2.690
 5850SOL    HW118449   0.827   4.401   2.736
 5850SOL    HW218450   0.759   4.457   2.599
 5851SOL     OW18451   6.111   3.413   2.079
 5851SOL    HW118452   6.066   3.499   2.102
 5851SOL    HW218453   6.044   3.339   2.079
 5852SOL     OW18454   4.059   5.661   2.885
 5852SOL    HW118455   4.114   5.668   2.968
 5852SOL    HW218456   3.964   5.685   2.905
 5853SOL     OW18457   3.562   4.166   5.691
 5853SOL    HW118458   3.570   4.074   5.730
 5853SOL    HW218459   3.478   4.173   5.637
 5854SOL     OW18460   6.981   1.152   6.554
 5854SOL    HW118461   7.010   1.073   6.608
 5854SOL    HW218462   0.041   1.187   6.502
 5855SOL     OW18463   1.604   0.992   5.068
 5855SOL    HW118464   1.616   1.083   5.107
 5855SOL    HW218465   1.663   0.981   4.988
 5856SOL     OW18466   2.223   4.909   3.873
 5856SOL    HW118467   2.216   4.969   3.953
 5856SOL    HW218468   2.255   4.819   3.901
 5857SOL     OW18469   6.837   2.799   5.446
 5857SOL    HW118470   6.800   2.857   5.374
 5857SOL    HW218471   6.935   2.784   5.429
 5858SOL     OW18472   3.686   0.691   2.557
 5858SOL    HW118473   3.733   0.775   2.584
 5858SOL    HW218474   3.602   0.680   2.610
 5859SOL     OW18475   6.346   6.054   1.240
 5859SOL    HW118476   6.353   6.113   1.159
 5859SOL    HW218477   6.438   6.032   1.272
 5860SOL     OW18478   1.825   3.818   1.229
 5860SOL    HW118479   1.843   3.901   1.283
 5860SOL    HW218480   1.910   3.787   1.187
 5861SOL     OW18481   6.091   2.321   4.053
 5861SOL    HW118482   6.026   2.392   4.080
 5861SOL    HW218483   6.104   2.257   4.129
 5862SOL     OW18484   4.937   4.303   2.790
 5862SOL    HW118485   4.989   4.385   2.814
 5862SOL    HW218486   4.997   4.237   2.745
 5863SOL     OW18487   2.153   1.306   0.060
 5863SOL    HW118488   2.071   1.262   0.024
 5863SOL    HW218489   2.234   1.254   0.030
 5864SOL     OW18490   4.801   4.998   0.800
 5864SOL    HW118491   4.739   5.073   0.777
 5864SOL    HW218492   4.803   4.985   0.899
 5865SOL     OW18493   3.949   0.710   2.933
 5865SOL    HW118494   4.020   0.765   2.888
 5865SOL    HW218495   3.897   0.659   2.864
 5866SOL     OW18496   3.903   0.350   6.772
 5866SOL    HW118497   3.972   0.405   6.725
 5866SOL    HW218498   3.856   0.292   6.706
 5867SOL     OW18499   0.100   2.526   1.083
 5867SOL    HW118500   0.172   2.511   1.151
 5867SOL    HW218501   0.043   2.444   1.077
 5868SOL     OW18502   1.579   6.941   5.195
 5868SOL    HW118503   1.675   6.951   5.172
 5868SOL    HW218504   1.557   6.844   5.208
 5869SOL     OW18505   2.703   4.678   3.626
 5869SOL    HW118506   2.667   4.665   3.534
 5869SOL    HW218507   2.650   4.624   3.691
 5870SOL     OW18508   5.517   4.833   4.867
 5870SOL    HW118509   5.457   4.899   4.823
 5870SOL    HW218510   5.552   4.769   4.799
 5871SOL     OW18511   3.108   2.948   6.783
 5871SOL    HW118512   3.133   2.971   6.877
 5871SOL    HW218513   3.045   3.017   6.748
 5872SOL     OW18514   3.788   5.800   4.707
 5872SOL    HW118515   3.745   5.714   4.734
 5872SOL    HW218516   3.726   5.876   4.725
 5873SOL     OW18517   2.714   3.558   0.342
 5873SOL    HW118518   2.782   3.592   0.278
 5873SOL    HW218519   2.714   3.616   0.424
 5874SOL     OW18520   1.790   4.207   0.794
 5874SOL    HW118521   1.861   4.183   0.727
 5874SOL    HW218522   1.760   4.124   0.841
 5875SOL     OW18523   4.191   2.014   0.226
 5875SOL    HW118524   4.249   1.934   0.212
 5875SOL    HW218525   4.155   2.013   0.319
 5876SOL     OW18526   3.582   4.603   5.981
 5876SOL    HW118527   3.661   4.644   6.026
 5876SOL    HW218528   3.525   4.674   5.942
 5877SOL     OW18529   6.729   6.991   2.830
 5877SOL    HW118530   6.638   7.017   2.800
 5877SOL    HW218531   6.726   6.964   2.926
 5878SOL     OW18532   4.880   4.592   2.175
 5878SOL    HW118533   4.894   4.587   2.274
 5878SOL    HW218534   4.949   4.536   2.128
 5879SOL     OW18535   3.802   3.369   5.721
 5879SOL    HW118536   3.802   3.322   5.809
 5879SOL    HW218537   3.856   3.317   5.655
 5880SOL     OW18538   5.677   2.500   5.857
 5880SOL    HW118539   5.740   2.574   5.882
 5880SOL    HW218540   5.696   2.420   5.914
 5881SOL     OW18541   1.414   6.030   2.365
 5881SOL    HW118542   1.467   5.989   2.439
 5881SOL    HW218543   1.382   6.120   2.393
 5882SOL     OW18544   1.476   4.976   5.299
 5882SOL    HW118545   1.576   4.968   5.296
 5882SOL    HW218546   1.436   4.886   5.316
 5883SOL     OW18547   6.555   5.000   0.199
 5883SOL    HW118548   6.530   5.078   0.142
 5883SOL    HW218549   6.578   5.031   0.291
 5884SOL     OW18550   6.213   2.185   2.948
 5884SOL    HW118551   6.214   2.121   3.024
 5884SOL    HW218552   6.228   2.278   2.982
 5885SOL     OW18553   6.350   5.568   0.530
 5885SOL    HW118554   6.265   5.537   0.488
 5885SOL    HW218555   6.330   5.609   0.619
 5886SOL     OW18556   2.127   4.415   3.454
 5886SOL    HW118557   2.075   4.430   3.538
 5886SOL    HW218558   2.211   4.470   3.456
 5887SOL     OW18559   2.632   2.761   1.005
 5887SOL    HW118560   2.674   2.848   1.028
 5887SOL    HW218561   2.676   2.688   1.056
 5888SOL     OW18562   3.205   6.573   1.171
 5888SOL    HW118563   3.221   6.671   1.188
 5888SOL    HW218564   3.148   6.536   1.243
 5889SOL     OW18565   6.112   1.570   1.860
 5889SOL    HW118566   6.188   1.616   1.906
 5889SOL    HW218567   6.034   1.563   1.923
 5890SOL     OW18568   1.342   5.622   2.477
 5890SOL    HW118569   1.427   5.599   2.429
 5890SOL    HW218570   1.333   5.566   2.559
 5891SOL     OW18571   2.302   3.602   0.088
 5891SOL    HW118572   2.344   3.535   0.150
 5891SOL    HW218573   2.206   3.580   0.075
 5892SOL     OW18574   1.240   2.787   0.335
 5892SOL    HW118575   1.189   2.871   0.353
 5892SOL    HW218576   1.183   2.708   0.359
 5893SOL     OW18577   1.065   6.694   0.984
 5893SOL    HW118578   1.049   6.674   1.081
 5893SOL    HW218579   1.111   6.616   0.941
 5894SOL     OW18580   2.176   5.425   6.637
 5894SOL    HW118581   2.166   5.524   6.640
 5894SOL    HW218582   2.267   5.402   6.604
 5895SOL     OW18583   5.130   3.775   3.732
 5895SOL    HW118584   5.103   3.727   3.815
 5895SOL    HW218585   5.098   3.724   3.652
 5896SOL     OW18586   5.770   2.621   2.503
 5896SOL    HW118587   5.745   2.650   2.595
 5896SOL    HW218588   5.867   2.638   2.487
 5897SOL     OW18589   3.914   2.203   0.580
 5897SOL    HW118590   3.927   2.113   0.537
 5897SOL    HW218591   3.922   2.194   0.679
 5898SOL     OW18592   2.025   1.407   6.423
 5898SOL    HW118593   1.988   1.445   6.338
 5898SOL    HW218594   2.096   1.340   6.401
 5899SOL     OW18595   0.344   6.449   6.770
 5899SOL    HW118596   0.361   6.522   6.836
 5899SOL    HW218597   0.370   6.361   6.811
 5900SOL     OW18598   5.916   6.662   3.279
 5900SOL    HW118599   5.899   6.630   3.372
 5900SOL    HW218600   5.985   6.604   3.236
 5901SOL     OW18601   2.391   0.767   5.127
 5901SOL    HW118602   2.454   0.715   5.069
 5901SOL    HW218603   2.307   0.786   5.075
 5902SOL     OW18604   4.528   3.814   6.057
 5902SOL    HW118605   4.456   3.777   5.999
 5902SOL    HW218606   4.556   3.904   6.023
 5903SOL     OW18607   6.111   1.723   5.308
 5903SOL    HW118608   6.164   1.655   5.256
 5903SOL    HW218609   6.039   1.760   5.249
 5904SOL     OW18610   1.018   4.637   1.422
 5904SOL    HW118611   1.078   4.682   1.356
 5904SOL    HW218612   1.025   4.538   1.412
 5905SOL     OW18613   5.805   1.553   4.373
 5905SOL    HW118614   5.720   1.502   4.366
 5905SOL    HW218615   5.862   1.514   4.444
 5906SOL     OW18616   4.696   1.007   5.664
 5906SOL    HW118617   4.675   1.068   5.588
 5906SOL    HW218618   4.787   1.027   5.699
 5907SOL     OW18619   1.459   3.807   5.354
 5907SOL    HW118620   1.515   3.724   5.356
 5907SOL    HW218621   1.423   3.821   5.262
 5908SOL     OW18622   5.017   3.577   6.461
 5908SOL    HW118623   4.933   3.544   6.418
 5908SOL    HW218624   5.080   3.500   6.475
 5909SOL     OW18625   6.682   4.637   3.732
 5909SOL    HW118626   6.604   4.699   3.726
 5909SOL    HW218627   6.732   4.637   3.646
 5910SOL     OW18628   3.066   4.777   0.760
 5910SOL    HW118629   3.103   4.870   0.758
 5910SOL    HW218630   2.976   4.777   0.804
 5911SOL     OW18631   5.728   6.560   0.225
 5911SOL    HW118632   5.713   6.494   0.298
 5911SOL    HW218633   5.648   6.620   0.217
 5912SOL     OW18634   0.122   3.016   5.595
 5912SOL    HW118635   0.082   3.094   5.549
 5912SOL    HW218636   0.203   3.045   5.646
 5913SOL     OW18637   1.018   2.254   5.279
 5913SOL    HW118638   1.100   2.255   5.337
 5913SOL    HW218639   0.964   2.173   5.300
 5914SOL     OW18640   2.056   5.707   0.948
 5914SOL    HW118641   2.058   5.607   0.935
 5914SOL    HW218642   2.049   5.727   1.046
 5915SOL     OW18643   5.082   3.103   3.809
 5915SOL    HW118644   5.047   3.082   3.718
 5915SOL    HW218645   5.006   3.119   3.871
 5916SOL     OW18646   3.129   0.191   6.142
 5916SOL    HW118647   3.066   0.268   6.130
 5916SOL    HW218648   3.140   0.171   6.239
 5917SOL     OW18649   4.118   3.587   2.542
 5917SOL    HW118650   4.157   3.670   2.502
 5917SOL    HW218651   4.095   3.604   2.638
 5918SOL     OW18652   2.382   2.728   3.718
 5918SOL    HW118653   2.415   2.728   3.624
 5918SOL    HW218654   2.417   2.647   3.766
 5919SOL     OW18655   1.258   2.785   0.076
 5919SOL    HW118656   1.193   2.849   0.035
 5919SOL    HW218657   1.242   2.780   0.175
 5920SOL     OW18658   2.990   5.427   6.895
 5920SOL    HW118659   2.956   5.338   6.926
 5920SOL    HW218660   2.925   5.499   6.921
 5921SOL     OW18661   3.688   5.367   5.487
 5921SOL    HW118662   3.686   5.365   5.587
 5921SOL    HW218663   3.691   5.463   5.457
 5922SOL     OW18664   5.819   4.236   1.749
 5922SOL    HW118665   5.843   4.180   1.670
 5922SOL    HW218666   5.735   4.286   1.729
 5923SOL     OW18667   0.011   0.168   3.334
 5923SOL    HW118668   0.008   0.253   3.281
 5923SOL    HW218669   0.019   0.090   3.272
 5924SOL     OW18670   5.159   2.212   4.652
 5924SOL    HW118671   5.238   2.237   4.707
 5924SOL    HW218672   5.085   2.278   4.668
 5925SOL     OW18673   6.493   5.887   0.986
 5925SOL    HW118674   6.440   5.827   0.925
 5925SOL    HW218675   6.480   5.982   0.957
 5926SOL     OW18676   3.679   4.901   2.131
 5926SOL    HW118677   3.622   4.983   2.128
 5926SOL    HW218678   3.651   4.839   2.058
 5927SOL     OW18679   2.282   5.429   2.257
 5927SOL    HW118680   2.200   5.476   2.225
 5927SOL    HW218681   2.315   5.367   2.186
 5928SOL     OW18682   1.124   6.394   1.873
 5928SOL    HW118683   1.119   6.365   1.969
 5928SOL    HW218684   1.119   6.494   1.868
 5929SOL     OW18685   1.376   0.077   5.467
 5929SOL    HW118686   1.370   0.062   5.368
 5929SOL    HW218687   1.354   7.011   5.515
 5930SOL     OW18688   0.059   1.241   5.293
 5930SOL    HW118689   0.014   1.328   5.272
 5930SOL    HW218690   7.010   1.167   5.294
 5931SOL     OW18691   5.644   5.325   1.545
 5931SOL    HW118692   5.602   5.322   1.636
 5931SOL    HW218693   5.743   5.327   1.555
 5932SOL     OW18694   2.179   6.862   0.054
 5932SOL    HW118695   2.091   6.878   0.098
 5932SOL    HW218696   2.241   6.817   0.118
 5933SOL     OW18697   6.014   3.455   2.865
 5933SOL    HW118698   6.095   3.438   2.808
 5933SOL    HW218699   6.034   3.429   2.959
 5934SOL     OW18700   3.450   4.168   2.991
 5934SOL    HW118701   3.527   4.173   2.928
 5934SOL    HW218702   3.368   4.137   2.941
 5935SOL     OW18703   4.028   3.224   3.089
 5935SOL    HW118704   3.988   3.184   3.006
 5935SOL    HW218705   4.127   3.212   3.087
 5936SOL     OW18706   5.713   5.989   5.932
 5936SOL    HW118707   5.653   6.034   5.997
 5936SOL    HW218708   5.785   6.052   5.903
 5937SOL     OW18709   0.920   3.860   0.461
 5937SOL    HW118710   0.926   3.869   0.361
 5937SOL    HW218711   0.866   3.935   0.498
 5938SOL     OW18712   1.869   4.412   1.239
 5938SOL    HW118713   1.961   4.448   1.251
 5938SOL    HW218714   1.808   4.454   1.307
 5939SOL     OW18715   2.372   0.861   2.889
 5939SOL    HW118716   2.355   0.959   2.878
 5939SOL    HW218717   2.460   0.847   2.934
 5940SOL     OW18718   4.384   5.074   3.586
 5940SOL    HW118719   4.351   5.029   3.503
 5940SOL    HW218720   4.455   5.140   3.562
 5941SOL     OW18721   6.369   4.350   2.587
 5941SOL    HW118722   6.345   4.342   2.490
 5941SOL    HW218723   6.307   4.414   2.632
 5942SOL     OW18724   5.682   1.838   5.457
 5942SOL    HW118725   5.618   1.879   5.523
 5942SOL    HW218726   5.775   1.868   5.479
 5943SOL     OW18727   1.174   5.092   0.117
 5943SOL    HW118728   1.219   5.164   0.064
 5943SOL    HW218729   1.077   5.088   0.093
 5944SOL     OW18730   4.643   1.952   2.700
 5944SOL    HW118731   4.623   1.917   2.792
 5944SOL    HW218732   4.576   2.022   2.676
 5945SOL     OW18733   0.216   5.120   5.672
 5945SOL    HW118734   0.264   5.109   5.759
 5945SOL    HW218735   0.255   5.197   5.622
 5946SOL     OW18736   3.881   2.774   5.298
 5946SOL    HW118737   3.802   2.713   5.286
 5946SOL    HW218738   3.965   2.724   5.276
 5947SOL     OW18739   4.346   3.619   1.655
 5947SOL    HW118740   4.301   3.674   1.725
 5947SOL    HW218741   4.304   3.636   1.566
 5948SOL     OW18742   3.801   5.169   2.981
 5948SOL    HW118743   3.767   5.181   3.074
 5948SOL    HW218744   3.781   5.076   2.950
 5949SOL     OW18745   4.451   4.742   2.146
 5949SOL    HW118746   4.476   4.708   2.237
 5949SOL    HW218747   4.529   4.735   2.085
 5950SOL     OW18748   6.282   2.585   3.531
 5950SOL    HW118749   6.374   2.624   3.537
 5950SOL    HW218750   6.282   2.494   3.573
 5951SOL     OW18751   2.112   6.238   3.432
 5951SOL    HW118752   2.063   6.214   3.516
 5951SOL    HW218753   2.098   6.335   3.412
 5952SOL     OW18754   6.945   6.880   5.050
 5952SOL    HW118755   0.015   6.910   5.013
 5952SOL    HW218756   6.908   6.807   4.992
 5953SOL     OW18757   0.142   3.295   6.353
 5953SOL    HW118758   0.086   3.325   6.430
 5953SOL    HW218759   0.223   3.355   6.345
 5954SOL     OW18760   1.501   4.844   6.795
 5954SOL    HW118761   1.438   4.769   6.815
 5954SOL    HW218762   1.486   4.918   6.861
 5955SOL     OW18763   5.320   5.776   2.712
 5955SOL    HW118764   5.372   5.691   2.718
 5955SOL    HW218765   5.235   5.760   2.662
 5956SOL     OW18766   5.894   2.627   6.838
 5956SOL    HW118767   5.901   2.657   6.933
 5956SOL    HW218768   5.980   2.584   6.810
 5957SOL     OW18769   4.653   6.616   5.632
 5957SOL    HW118770   4.626   6.676   5.557
 5957SOL    HW218771   4.578   6.552   5.652
 5958SOL     OW18772   1.122   5.965   2.358
 5958SOL    HW118773   1.055   5.894   2.379
 5958SOL    HW218774   1.214   5.928   2.368
 5959SOL     OW18775   1.877   1.378   6.635
 5959SOL    HW118776   1.919   1.371   6.545
 5959SOL    HW218777   1.834   1.290   6.659
 5960SOL     OW18778   3.604   0.431   4.587
 5960SOL    HW118779   3.662   0.399   4.661
 5960SOL    HW218780   3.660   0.474   4.516
 5961SOL     OW18781   2.994   1.178   5.973
 5961SOL    HW118782   2.942   1.177   6.059
 5961SOL    HW218783   3.084   1.217   5.989
 5962SOL     OW18784   5.224   5.436   2.633
 5962SOL    HW118785   5.314   5.472   2.661
 5962SOL    HW218786   5.236   5.350   2.584
 5963SOL     OW18787   4.060   3.950   2.018
 5963SOL    HW118788   4.044   3.888   2.095
 5963SOL    HW218789   4.025   4.041   2.040
 5964SOL     OW18790   1.150   4.220   5.872
 5964SOL    HW118791   1.228   4.236   5.810
 5964SOL    HW218792   1.079   4.288   5.854
 5965SOL     OW18793   2.331   1.736   4.297
 5965SOL    HW118794   2.423   1.728   4.257
 5965SOL    HW218795   2.324   1.675   4.376
 5966SOL     OW18796   1.669   6.866   3.919
 5966SOL    HW118797   1.587   6.922   3.931
 5966SOL    HW218798   1.645   6.786   3.864
 5967SOL     OW18799   4.689   6.793   2.104
 5967SOL    HW118800   4.773   6.778   2.051
 5967SOL    HW218801   4.686   6.887   2.136
 5968SOL     OW18802   0.401   2.037   4.183
 5968SOL    HW118803   0.308   2.050   4.219
 5968SOL    HW218804   0.400   1.965   4.114
 5969SOL     OW18805   5.700   2.710   2.762
 5969SOL    HW118806   5.656   2.695   2.850
 5969SOL    HW218807   5.751   2.796   2.763
 5970SOL     OW18808   1.976   2.751   3.851
 5970SOL    HW118809   1.914   2.773   3.926
 5970SOL    HW218810   2.065   2.794   3.868
 5971SOL     OW18811   2.476   6.807   2.666
 5971SOL    HW118812   2.401   6.853   2.714
 5971SOL    HW218813   2.439   6.750   2.593
 5972SOL     OW18814   4.516   6.601   1.278
 5972SOL    HW118815   4.597   6.543   1.270
 5972SOL    HW218816   4.440   6.549   1.317
 5973SOL     OW18817   0.969   4.734   3.753
 5973SOL    HW118818   0.972   4.638   3.727
 5973SOL    HW218819   0.937   4.742   3.848
 5974SOL     OW18820   1.165   3.872   6.355
 5974SOL    HW118821   1.174   3.938   6.280
 5974SOL    HW218822   1.072   3.876   6.392
 5975SOL     OW18823   1.641   3.100   0.042
 5975SOL    HW118824   1.646   3.198   0.064
 5975SOL    HW218825   1.676   3.085   6.968
 5976SOL     OW18826   3.277   3.885   5.006
 5976SOL    HW118827   3.201   3.950   5.008
 5976SOL    HW218828   3.258   3.814   4.938
 5977SOL     OW18829   1.096   3.390   3.259
 5977SOL    HW118830   1.001   3.382   3.289
 5977SOL    HW218831   1.114   3.323   3.187
 5978SOL     OW18832   5.485   5.573   3.000
 5978SOL    HW118833   5.401   5.560   3.053
 5978SOL    HW218834   5.562   5.588   3.062
 5979SOL     OW18835   0.610   0.850   2.746
 5979SOL    HW118836   0.591   0.778   2.812
 5979SOL    HW218837   0.562   0.934   2.774
 5980SOL     OW18838   6.327   3.763   6.072
 5980SOL    HW118839   6.406   3.818   6.100
 5980SOL    HW218840   6.255   3.771   6.141
 5981SOL     OW18841   3.767   1.536   1.349
 5981SOL    HW118842   3.736   1.514   1.441
 5981SOL    HW218843   3.833   1.467   1.318
 5982SOL     OW18844   5.878   2.871   6.725
 5982SOL    HW118845   5.922   2.867   6.635
 5982SOL    HW218846   5.876   2.779   6.765
 5983SOL     OW18847   1.192   1.476   4.936
 5983SOL    HW118848   1.254   1.530   4.879
 5983SOL    HW218849   1.116   1.443   4.881
 5984SOL     OW18850   0.355   0.262   5.282
 5984SOL    HW118851   0.278   0.198   5.281
 5984SOL    HW218852   0.357   0.310   5.369
 5985SOL     OW18853   4.866   3.058   4.394
 5985SOL    HW118854   4.955   3.104   4.403
 5985SOL    HW218855   4.828   3.042   4.484
 5986SOL     OW18856   3.721   3.163   2.301
 5986SOL    HW118857   3.748   3.215   2.220
 5986SOL    HW218858   3.657   3.217   2.356
 5987SOL     OW18859   4.212   0.061   5.266
 5987SOL    HW118860   4.128   0.030   5.221
 5987SOL    HW218861   4.260   7.001   5.305
 5988SOL     OW18862   4.249   0.630   4.036
 5988SOL    HW118863   4.275   0.686   4.114
 5988SOL    HW218864   4.236   0.689   3.956
 5989SOL     OW18865   2.712   0.753   6.499
 5989SOL    HW118866   2.759   0.756   6.587
 5989SOL    HW218867   2.769   0.795   6.429
 5990SOL     OW18868   3.110   4.780   1.964
 5990SOL    HW118869   3.194   4.779   1.910
 5990SOL    HW218870   3.031   4.775   1.903
 5991SOL     OW18871   3.102   5.235   3.903
 5991SOL    HW118872   3.117   5.270   3.811
 5991SOL    HW218873   3.080   5.137   3.898
 5992SOL     OW18874   4.687   0.955   4.221
 5992SOL    HW118875   4.694   0.961   4.321
 5992SOL    HW218876   4.615   1.016   4.189
 5993SOL     OW18877   3.608   5.464   4.404
 5993SOL    HW118878   3.682   5.525   4.430
 5993SOL    HW218879   3.599   5.462   4.305
 5994SOL     OW18880   6.899   2.674   1.795
 5994SOL    HW118881   6.982   2.639   1.838
 5994SOL    HW218882   6.900   2.651   1.698
 5995SOL     OW18883   0.404   4.567   1.107
 5995SOL    HW118884   0.305   4.557   1.110
 5995SOL    HW218885   0.432   4.648   1.158
 5996SOL     OW18886   0.576   5.109   6.229
 5996SOL    HW118887   0.640   5.109   6.306
 5996SOL    HW218888   0.623   5.079   6.146
 5997SOL     OW18889   0.914   0.221   1.912
 5997SOL    HW118890   0.826   0.179   1.933
 5997SOL    HW218891   0.984   0.182   1.971
 5998SOL     OW18892   4.391   1.991   3.665
 5998SOL    HW118893   4.367   2.082   3.633
 5998SOL    HW218894   4.431   1.939   3.590
 5999SOL     OW18895   1.897   1.692   2.848
 5999SOL    HW118896   1.945   1.654   2.769
 5999SOL    HW218897   1.810   1.732   2.818
 6000SOL     OW18898   4.506   6.260   2.993
 6000SOL    HW118899   4.470   6.349   2.965
 6000SOL    HW218900   4.508   6.198   2.915
 6001SOL     OW18901   6.196   2.083   6.795
 6001SOL    HW118902   6.149   2.090   6.883
 6001SOL    HW218903   6.138   2.120   6.722
 6002SOL     OW18904   1.829   6.981   2.043
 6002SOL    HW118905   1.735   7.008   2.023
 6002SOL    HW218906   1.847   6.891   2.004
 6003SOL     OW18907   4.592   4.350   3.679
 6003SOL    HW118908   4.547   4.374   3.593
 6003SOL    HW218909   4.661   4.279   3.662
 6004SOL     OW18910   0.048   3.938   1.435
 6004SOL    HW118911   7.001   4.013   1.424
 6004SOL    HW218912   0.127   3.970   1.488
 6005SOL     OW18913   2.777   6.057   2.474
 6005SOL    HW118914   2.703   5.999   2.441
 6005SOL    HW218915   2.819   6.014   2.554
 6006SOL     OW18916   2.274   5.819   6.893
 6006SOL    HW118917   2.242   5.910   6.919
 6006SOL    HW218918   2.372   5.822   6.874
 6007SOL     OW18919   5.564   2.023   3.914
 6007SOL    HW118920   5.615   1.938   3.909
 6007SOL    HW218921   5.496   2.025   3.839
 6008SOL     OW18922   3.987   4.864   6.936
 6008SOL    HW118923   3.902   4.827   6.973
 6008SOL    HW218924   4.008   4.818   6.849
 6009SOL     OW18925   3.283   1.594   4.141
 6009SOL    HW118926   3.301   1.693   4.147
 6009SOL    HW218927   3.199   1.572   4.191
 6010SOL     OW18928   1.949   2.755   3.435
 6010SOL    HW118929   1.922   2.695   3.511
 6010SOL    HW218930   2.013   2.823   3.469
 6011SOL     OW18931   6.899   3.173   2.310
 6011SOL    HW118932   6.887   3.254   2.367
 6011SOL    HW218933   6.922   3.200   2.217
 6012SOL     OW18934   6.718   3.385   0.839
 6012SOL    HW118935   6.701   3.476   0.877
 6012SOL    HW218936   6.812   3.379   0.806
 6013SOL     OW18937   5.841   1.025   2.531
 6013SOL    HW118938   5.886   0.961   2.594
 6013SOL    HW218939   5.744   1.001   2.522
 6014SOL     OW18940   5.466   0.267   1.320
 6014SOL    HW118941   5.527   0.336   1.281
 6014SOL    HW218942   5.373   0.303   1.327
 6015SOL     OW18943   4.984   1.692   4.802
 6015SOL    HW118944   4.906   1.695   4.865
 6015SOL    HW218945   5.030   1.781   4.802
 6016SOL     OW18946   1.981   0.116   5.202
 6016SOL    HW118947   1.909   0.156   5.259
 6016SOL    HW218948   2.032   0.190   5.157
 6017SOL     OW18949   6.850   4.040   2.506
 6017SOL    HW118950   6.805   4.065   2.592
 6017SOL    HW218951   6.847   4.119   2.444
 6018SOL     OW18952   2.560   5.003   1.005
 6018SOL    HW118953   2.645   5.043   0.971
 6018SOL    HW218954   2.581   4.916   1.050
 6019SOL     OW18955   5.320   6.853   4.072
 6019SOL    HW118956   5.291   6.861   3.976
 6019SOL    HW218957   5.372   6.935   4.097
 6020SOL     OW18958   3.504   0.514   2.732
 6020SOL    HW118959   3.524   0.570   2.812
 6020SOL    HW218960   3.496   0.418   2.759
 6021SOL     OW18961   4.107   0.504   2.721
 6021SOL    HW118962   4.011   0.504   2.696
 6021SOL    HW218963   4.121   0.442   2.799
 6022SOL     OW18964   4.062   1.541   5.606
 6022SOL    HW118965   4.156   1.520   5.578
 6022SOL    HW218966   4.028   1.469   5.666
 6023SOL     OW18967   6.742   1.982   2.574
 6023SOL    HW118968   6.657   1.932   2.555
 6023SOL    HW218969   6.776   1.956   2.665
 6024SOL     OW18970   0.683   4.779   2.124
 6024SOL    HW118971   0.625   4.757   2.203
 6024SOL    HW218972   0.628   4.829   2.056
 6025SOL     OW18973   4.031   2.053   2.055
 6025SOL    HW118974   4.035   2.081   2.151
 6025SOL    HW218975   4.083   1.969   2.042
 6026SOL     OW18976   0.978   4.393   5.287
 6026SOL    HW118977   0.910   4.466   5.295
 6026SOL    HW218978   1.070   4.432   5.292
 6027SOL     OW18979   3.147   3.409   1.238
 6027SOL    HW118980   3.078   3.469   1.280
 6027SOL    HW218981   3.170   3.445   1.147
 6028SOL     OW18982   1.601   3.889   6.868
 6028SOL    HW118983   1.605   3.939   6.954
 6028SOL    HW218984   1.511   3.901   6.826
 6029SOL     OW18985   1.386   5.106   1.201
 6029SOL    HW118986   1.460   5.151   1.151
 6029SOL    HW218987   1.299   5.122   1.154
 6030SOL     OW18988   1.889   6.811   0.939
 6030SOL    HW118989   1.965   6.802   1.003
 6030SOL    HW218990   1.847   6.901   0.949
 6031SOL     OW18991   5.612   0.326   5.134
 6031SOL    HW118992   5.632   0.298   5.040
 6031SOL    HW218993   5.534   0.389   5.133
 6032SOL     OW18994   0.428   3.807   2.818
 6032SOL    HW118995   0.497   3.876   2.797
 6032SOL    HW218996   0.402   3.759   2.735
 6033SOL     OW18997   1.032   0.391   4.434
 6033SOL    HW118998   1.006   0.481   4.470
 6033SOL    HW218999   1.072   0.403   4.343
 6034SOL     OW19000   2.113   3.983   4.798
 6034SOL    HW119001   2.186   3.980   4.868
 6034SOL    HW219002   2.154   3.976   4.707
 6035SOL     OW19003   5.749   0.646   3.915
 6035SOL    HW119004   5.714   0.629   3.823
 6035SOL    HW219005   5.837   0.695   3.909
 6036SOL     OW19006   0.450   0.929   4.153
 6036SOL    HW119007   0.526   0.874   4.187
 6036SOL    HW219008   0.447   1.016   4.203
 6037SOL     OW19009   6.502   5.166   4.984
 6037SOL    HW119010   6.510   5.102   4.907
 6037SOL    HW219011   6.437   5.238   4.960
 6038SOL     OW19012   5.103   4.092   6.377
 6038SOL    HW119013   5.148   4.050   6.456
 6038SOL    HW219014   5.161   4.081   6.296
 6039SOL     OW19015   3.406   3.489   3.550
 6039SOL    HW119016   3.391   3.584   3.578
 6039SOL    HW219017   3.414   3.485   3.450
 6040SOL     OW19018   1.037   1.725   0.283
 6040SOL    HW119019   1.112   1.791   0.285
 6040SOL    HW219020   0.962   1.757   0.341
 6041SOL     OW19021   0.712   2.852   0.272
 6041SOL    HW119022   0.796   2.897   0.241
 6041SOL    HW219023   0.707   2.855   0.372
 6042SOL     OW19024   5.762   4.845   4.681
 6042SOL    HW119025   5.814   4.922   4.645
 6042SOL    HW219026   5.811   4.760   4.664
 6043SOL     OW19027   0.378   4.950   4.015
 6043SOL    HW119028   0.379   4.850   4.009
 6043SOL    HW219029   0.467   4.985   3.986
 6044SOL     OW19030   1.018   0.734   1.348
 6044SOL    HW119031   1.001   0.756   1.444
 6044SOL    HW219032   1.069   0.648   1.342
 6045SOL     OW19033   0.314   3.921   1.123
 6045SOL    HW119034   0.391   3.897   1.064
 6045SOL    HW219035   0.234   3.942   1.066
 6046SOL     OW19036   3.121   2.668   0.299
 6046SOL    HW119037   3.053   2.741   0.287
 6046SOL    HW219038   3.097   2.613   0.379
 6047SOL     OW19039   0.275   6.409   5.037
 6047SOL    HW119040   0.353   6.460   5.074
 6047SOL    HW219041   0.273   6.317   5.078
 6048SOL     OW19042   5.173   6.071   4.880
 6048SOL    HW119043   5.188   6.056   4.783
 6048SOL    HW219044   5.183   5.984   4.929
 6049SOL     OW19045   6.037   5.419   1.492
 6049SOL    HW119046   6.000   5.341   1.542
 6049SOL    HW219047   5.987   5.502   1.518
 6050SOL     OW19048   4.914   4.544   5.509
 6050SOL    HW119049   4.996   4.541   5.453
 6050SOL    HW219050   4.939   4.549   5.606
 6051SOL     OW19051   1.922   2.323   3.584
 6051SOL    HW119052   1.943   2.304   3.488
 6051SOL    HW219053   1.913   2.422   3.596
 6052SOL     OW19054   6.448   0.854   0.159
 6052SOL    HW119055   6.439   0.758   0.183
 6052SOL    HW219056   6.428   0.910   0.239
 6053SOL     OW19057   1.798   0.475   6.052
 6053SOL    HW119058   1.837   0.405   5.992
 6053SOL    HW219059   1.819   0.566   6.015
 6054SOL     OW19060   2.650   4.656   0.093
 6054SOL    HW119061   2.712   4.673   0.170
 6054SOL    HW219062   2.603   4.569   0.107
 6055SOL     OW19063   5.189   0.626   3.931
 6055SOL    HW119064   5.127   0.547   3.935
 6055SOL    HW219065   5.179   0.680   4.014
 6056SOL     OW19066   4.959   3.091   6.403
 6056SOL    HW119067   5.029   3.087   6.473
 6056SOL    HW219068   4.874   3.126   6.442
 6057SOL     OW19069   3.408   0.809   6.283
 6057SOL    HW119070   3.337   0.839   6.220
 6057SOL    HW219071   3.367   0.780   6.370
 6058SOL     OW19072   5.591   1.558   3.852
 6058SOL    HW119073   5.514   1.506   3.816
 6058SOL    HW219074   5.676   1.512   3.828
 6059SOL     OW19075   6.960   5.796   6.618
 6059SOL    HW119076   6.865   5.823   6.602
 6059SOL    HW219077   6.969   5.761   6.712
 6060SOL     OW19078   3.193   6.565   6.246
 6060SOL    HW119079   3.196   6.662   6.222
 6060SOL    HW219080   3.271   6.542   6.304
 6061SOL     OW19081   2.176   1.929   6.683
 6061SOL    HW119082   2.140   1.895   6.771
 6061SOL    HW219083   2.238   2.005   6.700
 6062SOL     OW19084   2.499   0.942   4.294
 6062SOL    HW119085   2.500   0.846   4.266
 6062SOL    HW219086   2.530   0.999   4.218
 6063SOL     OW19087   4.343   0.175   0.341
 6063SOL    HW119088   4.290   0.091   0.342
 6063SOL    HW219089   4.391   0.184   0.254
 6064SOL     OW19090   0.807   5.884   3.573
 6064SOL    HW119091   0.725   5.911   3.524
 6064SOL    HW219092   0.829   5.789   3.551
 6065SOL     OW19093   6.611   0.201   0.754
 6065SOL    HW119094   6.681   0.147   0.707
 6065SOL    HW219095   6.533   0.143   0.777
 6066SOL     OW19096   4.659   2.314   0.394
 6066SOL    HW119097   4.696   2.297   0.303
 6066SOL    HW219098   4.601   2.396   0.392
 6067SOL     OW19099   5.607   2.122   0.147
 6067SOL    HW119100   5.531   2.141   0.210
 6067SOL    HW219101   5.577   2.055   0.079
 6068SOL     OW19102   4.802   2.158   5.119
 6068SOL    HW119103   4.731   2.162   5.190
 6068SOL    HW219104   4.768   2.202   5.036
 6069SOL     OW19105   6.147   3.762   4.295
 6069SOL    HW119106   6.105   3.848   4.322
 6069SOL    HW219107   6.088   3.686   4.322
 6070SOL     OW19108   3.567   2.346   6.651
 6070SOL    HW119109   3.579   2.396   6.737
 6070SOL    HW219110   3.568   2.411   6.574
 6071SOL     OW19111   4.678   6.107   5.202
 6071SOL    HW119112   4.713   6.168   5.131
 6071SOL    HW219113   4.722   6.129   5.290
 6072SOL     OW19114   6.774   2.113   0.912
 6072SOL    HW119115   6.722   2.029   0.903
 6072SOL    HW219116   6.839   2.120   0.836
 6073SOL     OW19117   0.137   2.288   1.603
 6073SOL    HW119118   0.044   2.322   1.586
 6073SOL    HW219119   0.163   2.308   1.698
 6074SOL     OW19120   0.825   0.438   4.929
 6074SOL    HW119121   0.907   0.485   4.962
 6074SOL    HW219122   0.825   0.437   4.829
 6075SOL     OW19123   5.093   4.052   6.854
 6075SOL    HW119124   5.009   3.999   6.870
 6075SOL    HW219125   5.134   4.077   6.941
 6076SOL     OW19126   2.384   6.517   3.643
 6076SOL    HW119127   2.447   6.595   3.650
 6076SOL    HW219128   2.299   6.538   3.691
 6077SOL     OW19129   5.664   5.818   2.433
 6077SOL    HW119130   5.728   5.860   2.368
 6077SOL    HW219131   5.572   5.850   2.413
 6078SOL     OW19132   2.497   4.808   3.148
 6078SOL    HW119133   2.403   4.774   3.155
 6078SOL    HW219134   2.508   4.858   3.062
 6079SOL     OW19135   1.829   1.349   0.210
 6079SOL    HW119136   1.891   1.280   0.247
 6079SOL    HW219137   1.865   1.383   0.123
 6080SOL     OW19138   6.041   2.122   2.752
 6080SOL    HW119139   6.090   2.162   2.829
 6080SOL    HW219140   5.944   2.111   2.776
 6081SOL     OW19141   0.541   4.333   2.954
 6081SOL    HW119142   0.510   4.365   2.865
 6081SOL    HW219143   0.584   4.243   2.945
 6082SOL     OW19144   3.912   1.600   4.697
 6082SOL    HW119145   3.929   1.584   4.600
 6082SOL    HW219146   3.994   1.640   4.739
 6083SOL     OW19147   1.776   6.620   0.190
 6083SOL    HW119148   1.811   6.570   0.269
 6083SOL    HW219149   1.677   6.633   0.198
 6084SOL     OW19150   0.366   4.952   6.135
 6084SOL    HW119151   0.413   4.865   6.148
 6084SOL    HW219152   0.414   5.024   6.187
 6085SOL     OW19153   4.865   4.225   1.372
 6085SOL    HW119154   4.790   4.233   1.437
 6085SOL    HW219155   4.852   4.144   1.315
 6086SOL     OW19156   2.610   1.845   3.167
 6086SOL    HW119157   2.569   1.914   3.108
 6086SOL    HW219158   2.709   1.842   3.151
 6087SOL     OW19159   4.752   6.771   0.203
 6087SOL    HW119160   4.710   6.834   0.136
 6087SOL    HW219161   4.813   6.708   0.155
 6088SOL     OW19162   0.079   0.245   5.071
 6088SOL    HW119163   7.017   0.276   5.021
 6088SOL    HW219164   0.074   0.278   5.166
 6089SOL     OW19165   6.754   3.235   0.140
 6089SOL    HW119166   6.671   3.284   0.170
 6089SOL    HW219167   6.738   3.136   0.145
 6090SOL     OW19168   0.272   5.973   3.948
 6090SOL    HW119169   0.184   5.934   3.975
 6090SOL    HW219170   0.346   5.914   3.980
 6091SOL     OW19171   5.715   1.981   1.777
 6091SOL    HW119172   5.715   1.882   1.790
 6091SOL    HW219173   5.802   2.019   1.808
 6092SOL     OW19174   1.620   2.771   0.984
 6092SOL    HW119175   1.659   2.689   1.026
 6092SOL    HW219176   1.524   2.778   1.010
 6093SOL     OW19177   1.027   3.314   0.837
 6093SOL    HW119178   0.986   3.383   0.777
 6093SOL    HW219179   1.121   3.338   0.858
 6094SOL     OW19180   0.785   0.585   0.979
 6094SOL    HW119181   0.777   0.622   0.886
 6094SOL    HW219182   0.873   0.611   1.018
 6095SOL     OW19183   0.029   4.153   5.277
 6095SOL    HW119184   6.978   4.225   5.280
 6095SOL    HW219185   7.018   4.076   5.334
 6096SOL     OW19186   3.578   1.828   2.630
 6096SOL    HW119187   3.512   1.754   2.615
 6096SOL    HW219188   3.647   1.826   2.558
 6097SOL     OW19189   3.036   1.815   1.965
 6097SOL    HW119190   3.053   1.835   1.868
 6097SOL    HW219191   2.970   1.881   2.001
 6098SOL     OW19192   1.567   1.499   5.927
 6098SOL    HW119193   1.500   1.484   5.854
 6098SOL    HW219194   1.560   1.425   5.994
 6099SOL     OW19195   6.273   4.977   5.131
 6099SOL    HW119196   6.282   5.076   5.137
 6099SOL    HW219197   6.246   4.952   5.038
 6100SOL     OW19198   6.529   2.477   0.296
 6100SOL    HW119199   6.446   2.495   0.243
 6100SOL    HW219200   6.508   2.484   0.394
 6101SOL     OW19201   5.512   1.653   4.097
 6101SOL    HW119202   5.571   1.730   4.120
 6101SOL    HW219203   5.542   1.612   4.011
 6102SOL     OW19204   3.014   0.720   5.247
 6102SOL    HW119205   3.060   0.631   5.252
 6102SOL    HW219206   3.023   0.757   5.155
 6103SOL     OW19207   6.260   0.470   5.364
 6103SOL    HW119208   6.193   0.450   5.435
 6103SOL    HW219209   6.244   0.411   5.285
 6104SOL     OW19210   1.792   3.320   0.787
 6104SOL    HW119211   1.766   3.298   0.693
 6104SOL    HW219212   1.763   3.246   0.848
 6105SOL     OW19213   3.264   5.623   4.107
 6105SOL    HW119214   3.171   5.646   4.078
 6105SOL    HW219215   3.300   5.696   4.166
 6106SOL     OW19216   3.380   5.497   4.590
 6106SOL    HW119217   3.313   5.464   4.524
 6106SOL    HW219218   3.472   5.480   4.555
 6107SOL     OW19219   2.047   5.082   5.015
 6107SOL    HW119220   2.035   4.989   4.980
 6107SOL    HW219221   1.971   5.139   4.983
 6108SOL     OW19222   6.948   2.182   4.259
 6108SOL    HW119223   6.922   2.086   4.261
 6108SOL    HW219224   6.982   2.205   4.168
 6109SOL     OW19225   6.644   4.302   1.999
 6109SOL    HW119226   6.570   4.290   1.934
 6109SOL    HW219227   6.730   4.315   1.950
 6110SOL     OW19228   3.311   2.143   3.879
 6110SOL    HW119229   3.252   2.134   3.960
 6110SOL    HW219230   3.404   2.116   3.904
 6111SOL     OW19231   0.588   4.645   3.287
 6111SOL    HW119232   0.503   4.679   3.327
 6111SOL    HW219233   0.666   4.672   3.345
 6112SOL     OW19234   1.099   1.794   2.407
 6112SOL    HW119235   1.073   1.789   2.310
 6112SOL    HW219236   1.032   1.850   2.456
 6113SOL     OW19237   2.054   5.807   5.320
 6113SOL    HW119238   2.022   5.821   5.414
 6113SOL    HW219239   1.976   5.794   5.259
 6114SOL     OW19240   5.059   5.402   0.800
 6114SOL    HW119241   5.124   5.442   0.864
 6114SOL    HW219242   5.049   5.304   0.820
 6115SOL     OW19243   6.315   4.764   2.430
 6115SOL    HW119244   6.269   4.758   2.342
 6115SOL    HW219245   6.414   4.751   2.417
 6116SOL     OW19246   3.464   1.802   1.337
 6116SOL    HW119247   3.553   1.803   1.382
 6116SOL    HW219248   3.429   1.895   1.329
 6117SOL     OW19249   5.479   6.684   4.360
 6117SOL    HW119250   5.530   6.718   4.439
 6117SOL    HW219251   5.455   6.761   4.300
 6118SOL     OW19252   5.813   0.141   2.703
 6118SOL    HW119253   5.880   0.121   2.774
 6118SOL    HW219254   5.751   0.213   2.736
 6119SOL     OW19255   6.367   5.019   3.517
 6119SOL    HW119256   6.416   4.972   3.444
 6119SOL    HW219257   6.362   5.117   3.496
 6120SOL     OW19258   2.803   0.587   2.942
 6120SOL    HW119259   2.863   0.508   2.958
 6120SOL    HW219260   2.759   0.577   2.853
 6121SOL     OW19261   6.494   2.403   4.268
 6121SOL    HW119262   6.497   2.470   4.194
 6121SOL    HW219263   6.411   2.349   4.261
 6122SOL     OW19264   4.263   5.679   3.798
 6122SOL    HW119265   4.330   5.752   3.811
 6122SOL    HW219266   4.201   5.676   3.876
 6123SOL     OW19267   6.873   1.360   1.743
 6123SOL    HW119268   6.833   1.290   1.802
 6123SOL    HW219269   6.850   1.451   1.779
 6124SOL     OW19270   2.728   0.373   5.673
 6124SOL    HW119271   2.637   0.332   5.673
 6124SOL    HW219272   2.752   0.401   5.766
 6125SOL     OW19273   1.684   5.161   2.261
 6125SOL    HW119274   1.629   5.243   2.244
 6125SOL    HW219275   1.776   5.188   2.289
 6126SOL     OW19276   5.234   5.418   2.239
 6126SOL    HW119277   5.187   5.332   2.261
 6126SOL    HW219278   5.333   5.403   2.244
 6127SOL     OW19279   2.239   4.350   1.846
 6127SOL    HW119280   2.146   4.340   1.882
 6127SOL    HW219281   2.257   4.447   1.828
 6128SOL     OW19282   5.232   2.603   1.095
 6128SOL    HW119283   5.137   2.608   1.125
 6128SOL    HW219284   5.236   2.565   1.003
 6129SOL     OW19285   6.117   3.917   3.537
 6129SOL    HW119286   6.047   3.929   3.466
 6129SOL    HW219287   6.073   3.905   3.625
 6130SOL     OW19288   5.572   4.535   2.803
 6130SOL    HW119289   5.532   4.538   2.712
 6130SOL    HW219290   5.643   4.464   2.806
 6131SOL     OW19291   6.858   1.085   5.152
 6131SOL    HW119292   6.873   0.994   5.190
 6131SOL    HW219293   6.769   1.087   5.106
 6132SOL     OW19294   6.283   2.196   0.277
 6132SOL    HW119295   6.327   2.114   0.314
 6132SOL    HW219296   6.322   2.277   0.321
 6133SOL     OW19297   1.675   4.236   0.260
 6133SOL    HW119298   1.616   4.267   0.334
 6133SOL    HW219299   1.624   4.175   0.199
 6134SOL     OW19300   5.037   2.676   0.214
 6134SOL    HW119301   5.103   2.672   0.289
 6134SOL    HW219302   4.997   2.767   0.208
 6135SOL     OW19303   5.297   0.402   1.634
 6135SOL    HW119304   5.389   0.376   1.666
 6135SOL    HW219305   5.304   0.440   1.542
 6136SOL     OW19306   0.140   1.567   1.644
 6136SOL    HW119307   0.055   1.532   1.607
 6136SOL    HW219308   0.212   1.561   1.574
 6137SOL     OW19309   2.680   6.676   5.714
 6137SOL    HW119310   2.744   6.635   5.780
 6137SOL    HW219311   2.587   6.645   5.735
 6138SOL     OW19312   4.245   0.073   2.900
 6138SOL    HW119313   4.338   0.039   2.885
 6138SOL    HW219314   4.200   0.018   2.970
 6139SOL     OW19315   2.005   5.334   4.408
 6139SOL    HW119316   1.919   5.379   4.428
 6139SOL    HW219317   2.029   5.348   4.312
 6140SOL     OW19318   2.185   6.378   1.051
 6140SOL    HW119319   2.216   6.293   1.009
 6140SOL    HW219320   2.104   6.360   1.107
 6141SOL     OW19321   6.528   6.576   5.772
 6141SOL    HW119322   6.490   6.637   5.841
 6141SOL    HW219323   6.456   6.517   5.735
 6142SOL     OW19324   0.354   4.569   2.849
 6142SOL    HW119325   0.439   4.569   2.902
 6142SOL    HW219326   0.343   4.480   2.804
 6143SOL     OW19327   6.512   4.418   6.481
 6143SOL    HW119328   6.543   4.505   6.520
 6143SOL    HW219329   6.557   4.404   6.393
 6144SOL     OW19330   0.079   5.231   4.207
 6144SOL    HW119331   0.075   5.145   4.156
 6144SOL    HW219332   0.018   5.298   4.164
 6145SOL     OW19333   4.889   5.569   3.879
 6145SOL    HW119334   4.790   5.555   3.872
 6145SOL    HW219335   4.923   5.611   3.796
 6146SOL     OW19336   5.560   0.895   3.182
 6146SOL    HW119337   5.614   0.979   3.187
 6146SOL    HW219338   5.590   0.832   3.254
 6147SOL     OW19339   1.425   3.754   3.204
 6147SOL    HW119340   1.488   3.698   3.258
 6147SOL    HW219341   1.432   3.727   3.107
 6148SOL     OW19342   6.356   6.255   4.093
 6148SOL    HW119343   6.316   6.342   4.123
 6148SOL    HW219344   6.448   6.246   4.131
 6149SOL     OW19345   2.453   6.868   3.902
 6149SOL    HW119346   2.541   6.825   3.881
 6149SOL    HW219347   2.393   6.862   3.823
 6150SOL     OW19348   4.105   5.649   5.934
 6150SOL    HW119349   4.108   5.615   6.028
 6150SOL    HW219350   4.038   5.596   5.882
 6151SOL     OW19351   4.496   1.302   5.760
 6151SOL    HW119352   4.434   1.381   5.761
 6151SOL    HW219353   4.509   1.270   5.666
 6152SOL     OW19354   0.058   5.089   6.541
 6152SOL    HW119355   0.102   5.178   6.544
 6152SOL    HW219356   0.125   5.018   6.563
 6153SOL     OW19357   4.711   4.254   6.735
 6153SOL    HW119358   4.785   4.309   6.773
 6153SOL    HW219359   4.731   4.157   6.748
 6154SOL     OW19360   5.118   2.882   2.882
 6154SOL    HW119361   5.054   2.833   2.941
 6154SOL    HW219362   5.187   2.817   2.848
 6155SOL     OW19363   1.446   3.685   4.259
 6155SOL    HW119364   1.470   3.773   4.299
 6155SOL    HW219365   1.374   3.697   4.192
 6156SOL     OW19366   6.601   0.351   4.075
 6156SOL    HW119367   6.509   0.386   4.093
 6156SOL    HW219368   6.658   0.364   4.157
 6157SOL     OW19369   1.715   1.664   3.393
 6157SOL    HW119370   1.696   1.720   3.473
 6157SOL    HW219371   1.703   1.568   3.415
 6158SOL     OW19372   4.652   1.021   0.819
 6158SOL    HW119373   4.647   0.982   0.728
 6158SOL    HW219374   4.569   1.075   0.837
 6159SOL     OW19375   5.459   3.218   0.100
 6159SOL    HW119376   5.507   3.151   0.157
 6159SOL    HW219377   5.402   3.276   0.158
 6160SOL     OW19378   6.591   5.020   2.241
 6160SOL    HW119379   6.604   4.922   2.249
 6160SOL    HW219380   6.520   5.039   2.174
 6161SOL     OW19381   5.400   0.220   6.660
 6161SOL    HW119382   5.312   0.268   6.665
 6161SOL    HW219383   5.455   0.259   6.587
 6162SOL     OW19384   6.083   5.335   3.886
 6162SOL    HW119385   6.068   5.238   3.869
 6162SOL    HW219386   6.133   5.347   3.971
 6163SOL     OW19387   6.872   4.037   1.722
 6163SOL    HW119388   6.787   3.984   1.718
 6163SOL    HW219389   6.932   3.998   1.792
 6164SOL     OW19390   4.737   2.704   0.922
 6164SOL    HW119391   4.728   2.683   0.825
 6164SOL    HW219392   4.781   2.627   0.969
 6165SOL     OW19393   4.627   6.452   6.998
 6165SOL    HW119394   4.645   6.513   6.922
 6165SOL    HW219395   4.642   6.501   0.066
 6166SOL     OW19396   3.682   1.670   0.011
 6166SOL    HW119397   3.658   1.763   0.041
 6166SOL    HW219398   3.631   1.649   6.946
 6167SOL     OW19399   6.822   4.750   3.300
 6167SOL    HW119400   6.861   4.681   3.239
 6167SOL    HW219401   6.873   4.836   3.289
 6168SOL     OW19402   0.456   2.602   2.006
 6168SOL    HW119403   0.478   2.522   2.061
 6168SOL    HW219404   0.509   2.680   2.038
 6169SOL     OW19405   1.920   4.024   2.313
 6169SOL    HW119406   1.988   3.951   2.309
 6169SOL    HW219407   1.884   4.042   2.222
 6170SOL     OW19408   6.838   2.305   3.661
 6170SOL    HW119409   6.774   2.263   3.725
 6170SOL    HW219410   6.926   2.258   3.667
 6171SOL     OW19411   6.538   0.529   6.421
 6171SOL    HW119412   6.609   0.524   6.351
 6171SOL    HW219413   6.459   0.580   6.384
 6172SOL     OW19414   0.935   4.604   4.043
 6172SOL    HW119415   0.943   4.620   4.142
 6172SOL    HW219416   0.866   4.533   4.027
 6173SOL     OW19417   5.829   6.175   3.334
 6173SOL    HW119418   5.925   6.154   3.316
 6173SOL    HW219419   5.782   6.195   3.248
 6174SOL     OW19420   5.934   2.956   1.761
 6174SOL    HW119421   5.963   2.872   1.715
 6174SOL    HW219422   5.960   2.952   1.857
 6175SOL     OW19423   3.718   2.043   6.375
 6175SOL    HW119424   3.711   2.051   6.475
 6175SOL    HW219425   3.672   1.960   6.345
 6176SOL     OW19426   3.618   4.336   6.129
 6176SOL    HW119427   3.579   4.404   6.067
 6176SOL    HW219428   3.569   4.337   6.216
 6177SOL     OW19429   5.888   6.738   1.262
 6177SOL    HW119430   5.848   6.684   1.336
 6177SOL    HW219431   5.850   6.830   1.263
 6178SOL     OW19432   4.133   4.673   1.468
 6178SOL    HW119433   4.183   4.625   1.396
 6178SOL    HW219434   4.036   4.649   1.463
 6179SOL     OW19435   6.047   4.737   4.845
 6179SOL    HW119436   6.053   4.707   4.940
 6179SOL    HW219437   6.105   4.817   4.832
 6180SOL     OW19438   3.103   4.541   6.512
 6180SOL    HW119439   3.137   4.589   6.593
 6180SOL    HW219440   3.094   4.605   6.436
 6181SOL     OW19441   5.961   6.196   0.051
 6181SOL    HW119442   6.053   6.218   0.018
 6181SOL    HW219443   5.897   6.265   0.016
 6182SOL     OW19444   3.186   2.671   0.663
 6182SOL    HW119445   3.150   2.598   0.603
 6182SOL    HW219446   3.235   2.629   0.739
 6183SOL     OW19447   0.029   6.880   0.452
 6183SOL    HW119448   0.054   6.974   0.427
 6183SOL    HW219449   0.078   6.854   0.535
 6184SOL     OW19450   2.750   6.516   5.434
 6184SOL    HW119451   2.824   6.527   5.501
 6184SOL    HW219452   2.785   6.471   5.352
 6185SOL     OW19453   4.040   3.214   4.895
 6185SOL    HW119454   3.968   3.246   4.956
 6185SOL    HW219455   4.039   3.114   4.892
 6186SOL     OW19456   0.618   1.747   2.107
 6186SOL    HW119457   0.667   1.830   2.133
 6186SOL    HW219458   0.532   1.741   2.159
 6187SOL     OW19459   3.258   1.205   5.991
 6187SOL    HW119460   3.304   1.292   6.008
 6187SOL    HW219461   3.323   1.130   6.002
 6188SOL     OW19462   1.680   1.249   5.160
 6188SOL    HW119463   1.595   1.280   5.202
 6188SOL    HW219464   1.757   1.294   5.204
 6189SOL     OW19465   6.520   5.459   1.137
 6189SOL    HW119466   6.574   5.501   1.210
 6189SOL    HW219467   6.458   5.391   1.177
 6190SOL     OW19468   0.615   3.154   4.644
 6190SOL    HW119469   0.539   3.098   4.676
 6190SOL    HW219470   0.701   3.119   4.683
 6191SOL     OW19471   3.388   3.538   0.246
 6191SOL    HW119472   3.331   3.584   0.315
 6191SOL    HW219473   3.348   3.449   0.224
 6192SOL     OW19474   2.977   1.620   0.696
 6192SOL    HW119475   3.001   1.613   0.792
 6192SOL    HW219476   2.958   1.528   0.659
 6193SOL     OW19477   4.065   5.974   6.647
 6193SOL    HW119478   4.149   6.006   6.690
 6193SOL    HW219479   4.087   5.901   6.582
 6194SOL     OW19480   5.350   6.746   6.790
 6194SOL    HW119481   5.339   6.807   6.711
 6194SOL    HW219482   5.265   6.695   6.804
 6195SOL     OW19483   5.930   6.270   6.317
 6195SOL    HW119484   5.916   6.173   6.338
 6195SOL    HW219485   5.972   6.278   6.226
 6196SOL     OW19486   5.760   3.626   2.898
 6196SOL    HW119487   5.858   3.610   2.890
 6196SOL    HW219488   5.726   3.669   2.815
 6197SOL     OW19489   0.920   5.486   0.901
 6197SOL    HW119490   0.880   5.515   0.988
 6197SOL    HW219491   1.007   5.534   0.887
 6198SOL     OW19492   5.706   1.368   6.714
 6198SOL    HW119493   5.737   1.459   6.685
 6198SOL    HW219494   5.779   1.322   6.765
 6199SOL     OW19495   2.057   0.077   5.829
 6199SOL    HW119496   2.149   0.045   5.851
 6199SOL    HW219497   2.054   0.177   5.839
 6200SOL     OW19498   1.436   0.568   1.318
 6200SOL    HW119499   1.505   0.616   1.372
 6200SOL    HW219500   1.470   0.478   1.292
 6201SOL     OW19501   0.437   4.823   2.794
 6201SOL    HW119502   0.465   4.826   2.698
 6201SOL    HW219503   0.402   4.732   2.816
 6202SOL     OW19504   5.974   1.321   2.571
 6202SOL    HW119505   5.991   1.249   2.639
 6202SOL    HW219506   5.992   1.285   2.479
 6203SOL     OW19507   6.375   0.104   2.117
 6203SOL    HW119508   6.378   0.199   2.148
 6203SOL    HW219509   6.302   0.055   2.165
 6204SOL     OW19510   1.198   6.299   5.151
 6204SOL    HW119511   1.110   6.252   5.152
 6204SOL    HW219512   1.188   6.386   5.102
 6205SOL     OW19513   5.506   4.427   3.973
 6205SOL    HW119514   5.517   4.421   3.874
 6205SOL    HW219515   5.537   4.342   4.016
 6206SOL     OW19516   5.420   1.718   3.219
 6206SOL    HW119517   5.503   1.687   3.174
 6206SOL    HW219518   5.381   1.795   3.168
 6207SOL     OW19519   0.826   5.772   4.350
 6207SOL    HW119520   0.756   5.701   4.356
 6207SOL    HW219521   0.915   5.733   4.376
 6208SOL     OW19522   4.306   4.213   5.735
 6208SOL    HW119523   4.355   4.133   5.772
 6208SOL    HW219524   4.271   4.191   5.644
 6209SOL     OW19525   3.385   2.315   1.736
 6209SOL    HW119526   3.467   2.342   1.786
 6209SOL    HW219527   3.336   2.246   1.788
 6210SOL     OW19528   5.377   1.724   4.583
 6210SOL    HW119529   5.352   1.792   4.514
 6210SOL    HW219530   5.462   1.751   4.628
 6211SOL     OW19531   5.759   4.259   5.018
 6211SOL    HW119532   5.682   4.214   4.974
 6211SOL    HW219533   5.740   4.272   5.116
 6212SOL     OW19534   5.207   4.854   5.211
 6212SOL    HW119535   5.304   4.877   5.196
 6212SOL    HW219536   5.162   4.842   5.123
 6213SOL     OW19537   4.061   5.803   0.376
 6213SOL    HW119538   3.978   5.752   0.353
 6213SOL    HW219539   4.052   5.897   0.346
 6214SOL     OW19540   5.920   6.920   6.940
 6214SOL    HW119541   5.975   6.910   0.005
 6214SOL    HW219542   5.851   6.992   6.954
 6215SOL     OW19543   5.748   2.599   5.231
 6215SOL    HW119544   5.732   2.591   5.133
 6215SOL    HW219545   5.736   2.694   5.260
 6216SOL     OW19546   4.517   1.734   4.327
 6216SOL    HW119547   4.499   1.639   4.354
 6216SOL    HW219548   4.529   1.738   4.228
 6217SOL     OW19549   0.319   4.263   3.102
 6217SOL    HW119550   0.418   4.271   3.088
 6217SOL    HW219551   0.273   4.339   3.057
 6218SOL     OW19552   4.588   5.756   0.166
 6218SOL    HW119553   4.590   5.774   0.068
 6218SOL    HW219554   4.611   5.659   0.182
 6219SOL     OW19555   2.150   1.296   6.730
 6219SOL    HW119556   2.132   1.380   6.678
 6219SOL    HW219557   2.115   1.217   6.680
 6220SOL     OW19558   3.401   6.301   0.691
 6220SOL    HW119559   3.340   6.378   0.674
 6220SOL    HW219560   3.482   6.332   0.740
 6221SOL     OW19561   5.303   5.925   6.629
 6221SOL    HW119562   5.221   5.882   6.592
 6221SOL    HW219563   5.355   5.856   6.681
 6222SOL     OW19564   6.889   1.741   2.242
 6222SOL    HW119565   6.978   1.704   2.267
 6222SOL    HW219566   6.901   1.819   2.180
 6223SOL     OW19567   0.135   4.928   4.124
 6223SOL    HW119568   0.082   4.909   4.041
 6223SOL    HW219569   0.233   4.923   4.103
 6224SOL     OW19570   3.951   0.184   0.316
 6224SOL    HW119571   3.928   0.117   0.387
 6224SOL    HW219572   3.988   0.137   0.236
 6225SOL     OW19573   4.833   6.323   6.281
 6225SOL    HW119574   4.807   6.335   6.377
 6225SOL    HW219575   4.912   6.261   6.275
 6226SOL     OW19576   1.126   0.952   4.448
 6226SOL    HW119577   1.105   0.966   4.352
 6226SOL    HW219578   1.107   1.036   4.499
 6227SOL     OW19579   2.897   5.023   5.511
 6227SOL    HW119580   2.892   4.924   5.523
 6227SOL    HW219581   2.815   5.055   5.463
 6228SOL     OW19582   1.198   3.156   3.791
 6228SOL    HW119583   1.247   3.230   3.745
 6228SOL    HW219584   1.157   3.095   3.723
 6229SOL     OW19585   0.583   3.154   3.888
 6229SOL    HW119586   0.642   3.217   3.939
 6229SOL    HW219587   0.513   3.117   3.950
 6230SOL     OW19588   0.221   1.146   1.340
 6230SOL    HW119589   0.281   1.218   1.374
 6230SOL    HW219590   0.252   1.057   1.376
 6231SOL     OW19591   2.590   5.149   5.994
 6231SOL    HW119592   2.628   5.059   6.018
 6231SOL    HW219593   2.587   5.206   6.076
 6232SOL     OW19594   4.078   0.486   6.539
 6232SOL    HW119595   4.013   0.468   6.466
 6232SOL    HW219596   4.052   0.569   6.588
 6233SOL     OW19597   6.712   3.288   1.137
 6233SOL    HW119598   6.753   3.276   1.047
 6233SOL    HW219599   6.777   3.334   1.198
 6234SOL     OW19600   5.040   4.709   4.492
 6234SOL    HW119601   5.019   4.796   4.447
 6234SOL    HW219602   5.028   4.719   4.591
 6235SOL     OW19603   0.385   0.363   2.805
 6235SOL    HW119604   0.439   0.412   2.737
 6235SOL    HW219605   0.385   0.414   2.891
 6236SOL     OW19606   6.573   5.771   2.037
 6236SOL    HW119607   6.568   5.764   1.937
 6236SOL    HW219608   6.662   5.736   2.068
 6237SOL     OW19609   3.226   1.112   2.296
 6237SOL    HW119610   3.144   1.148   2.341
 6237SOL    HW219611   3.308   1.151   2.340
 6238SOL     OW19612   2.497   0.791   3.654
 6238SOL    HW119613   2.435   0.756   3.584
 6238SOL    HW219614   2.560   0.718   3.681
 6239SOL     OW19615   4.699   1.203   4.588
 6239SOL    HW119616   4.623   1.177   4.529
 6239SOL    HW219617   4.674   1.190   4.684
 6240SOL     OW19618   4.108   3.264   3.857
 6240SOL    HW119619   4.169   3.332   3.897
 6240SOL    HW219620   4.067   3.209   3.930
 6241SOL     OW19621   3.713   6.956   3.456
 6241SOL    HW119622   3.747   0.027   3.488
 6241SOL    HW219623   3.790   6.897   3.432
 6242SOL     OW19624   2.741   2.035   3.615
 6242SOL    HW119625   2.825   2.001   3.658
 6242SOL    HW219626   2.740   2.135   3.621
 6243SOL     OW19627   4.618   1.607   6.781
 6243SOL    HW119628   4.540   1.549   6.757
 6243SOL    HW219629   4.647   1.660   6.702
 6244SOL     OW19630   4.749   2.657   1.743
 6244SOL    HW119631   4.713   2.625   1.831
 6244SOL    HW219632   4.845   2.632   1.735
 6245SOL     OW19633   0.242   5.094   2.064
 6245SOL    HW119634   0.292   5.030   2.122
 6245SOL    HW219635   0.164   5.048   2.022
 6246SOL     OW19636   6.878   0.132   4.601
 6246SOL    HW119637   6.846   0.064   4.668
 6246SOL    HW219638   6.825   0.123   4.517
 6247SOL     OW19639   6.456   5.809   3.670
 6247SOL    HW119640   6.497   5.718   3.662
 6247SOL    HW219641   6.375   5.814   3.612
 6248SOL     OW19642   3.823   2.980   5.086
 6248SOL    HW119643   3.869   3.069   5.082
 6248SOL    HW219644   3.863   2.926   5.160
 6249SOL     OW19645   5.948   3.544   2.453
 6249SOL    HW119646   5.977   3.588   2.538
 6249SOL    HW219647   6.004   3.463   2.437
 6250SOL     OW19648   5.630   6.883   6.537
 6250SOL    HW119649   5.692   6.953   6.570
 6250SOL    HW219650   5.535   6.910   6.555
 6251SOL     OW19651   2.574   0.666   4.244
 6251SOL    HW119652   2.552   0.595   4.178
 6251SOL    HW219653   2.666   0.701   4.226
 6252SOL     OW19654   3.310   5.212   6.596
 6252SOL    HW119655   3.305   5.182   6.691
 6252SOL    HW219656   3.405   5.207   6.565
 6253SOL     OW19657   3.570   5.923   3.836
 6253SOL    HW119658   3.612   5.985   3.902
 6253SOL    HW219659   3.636   5.902   3.764
 6254SOL     OW19660   0.366   0.271   1.764
 6254SOL    HW119661   0.299   0.336   1.726
 6254SOL    HW219662   0.328   0.179   1.761
 6255SOL     OW19663   1.502   1.687   0.563
 6255SOL    HW119664   1.575   1.632   0.604
 6255SOL    HW219665   1.538   1.777   0.538
 6256SOL     OW19666   5.823   5.988   2.283
 6256SOL    HW119667   5.749   6.014   2.222
 6256SOL    HW219668   5.910   6.018   2.244
 6257SOL     OW19669   3.368   4.799   0.563
 6257SOL    HW119670   3.300   4.818   0.493
 6257SOL    HW219671   3.428   4.725   0.533
 6258SOL     OW19672   4.585   5.012   5.155
 6258SOL    HW119673   4.559   4.916   5.141
 6258SOL    HW219674   4.661   5.016   5.220
 6259SOL     OW19675   4.236   0.914   4.831
 6259SOL    HW119676   4.197   0.836   4.881
 6259SOL    HW219677   4.214   0.999   4.879
 6260SOL     OW19678   1.999   1.428   0.454
 6260SOL    HW119679   2.005   1.493   0.378
 6260SOL    HW219680   2.080   1.437   0.512
 6261SOL     OW19681   3.645   0.162   0.559
 6261SOL    HW119682   3.648   0.206   0.470
 6261SOL    HW219683   3.731   0.180   0.608
 6262SOL     OW19684   5.959   0.915   2.248
 6262SOL    HW119685   5.960   0.964   2.335
 6262SOL    HW219686   5.867   0.917   2.210
 6263SOL     OW19687   6.289   5.913   5.897
 6263SOL    HW119688   6.205   5.894   5.948
 6263SOL    HW219689   6.364   5.928   5.960
 6264SOL     OW19690   2.367   6.121   6.748
 6264SOL    HW119691   2.351   6.198   6.809
 6264SOL    HW219692   2.282   6.099   6.699
 6265SOL     OW19693   4.387   6.719   6.010
 6265SOL    HW119694   4.304   6.775   6.004
 6265SOL    HW219695   4.419   6.716   6.105
 6266SOL     OW19696   3.083   5.225   2.740
 6266SOL    HW119697   3.052   5.137   2.776
 6266SOL    HW219698   3.035   5.246   2.655
 6267SOL     OW19699   1.520   6.620   4.849
 6267SOL    HW119700   1.562   6.531   4.832
 6267SOL    HW219701   1.423   6.616   4.825
 6268SOL     OW19702   3.179   1.716   0.899
 6268SOL    HW119703   3.260   1.711   0.958
 6268SOL    HW219704   3.176   1.804   0.853
 6269SOL     OW19705   0.076   5.660   6.422
 6269SOL    HW119706   0.037   5.717   6.494
 6269SOL    HW219707   0.175   5.672   6.419
 6270SOL     OW19708   2.298   6.154   0.909
 6270SOL    HW119709   2.281   6.060   0.880
 6270SOL    HW219710   2.320   6.155   1.007
 6271SOL     OW19711   6.509   2.796   5.542
 6271SOL    HW119712   6.490   2.857   5.619
 6271SOL    HW219713   6.607   2.777   5.538
 6272SOL     OW19714   0.291   0.838   6.980
 6272SOL    HW119715   0.281   0.912   6.913
 6272SOL    HW219716   0.203   0.822   0.007
 6273SOL     OW19717   0.732   6.647   2.732
 6273SOL    HW119718   0.787   6.720   2.690
 6273SOL    HW219719   0.691   6.681   2.817
 6274SOL     OW19720   2.655   5.693   3.682
 6274SOL    HW119721   2.668   5.628   3.757
 6274SOL    HW219722   2.565   5.737   3.691
 6275SOL     OW19723   2.937   5.782   6.596
 6275SOL    HW119724   2.956   5.838   6.515
 6275SOL    HW219725   2.866   5.715   6.574
 6276SOL     OW19726   1.316   5.784   2.260
 6276SOL    HW119727   1.361   5.870   2.283
 6276SOL    HW219728   1.311   5.726   2.341
 6277SOL     OW19729   5.651   2.494   1.306
 6277SOL    HW119730   5.622   2.581   1.267
 6277SOL    HW219731   5.589   2.422   1.277
 6278SOL     OW19732   4.298   2.113   0.716
 6278SOL    HW119733   4.304   2.144   0.811
 6278SOL    HW219734   4.281   2.191   0.656
 6279SOL     OW19735   3.495   6.787   1.335
 6279SOL    HW119736   3.406   6.749   1.361
 6279SOL    HW219737   3.490   6.886   1.333
 6280SOL     OW19738   5.167   2.749   6.583
 6280SOL    HW119739   5.223   2.808   6.525
 6280SOL    HW219740   5.123   2.679   6.526
 6281SOL     OW19741   5.028   4.477   6.024
 6281SOL    HW119742   5.018   4.416   6.103
 6281SOL    HW219743   5.032   4.572   6.056
 6282SOL     OW19744   0.412   3.789   6.317
 6282SOL    HW119745   0.312   3.779   6.313
 6282SOL    HW219746   0.451   3.716   6.373
 6283SOL     OW19747   2.514   6.514   4.483
 6283SOL    HW119748   2.473   6.500   4.393
 6283SOL    HW219749   2.451   6.482   4.554
 6284SOL     OW19750   1.523   3.061   5.432
 6284SOL    HW119751   1.476   3.087   5.348
 6284SOL    HW219752   1.538   3.142   5.488
 6285SOL     OW19753   1.263   3.262   2.804
 6285SOL    HW119754   1.259   3.255   2.705
 6285SOL    HW219755   1.323   3.338   2.830
 6286SOL     OW19756   0.828   2.249   6.573
 6286SOL    HW119757   0.868   2.340   6.560
 6286SOL    HW219758   0.878   2.182   6.519
 6287SOL     OW19759   4.739   4.684   5.323
 6287SOL    HW119760   4.799   4.635   5.386
 6287SOL    HW219761   4.734   4.780   5.351
 6288SOL     OW19762   2.515   3.868   6.068
 6288SOL    HW119763   2.579   3.931   6.023
 6288SOL    HW219764   2.440   3.920   6.110
 6289SOL     OW19765   2.027   4.733   5.005
 6289SOL    HW119766   2.124   4.716   5.023
 6289SOL    HW219767   2.014   4.753   4.908
 6290SOL     OW19768   6.009   6.837   4.033
 6290SOL    HW119769   6.011   6.934   4.059
 6290SOL    HW219770   5.937   6.791   4.086
 6291SOL     OW19771   3.835   3.546   2.018
 6291SOL    HW119772   3.791   3.619   2.070
 6291SOL    HW219773   3.931   3.569   2.003
 6292SOL     OW19774   1.523   4.878   4.184
 6292SOL    HW119775   1.572   4.954   4.225
 6292SOL    HW219776   1.445   4.853   4.241
 6293SOL     OW19777   3.188   1.994   6.280
 6293SOL    HW119778   3.253   1.918   6.282
 6293SOL    HW219779   3.235   2.080   6.298
 6294SOL     OW19780   1.948   1.499   2.123
 6294SOL    HW119781   2.017   1.448   2.071
 6294SOL    HW219782   1.920   1.446   2.202
 6295SOL     OW19783   4.559   3.407   6.311
 6295SOL    HW119784   4.470   3.362   6.324
 6295SOL    HW219785   4.548   3.505   6.325
 6296SOL     OW19786   0.910   2.758   6.854
 6296SOL    HW119787   0.844   2.781   6.782
 6296SOL    HW219788   0.873   2.685   6.911
 6297SOL     OW19789   6.577   1.579   3.915
 6297SOL    HW119790   6.505   1.553   3.851
 6297SOL    HW219791   6.642   1.504   3.924
 6298SOL     OW19792   0.465   6.409   0.975
 6298SOL    HW119793   0.448   6.318   1.014
 6298SOL    HW219794   0.558   6.438   0.999
 6299SOL     OW19795   3.829   1.472   4.056
 6299SOL    HW119796   3.787   1.388   4.023
 6299SOL    HW219797   3.757   1.535   4.088
 6300SOL     OW19798   2.702   1.852   0.004
 6300SOL    HW119799   2.710   1.760   0.042
 6300SOL    HW219800   2.619   1.858   6.966
 6301SOL     OW19801   4.362   6.378   6.673
 6301SOL    HW119802   4.413   6.463   6.658
 6301SOL    HW219803   4.373   6.349   6.768
 6302SOL     OW19804   1.997   3.217   7.011
 6302SOL    HW119805   2.089   3.235   0.026
 6302SOL    HW219806   1.937   3.294   0.018
 6303SOL     OW19807   0.770   5.496   4.521
 6303SOL    HW119808   0.726   5.502   4.431
 6303SOL    HW219809   0.722   5.556   4.585
 6304SOL     OW19810   3.156   0.760   4.393
 6304SOL    HW119811   3.105   0.842   4.420
 6304SOL    HW219812   3.197   0.718   4.474
 6305SOL     OW19813   1.071   5.850   5.973
 6305SOL    HW119814   1.121   5.804   5.899
 6305SOL    HW219815   0.984   5.885   5.937
 6306SOL     OW19816   0.525   4.492   5.224
 6306SOL    HW119817   0.500   4.482   5.128
 6306SOL    HW219818   0.539   4.401   5.264
 6307SOL     OW19819   3.816   2.957   2.114
 6307SOL    HW119820   3.867   2.897   2.175
 6307SOL    HW219821   3.758   3.018   2.167
 6308SOL     OW19822   0.469   2.368   0.117
 6308SOL    HW119823   0.547   2.421   0.085
 6308SOL    HW219824   0.477   2.274   0.084
 6309SOL     OW19825   1.914   6.361   4.909
 6309SOL    HW119826   1.984   6.422   4.872
 6309SOL    HW219827   1.921   6.272   4.865
 6310SOL     OW19828   1.112   6.843   3.700
 6310SOL    HW119829   1.128   6.869   3.795
 6310SOL    HW219830   1.200   6.831   3.653
 6311SOL     OW19831   6.274   1.274   6.530
 6311SOL    HW119832   6.261   1.348   6.463
 6311SOL    HW219833   6.314   1.312   6.613
 6312SOL     OW19834   3.112   5.412   0.153
 6312SOL    HW119835   3.176   5.428   0.228
 6312SOL    HW219836   3.078   5.499   0.119
 6313SOL     OW19837   6.215   4.296   3.768
 6313SOL    HW119838   6.224   4.334   3.676
 6313SOL    HW219839   6.194   4.369   3.833
 6314SOL     OW19840   1.835   6.557   2.871
 6314SOL    HW119841   1.917   6.584   2.820
 6314SOL    HW219842   1.828   6.612   2.954
 6315SOL     OW19843   1.886   1.668   3.748
 6315SOL    HW119844   1.907   1.755   3.792
 6315SOL    HW219845   1.967   1.633   3.702
 6316SOL     OW19846   4.336   0.425   5.051
 6316SOL    HW119847   4.354   0.438   4.953
 6316SOL    HW219848   4.419   0.393   5.096
 6317SOL     OW19849   5.579   4.826   2.746
 6317SOL    HW119850   5.655   4.846   2.684
 6317SOL    HW219851   5.583   4.731   2.775
 6318SOL     OW19852   6.668   6.864   6.967
 6318SOL    HW119853   6.692   6.852   6.871
 6318SOL    HW219854   6.591   6.927   6.976
 6319SOL     OW19855   5.068   2.042   4.471
 6319SOL    HW119856   5.091   2.073   4.563
 6319SOL    HW219857   5.122   1.961   4.448
 6320SOL     OW19858   6.187   1.409   5.300
 6320SOL    HW119859   6.185   1.322   5.252
 6320SOL    HW219860   6.115   1.410   5.370
 6321SOL     OW19861   0.141   2.583   0.292
 6321SOL    HW119862   0.224   2.625   0.255
 6321SOL    HW219863   0.080   2.655   0.325
 6322SOL     OW19864   1.193   1.197   3.294
 6322SOL    HW119865   1.255   1.271   3.267
 6322SOL    HW219866   1.131   1.176   3.219
 6323SOL     OW19867   2.296   4.984   0.902
 6323SOL    HW119868   2.285   4.943   0.812
 6323SOL    HW219869   2.384   4.957   0.941
 6324SOL     OW19870   4.915   3.520   1.425
 6324SOL    HW119871   4.973   3.457   1.477
 6324SOL    HW219872   4.952   3.612   1.430
 6325SOL     OW19873   1.685   3.095   4.110
 6325SOL    HW119874   1.756   3.081   4.179
 6325SOL    HW219875   1.696   3.185   4.068
 6326SOL     OW19876   5.429   5.227   5.540
 6326SOL    HW119877   5.468   5.275   5.461
 6326SOL    HW219878   5.461   5.270   5.624
 6327SOL     OW19879   0.450   1.291   3.781
 6327SOL    HW119880   0.470   1.201   3.820
 6327SOL    HW219881   0.534   1.330   3.743
 6328SOL     OW19882   4.745   3.851   5.307
 6328SOL    HW119883   4.727   3.783   5.236
 6328SOL    HW219884   4.833   3.831   5.350
 6329SOL     OW19885   0.848   2.064   6.021
 6329SOL    HW119886   0.779   2.035   5.955
 6329SOL    HW219887   0.924   1.999   6.021
 6330SOL     OW19888   4.489   1.071   4.069
 6330SOL    HW119889   4.405   1.109   4.031
 6330SOL    HW219890   4.567   1.127   4.042
 6331SOL     OW19891   1.013   3.174   3.990
 6331SOL    HW119892   1.043   3.233   4.065
 6331SOL    HW219893   1.081   3.176   3.917
 6332SOL     OW19894   3.085   1.731   6.725
 6332SOL    HW119895   3.124   1.674   6.798
 6332SOL    HW219896   3.123   1.824   6.732
 6333SOL     OW19897   5.660   0.778   1.190
 6333SOL    HW119898   5.646   0.877   1.178
 6333SOL    HW219899   5.675   0.735   1.102
 6334SOL     OW19900   1.495   1.001   1.109
 6334SOL    HW119901   1.568   1.059   1.073
 6334SOL    HW219902   1.507   0.990   1.208
 6335SOL     OW19903   6.584   2.891   5.800
 6335SOL    HW119904   6.575   2.949   5.881
 6335SOL    HW219905   6.609   2.798   5.828
 6336SOL     OW19906   0.492   3.694   5.564
 6336SOL    HW119907   0.537   3.780   5.585
 6336SOL    HW219908   0.521   3.662   5.474
 6337SOL     OW19909   5.404   0.107   5.261
 6337SOL    HW119910   5.472   0.180   5.254
 6337SOL    HW219911   5.382   0.091   5.357
 6338SOL     OW19912   0.936   0.667   3.356
 6338SOL    HW119913   0.992   0.657   3.273
 6338SOL    HW219914   0.846   0.701   3.330
 6339SOL     OW19915   0.266   3.773   3.491
 6339SOL    HW119916   0.216   3.778   3.405
 6339SOL    HW219917   0.212   3.724   3.559
 6340SOL     OW19918   3.003   4.606   0.558
 6340SOL    HW119919   3.033   4.647   0.644
 6340SOL    HW219920   2.908   4.632   0.539
 6341SOL     OW19921   0.341   5.515   1.928
 6341SOL    HW119922   0.300   5.590   1.877
 6341SOL    HW219923   0.440   5.519   1.918
 6342SOL     OW19924   2.129   0.803   1.753
 6342SOL    HW119925   2.152   0.782   1.658
 6342SOL    HW219926   2.090   0.722   1.796
 6343SOL     OW19927   1.170   5.757   0.525
 6343SOL    HW119928   1.236   5.705   0.579
 6343SOL    HW219929   1.209   5.776   0.434
 6344SOL     OW19930   1.190   1.422   4.606
 6344SOL    HW119931   1.128   1.458   4.536
 6344SOL    HW219932   1.252   1.494   4.636
 6345SOL     OW19933   5.828   2.420   2.929
 6345SOL    HW119934   5.810   2.327   2.899
 6345SOL    HW219935   5.910   2.455   2.884
 6346SOL     OW19936   6.977   4.086   5.014
 6346SOL    HW119937   0.046   4.037   5.018
 6346SOL    HW219938   6.974   4.156   5.085
 6347SOL     OW19939   2.102   2.346   3.306
 6347SOL    HW119940   2.038   2.411   3.265
 6347SOL    HW219941   2.157   2.303   3.235
 6348SOL     OW19942   0.986   2.838   6.158
 6348SOL    HW119943   0.997   2.739   6.152
 6348SOL    HW219944   1.056   2.884   6.104
 6349SOL     OW19945   6.274   0.794   0.807
 6349SOL    HW119946   6.326   0.748   0.735
 6349SOL    HW219947   6.232   0.877   0.769
 6350SOL     OW19948   1.092   6.048   1.627
 6350SOL    HW119949   1.135   5.961   1.651
 6350SOL    HW219950   1.152   6.124   1.651
 6351SOL     OW19951   5.832   3.958   1.333
 6351SOL    HW119952   5.853   3.950   1.236
 6351SOL    HW219953   5.911   3.929   1.387
 6352SOL     OW19954   3.896   0.679   4.872
 6352SOL    HW119955   3.819   0.741   4.887
 6352SOL    HW219956   3.897   0.649   4.776
 6353SOL     OW19957   3.873   6.247   5.273
 6353SOL    HW119958   3.864   6.156   5.234
 6353SOL    HW219959   3.937   6.301   5.219
 6354SOL     OW19960   5.050   5.179   2.323
 6354SOL    HW119961   4.966   5.144   2.365
 6354SOL    HW219962   5.080   5.116   2.251
 6355SOL     OW19963   3.296   5.433   0.897
 6355SOL    HW119964   3.199   5.437   0.917
 6355SOL    HW219965   3.323   5.338   0.882
 6356SOL     OW19966   0.189   6.007   6.380
 6356SOL    HW119967   0.129   6.006   6.300
 6356SOL    HW219968   0.145   6.057   6.454
 6357SOL     OW19969   5.197   0.967   2.793
 6357SOL    HW119970   5.223   0.870   2.788
 6357SOL    HW219971   5.234   1.016   2.714
 6358SOL     OW19972   1.051   2.228   4.693
 6358SOL    HW119973   1.139   2.186   4.713
 6358SOL    HW219974   1.042   2.314   4.744
 6359SOL     OW19975   5.418   6.069   1.648
 6359SOL    HW119976   5.457   6.062   1.556
 6359SOL    HW219977   5.380   5.981   1.675
 6360SOL     OW19978   1.544   1.787   1.016
 6360SOL    HW119979   1.490   1.711   0.980
 6360SOL    HW219980   1.576   1.844   0.941
 6361SOL     OW19981   0.226   1.393   0.872
 6361SOL    HW119982   0.152   1.376   0.807
 6361SOL    HW219983   0.313   1.392   0.824
 6362SOL     OW19984   1.898   5.295   0.606
 6362SOL    HW119985   1.858   5.218   0.654
 6362SOL    HW219986   1.995   5.302   0.630
 6363SOL     OW19987   1.872   3.747   1.908
 6363SOL    HW119988   1.884   3.835   1.862
 6363SOL    HW219989   1.952   3.690   1.891
 6364SOL     OW19990   2.982   2.249   4.470
 6364SOL    HW119991   2.890   2.226   4.502
 6364SOL    HW219992   2.978   2.331   4.414
 6365SOL     OW19993   5.962   0.077   2.934
 6365SOL    HW119994   6.019   0.158   2.947
 6365SOL    HW219995   5.888   0.078   3.001
 6366SOL     OW19996   5.919   1.078   4.840
 6366SOL    HW119997   5.854   1.153   4.828
 6366SOL    HW219998   5.888   1.019   4.915
 6367SOL     OW19999   1.360   2.367   3.175
 6367SOL    HW120000   1.306   2.290   3.209
 6367SOL    HW220001   1.400   2.416   3.252
 6368SOL     OW20002   4.919   3.589   4.738
 6368SOL    HW120003   5.017   3.595   4.753
 6368SOL    HW220004   4.871   3.599   4.826
 6369SOL     OW20005   4.351   4.599   0.355
 6369SOL    HW120006   4.288   4.529   0.323
 6369SOL    HW220007   4.389   4.649   0.276
 6370SOL     OW20008   5.537   4.259   4.454
 6370SOL    HW120009   5.566   4.353   4.472
 6370SOL    HW220010   5.470   4.260   4.380
 6371SOL     OW20011   5.513   4.707   0.992
 6371SOL    HW120012   5.496   4.780   0.925
 6371SOL    HW220013   5.473   4.733   1.079
 6372SOL     OW20014   6.354   1.676   1.532
 6372SOL    HW120015   6.261   1.653   1.562
 6372SOL    HW220016   6.420   1.643   1.599
 6373SOL     OW20017   5.017   3.318   2.340
 6373SOL    HW120018   4.965   3.278   2.264
 6373SOL    HW220019   5.106   3.349   2.305
 6374SOL     OW20020   4.933   3.551   6.820
 6374SOL    HW120021   4.888   3.552   6.731
 6374SOL    HW220022   4.915   3.464   6.866
 6375SOL     OW20023   4.958   1.019   2.200
 6375SOL    HW120024   5.022   0.945   2.220
 6375SOL    HW220025   4.972   1.051   2.106
 6376SOL     OW20026   2.399   0.474   0.419
 6376SOL    HW120027   2.314   0.424   0.405
 6376SOL    HW220028   2.420   0.528   0.338
 6377SOL     OW20029   0.535   0.894   0.066
 6377SOL    HW120030   0.575   0.951   7.012
 6377SOL    HW220031   0.445   0.861   0.036
 6378SOL     OW20032   5.783   4.786   2.513
 6378SOL    HW120033   5.861   4.849   2.519
 6378SOL    HW220034   5.809   4.697   2.550
 6379SOL     OW20035   1.477   5.416   6.439
 6379SOL    HW120036   1.468   5.442   6.343
 6379SOL    HW220037   1.521   5.326   6.445
 6380SOL     OW20038   1.094   3.383   5.190
 6380SOL    HW120039   1.055   3.460   5.242
 6380SOL    HW220040   1.101   3.303   5.250
 6381SOL     OW20041   3.962   3.482   0.194
 6381SOL    HW120042   3.923   3.528   0.114
 6381SOL    HW220043   4.023   3.409   0.163
 6382SOL     OW20044   1.572   1.439   0.319
 6382SOL    HW120045   1.613   1.435   0.410
 6382SOL    HW220046   1.640   1.414   0.250
 6383SOL     OW20047   2.415   2.656   2.039
 6383SOL    HW120048   2.498   2.690   2.084
 6383SOL    HW220049   2.422   2.557   2.028
 6384SOL     OW20050   6.629   2.751   1.894
 6384SOL    HW120051   6.569   2.696   1.952
 6384SOL    HW220052   6.693   2.692   1.846
 6385SOL     OW20053   6.660   4.014   0.017
 6385SOL    HW120054   6.726   3.949   0.055
 6385SOL    HW220055   6.701   4.060   6.956
 6386SOL     OW20056   2.939   2.831   0.576
 6386SOL    HW120057   2.898   2.800   0.490
 6386SOL    HW220058   3.036   2.850   0.562
 6387SOL     OW20059   0.101   6.782   6.926
 6387SOL    HW120060   0.019   6.760   6.979
 6387SOL    HW220061   0.074   6.824   6.839
 6388SOL     OW20062   5.511   5.374   2.297
 6388SOL    HW120063   5.515   5.469   2.267
 6388SOL    HW220064   5.546   5.366   2.390
 6389SOL     OW20065   6.586   6.633   0.661
 6389SOL    HW120066   6.557   6.664   0.751
 6389SOL    HW220067   6.674   6.674   0.638
 6390SOL     OW20068   5.414   0.478   0.177
 6390SOL    HW120069   5.387   0.461   0.271
 6390SOL    HW220070   5.497   0.428   0.155
 6391SOL     OW20071   1.580   2.168   4.888
 6391SOL    HW120072   1.505   2.132   4.944
 6391SOL    HW220073   1.643   2.093   4.865
 6392SOL     OW20074   4.751   0.090   3.924
 6392SOL    HW120075   4.839   0.114   3.964
 6392SOL    HW220076   4.692   0.050   3.994
 6393SOL     OW20077   1.696   4.669   0.567
 6393SOL    HW120078   1.660   4.595   0.624
 6393SOL    HW220079   1.743   4.736   0.624
 6394SOL     OW20080   1.802   4.907   1.609
 6394SOL    HW120081   1.878   4.926   1.546
 6394SOL    HW220082   1.724   4.871   1.557
 6395SOL     OW20083   1.944   4.076   3.824
 6395SOL    HW120084   1.886   4.120   3.892
 6395SOL    HW220085   1.908   4.093   3.733
 6396SOL     OW20086   2.043   2.899   5.392
 6396SOL    HW120087   2.100   2.830   5.437
 6396SOL    HW220088   2.101   2.965   5.344
 6397SOL     OW20089   5.765   3.751   4.844
 6397SOL    HW120090   5.844   3.802   4.879
 6397SOL    HW220091   5.722   3.700   4.919
 6398SOL     OW20092   2.319   6.949   2.831
 6398SOL    HW120093   2.222   6.933   2.810
 6398SOL    HW220094   2.343   0.024   2.805
 6399SOL     OW20095   3.432   0.252   0.084
 6399SOL    HW120096   3.417   0.179   0.151
 6399SOL    HW220097   3.512   0.229   0.029
 6400SOL     OW20098   0.606   6.767   2.961
 6400SOL    HW120099   0.516   6.741   2.997
 6400SOL    HW220100   0.677   6.713   3.006
 6401SOL     OW20101   4.368   5.242   2.696
 6401SOL    HW120102   4.285   5.203   2.655
 6401SOL    HW220103   4.360   5.341   2.698
 6402SOL     OW20104   2.848   4.745   5.482
 6402SOL    HW120105   2.787   4.676   5.445
 6402SOL    HW220106   2.852   4.736   5.582
 6403SOL     OW20107   5.543   5.342   5.742
 6403SOL    HW120108   5.607   5.302   5.808
 6403SOL    HW220109   5.592   5.408   5.685
 6404SOL     OW20110   4.916   6.453   1.060
 6404SOL    HW120111   4.962   6.368   1.036
 6404SOL    HW220112   4.974   6.531   1.035
 6405SOL     OW20113   4.496   1.197   2.641
 6405SOL    HW120114   4.528   1.182   2.735
 6405SOL    HW220115   4.540   1.278   2.604
 6406SOL     OW20116   0.383   3.485   2.924
 6406SOL    HW120117   0.444   3.551   2.880
 6406SOL    HW220118   0.370   3.509   3.020
 6407SOL     OW20119   0.192   6.666   2.869
 6407SOL    HW120120   0.149   6.584   2.905
 6407SOL    HW220121   0.131   6.745   2.884
 6408SOL     OW20122   0.274   1.240   1.847
 6408SOL    HW120123   0.332   1.221   1.768
 6408SOL    HW220124   0.181   1.207   1.828
 6409SOL     OW20125   5.315   4.820   3.605
 6409SOL    HW120126   5.263   4.734   3.606
 6409SOL    HW220127   5.375   4.823   3.685
 6410SOL     OW20128   2.123   0.998   0.174
 6410SOL    HW120129   2.205   0.982   0.118
 6410SOL    HW220130   2.147   1.056   0.252
 6411SOL     OW20131   0.478   2.890   2.088
 6411SOL    HW120132   0.490   2.870   1.990
 6411SOL    HW220133   0.383   2.873   2.113
 6412SOL     OW20134   4.057   1.390   6.758
 6412SOL    HW120135   4.125   1.413   6.828
 6412SOL    HW220136   4.031   1.473   6.708
 6413SOL     OW20137   4.693   6.082   3.583
 6413SOL    HW120138   4.621   6.053   3.519
 6413SOL    HW220139   4.778   6.035   3.560
 6414SOL     OW20140   2.613   0.596   0.523
 6414SOL    HW120141   2.681   0.594   0.450
 6414SOL    HW220142   2.534   0.542   0.496
 6415SOL     OW20143   0.730   1.878   4.030
 6415SOL    HW120144   0.801   1.947   4.037
 6415SOL    HW220145   0.703   1.866   3.935
 6416SOL     OW20146   3.093   5.005   6.997
 6416SOL    HW120147   3.151   4.924   7.010
 6416SOL    HW220148   3.014   4.998   0.039
 6417SOL     OW20149   4.295   2.841   6.691
 6417SOL    HW120150   4.288   2.902   6.770
 6417SOL    HW220151   4.359   2.767   6.712
 6418SOL     OW20152   5.157   4.779   0.313
 6418SOL    HW120153   5.116   4.697   0.353
 6418SOL    HW220154   5.147   4.775   0.213
 6419SOL     OW20155   0.826   6.624   6.332
 6419SOL    HW120156   0.832   6.675   6.246
 6419SOL    HW220157   0.739   6.575   6.335
 6420SOL     OW20158   2.719   4.633   3.965
 6420SOL    HW120159   2.656   4.613   3.890
 6420SOL    HW220160   2.810   4.651   3.928
 6421SOL     OW20161   4.509   0.361   1.793
 6421SOL    HW120162   4.556   0.418   1.727
 6421SOL    HW220163   4.501   0.267   1.758
 6422SOL     OW20164   6.276   2.556   4.941
 6422SOL    HW120165   6.326   2.610   4.873
 6422SOL    HW220166   6.288   2.459   4.923
 6423SOL     OW20167   1.136   4.983   4.853
 6423SOL    HW120168   1.225   4.938   4.846
 6423SOL    HW220169   1.076   4.928   4.910
 6424SOL     OW20170   6.917   4.615   6.315
 6424SOL    HW120171   6.983   4.592   6.243
 6424SOL    HW220172   6.916   4.542   6.383
 6425SOL     OW20173   6.992   6.116   4.218
 6425SOL    HW120174   0.043   6.128   4.289
 6425SOL    HW220175   6.921   6.186   4.228
 6426SOL     OW20176   4.782   4.954   4.576
 6426SOL    HW120177   4.773   4.856   4.557
 6426SOL    HW220178   4.751   4.973   4.669
 6427SOL     OW20179   3.621   2.945   3.352
 6427SOL    HW120180   3.707   2.995   3.344
 6427SOL    HW220181   3.618   2.899   3.441
 6428SOL     OW20182   5.697   2.547   0.226
 6428SOL    HW120183   5.701   2.457   0.268
 6428SOL    HW220184   5.693   2.618   0.297
 6429SOL     OW20185   2.421   1.365   5.399
 6429SOL    HW120186   2.353   1.296   5.423
 6429SOL    HW220187   2.376   1.440   5.350
 6430SOL     OW20188   6.322   0.722   5.275
 6430SOL    HW120189   6.282   0.649   5.332
 6430SOL    HW220190   6.409   0.690   5.237
 6431SOL     OW20191   3.325   4.973   2.358
 6431SOL    HW120192   3.268   4.913   2.414
 6431SOL    HW220193   3.357   4.923   2.278
 6432SOL     OW20194   4.826   3.256   5.935
 6432SOL    HW120195   4.874   3.182   5.982
 6432SOL    HW220196   4.750   3.288   5.991
 6433SOL     OW20197   3.511   4.715   5.299
 6433SOL    HW120198   3.513   4.622   5.336
 6433SOL    HW220199   3.605   4.746   5.283
 6434SOL     OW20200   5.346   5.880   5.955
 6434SOL    HW120201   5.338   5.959   5.894
 6434SOL    HW220202   5.301   5.801   5.913
 6435SOL     OW20203   4.695   1.268   1.341
 6435SOL    HW120204   4.700   1.272   1.241
 6435SOL    HW220205   4.667   1.357   1.376
 6436SOL     OW20206   0.321   3.410   3.647
 6436SOL    HW120207   0.324   3.330   3.706
 6436SOL    HW220208   0.266   3.390   3.566
 6437SOL     OW20209   1.429   2.589   5.811
 6437SOL    HW120210   1.484   2.507   5.827
 6437SOL    HW220211   1.483   2.656   5.760
 6438SOL     OW20212   0.548   5.571   6.997
 6438SOL    HW120213   0.635   5.595   6.956
 6438SOL    HW220214   0.503   5.502   6.940
 6439SOL     OW20215   5.397   6.470   2.475
 6439SOL    HW120216   5.449   6.499   2.555
 6439SOL    HW220217   5.434   6.515   2.394
 6440SOL     OW20218   2.951   1.461   6.141
 6440SOL    HW120219   2.976   1.524   6.214
 6440SOL    HW220220   2.907   1.380   6.181
 6441SOL     OW20221   0.218   1.999   2.151
 6441SOL    HW120222   0.232   1.933   2.078
 6441SOL    HW220223   0.239   2.091   2.117
 6442SOL     OW20224   2.448   2.052   4.548
 6442SOL    HW120225   2.450   2.148   4.579
 6442SOL    HW220226   2.540   2.014   4.553
 6443SOL     OW20227   3.745   2.796   6.677
 6443SOL    HW120228   3.739   2.788   6.777
 6443SOL    HW220229   3.834   2.762   6.647
 6444SOL     OW20230   7.012   4.166   4.564
 6444SOL    HW120231   0.041   4.199   4.645
 6444SOL    HW220232   6.914   4.184   4.572
 6445SOL     OW20233   2.878   3.482   3.262
 6445SOL    HW120234   2.971   3.454   3.240
 6445SOL    HW220235   2.852   3.446   3.351
 6446SOL     OW20236   1.184   1.580   6.962
 6446SOL    HW120237   1.261   1.635   6.994
 6446SOL    HW220238   1.109   1.641   6.936
 6447SOL     OW20239   5.646   3.337   2.387
 6447SOL    HW120240   5.662   3.423   2.338
 6447SOL    HW220241   5.549   3.331   2.413
 6448SOL     OW20242   4.569   4.633   1.092
 6448SOL    HW120243   4.610   4.547   1.126
 6448SOL    HW220244   4.499   4.612   1.024
 6449SOL     OW20245   3.304   5.057   0.613
 6449SOL    HW120246   3.344   4.966   0.601
 6449SOL    HW220247   3.330   5.115   0.536
 6450SOL     OW20248   6.221   4.432   6.489
 6450SOL    HW120249   6.321   4.430   6.483
 6450SOL    HW220250   6.194   4.433   6.585
 6451SOL     OW20251   4.213   2.675   1.737
 6451SOL    HW120252   4.198   2.766   1.699
 6451SOL    HW220253   4.138   2.615   1.710
 6452SOL     OW20254   3.748   2.134   4.793
 6452SOL    HW120255   3.774   2.046   4.754
 6452SOL    HW220256   3.711   2.193   4.721
 6453SOL     OW20257   2.197   0.282   2.500
 6453SOL    HW120258   2.248   0.198   2.487
 6453SOL    HW220259   2.116   0.264   2.556
 6454SOL     OW20260   5.062   2.478   3.815
 6454SOL    HW120261   5.026   2.562   3.855
 6454SOL    HW220262   5.162   2.479   3.820
 6455SOL     OW20263   6.879   3.040   4.075
 6455SOL    HW120264   6.934   3.006   4.152
 6455SOL    HW220265   6.793   3.079   4.110
 6456SOL     OW20266   6.421   1.916   2.213
 6456SOL    HW120267   6.442   1.837   2.269
 6456SOL    HW220268   6.384   1.989   2.271
 6457SOL     OW20269   2.949   6.472   2.770
 6457SOL    HW120270   2.975   6.559   2.728
 6457SOL    HW220271   2.876   6.429   2.716
 6458SOL     OW20272   0.149   0.081   4.586
 6458SOL    HW120273   0.210   0.070   4.665
 6458SOL    HW220274   0.054   0.087   4.619
 6459SOL     OW20275   0.713   3.289   3.032
 6459SOL    HW120276   0.755   3.296   3.122
 6459SOL    HW220277   0.710   3.379   2.989
 6460SOL     OW20278   0.951   5.608   6.686
 6460SOL    HW120279   0.890   5.619   6.608
 6460SOL    HW220280   1.043   5.638   6.661
 6461SOL     OW20281   1.253   6.350   0.970
 6461SOL    HW120282   1.279   6.258   0.941
 6461SOL    HW220283   1.256   6.412   0.892
 6462SOL     OW20284   1.911   3.804   5.102
 6462SOL    HW120285   1.990   3.744   5.097
 6462SOL    HW220286   1.871   3.800   5.193
 6463SOL     OW20287   4.555   3.414   0.924
 6463SOL    HW120288   4.631   3.357   0.894
 6463SOL    HW220289   4.526   3.385   1.015
 6464SOL     OW20290   0.680   4.115   3.978
 6464SOL    HW120291   0.646   4.091   4.069
 6464SOL    HW220292   0.615   4.084   3.908
 6465SOL     OW20293   3.147   0.886   3.974
 6465SOL    HW120294   3.051   0.858   3.970
 6465SOL    HW220295   3.164   0.953   3.902
 6466SOL     OW20296   0.185   4.784   6.921
 6466SOL    HW120297   0.102   4.835   6.896
 6466SOL    HW220298   0.159   4.704   6.976
 6467SOL     OW20299   1.847   2.152   6.498
 6467SOL    HW120300   1.945   2.141   6.512
 6467SOL    HW220301   1.829   2.241   6.456
 6468SOL     OW20302   1.767   0.077   0.989
 6468SOL    HW120303   1.680   0.126   0.994
 6468SOL    HW220304   1.813   0.082   1.078
 6469SOL     OW20305   2.103   1.244   1.614
 6469SOL    HW120306   2.035   1.317   1.624
 6469SOL    HW220307   2.061   1.165   1.568
 6470SOL     OW20308   6.555   2.083   6.630
 6470SOL    HW120309   6.603   2.047   6.710
 6470SOL    HW220310   6.497   2.159   6.657
 6471SOL     OW20311   0.453   6.639   5.898
 6471SOL    HW120312   0.468   6.640   5.799
 6471SOL    HW220313   0.497   6.559   5.938
 6472SOL     OW20314   6.945   6.236   3.068
 6472SOL    HW120315   6.938   6.182   2.984
 6472SOL    HW220316   6.872   6.209   3.130
 6473SOL     OW20317   2.222   0.674   3.068
 6473SOL    HW120318   2.221   0.746   3.138
 6473SOL    HW220319   2.232   0.716   2.978
 6474SOL     OW20320   3.782   6.328   4.286
 6474SOL    HW120321   3.780   6.228   4.287
 6474SOL    HW220322   3.710   6.362   4.225
 6475SOL     OW20323   5.706   5.663   2.663
 6475SOL    HW120324   5.717   5.738   2.728
 6475SOL    HW220325   5.684   5.700   2.573
 6476SOL     OW20326   4.152   2.708   6.320
 6476SOL    HW120327   4.237   2.678   6.364
 6476SOL    HW220328   4.123   2.639   6.253
 6477SOL     OW20329   0.241   6.556   1.446
 6477SOL    HW120330   0.306   6.486   1.478
 6477SOL    HW220331   0.234   6.552   1.346
 6478SOL     OW20332   2.572   5.989   1.104
 6478SOL    HW120333   2.527   5.969   1.017
 6478SOL    HW220334   2.568   5.908   1.163
 6479SOL     OW20335   4.678   5.498   3.275
 6479SOL    HW120336   4.675   5.552   3.359
 6479SOL    HW220337   4.601   5.523   3.216
 6480SOL     OW20338   4.087   1.361   6.199
 6480SOL    HW120339   4.063   1.456   6.175
 6480SOL    HW220340   4.041   1.335   6.284
 6481SOL     OW20341   4.160   3.268   2.030
 6481SOL    HW120342   4.239   3.217   2.066
 6481SOL    HW220343   4.124   3.221   1.949
 6482SOL     OW20344   4.897   3.531   5.895
 6482SOL    HW120345   4.892   3.437   5.929
 6482SOL    HW220346   4.855   3.535   5.804
 6483SOL     OW20347   1.791   5.980   5.061
 6483SOL    HW120348   1.775   5.881   5.054
 6483SOL    HW220349   1.876   6.003   5.013
 6484SOL     OW20350   3.273   1.115   3.088
 6484SOL    HW120351   3.303   1.207   3.063
 6484SOL    HW220352   3.237   1.116   3.182
 6485SOL     OW20353   2.453   5.895   4.974
 6485SOL    HW120354   2.435   5.822   4.908
 6485SOL    HW220355   2.526   5.954   4.941
 6486SOL     OW20356   0.048   4.680   2.786
 6486SOL    HW120357   0.003   4.759   2.826
 6486SOL    HW220358   0.147   4.687   2.801
 6487SOL     OW20359   6.623   4.896   3.661
 6487SOL    HW120360   6.584   4.948   3.586
 6487SOL    HW220361   6.718   4.872   3.641
 6488SOL     OW20362   3.327   5.223   4.121
 6488SOL    HW120363   3.261   5.260   4.055
 6488SOL    HW220364   3.350   5.129   4.095
 6489SOL     OW20365   5.313   3.208   4.834
 6489SOL    HW120366   5.250   3.267   4.885
 6489SOL    HW220367   5.263   3.128   4.800
 6490SOL     OW20368   2.367   2.369   0.389
 6490SOL    HW120369   2.323   2.444   0.339
 6490SOL    HW220370   2.297   2.312   0.431
 6491SOL     OW20371   1.550   6.794   1.844
 6491SOL    HW120372   1.495   6.878   1.846
 6491SOL    HW220373   1.493   6.718   1.811
 6492SOL     OW20374   4.107   3.568   3.933
 6492SOL    HW120375   4.083   3.568   3.836
 6492SOL    HW220376   4.089   3.658   3.973
 6493SOL     OW20377   1.085   4.270   3.938
 6493SOL    HW120378   1.184   4.267   3.951
 6493SOL    HW220379   1.060   4.219   3.856
 6494SOL     OW20380   6.996   1.029   1.550
 6494SOL    HW120381   7.018   1.074   1.464
 6494SOL    HW220382   6.908   1.063   1.584
 6495SOL     OW20383   6.564   0.263   3.111
 6495SOL    HW120384   6.612   0.269   3.023
 6495SOL    HW220385   6.624   0.221   3.179
 6496SOL     OW20386   3.200   2.018   2.092
 6496SOL    HW120387   3.200   1.922   2.064
 6496SOL    HW220388   3.290   2.041   2.128
 6497SOL     OW20389   6.768   1.000   0.491
 6497SOL    HW120390   6.704   1.061   0.537
 6497SOL    HW220391   6.861   1.018   0.524
 6498SOL     OW20392   2.189   4.294   4.040
 6498SOL    HW120393   2.266   4.354   4.019
 6498SOL    HW220394   2.143   4.327   4.123
 6499SOL     OW20395   4.542   2.535   3.512
 6499SOL    HW120396   4.598   2.453   3.507
 6499SOL    HW220397   4.547   2.584   3.425
 6500SOL     OW20398   1.203   3.837   3.314
 6500SOL    HW120399   1.298   3.814   3.295
 6500SOL    HW220400   1.142   3.781   3.257
 6501SOL     OW20401   6.120   1.738   3.176
 6501SOL    HW120402   6.121   1.729   3.275
 6501SOL    HW220403   6.060   1.813   3.149
 6502SOL     OW20404   0.042   3.660   1.385
 6502SOL    HW120405   6.998   3.596   1.429
 6502SOL    HW220406   0.026   3.752   1.422
 6503SOL     OW20407   6.838   3.354   5.630
 6503SOL    HW120408   6.814   3.381   5.537
 6503SOL    HW220409   6.933   3.322   5.632
 6504SOL     OW20410   3.564   0.030   6.269
 6504SOL    HW120411   3.638   0.076   6.218
 6504SOL    HW220412   3.492   0.004   6.205
 6505SOL     OW20413   0.347   6.647   0.928
 6505SOL    HW120414   0.398   6.561   0.925
 6505SOL    HW220415   0.410   6.723   0.913
 6506SOL     OW20416   1.001   3.833   2.180
 6506SOL    HW120417   1.007   3.748   2.233
 6506SOL    HW220418   0.905   3.861   2.174
 6507SOL     OW20419   4.128   5.572   0.720
 6507SOL    HW120420   4.086   5.482   0.720
 6507SOL    HW220421   4.175   5.587   0.808
 6508SOL     OW20422   0.011   0.597   3.320
 6508SOL    HW120423   0.025   0.692   3.345
 6508SOL    HW220424   0.088   0.542   3.353
 6509SOL     OW20425   2.498   1.898   6.868
 6509SOL    HW120426   2.471   1.833   6.797
 6509SOL    HW220427   2.549   1.973   6.827
 6510SOL     OW20428   3.294   5.860   4.881
 6510SOL    HW120429   3.210   5.860   4.827
 6510SOL    HW220430   3.373   5.861   4.819
 6511SOL     OW20431   3.066   2.501   0.497
 6511SOL    HW120432   3.121   2.418   0.503
 6511SOL    HW220433   2.972   2.481   0.521
 6512SOL     OW20434   4.792   0.919   0.237
 6512SOL    HW120435   4.821   0.851   0.304
 6512SOL    HW220436   4.781   0.876   0.147
 6513SOL     OW20437   2.704   4.604   2.603
 6513SOL    HW120438   2.668   4.535   2.667
 6513SOL    HW220439   2.631   4.634   2.542
 6514SOL     OW20440   5.150   6.424   5.541
 6514SOL    HW120441   5.226   6.427   5.607
 6514SOL    HW220442   5.130   6.516   5.509
 6515SOL     OW20443   0.753   4.721   2.838
 6515SOL    HW120444   0.688   4.680   2.902
 6515SOL    HW220445   0.773   4.655   2.765
 6516SOL     OW20446   6.421   2.738   2.437
 6516SOL    HW120447   6.490   2.799   2.476
 6516SOL    HW220448   6.426   2.649   2.482
 6517SOL     OW20449   6.847   3.549   0.595
 6517SOL    HW120450   6.883   3.551   0.688
 6517SOL    HW220451   6.885   3.472   0.545
 6518SOL     OW20452   1.195   0.730   2.285
 6518SOL    HW120453   1.250   0.795   2.338
 6518SOL    HW220454   1.106   0.718   2.329
 6519SOL     OW20455   1.310   1.002   3.466
 6519SOL    HW120456   1.277   1.047   3.384
 6519SOL    HW220457   1.234   0.989   3.530
 6520SOL     OW20458   6.931   5.642   0.559
 6520SOL    HW120459   6.923   5.741   0.559
 6520SOL    HW220460   6.922   5.607   0.652
 6521SOL     OW20461   2.005   4.688   4.115
 6521SOL    HW120462   1.960   4.749   4.179
 6521SOL    HW220463   1.943   4.667   4.039
 6522SOL     OW20464   2.655   3.023   5.379
 6522SOL    HW120465   2.744   3.068   5.367
 6522SOL    HW220466   2.594   3.049   5.305
 6523SOL     OW20467   6.159   6.731   0.840
 6523SOL    HW120468   6.190   6.693   0.928
 6523SOL    HW220469   6.063   6.708   0.827
 6524SOL     OW20470   2.983   2.830   1.231
 6524SOL    HW120471   2.917   2.812   1.304
 6524SOL    HW220472   2.934   2.858   1.148
 6525SOL     OW20473   1.165   4.858   3.640
 6525SOL    HW120474   1.096   4.793   3.671
 6525SOL    HW220475   1.243   4.856   3.703
 6526SOL     OW20476   0.164   6.276   0.697
 6526SOL    HW120477   0.227   6.198   0.705
 6526SOL    HW220478   0.107   6.265   0.616
 6527SOL     OW20479   6.539   1.545   1.056
 6527SOL    HW120480   6.536   1.449   1.030
 6527SOL    HW220481   6.555   1.553   1.154
 6528SOL     OW20482   4.147   6.206   0.189
 6528SOL    HW120483   4.074   6.270   0.167
 6528SOL    HW220484   4.234   6.255   0.197
 6529SOL     OW20485   4.982   0.063   2.189
 6529SOL    HW120486   4.904   0.013   2.150
 6529SOL    HW220487   5.065   0.040   2.138
 6530SOL     OW20488   0.846   2.600   3.386
 6530SOL    HW120489   0.822   2.504   3.395
 6530SOL    HW220490   0.767   2.656   3.414
 6531SOL     OW20491   3.858   3.974   4.218
 6531SOL    HW120492   3.836   3.910   4.292
 6531SOL    HW220493   3.774   4.010   4.178
 6532SOL     OW20494   1.070   6.250   0.692
 6532SOL    HW120495   1.134   6.256   0.615
 6532SOL    HW220496   1.067   6.156   0.725
 6533SOL     OW20497   4.961   4.546   1.763
 6533SOL    HW120498   4.918   4.457   1.744
 6533SOL    HW220499   4.894   4.607   1.806
 6534SOL     OW20500   6.780   4.344   3.150
 6534SOL    HW120501   6.771   4.351   3.050
 6534SOL    HW220502   6.814   4.253   3.174
 6535SOL     OW20503   5.112   4.188   5.448
 6535SOL    HW120504   5.148   4.224   5.534
 6535SOL    HW220505   5.018   4.157   5.462
 6536SOL     OW20506   0.703   4.327   5.883
 6536SOL    HW120507   0.783   4.282   5.841
 6536SOL    HW220508   0.734   4.388   5.956
 6537SOL     OW20509   6.655   5.228   3.679
 6537SOL    HW120510   6.630   5.133   3.694
 6537SOL    HW220511   6.572   5.282   3.663
 6538SOL     OW20512   1.061   2.661   4.494
 6538SOL    HW120513   0.987   2.714   4.453
 6538SOL    HW220514   1.079   2.580   4.438
 6539SOL     OW20515   4.466   6.765   6.307
 6539SOL    HW120516   4.520   6.682   6.293
 6539SOL    HW220517   4.388   6.743   6.366
 6540SOL     OW20518   6.869   2.533   5.561
 6540SOL    HW120519   6.915   2.536   5.650
 6540SOL    HW220520   6.858   2.627   5.527
 6541SOL     OW20521   4.937   1.854   5.584
 6541SOL    HW120522   4.904   1.865   5.678
 6541SOL    HW220523   5.012   1.787   5.582
 6542SOL     OW20524   1.474   3.711   2.883
 6542SOL    HW120525   1.562   3.742   2.846
 6542SOL    HW220526   1.414   3.790   2.897
 6543SOL     OW20527   4.066   1.333   4.973
 6543SOL    HW120528   4.116   1.374   4.896
 6543SOL    HW220529   4.130   1.313   5.047
 6544SOL     OW20530   0.411   0.178   0.847
 6544SOL    HW120531   0.361   0.265   0.846
 6544SOL    HW220532   0.509   0.196   0.859
 6545SOL     OW20533   4.812   6.685   1.437
 6545SOL    HW120534   4.757   6.768   1.421
 6545SOL    HW220535   4.776   6.610   1.381
 6546SOL     OW20536   5.270   4.750   6.234
 6546SOL    HW120537   5.336   4.679   6.260
 6546SOL    HW220538   5.199   4.756   6.304
 6547SOL     OW20539   0.942   6.255   5.172
 6547SOL    HW120540   0.901   6.297   5.092
 6547SOL    HW220541   0.921   6.157   5.174
 6548SOL     OW20542   0.336   1.545   6.221
 6548SOL    HW120543   0.285   1.466   6.189
 6548SOL    HW220544   0.399   1.576   6.150
 6549SOL     OW20545   4.141   1.880   3.272
 6549SOL    HW120546   4.064   1.926   3.228
 6549SOL    HW220547   4.113   1.788   3.302
 6550SOL     OW20548   6.362   6.464   2.966
 6550SOL    HW120549   6.322   6.438   2.878
 6550SOL    HW220550   6.301   6.528   3.013
 6551SOL     OW20551   2.789   4.522   0.787
 6551SOL    HW120552   2.730   4.514   0.868
 6551SOL    HW220553   2.853   4.597   0.800
 6552SOL     OW20554   1.927   4.838   0.257
 6552SOL    HW120555   1.936   4.922   0.204
 6552SOL    HW220556   1.834   4.830   0.293
 6553SOL     OW20557   0.773   1.971   3.760
 6553SOL    HW120558   0.784   2.036   3.685
 6553SOL    HW220559   0.860   1.924   3.775
 6554SOL     OW20560   1.611   2.658   4.335
 6554SOL    HW120561   1.588   2.739   4.281
 6554SOL    HW220562   1.578   2.576   4.288
 6555SOL     OW20563   0.386   3.806   4.328
 6555SOL    HW120564   0.403   3.766   4.418
 6555SOL    HW220565   0.458   3.871   4.306
 6556SOL     OW20566   4.687   2.692   2.717
 6556SOL    HW120567   4.707   2.633   2.640
 6556SOL    HW220568   4.722   2.784   2.699
 6557SOL     OW20569   1.995   0.965   2.410
 6557SOL    HW120570   2.020   0.961   2.313
 6557SOL    HW220571   2.035   0.886   2.457
 6558SOL     OW20572   5.220   6.077   0.296
 6558SOL    HW120573   5.259   6.114   0.380
 6558SOL    HW220574   5.157   6.002   0.319
 6559SOL     OW20575   6.647   2.609   5.868
 6559SOL    HW120576   6.587   2.587   5.791
 6559SOL    HW220577   6.601   2.589   5.954
 6560SOL     OW20578   6.312   4.814   0.055
 6560SOL    HW120579   6.363   4.816   0.141
 6560SOL    HW220580   6.348   4.741   7.014
 6561SOL     OW20581   2.889   4.058   0.315
 6561SOL    HW120582   2.844   3.995   0.251
 6561SOL    HW220583   2.904   4.013   0.402
 6562SOL     OW20584   5.014   2.668   1.812
 6562SOL    HW120585   5.102   2.715   1.825
 6562SOL    HW220586   5.024   2.571   1.834
 6563SOL     OW20587   6.253   5.217   5.467
 6563SOL    HW120588   6.180   5.264   5.516
 6563SOL    HW220589   6.251   5.119   5.490
 6564SOL     OW20590   5.812   2.989   2.678
 6564SOL    HW120591   5.768   3.021   2.594
 6564SOL    HW220592   5.910   2.981   2.664
 6565SOL     OW20593   5.314   6.665   2.818
 6565SOL    HW120594   5.359   6.736   2.872
 6565SOL    HW220595   5.233   6.703   2.774
 6566SOL     OW20596   5.104   5.442   3.992
 6566SOL    HW120597   5.022   5.489   3.962
 6566SOL    HW220598   5.128   5.472   4.085
 6567SOL     OW20599   3.882   0.502   2.175
 6567SOL    HW120600   3.919   0.525   2.085
 6567SOL    HW220601   3.892   0.404   2.191
 6568SOL     OW20602   4.723   1.316   1.058
 6568SOL    HW120603   4.798   1.352   1.003
 6568SOL    HW220604   4.644   1.376   1.050
 6569SOL     OW20605   1.110   4.929   4.453
 6569SOL    HW120606   1.064   4.992   4.516
 6569SOL    HW220607   1.204   4.959   4.439
 6570SOL     OW20608   4.397   6.765   2.366
 6570SOL    HW120609   4.404   6.841   2.301
 6570SOL    HW220610   4.362   6.684   2.319
 6571SOL     OW20611   3.015   6.224   3.365
 6571SOL    HW120612   3.061   6.140   3.335
 6571SOL    HW220613   2.918   6.218   3.345
 6572SOL     OW20614   1.981   6.138   3.704
 6572SOL    HW120615   1.930   6.074   3.646
 6572SOL    HW220616   1.966   6.116   3.800
 6573SOL     OW20617   0.331   2.018   3.345
 6573SOL    HW120618   0.279   2.098   3.317
 6573SOL    HW220619   0.288   1.977   3.425
 6574SOL     OW20620   1.274   4.710   1.954
 6574SOL    HW120621   1.245   4.787   1.897
 6574SOL    HW220622   1.267   4.735   2.050
 6575SOL     OW20623   0.246   1.479   3.683
 6575SOL    HW120624   0.191   1.451   3.761
 6575SOL    HW220625   0.340   1.449   3.695
 6576SOL     OW20626   4.081   6.980   1.709
 6576SOL    HW120627   4.026   7.013   1.632
 6576SOL    HW220628   4.026   6.981   1.792
 6577SOL     OW20629   3.547   1.059   4.338
 6577SOL    HW120630   3.603   0.985   4.372
 6577SOL    HW220631   3.527   1.044   4.241
 6578SOL     OW20632   0.967   4.595   0.407
 6578SOL    HW120633   0.942   4.507   0.369
 6578SOL    HW220634   0.887   4.638   0.448
 6579SOL     OW20635   0.902   1.008   3.848
 6579SOL    HW120636   0.811   1.020   3.807
 6579SOL    HW220637   0.912   1.070   3.926
 6580SOL     OW20638   2.658   1.989   0.257
 6580SOL    HW120639   2.695   1.922   0.193
 6580SOL    HW220640   2.561   1.970   0.273
 6581SOL     OW20641   0.615   2.264   1.015
 6581SOL    HW120642   0.578   2.176   1.045
 6581SOL    HW220643   0.663   2.308   1.090
 6582SOL     OW20644   5.775   1.017   2.881
 6582SOL    HW120645   5.677   1.031   2.868
 6582SOL    HW220646   5.815   0.982   2.796
 6583SOL     OW20647   3.119   4.411   0.164
 6583SOL    HW120648   3.186   4.443   0.231
 6583SOL    HW220649   3.037   4.378   0.212
 6584SOL     OW20650   4.451   1.744   6.351
 6584SOL    HW120651   4.490   1.777   6.437
 6584SOL    HW220652   4.435   1.821   6.290
 6585SOL     OW20653   5.886   0.077   2.186
 6585SOL    HW120654   5.860   0.074   2.283
 6585SOL    HW220655   5.914   0.171   2.162
 6586SOL     OW20656   6.690   1.374   6.531
 6586SOL    HW120657   6.699   1.444   6.603
 6586SOL    HW220658   6.596   1.341   6.529
 6587SOL     OW20659   2.673   5.347   5.016
 6587SOL    HW120660   2.681   5.331   4.917
 6587SOL    HW220661   2.692   5.443   5.036
 6588SOL     OW20662   0.302   2.437   0.507
 6588SOL    HW120663   0.255   2.478   0.429
 6588SOL    HW220664   0.297   2.499   0.585
 6589SOL     OW20665   6.864   6.325   2.367
 6589SOL    HW120666   6.782   6.267   2.365
 6589SOL    HW220667   6.888   6.345   2.462
 6590SOL     OW20668   1.257   6.500   4.406
 6590SOL    HW120669   1.324   6.441   4.450
 6590SOL    HW220670   1.204   6.549   4.476
 6591SOL     OW20671   6.084   3.269   3.548
 6591SOL    HW120672   6.054   3.325   3.625
 6591SOL    HW220673   6.162   3.212   3.575
 6592SOL     OW20674   6.344   6.700   3.796
 6592SOL    HW120675   6.315   6.725   3.889
 6592SOL    HW220676   6.393   6.613   3.799
 6593SOL     OW20677   1.851   1.468   1.802
 6593SOL    HW120678   1.766   1.446   1.850
 6593SOL    HW220679   1.873   1.564   1.818
 6594SOL     OW20680   5.193   6.713   0.153
 6594SOL    HW120681   5.233   6.796   0.114
 6594SOL    HW220682   5.170   6.729   0.249
 6595SOL     OW20683   0.988   1.569   5.197
 6595SOL    HW120684   0.968   1.578   5.295
 6595SOL    HW220685   1.085   1.582   5.181
 6596SOL     OW20686   4.906   0.928   2.487
 6596SOL    HW120687   4.825   0.888   2.528
 6596SOL    HW220688   4.880   0.980   2.406
 6597SOL     OW20689   0.511   4.855   1.045
 6597SOL    HW120690   0.578   4.781   1.048
 6597SOL    HW220691   0.470   4.859   0.954
 6598SOL     OW20692   1.800   4.962   3.204
 6598SOL    HW120693   1.879   4.943   3.261
 6598SOL    HW220694   1.830   4.985   3.111
 6599SOL     OW20695   0.379   5.840   5.854
 6599SOL    HW120696   0.372   5.750   5.812
 6599SOL    HW220697   0.331   5.841   5.941
 6600SOL     OW20698   4.687   6.878   5.465
 6600SOL    HW120699   4.787   6.885   5.468
 6600SOL    HW220700   4.648   6.965   5.435
 6601SOL     OW20701   1.526   2.305   2.032
 6601SOL    HW120702   1.472   2.372   1.982
 6601SOL    HW220703   1.617   2.298   1.990
 6602SOL     OW20704   0.193   5.306   1.680
 6602SOL    HW120705   0.187   5.218   1.728
 6602SOL    HW220706   0.289   5.332   1.673
 6603SOL     OW20707   0.259   4.577   2.252
 6603SOL    HW120708   0.320   4.642   2.297
 6603SOL    HW220709   0.275   4.485   2.290
 6604SOL     OW20710   1.770   5.699   3.468
 6604SOL    HW120711   1.733   5.632   3.403
 6604SOL    HW220712   1.721   5.692   3.555
 6605SOL     OW20713   6.806   5.905   0.710
 6605SOL    HW120714   6.767   5.997   0.722
 6605SOL    HW220715   6.905   5.912   0.699
 6606SOL     OW20716   1.449   3.448   2.876
 6606SOL    HW120717   1.431   3.546   2.869
 6606SOL    HW220718   1.537   3.432   2.921
 6607SOL     OW20719   6.278   3.199   3.907
 6607SOL    HW120720   6.288   3.114   3.855
 6607SOL    HW220721   6.221   3.182   3.988
 6608SOL     OW20722   1.484   6.778   5.518
 6608SOL    HW120723   1.570   6.817   5.485
 6608SOL    HW220724   1.455   6.706   5.456
 6609SOL     OW20725   4.210   1.730   6.639
 6609SOL    HW120726   4.147   1.671   6.589
 6609SOL    HW220727   4.292   1.745   6.585
 6610SOL     OW20728   2.929   5.854   1.021
 6610SOL    HW120729   3.025   5.832   1.039
 6610SOL    HW220730   2.902   5.932   1.078
 6611SOL     OW20731   2.861   1.728   4.881
 6611SOL    HW120732   2.771   1.767   4.900
 6611SOL    HW220733   2.907   1.783   4.812
 6612SOL     OW20734   0.518   0.440   0.030
 6612SOL    HW120735   0.545   0.533   0.053
 6612SOL    HW220736   0.538   0.379   0.106
 6613SOL     OW20737   4.560   6.592   0.221
 6613SOL    HW120738   4.612   6.675   0.239
 6613SOL    HW220739   4.558   6.536   0.304
 6614SOL     OW20740   3.867   5.071   0.754
 6614SOL    HW120741   3.791   5.051   0.816
 6614SOL    HW220742   3.858   5.165   0.720
 6615SOL     OW20743   3.588   5.898   5.873
 6615SOL    HW120744   3.595   5.818   5.932
 6615SOL    HW220745   3.632   5.977   5.916
 6616SOL     OW20746   4.391   1.194   0.160
 6616SOL    HW120747   4.336   1.276   0.145
 6616SOL    HW220748   4.427   1.162   0.072
 6617SOL     OW20749   3.620   0.673   3.764
 6617SOL    HW120750   3.589   0.637   3.676
 6617SOL    HW220751   3.557   0.646   3.836
 6618SOL     OW20752   5.629   2.096   4.321
 6618SOL    HW120753   5.665   2.009   4.288
 6618SOL    HW220754   5.560   2.080   4.391
 6619SOL     OW20755   4.956   5.197   3.925
 6619SOL    HW120756   5.031   5.262   3.933
 6619SOL    HW220757   4.987   5.118   3.872
 6620SOL     OW20758   1.275   2.560   3.559
 6620SOL    HW120759   1.344   2.489   3.543
 6620SOL    HW220760   1.319   2.650   3.553
 6621SOL     OW20761   2.849   3.464   4.089
 6621SOL    HW120762   2.878   3.533   4.155
 6621SOL    HW220763   2.754   3.438   4.107
 6622SOL     OW20764   7.003   5.357   1.061
 6622SOL    HW120765   0.058   5.290   1.046
 6622SOL    HW220766   0.014   5.423   1.131
 6623SOL     OW20767   3.109   4.000   4.150
 6623SOL    HW120768   3.064   3.921   4.109
 6623SOL    HW220769   3.116   3.987   4.249
 6624SOL     OW20770   2.484   2.497   2.650
 6624SOL    HW120771   2.476   2.423   2.583
 6624SOL    HW220772   2.407   2.560   2.639
 6625SOL     OW20773   6.648   4.159   5.437
 6625SOL    HW120774   6.663   4.226   5.364
 6625SOL    HW220775   6.731   4.151   5.492
 6626SOL     OW20776   3.328   5.908   5.502
 6626SOL    HW120777   3.355   5.946   5.413
 6626SOL    HW220778   3.383   5.949   5.574
 6627SOL     OW20779   2.136   6.534   4.068
 6627SOL    HW120780   2.107   6.439   4.051
 6627SOL    HW220781   2.210   6.534   4.136
 6628SOL     OW20782   3.914   6.511   3.168
 6628SOL    HW120783   3.902   6.607   3.193
 6628SOL    HW220784   3.925   6.456   3.252
 6629SOL     OW20785   5.205   5.427   5.320
 6629SOL    HW120786   5.304   5.435   5.320
 6629SOL    HW220787   5.176   5.360   5.388
 6630SOL     OW20788   1.630   1.114   0.190
 6630SOL    HW120789   1.637   1.014   0.189
 6630SOL    HW220790   1.663   1.151   0.103
 6631SOL     OW20791   2.121   3.128   5.653
 6631SOL    HW120792   2.057   3.051   5.654
 6631SOL    HW220793   2.169   3.132   5.741
 6632SOL     OW20794   1.194   0.135   6.969
 6632SOL    HW120795   1.118   0.125   0.015
 6632SOL    HW220796   1.218   0.232   6.960
 6633SOL     OW20797   4.185   5.463   6.286
 6633SOL    HW120798   4.129   5.394   6.240
 6633SOL    HW220799   4.166   5.553   6.247
 6634SOL     OW20800   3.548   2.023   4.072
 6634SOL    HW120801   3.598   2.025   4.159
 6634SOL    HW220802   3.607   2.059   3.999
 6635SOL     OW20803   5.160   5.145   5.113
 6635SOL    HW120804   5.248   5.189   5.096
 6635SOL    HW220805   5.156   5.058   5.064
 6636SOL     OW20806   4.458   1.010   6.983
 6636SOL    HW120807   4.491   0.932   0.016
 6636SOL    HW220808   4.487   1.002   6.887
 6637SOL     OW20809   0.051   2.329   0.260
 6637SOL    HW120810   6.984   2.325   0.207
 6637SOL    HW220811   0.085   2.422   0.262
 6638SOL     OW20812   2.890   3.769   3.717
 6638SOL    HW120813   2.873   3.671   3.729
 6638SOL    HW220814   2.836   3.820   3.783
 6639SOL     OW20815   5.258   2.447   1.524
 6639SOL    HW120816   5.320   2.419   1.450
 6639SOL    HW220817   5.249   2.547   1.524
 6640SOL     OW20818   1.630   4.283   4.813
 6640SOL    HW120819   1.696   4.299   4.886
 6640SOL    HW220820   1.569   4.208   4.840
 6641SOL     OW20821   6.056   2.347   0.594
 6641SOL    HW120822   6.040   2.335   0.692
 6641SOL    HW220823   6.133   2.410   0.580
 6642SOL     OW20824   1.697   5.798   0.054
 6642SOL    HW120825   1.658   5.798   0.146
 6642SOL    HW220826   1.659   5.875   0.002
 6643SOL     OW20827   3.004   5.979   6.358
 6643SOL    HW120828   3.103   5.986   6.366
 6643SOL    HW220829   2.964   6.071   6.351
 6644SOL     OW20830   2.263   0.085   3.931
 6644SOL    HW120831   2.274   0.163   3.870
 6644SOL    HW220832   2.338   0.020   3.915
 6645SOL     OW20833   5.268   2.882   6.243
 6645SOL    HW120834   5.284   2.973   6.283
 6645SOL    HW220835   5.171   2.870   6.224
 6646SOL     OW20836   3.374   0.126   5.654
 6646SOL    HW120837   3.387   0.028   5.636
 6646SOL    HW220838   3.388   0.178   5.570
 6647SOL     OW20839   4.054   4.886   0.823
 6647SOL    HW120840   3.984   4.956   0.803
 6647SOL    HW220841   4.095   4.855   0.738
 6648SOL     OW20842   3.242   5.797   5.159
 6648SOL    HW120843   3.249   5.807   5.059
 6648SOL    HW220844   3.297   5.718   5.188
 6649SOL     OW20845   4.784   2.820   6.156
 6649SOL    HW120846   4.786   2.752   6.083
 6649SOL    HW220847   4.839   2.899   6.129
 6650SOL     OW20848   1.355   1.421   5.767
 6650SOL    HW120849   1.331   1.449   5.673
 6650SOL    HW220850   1.335   1.324   5.778
 6651SOL     OW20851   6.797   1.704   5.835
 6651SOL    HW120852   6.723   1.694   5.768
 6651SOL    HW220853   6.776   1.650   5.916
 6652SOL     OW20854   6.988   5.053   0.644
 6652SOL    HW120855   7.000   4.983   0.714
 6652SOL    HW220856   0.052   5.056   0.586
 6653SOL     OW20857   5.785   4.696   0.283
 6653SOL    HW120858   5.819   4.761   0.215
 6653SOL    HW220859   5.692   4.669   0.260
 6654SOL     OW20860   6.366   3.390   3.696
 6654SOL    HW120861   6.301   3.463   3.715
 6654SOL    HW220862   6.330   3.303   3.731
 6655SOL     OW20863   0.025   5.920   1.574
 6655SOL    HW120864   6.998   6.009   1.575
 6655SOL    HW220865   6.989   5.854   1.625
 6656SOL     OW20866   4.019   1.389   3.187
 6656SOL    HW120867   3.937   1.385   3.245
 6656SOL    HW220868   3.992   1.404   3.092
 6657SOL     OW20869   5.341   1.494   4.313
 6657SOL    HW120870   5.344   1.580   4.262
 6657SOL    HW220871   5.281   1.505   4.393
 6658SOL     OW20872   6.759   6.295   5.413
 6658SOL    HW120873   6.739   6.227   5.484
 6658SOL    HW220874   6.749   6.253   5.323
 6659SOL     OW20875   0.783   5.024   1.453
 6659SOL    HW120876   0.695   5.069   1.445
 6659SOL    HW220877   0.770   4.926   1.467
 6660SOL     OW20878   6.798   0.404   4.652
 6660SOL    HW120879   6.875   0.456   4.690
 6660SOL    HW220880   6.828   0.310   4.633
 6661SOL     OW20881   3.962   5.564   3.938
 6661SOL    HW120882   3.887   5.550   3.873
 6661SOL    HW220883   3.987   5.660   3.940
 6662SOL     OW20884   3.646   6.566   2.729
 6662SOL    HW120885   3.708   6.545   2.805
 6662SOL    HW220886   3.562   6.514   2.740
 6663SOL     OW20887   0.902   4.607   6.338
 6663SOL    HW120888   0.842   4.546   6.286
 6663SOL    HW220889   0.940   4.677   6.277
 6664SOL     OW20890   2.890   0.240   1.431
 6664SOL    HW120891   2.862   0.293   1.511
 6664SOL    HW220892   2.979   0.199   1.449
 6665SOL     OW20893   2.913   0.676   6.998
 6665SOL    HW120894   2.938   0.613   6.924
 6665SOL    HW220895   2.976   0.663   0.057
 6666SOL     OW20896   3.868   6.069   4.945
 6666SOL    HW120897   3.958   6.108   4.966
 6666SOL    HW220898   3.870   5.970   4.962
 6667SOL     OW20899   1.185   5.706   6.601
 6667SOL    HW120900   1.190   5.805   6.619
 6667SOL    HW220901   1.257   5.680   6.537
 6668SOL     OW20902   0.449   4.371   0.584
 6668SOL    HW120903   0.369   4.430   0.576
 6668SOL    HW220904   0.479   4.368   0.680
 6669SOL     OW20905   1.612   1.916   3.042
 6669SOL    HW120906   1.545   1.985   3.070
 6669SOL    HW220907   1.701   1.959   3.030
 6670SOL     OW20908   3.684   3.271   0.491
 6670SOL    HW120909   3.775   3.312   0.502
 6670SOL    HW220910   3.677   3.232   0.399
 6671SOL     OW20911   4.498   4.932   0.377
 6671SOL    HW120912   4.415   4.878   0.362
 6671SOL    HW220913   4.497   5.011   0.317
 6672SOL     OW20914   0.979   1.933   1.507
 6672SOL    HW120915   0.959   2.030   1.514
 6672SOL    HW220916   1.074   1.921   1.477
 6673SOL     OW20917   6.222   2.673   4.173
 6673SOL    HW120918   6.187   2.720   4.254
 6673SOL    HW220919   6.153   2.677   4.100
 6674SOL     OW20920   0.242   1.450   0.513
 6674SOL    HW120921   0.244   1.539   0.560
 6674SOL    HW220922   0.335   1.425   0.485
 6675SOL     OW20923   4.820   0.493   6.651
 6675SOL    HW120924   4.823   0.588   6.620
 6675SOL    HW220925   4.911   0.466   6.682
 6676SOL     OW20926   0.431   4.244   4.404
 6676SOL    HW120927   0.406   4.192   4.485
 6676SOL    HW220928   0.520   4.287   4.419
 6677SOL     OW20929   0.971   2.038   6.475
 6677SOL    HW120930   0.948   1.953   6.428
 6677SOL    HW220931   1.033   2.092   6.418
 6678SOL     OW20932   2.868   4.524   6.328
 6678SOL    HW120933   2.877   4.483   6.237
 6678SOL    HW220934   2.926   4.605   6.335
 6679SOL     OW20935   1.699   0.540   3.748
 6679SOL    HW120936   1.670   0.508   3.658
 6679SOL    HW220937   1.757   0.621   3.738
 6680SOL     OW20938   6.611   5.894   1.257
 6680SOL    HW120939   6.648   5.814   1.305
 6680SOL    HW220940   6.596   5.872   1.161
 6681SOL     OW20941   3.378   6.247   1.634
 6681SOL    HW120942   3.326   6.299   1.702
 6681SOL    HW220943   3.464   6.293   1.615
 6682SOL     OW20944   3.353   5.696   5.745
 6682SOL    HW120945   3.400   5.747   5.817
 6682SOL    HW220946   3.404   5.704   5.659
 6683SOL     OW20947   7.007   5.258   5.803
 6683SOL    HW120948   0.057   5.232   5.735
 6683SOL    HW220949   7.003   5.188   5.874
 6684SOL     OW20950   2.889   5.709   6.889
 6684SOL    HW120951   2.817   5.754   6.942
 6684SOL    HW220952   2.902   5.757   6.803
 6685SOL     OW20953   5.145   2.801   0.873
 6685SOL    HW120954   5.127   2.743   0.952
 6685SOL    HW220955   5.230   2.851   0.886
 6686SOL     OW20956   5.190   4.984   4.849
 6686SOL    HW120957   5.224   4.942   4.765
 6686SOL    HW220958   5.164   5.079   4.831
 6687SOL     OW20959   6.919   1.475   1.500
 6687SOL    HW120960   6.900   1.414   1.577
 6687SOL    HW220961   6.955   1.422   1.423
 6688SOL     OW20962   4.033   5.008   0.401
 6688SOL    HW120963   4.076   4.919   0.382
 6688SOL    HW220964   3.949   4.995   0.453
 6689SOL     OW20965   2.678   4.098   5.646
 6689SOL    HW120966   2.704   4.010   5.607
 6689SOL    HW220967   2.707   4.102   5.742
 6690SOL     OW20968   0.610   0.322   6.597
 6690SOL    HW120969   0.523   0.371   6.599
 6690SOL    HW220970   0.606   0.242   6.657
 6691SOL     OW20971   2.867   1.659   2.294
 6691SOL    HW120972   2.845   1.754   2.276
 6691SOL    HW220973   2.966   1.648   2.304
 6692SOL     OW20974   4.541   5.540   2.279
 6692SOL    HW120975   4.466   5.604   2.297
 6692SOL    HW220976   4.591   5.569   2.197
 6693SOL     OW20977   3.510   1.554   5.223
 6693SOL    HW120978   3.519   1.455   5.232
 6693SOL    HW220979   3.486   1.594   5.312
 6694SOL     OW20980   4.246   4.275   1.275
 6694SOL    HW120981   4.156   4.318   1.263
 6694SOL    HW220982   4.318   4.344   1.267
 6695SOL     OW20983   2.642   2.272   0.457
 6695SOL    HW120984   2.544   2.288   0.443
 6695SOL    HW220985   2.655   2.178   0.489
 6696SOL     OW20986   4.104   3.422   4.204
 6696SOL    HW120987   4.040   3.479   4.255
 6696SOL    HW220988   4.139   3.473   4.126
 6697SOL     OW20989   4.594   2.051   2.105
 6697SOL    HW120990   4.557   2.041   2.198
 6697SOL    HW220991   4.526   2.096   2.047
 6698SOL     OW20992   3.949   4.284   1.595
 6698SOL    HW120993   3.920   4.196   1.631
 6698SOL    HW220994   3.889   4.356   1.631
 6699SOL     OW20995   1.334   3.248   5.564
 6699SOL    HW120996   1.263   3.186   5.598
 6699SOL    HW220997   1.295   3.338   5.548
 6700SOL     OW20998   5.594   0.266   1.047
 6700SOL    HW120999   5.665   0.319   1.094
 6700SOL    HW221000   5.631   0.178   1.018
 6701SOL     OW21001   6.387   6.837   1.588
 6701SOL    HW121002   6.429   6.807   1.503
 6701SOL    HW221003   6.314   6.774   1.614
 6702SOL     OW21004   3.763   3.381   1.159
 6702SOL    HW121005   3.809   3.465   1.185
 6702SOL    HW221006   3.787   3.358   1.064
 6703SOL     OW21007   0.049   1.509   0.155
 6703SOL    HW121008   0.087   1.537   0.067
 6703SOL    HW221009   0.008   1.589   0.200
 6704SOL     OW21010   3.212   6.832   5.781
 6704SOL    HW121011   3.265   6.790   5.854
 6704SOL    HW221012   3.273   6.862   5.708
 6705SOL     OW21013   0.021   4.247   2.125
 6705SOL    HW121014   0.007   4.261   2.027
 6705SOL    HW221015   0.119   4.252   2.145
 6706SOL     OW21016   0.270   6.798   1.587
 6706SOL    HW121017   0.268   6.700   1.572
 6706SOL    HW221018   0.309   6.844   1.507
 6707SOL     OW21019   4.824   1.350   2.556
 6707SOL    HW121020   4.869   1.325   2.470
 6707SOL    HW221021   4.727   1.363   2.540
 6708SOL     OW21022   0.922   3.044   0.230
 6708SOL    HW121023   0.858   3.117   0.253
 6708SOL    HW221024   1.011   3.064   0.270
 6709SOL     OW21025   2.387   4.349   2.185
 6709SOL    HW121026   2.339   4.262   2.199
 6709SOL    HW221027   2.418   4.355   2.091
 6710SOL     OW21028   4.503   1.472   1.022
 6710SOL    HW121029   4.472   1.465   0.927
 6710SOL    HW221030   4.455   1.546   1.068
 6711SOL     OW21031   3.088   6.164   5.953
 6711SOL    HW121032   3.077   6.219   6.036
 6711SOL    HW221033   2.999   6.130   5.923
 6712SOL     OW21034   5.404   4.705   1.255
 6712SOL    HW121035   5.318   4.747   1.283
 6712SOL    HW221036   5.479   4.770   1.269
 6713SOL     OW21037   1.377   5.417   4.573
 6713SOL    HW121038   1.336   5.508   4.580
 6713SOL    HW221039   1.331   5.365   4.502
 6714SOL     OW21040   5.420   1.260   1.607
 6714SOL    HW121041   5.340   1.294   1.654
 6714SOL    HW221042   5.469   1.195   1.665
 6715SOL     OW21043   1.595   0.314   6.389
 6715SOL    HW121044   1.595   0.244   6.317
 6715SOL    HW221045   1.519   0.297   6.452
 6716SOL     OW21046   6.923   6.020   2.269
 6716SOL    HW121047   7.011   6.067   2.269
 6716SOL    HW221048   6.927   5.941   2.208
 6717SOL     OW21049   5.543   1.736   5.864
 6717SOL    HW121050   5.606   1.716   5.940
 6717SOL    HW221051   5.573   1.818   5.816
 6718SOL     OW21052   4.383   1.599   1.255
 6718SOL    HW121053   4.307   1.551   1.298
 6718SOL    HW221054   4.366   1.698   1.256
 6719SOL     OW21055   1.867   1.495   6.939
 6719SOL    HW121056   1.863   1.412   6.884
 6719SOL    HW221057   1.775   1.532   6.951
 6720SOL     OW21058   1.379   0.945   6.084
 6720SOL    HW121059   1.424   0.926   6.171
 6720SOL    HW221060   1.324   0.867   6.056
 6721SOL     OW21061   5.907   6.825   0.997
 6721SOL    HW121062   5.926   6.773   1.080
 6721SOL    HW221063   5.910   6.923   1.017
 6722SOL     OW21064   5.436   3.677   0.450
 6722SOL    HW121065   5.421   3.680   0.351
 6722SOL    HW221066   5.350   3.656   0.496
 6723SOL     OW21067   0.916   2.571   5.699
 6723SOL    HW121068   0.990   2.581   5.765
 6723SOL    HW221069   0.954   2.540   5.611
 6724SOL     OW21070   2.128   3.597   4.249
 6724SOL    HW121071   2.055   3.595   4.180
 6724SOL    HW221072   2.125   3.514   4.304
 6725SOL     OW21073   4.748   2.826   3.457
 6725SOL    HW121074   4.801   2.814   3.541
 6725SOL    HW221075   4.773   2.913   3.414
 6726SOL     OW21076   0.471   0.557   5.910
 6726SOL    HW121077   0.457   0.478   5.850
 6726SOL    HW221078   0.495   0.526   6.002
 6727SOL     OW21079   1.232   4.874   5.574
 6727SOL    HW121080   1.307   4.835   5.521
 6727SOL    HW221081   1.261   4.960   5.616
 6728SOL     OW21082   3.447   1.302   3.351
 6728SOL    HW121083   3.485   1.234   3.288
 6728SOL    HW221084   3.403   1.255   3.428
 6729SOL     OW21085   4.127   1.102   2.209
 6729SOL    HW121086   4.209   1.071   2.161
 6729SOL    HW221087   4.083   1.023   2.253
 6730SOL     OW21088   6.915   1.819   0.878
 6730SOL    HW121089   6.906   1.885   0.803
 6730SOL    HW221090   7.011   1.813   0.906
 6731SOL     OW21091   3.813   0.190   6.512
 6731SOL    HW121092   3.800   0.232   6.422
 6731SOL    HW221093   3.899   0.139   6.513
 6732SOL     OW21094   0.024   4.912   5.632
 6732SOL    HW121095   0.039   4.833   5.692
 6732SOL    HW221096   0.084   4.987   5.660
 6733SOL     OW21097   4.850   4.835   5.619
 6733SOL    HW121098   4.878   4.884   5.701
 6733SOL    HW221099   4.930   4.817   5.562
 6734SOL     OW21100   6.088   1.953   4.129
 6734SOL    HW121101   6.029   1.874   4.141
 6734SOL    HW221102   6.044   2.034   4.169
 6735SOL     OW21103   6.675   2.752   3.244
 6735SOL    HW121104   6.613   2.820   3.282
 6735SOL    HW221105   6.667   2.667   3.296
 6736SOL     OW21106   3.468   3.470   0.879
 6736SOL    HW121107   3.526   3.392   0.860
 6736SOL    HW221108   3.464   3.485   0.978
 6737SOL     OW21109   6.673   3.625   0.138
 6737SOL    HW121110   6.637   3.569   0.063
 6737SOL    HW221111   6.600   3.680   0.177
 6738SOL     OW21112   1.229   5.880   4.179
 6738SOL    HW121113   1.325   5.882   4.150
 6738SOL    HW221114   1.220   5.930   4.266
 6739SOL     OW21115   0.100   0.091   5.369
 6739SOL    HW121116   0.056   0.023   5.428
 6739SOL    HW221117   0.032   0.156   5.336
 6740SOL     OW21118   0.330   0.007   3.055
 6740SOL    HW121119   0.408   7.001   3.112
 6740SOL    HW221120   0.348   6.999   2.960
 6741SOL     OW21121   3.734   1.985   0.209
 6741SOL    HW121122   3.833   1.986   0.224
 6741SOL    HW221123   3.706   2.071   0.165
 6742SOL     OW21124   5.923   4.190   3.541
 6742SOL    HW121125   5.931   4.263   3.610
 6742SOL    HW221126   5.988   4.117   3.563
 6743SOL     OW21127   3.730   3.580   0.901
 6743SOL    HW121128   3.754   3.660   0.848
 6743SOL    HW221129   3.642   3.544   0.870
 6744SOL     OW21130   6.252   6.760   6.166
 6744SOL    HW121131   6.205   6.671   6.168
 6744SOL    HW221132   6.289   6.775   6.075
 6745SOL     OW21133   0.159   4.550   5.124
 6745SOL    HW121134   0.075   4.528   5.075
 6745SOL    HW221135   0.138   4.562   5.221
 6746SOL     OW21136   0.972   2.272   2.834
 6746SOL    HW121137   1.026   2.296   2.754
 6746SOL    HW221138   0.953   2.174   2.833
 6747SOL     OW21139   1.407   6.212   5.842
 6747SOL    HW121140   1.396   6.307   5.814
 6747SOL    HW221141   1.334   6.156   5.803
 6748SOL     OW21142   1.755   0.942   4.829
 6748SOL    HW121143   1.676   0.971   4.774
 6748SOL    HW221144   1.792   0.857   4.792
 6749SOL     OW21145   4.095   5.027   2.040
 6749SOL    HW121146   4.065   5.055   1.948
 6749SOL    HW221147   4.030   4.962   2.078
 6750SOL     OW21148   3.852   1.046   4.704
 6750SOL    HW121149   3.871   1.143   4.685
 6750SOL    HW221150   3.852   1.031   4.803
 6751SOL     OW21151   4.496   0.163   4.550
 6751SOL    HW121152   4.510   0.082   4.492
 6751SOL    HW221153   4.567   0.166   4.620
 6752SOL     OW21154   2.110   4.415   2.303
 6752SOL    HW121155   2.012   4.399   2.311
 6752SOL    HW221156   2.158   4.328   2.307
 6753SOL     OW21157   4.016   3.170   6.483
 6753SOL    HW121158   4.088   3.232   6.516
 6753SOL    HW221159   4.058   3.097   6.428
 6754SOL     OW21160   6.088   1.903   0.576
 6754SOL    HW121161   6.015   1.923   0.642
 6754SOL    HW221162   6.048   1.859   0.495
 6755SOL     OW21163   2.808   5.975   6.148
 6755SOL    HW121164   2.719   5.991   6.190
 6755SOL    HW221165   2.873   5.945   6.218
 6756SOL     OW21166   3.626   2.215   6.162
 6756SOL    HW121167   3.677   2.298   6.142
 6756SOL    HW221168   3.661   2.173   6.245
 6757SOL     OW21169   4.181   0.174   1.007
 6757SOL    HW121170   4.132   0.244   1.059
 6757SOL    HW221171   4.168   0.085   1.050
 6758SOL     OW21172   5.213   1.927   3.451
 6758SOL    HW121173   5.284   1.975   3.503
 6758SOL    HW221174   5.129   1.922   3.505
 6759SOL     OW21175   0.662   1.901   2.756
 6759SOL    HW121176   0.650   1.998   2.739
 6759SOL    HW221177   0.604   1.873   2.832
 6760SOL     OW21178   5.193   2.414   4.928
 6760SOL    HW121179   5.232   2.430   4.838
 6760SOL    HW221180   5.262   2.371   4.987
 6761SOL     OW21181   3.507   1.365   5.044
 6761SOL    HW121182   3.515   1.341   4.947
 6761SOL    HW221183   3.490   1.463   5.054
 6762SOL     OW21184   6.850   5.327   4.433
 6762SOL    HW121185   6.817   5.258   4.497
 6762SOL    HW221186   6.944   5.352   4.456
 6763SOL     OW21187   5.714   5.647   4.832
 6763SOL    HW121188   5.648   5.688   4.894
 6763SOL    HW221189   5.675   5.641   4.740
 6764SOL     OW21190   1.096   4.974   0.569
 6764SOL    HW121191   1.131   5.067   0.582
 6764SOL    HW221192   1.125   4.939   0.480
 6765SOL     OW21193   0.190   4.511   3.052
 6765SOL    HW121194   0.140   4.465   2.978
 6765SOL    HW221195   0.248   4.583   3.014
 6766SOL     OW21196   5.842   0.679   1.332
 6766SOL    HW121197   5.770   0.724   1.280
 6766SOL    HW221198   5.931   0.708   1.297
 6767SOL     OW21199   3.250   0.402   0.765
 6767SOL    HW121200   3.183   0.468   0.731
 6767SOL    HW221201   3.219   0.366   0.853
 6768SOL     OW21202   1.871   1.077   0.342
 6768SOL    HW121203   1.782   1.109   0.308
 6768SOL    HW221204   1.911   1.014   0.275
 6769SOL     OW21205   4.346   2.878   1.502
 6769SOL    HW121206   4.258   2.907   1.539
 6769SOL    HW221207   4.412   2.868   1.576
 6770SOL     OW21208   0.304   0.955   1.713
 6770SOL    HW121209   0.247   0.974   1.792
 6770SOL    HW221210   0.314   1.038   1.658
 6771SOL     OW21211   4.426   1.829   3.197
 6771SOL    HW121212   4.460   1.743   3.158
 6771SOL    HW221213   4.326   1.829   3.194
 6772SOL     OW21214   3.327   1.855   3.080
 6772SOL    HW121215   3.319   1.817   3.172
 6772SOL    HW221216   3.357   1.951   3.086
 6773SOL     OW21217   0.548   3.889   1.451
 6773SOL    HW121218   0.484   3.848   1.516
 6773SOL    HW221219   0.560   3.828   1.373
 6774SOL     OW21220   0.627   1.988   6.193
 6774SOL    HW121221   0.699   2.013   6.128
 6774SOL    HW221222   0.569   2.067   6.211
 6775SOL     OW21223   2.344   4.677   0.127
 6775SOL    HW121224   2.356   4.580   0.149
 6775SOL    HW221225   2.278   4.717   0.191
 6776SOL     OW21226   5.667   5.703   7.004
 6776SOL    HW121227   5.684   5.605   7.008
 6776SOL    HW221228   5.743   5.749   6.958
 6777SOL     OW21229   4.799   5.144   6.700
 6777SOL    HW121230   4.875   5.204   6.677
 6777SOL    HW221231   4.717   5.172   6.650
 6778SOL     OW21232   0.460   6.209   2.933
 6778SOL    HW121233   0.484   6.114   2.913
 6778SOL    HW221234   0.424   6.253   2.851
 6779SOL     OW21235   0.598   4.369   0.278
 6779SOL    HW121236   0.645   4.379   0.190
 6779SOL    HW221237   0.634   4.290   0.327
 6780SOL     OW21238   0.175   2.867   2.095
 6780SOL    HW121239   0.076   2.877   2.099
 6780SOL    HW221240   0.214   2.880   2.187
 6781SOL     OW21241   6.283   5.083   6.134
 6781SOL    HW121242   6.332   5.055   6.216
 6781SOL    HW221243   6.213   5.016   6.111
 6782SOL     OW21244   6.188   1.451   2.818
 6782SOL    HW121245   6.089   1.461   2.826
 6782SOL    HW221246   6.220   1.379   2.879
 6783SOL     OW21247   0.601   6.100   6.860
 6783SOL    HW121248   0.548   6.180   6.887
 6783SOL    HW221249   0.539   6.024   6.839
 6784SOL     OW21250   3.515   3.083   0.203
 6784SOL    HW121251   3.607   3.117   0.186
 6784SOL    HW221252   3.507   3.054   0.298
 6785SOL     OW21253   6.189   6.515   2.239
 6785SOL    HW121254   6.119   6.534   2.171
 6785SOL    HW221255   6.280   6.528   2.199
 6786SOL     OW21256   1.948   3.245   6.075
 6786SOL    HW121257   2.016   3.218   6.007
 6786SOL    HW221258   1.981   3.221   6.166
 6787SOL     OW21259   1.260   3.847   1.658
 6787SOL    HW121260   1.174   3.799   1.677
 6787SOL    HW221261   1.332   3.780   1.637
 6788SOL     OW21262   2.618   4.476   0.998
 6788SOL    HW121263   2.556   4.531   1.054
 6788SOL    HW221264   2.598   4.379   1.011
 6789SOL     OW21265   0.287   6.615   3.387
 6789SOL    HW121266   0.215   6.681   3.366
 6789SOL    HW221267   0.372   6.663   3.409
 6790SOL     OW21268   1.888   3.364   0.203
 6790SOL    HW121269   1.935   3.306   0.270
 6790SOL    HW221270   1.942   3.446   0.185
 6791SOL     OW21271   4.043   3.634   6.297
 6791SOL    HW121272   3.954   3.619   6.340
 6791SOL    HW221273   4.034   3.708   6.230
 6792SOL     OW21274   0.146   5.325   0.598
 6792SOL    HW121275   0.224   5.364   0.548
 6792SOL    HW221276   0.172   5.235   0.633
 6793SOL     OW21277   6.415   1.786   0.994
 6793SOL    HW121278   6.412   1.686   1.006
 6793SOL    HW221279   6.510   1.815   0.984
 6794SOL     OW21280   4.850   0.868   5.054
 6794SOL    HW121281   4.915   0.941   5.031
 6794SOL    HW221282   4.772   0.906   5.103
 6795SOL     OW21283   3.059   5.663   0.083
 6795SOL    HW121284   3.122   5.740   0.095
 6795SOL    HW221285   2.992   5.685   0.013
 6796SOL     OW21286   4.093   2.137   2.895
 6796SOL    HW121287   4.178   2.086   2.893
 6796SOL    HW221288   4.080   2.185   2.807
 6797SOL     OW21289   6.873   3.395   2.466
 6797SOL    HW121290   6.857   3.368   2.561
 6797SOL    HW221291   6.914   3.487   2.464
 6798SOL     OW21292   6.434   6.308   2.488
 6798SOL    HW121293   6.380   6.365   2.550
 6798SOL    HW221294   6.479   6.366   2.420
 6799SOL     OW21295   5.087   6.243   1.374
 6799SOL    HW121296   5.041   6.170   1.323
 6799SOL    HW221297   5.036   6.262   1.458
 6800SOL     OW21298   3.168   4.715   6.748
 6800SOL    HW121299   3.133   4.724   6.842
 6800SOL    HW221300   3.241   4.783   6.734
 6801SOL     OW21301   1.795   1.907   2.582
 6801SOL    HW121302   1.807   1.902   2.681
 6801SOL    HW221303   1.841   1.988   2.547
 6802SOL     OW21304   2.045   5.859   2.337
 6802SOL    HW121305   2.049   5.769   2.379
 6802SOL    HW221306   1.958   5.868   2.287
 6803SOL     OW21307   5.405   2.709   0.244
 6803SOL    HW121308   5.375   2.673   0.156
 6803SOL    HW221309   5.326   2.720   0.304
 6804SOL     OW21310   1.550   6.692   3.722
 6804SOL    HW121311   1.591   6.715   3.633
 6804SOL    HW221312   1.454   6.720   3.723
 6805SOL     OW21313   5.523   0.394   4.219
 6805SOL    HW121314   5.491   0.482   4.254
 6805SOL    HW221315   5.617   0.403   4.186
 6806SOL     OW21316   4.171   0.454   5.945
 6806SOL    HW121317   4.225   0.538   5.941
 6806SOL    HW221318   4.085   0.467   5.896
 6807SOL     OW21319   3.391   3.036   6.934
 6807SOL    HW121320   3.402   2.941   6.907
 6807SOL    HW221321   3.393   3.043   0.016
 6808SOL     OW21322   1.757   3.061   5.246
 6808SOL    HW121323   1.845   3.046   5.200
 6808SOL    HW221324   1.682   3.042   5.183
 6809SOL     OW21325   1.816   3.903   6.404
 6809SOL    HW121326   1.737   3.935   6.352
 6809SOL    HW221327   1.853   3.978   6.458
 6810SOL     OW21328   5.959   1.553   2.381
 6810SOL    HW121329   6.044   1.563   2.330
 6810SOL    HW221330   5.962   1.469   2.434
 6811SOL     OW21331   4.914   5.517   1.227
 6811SOL    HW121332   4.974   5.438   1.233
 6811SOL    HW221333   4.854   5.520   1.306
 6812SOL     OW21334   3.151   3.575   2.760
 6812SOL    HW121335   3.174   3.622   2.845
 6812SOL    HW221336   3.059   3.602   2.730
 6813SOL     OW21337   4.585   3.969   1.212
 6813SOL    HW121338   4.568   3.874   1.183
 6813SOL    HW221339   4.548   4.031   1.144
 6814SOL     OW21340   2.485   3.853   0.489
 6814SOL    HW121341   2.397   3.820   0.456
 6814SOL    HW221342   2.478   3.875   0.586
 6815SOL     OW21343   2.184   0.147   1.914
 6815SOL    HW121344   2.261   0.090   1.882
 6815SOL    HW221345   2.168   0.129   2.011
 6816SOL     OW21346   6.302   4.414   1.665
 6816SOL    HW121347   6.206   4.443   1.671
 6816SOL    HW221348   6.325   4.394   1.570
 6817SOL     OW21349   0.055   1.566   6.025
 6817SOL    HW121350   6.979   1.575   6.058
 6817SOL    HW221351   0.100   1.490   6.073
 6818SOL     OW21352   3.411   6.162   2.746
 6818SOL    HW121353   3.343   6.094   2.718
 6818SOL    HW221354   3.413   6.237   2.681
 6819SOL     OW21355   3.258   1.307   3.666
 6819SOL    HW121356   3.222   1.351   3.748
 6819SOL    HW221357   3.351   1.339   3.649
 6820SOL     OW21358   0.963   4.185   3.652
 6820SOL    HW121359   0.933   4.279   3.643
 6820SOL    HW221360   0.958   4.139   3.563
 6821SOL     OW21361   2.189   1.957   4.523
 6821SOL    HW121362   2.278   2.002   4.519
 6821SOL    HW221363   2.194   1.868   4.478
 6822SOL     OW21364   5.055   2.339   5.825
 6822SOL    HW121365   5.146   2.359   5.790
 6822SOL    HW221366   5.058   2.332   5.924
 6823SOL     OW21367   2.972   3.342   2.049
 6823SOL    HW121368   3.052   3.339   1.990
 6823SOL    HW221369   2.906   3.408   2.014
 6824SOL     OW21370   1.498   4.189   6.402
 6824SOL    HW121371   1.594   4.196   6.429
 6824SOL    HW221372   1.471   4.270   6.350
 6825SOL     OW21373   4.986   6.686   3.839
 6825SOL    HW121374   4.905   6.729   3.800
 6825SOL    HW221375   5.038   6.639   3.767
 6826SOL     OW21376   1.360   2.874   2.506
 6826SOL    HW121377   1.397   2.796   2.558
 6826SOL    HW221378   1.417   2.954   2.523
 6827SOL     OW21379   5.892   5.877   4.871
 6827SOL    HW121380   5.935   5.913   4.789
 6827SOL    HW221381   5.902   5.777   4.874
 6828SOL     OW21382   1.745   2.899   1.251
 6828SOL    HW121383   1.657   2.943   1.228
 6828SOL    HW221384   1.747   2.807   1.212
 6829SOL     OW21385   4.705   5.232   3.793
 6829SOL    HW121386   4.641   5.281   3.852
 6829SOL    HW221387   4.796   5.234   3.833
 6830SOL     OW21388   5.718   1.807   3.884
 6830SOL    HW121389   5.790   1.831   3.819
 6830SOL    HW221390   5.689   1.712   3.868
 6831SOL     OW21391   0.273   1.497   6.476
 6831SOL    HW121392   0.317   1.513   6.387
 6831SOL    HW221393   0.320   1.424   6.525
 6832SOL     OW21394   3.030   5.115   2.428
 6832SOL    HW121395   3.085   5.049   2.376
 6832SOL    HW221396   2.949   5.069   2.463
 6833SOL     OW21397   3.859   5.396   0.414
 6833SOL    HW121398   3.772   5.374   0.457
 6833SOL    HW221399   3.874   5.336   0.335
 6834SOL     OW21400   3.814   5.294   2.322
 6834SOL    HW121401   3.720   5.319   2.299
 6834SOL    HW221402   3.828   5.304   2.420
 6835SOL     OW21403   3.808   6.832   4.682
 6835SOL    HW121404   3.773   6.924   4.665
 6835SOL    HW221405   3.734   6.774   4.716
 6836SOL     OW21406   3.413   6.065   6.775
 6836SOL    HW121407   3.381   5.972   6.759
 6836SOL    HW221408   3.350   6.112   6.837
 6837SOL     OW21409   1.311   3.091   1.857
 6837SOL    HW121410   1.390   3.077   1.917
 6837SOL    HW221411   1.306   3.188   1.832
 6838SOL     OW21412   2.323   1.616   6.765
 6838SOL    HW121413   2.288   1.599   6.857
 6838SOL    HW221414   2.247   1.615   6.700
 6839SOL     OW21415   4.116   1.176   1.158
 6839SOL    HW121416   4.112   1.142   1.252
 6839SOL    HW221417   4.204   1.222   1.144
 6840SOL     OW21418   1.122   2.162   6.732
 6840SOL    HW121419   1.073   2.104   6.667
 6840SOL    HW221420   1.205   2.115   6.762
 6841SOL     OW21421   6.642   3.618   6.305
 6841SOL    HW121422   6.563   3.606   6.366
 6841SOL    HW221423   6.621   3.689   6.237
 6842SOL     OW21424   1.926   4.452   2.963
 6842SOL    HW121425   1.973   4.365   2.971
 6842SOL    HW221426   1.915   4.493   3.054
 6843SOL     OW21427   4.112   6.586   0.079
 6843SOL    HW121428   4.079   6.492   0.087
 6843SOL    HW221429   4.055   6.636   0.014
 6844SOL     OW21430   5.032   0.655   5.624
 6844SOL    HW121431   4.938   0.677   5.598
 6844SOL    HW221432   5.076   0.735   5.663
 6845SOL     OW21433   5.438   2.013   2.335
 6845SOL    HW121434   5.429   2.033   2.432
 6845SOL    HW221435   5.409   1.920   2.316
 6846SOL     OW21436   2.586   3.811   0.191
 6846SOL    HW121437   2.576   3.803   0.291
 6846SOL    HW221438   2.507   3.768   0.147
 6847SOL     OW21439   6.788   3.440   3.834
 6847SOL    HW121440   6.730   3.513   3.869
 6847SOL    HW221441   6.823   3.385   3.910
 6848SOL     OW21442   5.923   4.343   3.325
 6848SOL    HW121443   5.960   4.434   3.342
 6848SOL    HW221444   5.924   4.290   3.410
 6849SOL     OW21445   2.724   3.895   6.624
 6849SOL    HW121446   2.819   3.867   6.612
 6849SOL    HW221447   2.665   3.814   6.626
 6850SOL     OW21448   4.071   1.290   4.272
 6850SOL    HW121449   4.058   1.278   4.370
 6850SOL    HW221450   4.015   1.366   4.240
 6851SOL     OW21451   2.149   3.221   3.556
 6851SOL    HW121452   2.225   3.253   3.613
 6851SOL    HW221453   2.068   3.276   3.577
 6852SOL     OW21454   2.875   4.671   0.259
 6852SOL    HW121455   2.889   4.582   0.304
 6852SOL    HW221456   2.862   4.742   0.329
 6853SOL     OW21457   5.285   3.777   6.926
 6853SOL    HW121458   5.247   3.697   6.879
 6853SOL    HW221459   5.337   3.832   6.860
 6854SOL     OW21460   6.046   6.288   6.071
 6854SOL    HW121461   6.106   6.366   6.050
 6854SOL    HW221462   6.098   6.203   6.064
 6855SOL     OW21463   4.139   5.205   3.648
 6855SOL    HW121464   4.157   5.286   3.704
 6855SOL    HW221465   4.226   5.169   3.615
 6856SOL     OW21466   0.595   1.787   6.360
 6856SOL    HW121467   0.612   1.865   6.300
 6856SOL    HW221468   0.567   1.820   6.450
 6857SOL     OW21469   0.818   3.668   5.003
 6857SOL    HW121470   0.848   3.589   4.949
 6857SOL    HW221471   0.874   3.747   4.981
 6858SOL     OW21472   2.376   3.713   1.713
 6858SOL    HW121473   2.372   3.622   1.753
 6858SOL    HW221474   2.471   3.740   1.701
 6859SOL     OW21475   1.486   1.501   2.434
 6859SOL    HW121476   1.553   1.575   2.435
 6859SOL    HW221477   1.439   1.496   2.522
 6860SOL     OW21478   0.645   6.209   2.122
 6860SOL    HW121479   0.707   6.143   2.078
 6860SOL    HW221480   0.563   6.161   2.152
 6861SOL     OW21481   5.960   2.960   5.466
 6861SOL    HW121482   6.039   3.016   5.441
 6861SOL    HW221483   5.946   2.965   5.564
 6862SOL     OW21484   0.896   4.287   4.780
 6862SOL    HW121485   0.968   4.321   4.840
 6862SOL    HW221486   0.819   4.256   4.836
 6863SOL     OW21487   6.081   0.812   5.465
 6863SOL    HW121488   6.025   0.779   5.389
 6863SOL    HW221489   6.176   0.821   5.435
 6864SOL     OW21490   1.092   3.757   5.892
 6864SOL    HW121491   1.051   3.686   5.836
 6864SOL    HW221492   1.177   3.722   5.933
 6865SOL     OW21493   2.404   0.367   3.548
 6865SOL    HW121494   2.370   0.274   3.537
 6865SOL    HW221495   2.494   0.376   3.504
 6866SOL     OW21496   1.144   4.700   0.600
 6866SOL    HW121497   1.092   4.666   0.521
 6866SOL    HW221498   1.127   4.798   0.611
 6867SOL     OW21499   2.286   3.811   6.960
 6867SOL    HW121500   2.374   3.855   6.940
 6867SOL    HW221501   2.303   3.725   7.008
 6868SOL     OW21502   2.725   5.269   4.056
 6868SOL    HW121503   2.740   5.252   3.959
 6868SOL    HW221504   2.814   5.275   4.102
 6869SOL     OW21505   3.098   0.943   6.164
 6869SOL    HW121506   3.106   0.845   6.148
 6869SOL    HW221507   3.075   0.989   6.078
 6870SOL     OW21508   5.995   2.121   0.416
 6870SOL    HW121509   6.070   2.070   0.460
 6870SOL    HW221510   5.976   2.204   0.470
 6871SOL     OW21511   0.075   3.774   2.236
 6871SOL    HW121512   0.009   3.733   2.299
 6871SOL    HW221513   0.036   3.857   2.196
 6872SOL     OW21514   1.849   3.842   0.862
 6872SOL    HW121515   1.780   3.806   0.925
 6872SOL    HW221516   1.828   3.811   0.769
 6873SOL     OW21517   0.392   4.147   3.392
 6873SOL    HW121518   0.465   4.095   3.348
 6873SOL    HW221519   0.316   4.159   3.328
 6874SOL     OW21520   5.460   6.291   3.173
 6874SOL    HW121521   5.484   6.331   3.261
 6874SOL    HW221522   5.374   6.332   3.140
 6875SOL     OW21523   2.629   1.444   0.365
 6875SOL    HW121524   2.583   1.372   0.416
 6875SOL    HW221525   2.674   1.507   0.428
 6876SOL     OW21526   4.973   4.851   3.370
 6876SOL    HW121527   4.964   4.768   3.425
 6876SOL    HW221528   5.067   4.859   3.337
 6877SOL     OW21529   0.988   3.426   1.970
 6877SOL    HW121530   1.016   3.330   1.976
 6877SOL    HW221531   1.053   3.483   2.021
 6878SOL     OW21532   2.157   0.912   4.642
 6878SOL    HW121533   2.082   0.906   4.577
 6878SOL    HW221534   2.224   0.978   4.610
 6879SOL     OW21535   1.843   0.934   0.928
 6879SOL    HW121536   1.942   0.928   0.920
 6879SOL    HW221537   1.800   0.867   0.867
 6880SOL     OW21538   1.605   5.385   6.696
 6880SOL    HW121539   1.518   5.360   6.739
 6880SOL    HW221540   1.619   5.330   6.614
 6881SOL     OW21541   0.766   2.865   0.764
 6881SOL    HW121542   0.712   2.820   0.836
 6881SOL    HW221543   0.831   2.799   0.726
 6882SOL     OW21544   2.434   6.797   6.592
 6882SOL    HW121545   2.362   6.797   6.522
 6882SOL    HW221546   2.414   6.726   6.660
 6883SOL     OW21547   4.545   0.693   0.844
 6883SOL    HW121548   4.568   0.764   0.911
 6883SOL    HW221549   4.627   0.639   0.824
 6884SOL     OW21550   2.004   3.992   3.086
 6884SOL    HW121551   2.052   3.945   3.161
 6884SOL    HW221552   2.030   3.950   2.999
 6885SOL     OW21553   5.907   5.097   4.634
 6885SOL    HW121554   6.005   5.082   4.651
 6885SOL    HW221555   5.866   5.141   4.714
 6886SOL     OW21556   5.186   2.145   0.195
 6886SOL    HW121557   5.152   2.171   0.105
 6886SOL    HW221558   5.108   2.119   0.253
 6887SOL     OW21559   5.414   5.573   5.833
 6887SOL    HW121560   5.327   5.533   5.864
 6887SOL    HW221561   5.451   5.518   5.758
 6888SOL     OW21562   6.163   4.726   6.547
 6888SOL    HW121563   6.257   4.758   6.563
 6888SOL    HW221564   6.159   4.627   6.559
 6889SOL     OW21565   6.929   2.714   6.533
 6889SOL    HW121566   7.005   2.748   6.478
 6889SOL    HW221567   6.897   2.627   6.496
 6890SOL     OW21568   4.684   4.184   3.300
 6890SOL    HW121569   4.739   4.101   3.308
 6890SOL    HW221570   4.588   4.163   3.318
 6891SOL     OW21571   1.718   1.162   0.997
 6891SOL    HW121572   1.769   1.078   0.981
 6891SOL    HW221573   1.761   1.214   1.071
 6892SOL     OW21574   2.990   0.957   4.475
 6892SOL    HW121575   2.987   1.052   4.505
 6892SOL    HW221576   2.932   0.945   4.395
 6893SOL     OW21577   6.047   3.241   0.770
 6893SOL    HW121578   5.948   3.254   0.761
 6893SOL    HW221579   6.066   3.189   0.854
 6894SOL     OW21580   5.624   5.241   0.705
 6894SOL    HW121581   5.667   5.327   0.736
 6894SOL    HW221582   5.657   5.166   0.761
 6895SOL     OW21583   0.239   6.517   2.293
 6895SOL    HW121584   0.231   6.603   2.244
 6895SOL    HW221585   0.335   6.491   2.300
 6896SOL     OW21586   4.794   1.516   5.024
 6896SOL    HW121587   4.734   1.490   4.949
 6896SOL    HW221588   4.889   1.492   5.002
 6897SOL     OW21589   4.719   2.936   4.940
 6897SOL    HW121590   4.660   2.889   5.006
 6897SOL    HW221591   4.705   2.896   4.849
 6898SOL     OW21592   1.880   6.752   1.502
 6898SOL    HW121593   1.973   6.758   1.538
 6898SOL    HW221594   1.869   6.666   1.451
 6899SOL     OW21595   6.315   5.450   2.135
 6899SOL    HW121596   6.374   5.445   2.054
 6899SOL    HW221597   6.265   5.364   2.146
 6900SOL     OW21598   6.502   3.822   5.194
 6900SOL    HW121599   6.469   3.916   5.201
 6900SOL    HW221600   6.426   3.758   5.208
 6901SOL     OW21601   5.122   4.774   0.027
 6901SOL    HW121602   5.204   4.737   7.002
 6901SOL    HW221603   5.115   4.872   0.008
 6902SOL     OW21604   0.781   5.986   5.955
 6902SOL    HW121605   0.851   6.035   6.007
 6902SOL    HW221606   0.697   6.040   5.954
 6903SOL     OW21607   1.146   5.971   4.721
 6903SOL    HW121608   1.058   5.955   4.676
 6903SOL    HW221609   1.136   5.955   4.819
 6904SOL     OW21610   7.012   6.903   5.786
 6904SOL    HW121611   6.978   6.884   5.879
 6904SOL    HW221612   0.023   6.999   5.781
 6905SOL     OW21613   4.872   6.028   6.035
 6905SOL    HW121614   4.873   6.074   6.123
 6905SOL    HW221615   4.950   6.058   5.980
 6906SOL     OW21616   3.259   1.105   3.448
 6906SOL    HW121617   3.248   1.185   3.507
 6906SOL    HW221618   3.178   1.047   3.455
 6907SOL     OW21619   5.922   2.620   0.635
 6907SOL    HW121620   6.005   2.658   0.676
 6907SOL    HW221621   5.940   2.526   0.605
 6908SOL     OW21622   2.850   5.032   0.112
 6908SOL    HW121623   2.766   4.980   0.128
 6908SOL    HW221624   2.852   5.062   0.016
 6909SOL     OW21625   6.160   5.209   1.832
 6909SOL    HW121626   6.257   5.185   1.832
 6909SOL    HW221627   6.150   5.308   1.840
 6910SOL     OW21628   0.920   2.747   2.737
 6910SOL    HW121629   0.871   2.823   2.695
 6910SOL    HW221630   0.865   2.709   2.812
 6911SOL     OW21631   1.415   6.501   5.393
 6911SOL    HW121632   1.503   6.468   5.427
 6911SOL    HW221633   1.344   6.433   5.412
 6912SOL     OW21634   2.630   3.378   6.705
 6912SOL    HW121635   2.615   3.307   6.637
 6912SOL    HW221636   2.575   3.359   6.786
 6913SOL     OW21637   4.983   6.358   5.858
 6913SOL    HW121638   4.949   6.393   5.770
 6913SOL    HW221639   5.061   6.413   5.888
 6914SOL     OW21640   6.030   2.742   2.302
 6914SOL    HW121641   5.950   2.801   2.315
 6914SOL    HW221642   6.113   2.792   2.324
 6915SOL     OW21643   6.494   3.491   3.466
 6915SOL    HW121644   6.558   3.561   3.497
 6915SOL    HW221645   6.447   3.451   3.545
 6916SOL     OW21646   4.830   6.299   6.554
 6916SOL    HW121647   4.766   6.231   6.591
 6916SOL    HW221648   4.898   6.323   6.623
 6917SOL     OW21649   4.386   6.347   1.992
 6917SOL    HW121650   4.302   6.377   1.947
 6917SOL    HW221651   4.443   6.426   2.012
 6918SOL     OW21652   2.111   3.199   0.982
 6918SOL    HW121653   2.064   3.234   1.063
 6918SOL    HW221654   2.156   3.112   1.004
 6919SOL     OW21655   5.293   5.796   3.697
 6919SOL    HW121656   5.311   5.893   3.684
 6919SOL    HW221657   5.340   5.765   3.780
 6920SOL     OW21658   6.145   1.145   6.055
 6920SOL    HW121659   6.113   1.073   5.994
 6920SOL    HW221660   6.146   1.112   6.149
 6921SOL     OW21661   4.231   0.071   4.661
 6921SOL    HW121662   4.241   6.993   4.636
 6921SOL    HW221663   4.295   0.126   4.608
 6922SOL     OW21664   1.701   4.415   5.960
 6922SOL    HW121665   1.735   4.381   6.047
 6922SOL    HW221666   1.601   4.424   5.964
 6923SOL     OW21667   6.056   6.943   2.441
 6923SOL    HW121668   6.125   6.988   2.385
 6923SOL    HW221669   5.966   6.984   2.422
 6924SOL     OW21670   3.095   5.596   1.785
 6924SOL    HW121671   3.009   5.574   1.831
 6924SOL    HW221672   3.088   5.687   1.744
 6925SOL     OW21673   5.651   6.866   5.539
 6925SOL    HW121674   5.705   6.826   5.613
 6925SOL    HW221675   5.554   6.856   5.560
 6926SOL     OW21676   3.310   2.337   0.580
 6926SOL    HW121677   3.365   2.266   0.536
 6926SOL    HW221678   3.226   2.297   0.616
 6927SOL     OW21679   4.642   0.713   0.420
 6927SOL    HW121680   4.720   0.688   0.479
 6927SOL    HW221681   4.621   0.810   0.433
 6928SOL     OW21682   4.214   5.157   0.527
 6928SOL    HW121683   4.276   5.095   0.574
 6928SOL    HW221684   4.146   5.104   0.476
 6929SOL     OW21685   5.827   4.989   2.012
 6929SOL    HW121686   5.854   4.978   1.916
 6929SOL    HW221687   5.862   5.076   2.046
 6930SOL     OW21688   0.204   0.035   1.755
 6930SOL    HW121689   0.248   6.977   1.707
 6930SOL    HW221690   0.158   0.094   1.689
 6931SOL     OW21691   2.924   3.206   1.159
 6931SOL    HW121692   2.979   3.216   1.076
 6931SOL    HW221693   2.985   3.201   1.238
 6932SOL     OW21694   4.043   6.366   6.623
 6932SOL    HW121695   4.142   6.375   6.632
 6932SOL    HW221696   4.017   6.270   6.633
 6933SOL     OW21697   3.293   6.191   6.325
 6933SOL    HW121698   3.281   6.124   6.397
 6933SOL    HW221699   3.307   6.144   6.237
 6934SOL     OW21700   5.242   4.634   6.659
 6934SOL    HW121701   5.333   4.594   6.672
 6934SOL    HW221702   5.246   4.732   6.681
 6935SOL     OW21703   4.052   6.314   1.921
 6935SOL    HW121704   4.064   6.352   1.830
 6935SOL    HW221705   3.955   6.309   1.944
 6936SOL     OW21706   0.081   1.604   5.189
 6936SOL    HW121707   0.018   1.664   5.238
 6936SOL    HW221708   0.138   1.658   5.127
 6937SOL     OW21709   5.504   5.359   6.975
 6937SOL    HW121710   5.414   5.344   7.016
 6937SOL    HW221711   5.575   5.326   0.019
 6938SOL     OW21712   2.396   1.067   4.802
 6938SOL    HW121713   2.297   1.076   4.815
 6938SOL    HW221714   2.437   1.031   4.885
 6939SOL     OW21715   5.670   3.327   3.546
 6939SOL    HW121716   5.644   3.358   3.454
 6939SOL    HW221717   5.587   3.311   3.600
 6940SOL     OW21718   2.911   6.147   0.694
 6940SOL    HW121719   2.859   6.213   0.747
 6940SOL    HW221720   2.878   6.054   0.714
 6941SOL     OW21721   3.655   3.745   3.180
 6941SOL    HW121722   3.712   3.811   3.132
 6941SOL    HW221723   3.559   3.760   3.156
 6942SOL     OW21724   6.073   5.407   2.400
 6942SOL    HW121725   6.060   5.345   2.477
 6942SOL    HW221726   6.124   5.487   2.430
 6943SOL     OW21727   4.147   4.599   5.881
 6943SOL    HW121728   4.076   4.529   5.890
 6943SOL    HW221729   4.236   4.555   5.872
 6944SOL     OW21730   1.460   4.079   4.931
 6944SOL    HW121731   1.379   4.129   4.962
 6944SOL    HW221732   1.477   4.002   4.992
 6945SOL     OW21733   4.856   1.740   1.296
 6945SOL    HW121734   4.912   1.682   1.237
 6945SOL    HW221735   4.891   1.834   1.293
 6946SOL     OW21736   5.131   6.269   3.230
 6946SOL    HW121737   5.044   6.270   3.281
 6946SOL    HW221738   5.130   6.194   3.165
 6947SOL     OW21739   6.246   4.536   5.538
 6947SOL    HW121740   6.288   4.469   5.477
 6947SOL    HW221741   6.149   4.545   5.516
 6948SOL     OW21742   0.383   4.526   0.046
 6948SOL    HW121743   0.430   4.609   0.078
 6948SOL    HW221744   0.285   4.534   0.066
 6949SOL     OW21745   2.292   2.107   3.786
 6949SOL    HW121746   2.258   2.021   3.827
 6949SOL    HW221747   2.247   2.122   3.698
 6950SOL     OW21748   0.193   0.919   4.376
 6950SOL    HW121749   0.191   0.826   4.341
 6950SOL    HW221750   0.284   0.958   4.365
 6951SOL     OW21751   0.700   4.225   6.993
 6951SOL    HW121752   0.602   4.204   6.992
 6951SOL    HW221753   0.714   4.321   6.970
 6952SOL     OW21754   4.750   5.842   4.244
 6952SOL    HW121755   4.735   5.782   4.322
 6952SOL    HW221756   4.790   5.928   4.275
 6953SOL     OW21757   6.627   2.318   1.026
 6953SOL    HW121758   6.681   2.237   1.000
 6953SOL    HW221759   6.533   2.290   1.045
 6954SOL     OW21760   6.653   4.589   0.048
 6954SOL    HW121761   6.643   4.491   0.066
 6954SOL    HW221762   6.667   4.637   0.134
 6955SOL     OW21763   4.771   6.218   3.088
 6955SOL    HW121764   4.832   6.279   3.036
 6955SOL    HW221765   4.676   6.241   3.067
 6956SOL     OW21766   5.820   5.439   2.331
 6956SOL    HW121767   5.770   5.362   2.369
 6956SOL    HW221768   5.914   5.437   2.363
 6957SOL     OW21769   6.547   5.694   5.715
 6957SOL    HW121770   6.511   5.704   5.622
 6957SOL    HW221771   6.614   5.766   5.734
 6958SOL     OW21772   3.192   3.691   3.311
 6958SOL    HW121773   3.096   3.696   3.286
 6958SOL    HW221774   3.249   3.714   3.232
 6959SOL     OW21775   1.620   4.156   2.789
 6959SOL    HW121776   1.667   4.189   2.871
 6959SOL    HW221777   1.543   4.216   2.768
 6960SOL     OW21778   3.800   4.088   0.603
 6960SOL    HW121779   3.723   4.027   0.584
 6960SOL    HW221780   3.880   4.034   0.629
 6961SOL     OW21781   4.583   2.606   4.880
 6961SOL    HW121782   4.550   2.529   4.825
 6961SOL    HW221783   4.674   2.632   4.849
 6962SOL     OW21784   2.215   6.844   6.332
 6962SOL    HW121785   2.270   6.840   6.249
 6962SOL    HW221786   2.230   6.931   6.378
 6963SOL     OW21787   6.197   5.951   0.761
 6963SOL    HW121788   6.246   5.868   0.788
 6963SOL    HW221789   6.153   5.935   0.672
 6964SOL     OW21790   1.710   1.339   5.583
 6964SOL    HW121791   1.665   1.428   5.577
 6964SOL    HW221792   1.793   1.347   5.639
 6965SOL     OW21793   1.061   1.454   0.292
 6965SOL    HW121794   1.149   1.416   0.264
 6965SOL    HW221795   1.062   1.553   0.279
 6966SOL     OW21796   1.441   6.283   1.216
 6966SOL    HW121797   1.395   6.296   1.304
 6966SOL    HW221798   1.402   6.345   1.148
 6967SOL     OW21799   4.448   1.089   6.368
 6967SOL    HW121800   4.527   1.151   6.367
 6967SOL    HW221801   4.367   1.139   6.401
 6968SOL     OW21802   4.134   6.421   3.013
 6968SOL    HW121803   4.098   6.339   2.968
 6968SOL    HW221804   4.061   6.466   3.065
 6969SOL     OW21805   1.971   1.803   2.393
 6969SOL    HW121806   1.927   1.789   2.305
 6969SOL    HW221807   1.906   1.843   2.458
 6970SOL     OW21808   3.704   5.550   4.890
 6970SOL    HW121809   3.611   5.557   4.855
 6970SOL    HW221810   3.704   5.560   4.989
 6971SOL     OW21811   6.789   4.133   0.464
 6971SOL    HW121812   6.707   4.078   0.454
 6971SOL    HW221813   6.796   4.197   0.387
 6972SOL     OW21814   5.679   4.165   1.422
 6972SOL    HW121815   5.639   4.230   1.358
 6972SOL    HW221816   5.701   4.080   1.374
 6973SOL     OW21817   1.731   2.212   2.988
 6973SOL    HW121818   1.635   2.185   2.998
 6973SOL    HW221819   1.750   2.288   3.049
 6974SOL     OW21820   3.820   3.604   2.782
 6974SOL    HW121821   3.809   3.577   2.877
 6974SOL    HW221822   3.860   3.528   2.730
 6975SOL     OW21823   2.840   5.647   4.296
 6975SOL    HW121824   2.826   5.654   4.197
 6975SOL    HW221825   2.937   5.642   4.316
 6976SOL     OW21826   4.660   4.306   6.072
 6976SOL    HW121827   4.580   4.291   6.131
 6976SOL    HW221828   4.738   4.255   6.108
 6977SOL     OW21829   4.957   5.339   2.044
 6977SOL    HW121830   4.885   5.325   1.975
 6977SOL    HW221831   4.991   5.250   2.074
 6978SOL     OW21832   6.903   3.973   1.097
 6978SOL    HW121833   6.924   3.988   1.000
 6978SOL    HW221834   6.988   3.975   1.150
 6979SOL     OW21835   1.473   3.267   2.163
 6979SOL    HW121836   1.528   3.347   2.140
 6979SOL    HW221837   1.488   3.195   2.095
 6980SOL     OW21838   1.720   5.503   2.621
 6980SOL    HW121839   1.813   5.471   2.603
 6980SOL    HW221840   1.669   5.431   2.668
 6981SOL     OW21841   4.397   2.431   6.844
 6981SOL    HW121842   4.421   2.454   6.938
 6981SOL    HW221843   4.313   2.480   6.818
 6982SOL     OW21844   1.527   0.757   2.756
 6982SOL    HW121845   1.592   0.821   2.796
 6982SOL    HW221846   1.560   0.726   2.667
 6983SOL     OW21847   5.930   1.164   4.245
 6983SOL    HW121848   6.007   1.114   4.205
 6983SOL    HW221849   5.874   1.101   4.300
 6984SOL     OW21850   1.098   3.042   2.814
 6984SOL    HW121851   1.019   3.036   2.875
 6984SOL    HW221852   1.138   3.134   2.820
 6985SOL     OW21853   5.739   3.625   6.609
 6985SOL    HW121854   5.643   3.651   6.621
 6985SOL    HW221855   5.753   3.593   6.515
 6986SOL     OW21856   4.570   4.778   5.575
 6986SOL    HW121857   4.632   4.856   5.584
 6986SOL    HW221858   4.596   4.706   5.640
 6987SOL     OW21859   0.582   0.930   6.761
 6987SOL    HW121860   0.613   1.009   6.707
 6987SOL    HW221861   0.657   0.864   6.769
 6988SOL     OW21862   2.685   1.544   6.527
 6988SOL    HW121863   2.637   1.624   6.564
 6988SOL    HW221864   2.783   1.564   6.524
 6989SOL     OW21865   0.786   4.399   2.411
 6989SOL    HW121866   0.805   4.398   2.313
 6989SOL    HW221867   0.792   4.306   2.447
 6990SOL     OW21868   3.760   3.562   0.372
 6990SOL    HW121869   3.849   3.585   0.333
 6990SOL    HW221870   3.733   3.470   0.340
 6991SOL     OW21871   6.873   2.865   2.447
 6991SOL    HW121872   6.892   2.920   2.365
 6991SOL    HW221873   6.942   2.794   2.456
 6992SOL     OW21874   0.882   5.703   0.229
 6992SOL    HW121875   0.793   5.732   0.263
 6992SOL    HW221876   0.940   5.782   0.214
 6993SOL     OW21877   4.255   1.896   1.555
 6993SOL    HW121878   4.209   1.942   1.631
 6993SOL    HW221879   4.316   1.960   1.509
 6994SOL     OW21880   3.029   1.151   3.742
 6994SOL    HW121881   3.092   1.210   3.691
 6994SOL    HW221882   3.022   1.182   3.836
 6995SOL     OW21883   0.269   4.046   0.821
 6995SOL    HW121884   0.237   4.112   0.889
 6995SOL    HW221885   0.226   3.957   0.839
 6996SOL     OW21886   0.933   1.120   6.597
 6996SOL    HW121887   0.846   1.075   6.619
 6996SOL    HW221888   0.914   1.208   6.554
 6997SOL     OW21889   6.046   5.995   6.056
 6997SOL    HW121890   6.033   6.034   5.965
 6997SOL    HW221891   5.978   5.924   6.072
 6998SOL     OW21892   6.733   1.325   0.149
 6998SOL    HW121893   6.827   1.290   0.155
 6998SOL    HW221894   6.735   1.425   0.145
 6999SOL     OW21895   0.000   3.064   6.408
 6999SOL    HW121896   0.044   3.004   6.474
 6999SOL    HW221897   0.061   3.140   6.386
 7000SOL     OW21898   0.187   5.705   3.407
 7000SOL    HW121899   0.172   5.676   3.502
 7000SOL    HW221900   0.101   5.741   3.369
 7001SOL     OW21901   0.035   2.238   4.018
 7001SOL    HW121902   0.053   2.336   4.008
 7001SOL    HW221903   0.108   2.186   3.973
 7002SOL     OW21904   1.105   5.351   2.666
 7002SOL    HW121905   1.200   5.376   2.685
 7002SOL    HW221906   1.097   5.317   2.572
 7003SOL     OW21907   6.988   4.056   0.707
 7003SOL    HW121908   0.032   3.982   0.680
 7003SOL    HW221909   6.913   4.062   0.641
 7004SOL     OW21910   1.652   6.907   0.421
 7004SOL    HW121911   1.747   6.931   0.441
 7004SOL    HW221912   1.649   6.838   0.348
 7005SOL     OW21913   1.470   5.670   0.603
 7005SOL    HW121914   1.456   5.573   0.625
 7005SOL    HW221915   1.496   5.679   0.507
 7006SOL     OW21916   0.894   0.256   4.122
 7006SOL    HW121917   0.872   0.299   4.034
 7006SOL    HW221918   0.813   0.261   4.181
 7007SOL     OW21919   2.050   0.474   6.179
 7007SOL    HW121920   1.951   0.474   6.167
 7007SOL    HW221921   2.090   0.550   6.127
 7008SOL     OW21922   5.440   3.646   3.101
 7008SOL    HW121923   5.403   3.734   3.071
 7008SOL    HW221924   5.381   3.572   3.069
 7009SOL     OW21925   4.847   5.662   2.622
 7009SOL    HW121926   4.806   5.692   2.536
 7009SOL    HW221927   4.795   5.585   2.659
 7010SOL     OW21928   5.434   3.597   1.942
 7010SOL    HW121929   5.339   3.627   1.941
 7010SOL    HW221930   5.483   3.642   2.017
 7011SOL     OW21931   3.021   6.823   6.493
 7011SOL    HW121932   3.021   6.858   6.399
 7011SOL    HW221933   2.999   6.726   6.492
 7012SOL     OW21934   6.676   2.986   0.183
 7012SOL    HW121935   6.651   2.903   0.133
 7012SOL    HW221936   6.593   3.028   0.221
 7013SOL     OW21937   3.310   2.707   0.081
 7013SOL    HW121938   3.280   2.627   0.029
 7013SOL    HW221939   3.257   2.714   0.166
 7014SOL     OW21940   5.708   3.047   0.426
 7014SOL    HW121941   5.667   3.016   0.340
 7014SOL    HW221942   5.798   3.006   0.437
 7015SOL     OW21943   5.975   6.505   1.163
 7015SOL    HW121944   6.005   6.524   1.069
 7015SOL    HW221945   5.959   6.591   1.211
 7016SOL     OW21946   3.572   4.940   1.056
 7016SOL    HW121947   3.591   4.921   0.960
 7016SOL    HW221948   3.621   4.874   1.113
 7017SOL     OW21949   5.921   4.636   5.756
 7017SOL    HW121950   5.977   4.710   5.794
 7017SOL    HW221951   5.969   4.549   5.765
 7018SOL     OW21952   5.176   3.660   4.798
 7018SOL    HW121953   5.252   3.634   4.738
 7018SOL    HW221954   5.175   3.759   4.809
 7019SOL     OW21955   4.279   5.628   2.365
 7019SOL    HW121956   4.306   5.718   2.400
 7019SOL    HW221957   4.200   5.638   2.305
 7020SOL     OW21958   0.542   2.781   6.327
 7020SOL    HW121959   0.560   2.877   6.350
 7020SOL    HW221960   0.551   2.769   6.228
 7021SOL     OW21961   0.541   2.067   4.607
 7021SOL    HW121962   0.538   2.104   4.514
 7021SOL    HW221963   0.607   2.119   4.661
 7022SOL     OW21964   2.952   2.214   1.091
 7022SOL    HW121965   2.908   2.144   1.034
 7022SOL    HW221966   2.909   2.214   1.182
 7023SOL     OW21967   0.356   1.734   0.378
 7023SOL    HW121968   0.299   1.700   0.452
 7023SOL    HW221969   0.442   1.769   0.416
 7024SOL     OW21970   3.578   3.863   4.813
 7024SOL    HW121971   3.596   3.809   4.895
 7024SOL    HW221972   3.582   3.961   4.835
 7025SOL     OW21973   2.698   0.145   0.885
 7025SOL    HW121974   2.640   0.170   0.807
 7025SOL    HW221975   2.640   0.115   0.961
 7026SOL     OW21976   3.266   2.853   1.055
 7026SOL    HW121977   3.240   2.764   1.092
 7026SOL    HW221978   3.296   2.912   1.129
 7027SOL     OW21979   2.842   4.975   2.582
 7027SOL    HW121980   2.849   4.893   2.525
 7027SOL    HW221981   2.876   4.954   2.673
 7028SOL     OW21982   3.340   7.009   3.424
 7028SOL    HW121983   3.358   6.974   3.516
 7028SOL    HW221984   3.267   0.058   3.428
 7029SOL     OW21985   3.526   3.849   3.457
 7029SOL    HW121986   3.547   3.821   3.551
 7029SOL    HW221987   3.609   3.846   3.401
 7030SOL     OW21988   6.491   0.755   4.318
 7030SOL    HW121989   6.533   0.800   4.397
 7030SOL    HW221990   6.562   0.723   4.256
 7031SOL     OW21991   4.901   6.719   0.662
 7031SOL    HW121992   4.910   6.802   0.607
 7031SOL    HW221993   4.889   6.640   0.601
 7032SOL     OW21994   4.891   5.394   4.500
 7032SOL    HW121995   4.808   5.342   4.519
 7032SOL    HW221996   4.877   5.452   4.420
 7033SOL     OW21997   1.782   2.025   4.736
 7033SOL    HW121998   1.836   1.978   4.806
 7033SOL    HW221999   1.835   2.032   4.652
 7034SOL     OW22000   6.282   1.131   3.320
 7034SOL    HW122001   6.360   1.082   3.361
 7034SOL    HW222002   6.262   1.092   3.231
 7035SOL     OW22003   1.903   0.082   0.647
 7035SOL    HW122004   1.974   0.079   0.717
 7035SOL    HW222005   1.814   0.094   0.691
 7036SOL     OW22006   6.721   1.389   2.323
 7036SOL    HW122007   6.735   1.449   2.402
 7036SOL    HW222008   6.773   1.424   2.246
 7037SOL     OW22009   1.089   0.205   5.913
 7037SOL    HW122010   1.058   0.174   5.824
 7037SOL    HW222011   1.182   0.241   5.905
 7038SOL     OW22012   1.136   3.948   0.091
 7038SOL    HW122013   1.224   3.986   0.064
 7038SOL    HW222014   1.145   3.850   0.107
 7039SOL     OW22015   0.282   6.860   2.505
 7039SOL    HW122016   0.336   6.783   2.539
 7039SOL    HW222017   0.185   6.836   2.505
 7040SOL     OW22018   5.353   2.707   4.812
 7040SOL    HW122019   5.324   2.792   4.769
 7040SOL    HW222020   5.375   2.724   4.908
 7041SOL     OW22021   1.537   6.438   4.292
 7041SOL    HW122022   1.577   6.529   4.289
 7041SOL    HW222023   1.468   6.429   4.220
 7042SOL     OW22024   5.620   6.110   5.218
 7042SOL    HW122025   5.544   6.141   5.275
 7042SOL    HW222026   5.645   6.016   5.243
 7043SOL     OW22027   2.418   5.187   1.177
 7043SOL    HW122028   2.445   5.282   1.161
 7043SOL    HW222029   2.449   5.130   1.101
 7044SOL     OW22030   5.534   6.951   5.063
 7044SOL    HW122031   5.530   6.973   4.965
 7044SOL    HW222032   5.491   0.006   5.115
 7045SOL     OW22033   6.429   5.664   2.266
 7045SOL    HW122034   6.474   5.726   2.202
 7045SOL    HW222035   6.385   5.590   2.216
 7046SOL     OW22036   2.240   1.493   4.013
 7046SOL    HW122037   2.257   1.424   3.942
 7046SOL    HW222038   2.167   1.554   3.984
 7047SOL     OW22039   1.155   6.508   0.735
 7047SOL    HW122040   1.127   6.413   0.718
 7047SOL    HW222041   1.124   6.566   0.659
 7048SOL     OW22042   0.246   6.174   4.358
 7048SOL    HW122043   0.322   6.109   4.363
 7048SOL    HW222044   0.173   6.145   4.419
 7049SOL     OW22045   3.746   1.130   3.526
 7049SOL    HW122046   3.815   1.180   3.577
 7049SOL    HW222047   3.775   1.035   3.514
 7050SOL     OW22048   3.771   3.826   0.808
 7050SOL    HW122049   3.823   3.849   0.726
 7050SOL    HW222050   3.807   3.877   0.886
 7051SOL     OW22051   1.266   1.072   1.884
 7051SOL    HW122052   1.222   0.983   1.876
 7051SOL    HW222053   1.348   1.064   1.941
 7052SOL     OW22054   4.115   1.081   2.924
 7052SOL    HW122055   4.144   0.991   2.889
 7052SOL    HW222056   4.194   1.129   2.963
 7053SOL     OW22057   1.734   3.743   3.380
 7053SOL    HW122058   1.683   3.744   3.465
 7053SOL    HW222059   1.786   3.827   3.370
 7054SOL     OW22060   6.100   0.677   0.056
 7054SOL    HW122061   6.036   0.616   0.010
 7054SOL    HW222062   6.150   0.731   7.007
 7055SOL     OW22063   2.355   0.770   0.318
 7055SOL    HW122064   2.387   0.865   0.328
 7055SOL    HW222065   2.290   0.749   0.391
 7056SOL     OW22066   6.743   5.255   1.062
 7056SOL    HW122067   6.680   5.323   1.026
 7056SOL    HW222068   6.835   5.292   1.064
 7057SOL     OW22069   2.636   6.002   4.769
 7057SOL    HW122070   2.691   6.066   4.823
 7057SOL    HW222071   2.687   5.917   4.757
 7058SOL     OW22072   5.820   2.773   6.243
 7058SOL    HW122073   5.797   2.720   6.324
 7058SOL    HW222074   5.823   2.870   6.266
 7059SOL     OW22075   2.021   0.037   4.913
 7059SOL    HW122076   1.954   0.066   4.982
 7059SOL    HW222077   1.982   0.051   4.822
 7060SOL     OW22078   2.953   1.576   1.007
 7060SOL    HW122079   3.029   1.625   0.964
 7060SOL    HW222080   2.904   1.638   1.068
 7061SOL     OW22081   1.047   1.448   1.783
 7061SOL    HW122082   1.135   1.494   1.796
 7061SOL    HW222083   1.063   1.351   1.762
 7062SOL     OW22084   3.522   0.105   3.884
 7062SOL    HW122085   3.599   0.147   3.933
 7062SOL    HW222086   3.558   0.046   3.811
 7063SOL     OW22087   0.302   1.038   0.952
 7063SOL    HW122088   0.286   1.101   1.028
 7063SOL    HW222089   0.400   1.031   0.935
 7064SOL     OW22090   3.235   1.304   5.004
 7064SOL    HW122091   3.187   1.270   5.085
 7064SOL    HW222092   3.332   1.315   5.024
 7065SOL     OW22093   3.987   5.395   5.419
 7065SOL    HW122094   3.908   5.441   5.378
 7065SOL    HW222095   4.047   5.362   5.346
 7066SOL     OW22096   3.658   0.434   0.856
 7066SOL    HW122097   3.752   0.466   0.851
 7066SOL    HW222098   3.642   0.392   0.946
 7067SOL     OW22099   1.540   3.705   6.201
 7067SOL    HW122100   1.557   3.799   6.229
 7067SOL    HW222101   1.552   3.697   6.102
 7068SOL     OW22102   5.100   3.890   4.542
 7068SOL    HW122103   5.059   3.958   4.602
 7068SOL    HW222104   5.028   3.829   4.508
 7069SOL     OW22105   5.127   0.717   6.224
 7069SOL    HW122106   5.068   0.637   6.237
 7069SOL    HW222107   5.090   0.773   6.149
 7070SOL     OW22108   0.357   0.384   5.526
 7070SOL    HW122109   0.264   0.409   5.551
 7070SOL    HW222110   0.401   0.336   5.602
 7071SOL     OW22111   5.049   5.742   0.056
 7071SOL    HW122112   5.140   5.777   0.079
 7071SOL    HW222113   5.028   5.765   6.979
 7072SOL     OW22114   0.550   3.625   6.496
 7072SOL    HW122115   0.591   3.542   6.532
 7072SOL    HW222116   0.581   3.704   6.549
 7073SOL     OW22117   4.738   1.507   3.966
 7073SOL    HW122118   4.671   1.456   3.912
 7073SOL    HW222119   4.713   1.603   3.969
 7074SOL     OW22120   5.077   3.922   2.931
 7074SOL    HW122121   5.001   3.941   2.993
 7074SOL    HW222122   5.157   3.893   2.983
 7075SOL     OW22123   2.581   5.068   3.194
 7075SOL    HW122124   2.551   4.977   3.221
 7075SOL    HW222125   2.668   5.061   3.145
 7076SOL     OW22126   5.941   2.450   1.328
 7076SOL    HW122127   5.842   2.439   1.330
 7076SOL    HW222128   5.984   2.362   1.308
 7077SOL     OW22129   4.015   5.624   2.197
 7077SOL    HW122130   3.991   5.652   2.104
 7077SOL    HW222131   4.018   5.524   2.203
 7078SOL     OW22132   6.481   0.552   6.714
 7078SOL    HW122133   6.442   0.512   6.631
 7078SOL    HW222134   6.453   0.498   6.793
 7079SOL     OW22135   1.322   6.390   4.873
 7079SOL    HW122136   1.334   6.471   4.931
 7079SOL    HW222137   1.387   6.319   4.901
 7080SOL     OW22138   3.980   1.831   5.743
 7080SOL    HW122139   3.883   1.819   5.764
 7080SOL    HW222140   4.005   1.771   5.667
 7081SOL     OW22141   2.283   0.120   0.112
 7081SOL    HW122142   2.226   0.201   0.127
 7081SOL    HW222143   2.256   0.077   0.026
 7082SOL     OW22144   0.592   4.010   2.698
 7082SOL    HW122145   0.516   4.061   2.659
 7082SOL    HW222146   0.666   4.003   2.632
 7083SOL     OW22147   5.192   2.194   3.219
 7083SOL    HW122148   5.109   2.189   3.275
 7083SOL    HW222149   5.192   2.120   3.152
 7084SOL     OW22150   1.054   5.523   0.027
 7084SOL    HW122151   0.978   5.546   6.985
 7084SOL    HW222152   1.023   5.454   0.093
 7085SOL     OW22153   0.881   3.945   1.860
 7085SOL    HW122154   0.930   3.959   1.775
 7085SOL    HW222155   0.901   3.854   1.897
 7086SOL     OW22156   5.322   0.966   3.921
 7086SOL    HW122157   5.254   0.976   3.994
 7086SOL    HW222158   5.288   0.901   3.853
 7087SOL     OW22159   4.695   2.807   3.037
 7087SOL    HW122160   4.693   2.747   2.957
 7087SOL    HW222161   4.751   2.887   3.018
 7088SOL     OW22162   5.887   1.773   5.146
 7088SOL    HW122163   5.824   1.711   5.193
 7088SOL    HW222164   5.850   1.795   5.055
 7089SOL     OW22165   2.732   5.500   1.506
 7089SOL    HW122166   2.739   5.578   1.569
 7089SOL    HW222167   2.805   5.507   1.437
 7090SOL     OW22168   4.561   2.849   1.300
 7090SOL    HW122169   4.575   2.935   1.251
 7090SOL    HW222170   4.522   2.868   1.390
 7091SOL     OW22171   0.435   6.919   0.809
 7091SOL    HW122172   0.430   7.018   0.823
 7091SOL    HW222173   0.371   6.891   0.738
 7092SOL     OW22174   4.382   0.296   6.300
 7092SOL    HW122175   4.469   0.275   6.256
 7092SOL    HW222176   4.374   0.394   6.315
 7093SOL     OW22177   3.646   3.271   0.846
 7093SOL    HW122178   3.708   3.236   0.775
 7093SOL    HW222179   3.660   3.219   0.930
 7094SOL     OW22180   3.565   0.383   6.202
 7094SOL    HW122181   3.658   0.365   6.233
 7094SOL    HW222182   3.506   0.399   6.281
 7095SOL     OW22183   2.341   4.855   4.620
 7095SOL    HW122184   2.334   4.880   4.717
 7095SOL    HW222185   2.331   4.756   4.610
 7096SOL     OW22186   6.959   0.268   1.264
 7096SOL    HW122187   6.906   0.247   1.346
 7096SOL    HW222188   6.896   0.289   1.189
 7097SOL     OW22189   4.652   1.473   2.183
 7097SOL    HW122190   4.710   1.483   2.264
 7097SOL    HW222191   4.566   1.428   2.209
 7098SOL     OW22192   0.861   0.441   3.632
 7098SOL    HW122193   0.911   0.526   3.616
 7098SOL    HW222194   0.767   0.451   3.600
 7099SOL     OW22195   2.942   1.722   4.452
 7099SOL    HW122196   2.851   1.741   4.490
 7099SOL    HW222197   2.991   1.808   4.439
 7100SOL     OW22198   6.677   3.850   1.712
 7100SOL    HW122199   6.676   3.835   1.811
 7100SOL    HW222200   6.710   3.767   1.667
 7101SOL     OW22201   2.300   6.129   5.041
 7101SOL    HW122202   2.345   6.044   5.013
 7101SOL    HW222203   2.242   6.112   5.120
 7102SOL     OW22204   5.799   1.185   2.192
 7102SOL    HW122205   5.880   1.181   2.251
 7102SOL    HW222206   5.738   1.257   2.225
 7103SOL     OW22207   4.958   3.561   3.244
 7103SOL    HW122208   4.987   3.593   3.153
 7103SOL    HW222209   4.939   3.640   3.302
 7104SOL     OW22210   4.663   2.622   4.038
 7104SOL    HW122211   4.614   2.604   4.123
 7104SOL    HW222212   4.760   2.597   4.048
 7105SOL     OW22213   3.002   3.851   3.484
 7105SOL    HW122214   3.073   3.906   3.528
 7105SOL    HW222215   2.950   3.802   3.554
 7106SOL     OW22216   3.656   1.863   2.281
 7106SOL    HW122217   3.703   1.905   2.203
 7106SOL    HW222218   3.559   1.887   2.279
 7107SOL     OW22219   3.868   0.658   6.560
 7107SOL    HW122220   3.799   0.726   6.535
 7107SOL    HW222221   3.911   0.686   6.646
 7108SOL     OW22222   4.774   0.696   1.837
 7108SOL    HW122223   4.865   0.736   1.834
 7108SOL    HW222224   4.767   0.637   1.918
 7109SOL     OW22225   2.541   5.466   6.857
 7109SOL    HW122226   2.512   5.372   6.836
 7109SOL    HW222227   2.547   5.518   6.772
 7110SOL     OW22228   3.184   6.938   4.595
 7110SOL    HW122229   3.087   6.961   4.592
 7110SOL    HW222230   3.229   6.975   4.513
 7111SOL     OW22231   0.079   0.814   5.097
 7111SOL    HW122232   0.167   0.828   5.051
 7111SOL    HW222233   0.075   0.872   5.179
 7112SOL     OW22234   0.897   4.840   5.007
 7112SOL    HW122235   0.903   4.741   4.991
 7112SOL    HW222236   0.880   4.856   5.105
 7113SOL     OW22237   3.652   6.302   4.979
 7113SOL    HW122238   3.733   6.249   5.005
 7113SOL    HW222239   3.666   6.398   5.003
 7114SOL     OW22240   5.956   3.852   1.099
 7114SOL    HW122241   5.979   3.808   1.013
 7114SOL    HW222242   6.040   3.878   1.147
 7115SOL     OW22243   5.939   3.787   6.181
 7115SOL    HW122244   6.024   3.803   6.232
 7115SOL    HW222245   5.940   3.694   6.143
 7116SOL     OW22246   6.322   3.487   4.594
 7116SOL    HW122247   6.357   3.580   4.606
 7116SOL    HW222248   6.361   3.428   4.665
 7117SOL     OW22249   5.214   6.947   3.291
 7117SOL    HW122250   5.308   6.957   3.259
 7117SOL    HW222251   5.162   0.011   3.269
 7118SOL     OW22252   3.663   4.425   5.765
 7118SOL    HW122253   3.626   4.466   5.848
 7118SOL    HW222254   3.630   4.331   5.756
 7119SOL     OW22255   3.777   6.422   5.458
 7119SOL    HW122256   3.708   6.468   5.402
 7119SOL    HW222257   3.830   6.360   5.400
 7120SOL     OW22258   4.423   1.217   1.089
 7120SOL    HW122259   4.438   1.315   1.082
 7120SOL    HW222260   4.417   1.177   0.998
 7121SOL     OW22261   1.813   5.720   2.232
 7121SOL    HW122262   1.790   5.817   2.237
 7121SOL    HW222263   1.757   5.677   2.161
 7122SOL     OW22264   3.412   1.999   6.974
 7122SOL    HW122265   3.334   2.047   7.015
 7122SOL    HW222266   3.497   2.044   7.002
 7123SOL     OW22267   5.813   5.280   6.155
 7123SOL    HW122268   5.751   5.307   6.229
 7123SOL    HW222269   5.878   5.212   6.189
 7124SOL     OW22270   1.657   2.528   1.112
 7124SOL    HW122271   1.597   2.471   1.167
 7124SOL    HW222272   1.753   2.513   1.139
 7125SOL     OW22273   0.344   6.346   2.710
 7125SOL    HW122274   0.304   6.272   2.655
 7125SOL    HW222275   0.438   6.363   2.679
 7126SOL     OW22276   3.532   5.557   1.018
 7126SOL    HW122277   3.461   5.494   0.985
 7126SOL    HW222278   3.523   5.645   0.972
 7127SOL     OW22279   2.442   6.182   6.070
 7127SOL    HW122280   2.444   6.202   6.168
 7127SOL    HW222281   2.532   6.199   6.031
 7128SOL     OW22282   3.674   4.173   6.873
 7128SOL    HW122283   3.736   4.252   6.880
 7128SOL    HW222284   3.587   4.203   6.836
 7129SOL     OW22285   0.502   6.980   0.264
 7129SOL    HW122286   0.600   6.996   0.255
 7129SOL    HW222287   0.482   6.883   0.247
 7130SOL     OW22288   3.241   6.223   3.874
 7130SOL    HW122289   3.157   6.199   3.924
 7130SOL    HW222290   3.321   6.202   3.931
 7131SOL     OW22291   2.254   1.212   1.847
 7131SOL    HW122292   2.199   1.258   1.778
 7131SOL    HW222293   2.238   1.253   1.936
 7132SOL     OW22294   4.792   4.252   0.751
 7132SOL    HW122295   4.693   4.247   0.738
 7132SOL    HW222296   4.827   4.163   0.779
 7133SOL     OW22297   4.905   6.001   2.953
 7133SOL    HW122298   4.846   5.951   2.889
 7133SOL    HW222299   4.855   6.080   2.989
 7134SOL     OW22300   4.731   5.516   0.191
 7134SOL    HW122301   4.767   5.557   0.275
 7134SOL    HW222302   4.776   5.427   0.175
 7135SOL     OW22303   1.431   3.246   1.347
 7135SOL    HW122304   1.351   3.275   1.293
 7135SOL    HW222305   1.432   3.296   1.433
 7136SOL     OW22306   0.846   2.607   2.115
 7136SOL    HW122307   0.848   2.510   2.090
 7136SOL    HW222308   0.863   2.617   2.213
 7137SOL     OW22309   2.706   1.359   1.458
 7137SOL    HW122310   2.788   1.362   1.401
 7137SOL    HW222311   2.645   1.434   1.433
 7138SOL     OW22312   0.367   2.646   0.172
 7138SOL    HW122313   0.420   2.665   0.255
 7138SOL    HW222314   0.403   2.564   0.127
 7139SOL     OW22315   5.711   6.390   0.909
 7139SOL    HW122316   5.688   6.317   0.973
 7139SOL    HW222317   5.745   6.349   0.824
 7140SOL     OW22318   6.708   4.480   0.436
 7140SOL    HW122319   6.609   4.468   0.444
 7140SOL    HW222320   6.751   4.461   0.524
 7141SOL     OW22321   3.101   0.324   0.992
 7141SOL    HW122322   3.038   0.338   1.069
 7141SOL    HW222323   3.052   0.279   0.917
 7142SOL     OW22324   3.932   0.003   5.104
 7142SOL    HW122325   3.987   0.051   5.035
 7142SOL    HW222326   3.866   6.961   5.058
 7143SOL     OW22327   2.611   3.148   6.529
 7143SOL    HW122328   2.631   3.119   6.436
 7143SOL    HW222329   2.533   3.096   6.565
 7144SOL     OW22330   6.730   1.341   6.216
 7144SOL    HW122331   6.649   1.380   6.261
 7144SOL    HW222332   6.705   1.311   6.124
 7145SOL     OW22333   5.613   1.345   6.460
 7145SOL    HW122334   5.698   1.347   6.407
 7145SOL    HW222335   5.635   1.355   6.558
 7146SOL     OW22336   1.296   2.049   5.658
 7146SOL    HW122337   1.275   2.124   5.721
 7146SOL    HW222338   1.369   1.992   5.697
 7147SOL     OW22339   6.315   6.405   1.807
 7147SOL    HW122340   6.318   6.343   1.729
 7147SOL    HW222341   6.279   6.357   1.887
 7148SOL     OW22342   6.522   6.722   1.352
 7148SOL    HW122343   6.469   6.723   1.267
 7148SOL    HW222344   6.609   6.676   1.336
 7149SOL     OW22345   5.966   4.643   6.079
 7149SOL    HW122346   5.866   4.637   6.071
 7149SOL    HW222347   6.008   4.571   6.024
 7150SOL     OW22348   2.962   2.730   6.774
 7150SOL    HW122349   3.023   2.809   6.771
 7150SOL    HW222350   2.878   2.751   6.725
 7151SOL     OW22351   5.180   0.873   0.190
 7151SOL    HW122352   5.176   0.778   0.161
 7151SOL    HW222353   5.270   0.911   0.168
 7152SOL     OW22354   5.335   0.762   6.384
 7152SOL    HW122355   5.405   0.692   6.376
 7152SOL    HW222356   5.259   0.740   6.323
 7153SOL     OW22357   3.406   5.420   0.158
 7153SOL    HW122358   3.345   5.414   0.079
 7153SOL    HW222359   3.428   5.516   0.175
 7154SOL     OW22360   4.088   1.521   2.256
 7154SOL    HW122361   4.062   1.457   2.329
 7154SOL    HW222362   4.162   1.481   2.202
 7155SOL     OW22363   1.348   0.857   2.555
 7155SOL    HW122364   1.382   0.895   2.470
 7155SOL    HW222365   1.424   0.825   2.611
 7156SOL     OW22366   6.570   3.088   5.016
 7156SOL    HW122367   6.668   3.102   5.003
 7156SOL    HW222368   6.554   2.997   5.054
 7157SOL     OW22369   0.273   4.173   6.206
 7157SOL    HW122370   0.270   4.144   6.302
 7157SOL    HW222371   0.365   4.159   6.170
 7158SOL     OW22372   5.076   6.850   4.211
 7158SOL    HW122373   5.048   6.756   4.191
 7158SOL    HW222374   5.170   6.864   4.181
 7159SOL     OW22375   0.393   6.363   3.469
 7159SOL    HW122376   0.478   6.411   3.493
 7159SOL    HW222377   0.345   6.415   3.398
 7160SOL     OW22378   6.209   0.253   3.799
 7160SOL    HW122379   6.243   0.181   3.859
 7160SOL    HW222380   6.178   0.213   3.712
 7161SOL     OW22381   3.682   3.831   2.702
 7161SOL    HW122382   3.613   3.760   2.687
 7161SOL    HW222383   3.770   3.788   2.723
 7162SOL     OW22384   0.342   6.008   1.726
 7162SOL    HW122385   0.367   5.990   1.631
 7162SOL    HW222386   0.338   6.107   1.741
 7163SOL     OW22387   0.071   0.821   0.514
 7163SOL    HW122388   0.017   0.828   0.598
 7163SOL    HW222389   0.030   0.753   0.454
 7164SOL     OW22390   1.469   0.823   6.856
 7164SOL    HW122391   1.567   0.807   6.849
 7164SOL    HW222392   1.437   0.874   6.776
 7165SOL     OW22393   5.913   2.702   0.090
 7165SOL    HW122394   6.003   2.675   0.125
 7165SOL    HW222395   5.841   2.656   0.141
 7166SOL     OW22396   0.102   6.062   5.881
 7166SOL    HW122397   0.179   6.048   5.818
 7166SOL    HW222398   0.068   6.155   5.872
 7167SOL     OW22399   6.606   2.726   5.084
 7167SOL    HW122400   6.650   2.636   5.077
 7167SOL    HW222401   6.553   2.730   5.169
 7168SOL     OW22402   1.620   1.257   2.360
 7168SOL    HW122403   1.582   1.324   2.424
 7168SOL    HW222404   1.578   1.269   2.270
 7169SOL     OW22405   1.772   4.693   5.652
 7169SOL    HW122406   1.819   4.770   5.696
 7169SOL    HW222407   1.820   4.668   5.568
 7170SOL     OW22408   3.338   1.432   1.190
 7170SOL    HW122409   3.318   1.439   1.093
 7170SOL    HW222410   3.300   1.346   1.225
 7171SOL     OW22411   0.392   3.963   0.596
 7171SOL    HW122412   0.397   3.864   0.607
 7171SOL    HW222413   0.325   4.000   0.660
 7172SOL     OW22414   0.566   2.492   3.850
 7172SOL    HW122415   0.538   2.517   3.757
 7172SOL    HW222416   0.530   2.402   3.872
 7173SOL     OW22417   4.668   5.492   6.253
 7173SOL    HW122418   4.704   5.552   6.181
 7173SOL    HW222419   4.618   5.547   6.320
 7174SOL     OW22420   6.580   4.304   2.284
 7174SOL    HW122421   6.484   4.307   2.312
 7174SOL    HW222422   6.589   4.341   2.191
 7175SOL     OW22423   6.735   3.869   5.621
 7175SOL    HW122424   6.691   3.890   5.709
 7175SOL    HW222425   6.771   3.953   5.582
 7176SOL     OW22426   0.070   0.901   6.331
 7176SOL    HW122427   0.152   0.845   6.318
 7176SOL    HW222428   0.001   0.848   6.380
 7177SOL     OW22429   1.564   5.952   3.578
 7177SOL    HW122430   1.652   5.940   3.625
 7177SOL    HW222431   1.527   6.042   3.600
 7178SOL     OW22432   1.911   6.627   4.737
 7178SOL    HW122433   1.966   6.665   4.811
 7178SOL    HW222434   1.829   6.683   4.725
 7179SOL     OW22435   4.210   5.103   5.958
 7179SOL    HW122436   4.249   5.013   5.936
 7179SOL    HW222437   4.270   5.174   5.922
 7180SOL     OW22438   1.895   3.131   1.788
 7180SOL    HW122439   1.972   3.186   1.756
 7180SOL    HW222440   1.918   3.087   1.875
 7181SOL     OW22441   1.883   1.702   6.725
 7181SOL    HW122442   1.914   1.762   6.799
 7181SOL    HW222443   1.864   1.611   6.763
 7182SOL     OW22444   2.038   1.135   3.748
 7182SOL    HW122445   1.980   1.215   3.734
 7182SOL    HW222446   1.983   1.052   3.742
 7183SOL     OW22447   1.447   6.679   2.089
 7183SOL    HW122448   1.467   6.657   1.993
 7183SOL    HW222449   1.417   6.596   2.136
 7184SOL     OW22450   6.594   1.335   3.638
 7184SOL    HW122451   6.583   1.319   3.540
 7184SOL    HW222452   6.687   1.310   3.666
 7185SOL     OW22453   4.263   0.375   4.446
 7185SOL    HW122454   4.308   0.313   4.382
 7185SOL    HW222455   4.315   0.461   4.451
 7186SOL     OW22456   6.355   0.817   6.681
 7186SOL    HW122457   6.415   0.737   6.687
 7186SOL    HW222458   6.406   0.895   6.644
 7187SOL     OW22459   3.440   3.397   4.138
 7187SOL    HW122460   3.438   3.334   4.215
 7187SOL    HW222461   3.359   3.384   4.081
 7188SOL     OW22462   4.547   4.536   6.626
 7188SOL    HW122463   4.564   4.462   6.561
 7188SOL    HW222464   4.630   4.590   6.638
 7189SOL     OW22465   6.277   2.685   5.767
 7189SOL    HW122466   6.187   2.686   5.721
 7189SOL    HW222467   6.336   2.617   5.723
 7190SOL     OW22468   6.214   5.047   6.939
 7190SOL    HW122469   6.190   5.012   6.848
 7190SOL    HW222470   6.232   4.970   7.000
 7191SOL     OW22471   6.878   5.082   2.989
 7191SOL    HW122472   6.788   5.051   2.959
 7191SOL    HW222473   6.949   5.033   2.938
 7192SOL     OW22474   2.066   4.160   6.145
 7192SOL    HW122475   1.972   4.173   6.112
 7192SOL    HW222476   2.126   4.138   6.068
 7193SOL     OW22477   3.421   2.119   3.112
 7193SOL    HW122478   3.357   2.163   3.049
 7193SOL    HW222479   3.509   2.107   3.066
 7194SOL     OW22480   3.076   2.550   6.102
 7194SOL    HW122481   3.051   2.476   6.165
 7194SOL    HW222482   3.133   2.616   6.150
 7195SOL     OW22483   0.886   4.570   5.004
 7195SOL    HW122484   0.788   4.576   4.990
 7195SOL    HW222485   0.906   4.564   5.102
 7196SOL     OW22486   3.574   4.230   1.798
 7196SOL    HW122487   3.537   4.189   1.882
 7196SOL    HW222488   3.502   4.241   1.731
 7197SOL     OW22489   2.981   4.773   6.327
 7197SOL    HW122490   3.022   4.815   6.408
 7197SOL    HW222491   3.009   4.824   6.246
 7198SOL     OW22492   0.604   1.125   1.794
 7198SOL    HW122493   0.587   1.101   1.890
 7198SOL    HW222494   0.566   1.215   1.775
 7199SOL     OW22495   6.169   1.734   2.315
 7199SOL    HW122496   6.129   1.784   2.239
 7199SOL    HW222497   6.266   1.718   2.297
 7200SOL     OW22498   1.132   2.534   0.342
 7200SOL    HW122499   1.068   2.476   0.393
 7200SOL    HW222500   1.127   2.511   0.245
 7201SOL     OW22501   6.362   5.080   3.844
 7201SOL    HW122502   6.306   5.072   3.761
 7201SOL    HW222503   6.384   4.989   3.879
 7202SOL     OW22504   4.362   6.990   5.973
 7202SOL    HW122505   4.396   6.938   5.895
 7202SOL    HW222506   4.320   0.056   5.941
 7203SOL     OW22507   0.141   1.673   0.910
 7203SOL    HW122508   0.156   1.738   0.985
 7203SOL    HW222509   0.113   1.585   0.948
 7204SOL     OW22510   6.816   0.609   2.431
 7204SOL    HW122511   6.784   0.517   2.406
 7204SOL    HW222512   6.747   0.654   2.488
 7205SOL     OW22513   3.014   1.873   3.951
 7205SOL    HW122514   3.087   1.913   4.007
 7205SOL    HW222515   3.011   1.919   3.862
 7206SOL     OW22516   1.714   3.710   0.066
 7206SOL    HW122517   1.636   3.741   0.013
 7206SOL    HW222518   1.794   3.766   0.044
 7207SOL     OW22519   2.025   0.990   3.376
 7207SOL    HW122520   2.047   0.963   3.470
 7207SOL    HW222521   2.003   1.088   3.375
 7208SOL     OW22522   3.301   0.445   4.117
 7208SOL    HW122523   3.216   0.495   4.134
 7208SOL    HW222524   3.378   0.508   4.128
 7209SOL     OW22525   3.516   0.765   1.981
 7209SOL    HW122526   3.483   0.803   2.068
 7209SOL    HW222527   3.547   0.839   1.922
 7210SOL     OW22528   3.058   1.946   3.366
 7210SOL    HW122529   3.138   1.953   3.307
 7210SOL    HW222530   2.989   1.888   3.322
 7211SOL     OW22531   4.585   6.399   5.361
 7211SOL    HW122532   4.639   6.318   5.384
 7211SOL    HW222533   4.568   6.401   5.262
 7212SOL     OW22534   0.443   4.540   5.773
 7212SOL    HW122535   0.394   4.626   5.758
 7212SOL    HW222536   0.524   4.557   5.828
 7213SOL     OW22537   4.228   1.880   6.868
 7213SOL    HW122538   4.192   1.825   6.792
 7213SOL    HW222539   4.266   1.965   6.833
 7214SOL     OW22540   6.255   0.659   6.360
 7214SOL    HW122541   6.208   0.629   6.444
 7214SOL    HW222542   6.233   0.596   6.286
 7215SOL     OW22543   6.202   2.091   3.217
 7215SOL    HW122544   6.107   2.064   3.197
 7215SOL    HW222545   6.202   2.168   3.280
 7216SOL     OW22546   3.949   6.380   3.395
 7216SOL    HW122547   3.966   6.288   3.360
 7216SOL    HW222548   3.983   6.387   3.489
 7217SOL     OW22549   1.096   3.001   2.541
 7217SOL    HW122550   1.188   2.980   2.508
 7217SOL    HW222551   1.092   2.987   2.640
 7218SOL     OW22552   6.480   2.827   4.392
 7218SOL    HW122553   6.539   2.866   4.321
 7218SOL    HW222554   6.384   2.846   4.368
 7219SOL     OW22555   3.369   6.528   2.767
 7219SOL    HW122556   3.304   6.493   2.835
 7219SOL    HW222557   3.369   6.628   2.770
 7220SOL     OW22558   6.565   4.371   3.790
 7220SOL    HW122559   6.592   4.456   3.745
 7220SOL    HW222560   6.557   4.298   3.722
 7221SOL     OW22561   3.867   5.382   3.705
 7221SOL    HW122562   3.897   5.341   3.619
 7221SOL    HW222563   3.811   5.317   3.756
 7222SOL     OW22564   6.493   5.832   4.536
 7222SOL    HW122565   6.426   5.798   4.602
 7222SOL    HW222566   6.511   5.761   4.468
 7223SOL     OW22567   0.246   4.117   1.603
 7223SOL    HW122568   0.219   4.214   1.607
 7223SOL    HW222569   0.286   4.090   1.690
 7224SOL     OW22570   4.292   1.878   2.457
 7224SOL    HW122571   4.335   1.797   2.416
 7224SOL    HW222572   4.363   1.943   2.485
 7225SOL     OW22573   1.704   5.486   0.530
 7225SOL    HW122574   1.675   5.504   0.624
 7225SOL    HW222575   1.787   5.430   0.530
 7226SOL     OW22576   6.993   6.582   0.505
 7226SOL    HW122577   0.011   6.652   0.443
 7226SOL    HW222578   0.040   6.566   0.579
 7227SOL     OW22579   1.886   1.286   2.409
 7227SOL    HW122580   1.794   1.264   2.377
 7227SOL    HW222581   1.948   1.210   2.389
 7228SOL     OW22582   6.915   3.227   2.030
 7228SOL    HW122583   6.819   3.233   2.056
 7228SOL    HW222584   6.928   3.150   1.967
 7229SOL     OW22585   6.538   1.233   5.152
 7229SOL    HW122586   6.554   1.314   5.210
 7229SOL    HW222587   6.459   1.183   5.187
 7230SOL     OW22588   2.368   5.302   4.732
 7230SOL    HW122589   2.386   5.378   4.671
 7230SOL    HW222590   2.452   5.250   4.747
 7231SOL     OW22591   4.250   2.990   5.968
 7231SOL    HW122592   4.348   2.977   5.978
 7231SOL    HW222593   4.203   2.903   5.980
 7232SOL     OW22594   5.229   6.321   3.679
 7232SOL    HW122595   5.213   6.286   3.771
 7232SOL    HW222596   5.224   6.247   3.613
 7233SOL     OW22597   0.155   1.104   4.698
 7233SOL    HW122598   0.112   1.114   4.788
 7233SOL    HW222599   0.252   1.083   4.710
 7234SOL     OW22600   5.224   4.202   3.489
 7234SOL    HW122601   5.321   4.191   3.512
 7234SOL    HW222602   5.168   4.170   3.565
 7235SOL     OW22603   6.456   5.792   1.706
 7235SOL    HW122604   6.493   5.884   1.691
 7235SOL    HW222605   6.362   5.798   1.740
 7236SOL     OW22606   1.168   3.325   2.528
 7236SOL    HW122607   1.154   3.415   2.568
 7236SOL    HW222608   1.130   3.324   2.435
 7237SOL     OW22609   5.990   0.841   0.632
 7237SOL    HW122610   6.041   0.755   0.630
 7237SOL    HW222611   5.908   0.830   0.688
 7238SOL     OW22612   4.103   3.214   6.858
 7238SOL    HW122613   4.057   3.301   6.844
 7238SOL    HW222614   4.035   3.140   6.861
 7239SOL     OW22615   6.584   2.427   2.278
 7239SOL    HW122616   6.594   2.334   2.313
 7239SOL    HW222617   6.547   2.485   2.350
 7240SOL     OW22618   6.585   1.946   0.215
 7240SOL    HW122619   6.654   1.932   0.286
 7240SOL    HW222620   6.607   1.889   0.136
 7241SOL     OW22621   2.503   1.268   1.929
 7241SOL    HW122622   2.576   1.215   1.885
 7241SOL    HW222623   2.414   1.227   1.908
 7242SOL     OW22624   6.986   4.547   4.472
 7242SOL    HW122625   0.054   4.569   4.516
 7242SOL    HW222626   6.989   4.577   4.376
 7243SOL     OW22627   5.706   4.570   6.568
 7243SOL    HW122628   5.748   4.499   6.511
 7243SOL    HW222629   5.758   4.655   6.559
 7244SOL     OW22630   0.211   6.225   0.226
 7244SOL    HW122631   0.272   6.166   0.279
 7244SOL    HW222632   0.209   6.316   0.267
 7245SOL     OW22633   0.840   3.172   0.561
 7245SOL    HW122634   0.878   3.263   0.542
 7245SOL    HW222635   0.911   3.103   0.549
 7246SOL     OW22636   4.374   6.807   3.529
 7246SOL    HW122637   4.368   6.836   3.624
 7246SOL    HW222638   4.466   6.825   3.494
 7247SOL     OW22639   3.084   3.954   5.358
 7247SOL    HW122640   3.063   4.033   5.414
 7247SOL    HW222641   3.013   3.885   5.369
 7248SOL     OW22642   3.108   1.150   5.246
 7248SOL    HW122643   3.116   1.082   5.319
 7248SOL    HW222644   3.048   1.224   5.277
 7249SOL     OW22645   4.160   4.703   2.487
 7249SOL    HW122646   4.201   4.653   2.411
 7249SOL    HW222647   4.079   4.752   2.455
 7250SOL     OW22648   5.471   4.943   5.188
 7250SOL    HW122649   5.527   4.998   5.250
 7250SOL    HW222650   5.528   4.872   5.146
 7251SOL     OW22651   0.230   6.024   5.636
 7251SOL    HW122652   0.270   5.940   5.598
 7251SOL    HW222653   0.185   6.075   5.563
 7252SOL     OW22654   3.592   4.087   2.563
 7252SOL    HW122655   3.592   4.009   2.625
 7252SOL    HW222656   3.653   4.069   2.486
 7253SOL     OW22657   2.333   5.729   4.701
 7253SOL    HW122658   2.302   5.715   4.795
 7253SOL    HW222659   2.301   5.819   4.669
 7254SOL     OW22660   5.593   3.131   4.030
 7254SOL    HW122661   5.564   3.208   3.973
 7254SOL    HW222662   5.558   3.143   4.122
 7255SOL     OW22663   5.118   3.104   6.626
 7255SOL    HW122664   5.038   3.146   6.669
 7255SOL    HW222665   5.167   3.048   6.693
 7256SOL     OW22666   3.140   0.481   5.300
 7256SOL    HW122667   3.103   0.432   5.378
 7256SOL    HW222668   3.226   0.439   5.271
 7257SOL     OW22669   0.567   1.565   4.510
 7257SOL    HW122670   0.544   1.662   4.498
 7257SOL    HW222671   0.647   1.542   4.455
 7258SOL     OW22672   6.062   2.529   2.800
 7258SOL    HW122673   6.040   2.580   2.717
 7258SOL    HW222674   6.111   2.588   2.864
 7259SOL     OW22675   1.274   3.823   2.606
 7259SOL    HW122676   1.315   3.870   2.684
 7259SOL    HW222677   1.246   3.891   2.538
 7260SOL     OW22678   5.534   3.420   1.296
 7260SOL    HW122679   5.622   3.441   1.255
 7260SOL    HW222680   5.490   3.346   1.246
 7261SOL     OW22681   0.267   4.755   0.360
 7261SOL    HW122682   0.194   4.808   0.404
 7261SOL    HW222683   0.290   4.798   0.272
 7262SOL     OW22684   6.195   1.153   5.192
 7262SOL    HW122685   6.236   1.082   5.249
 7262SOL    HW222686   6.222   1.140   5.097
 7263SOL     OW22687   0.315   5.842   0.128
 7263SOL    HW122688   0.376   5.863   0.205
 7263SOL    HW222689   0.242   5.780   0.159
 7264SOL     OW22690   6.521   1.648   0.380
 7264SOL    HW122691   6.502   1.551   0.370
 7264SOL    HW222692   6.458   1.688   0.446
 7265SOL     OW22693   4.260   5.898   5.801
 7265SOL    HW122694   4.276   5.886   5.703
 7265SOL    HW222695   4.169   5.864   5.824
 7266SOL     OW22696   0.513   1.057   3.886
 7266SOL    HW122697   0.468   1.039   3.973
 7266SOL    HW222698   0.557   0.973   3.853
 7267SOL     OW22699   6.230   4.603   4.652
 7267SOL    HW122700   6.299   4.532   4.637
 7267SOL    HW222701   6.248   4.647   4.740
 7268SOL     OW22702   6.586   6.453   4.591
 7268SOL    HW122703   6.589   6.480   4.687
 7268SOL    HW222704   6.676   6.465   4.550
 7269SOL     OW22705   2.597   4.691   5.086
 7269SOL    HW122706   2.692   4.688   5.055
 7269SOL    HW222707   2.550   4.607   5.057
 7270SOL     OW22708   0.673   1.157   4.724
 7270SOL    HW122709   0.742   1.086   4.731
 7270SOL    HW222710   0.667   1.207   4.810
 7271SOL     OW22711   1.062   4.470   3.684
 7271SOL    HW122712   1.120   4.425   3.752
 7271SOL    HW222713   1.112   4.479   3.598
 7272SOL     OW22714   6.520   4.787   2.733
 7272SOL    HW122715   6.454   4.852   2.773
 7272SOL    HW222716   6.571   4.743   2.806
 7273SOL     OW22717   0.597   2.297   5.112
 7273SOL    HW122718   0.561   2.308   5.205
 7273SOL    HW222719   0.523   2.271   5.051
 7274SOL     OW22720   0.706   4.509   0.028
 7274SOL    HW122721   0.799   4.542   0.040
 7274SOL    HW222722   0.642   4.576   0.067
 7275SOL     OW22723   0.098   0.393   2.773
 7275SOL    HW122724   0.083   0.488   2.744
 7275SOL    HW222725   0.191   0.383   2.810
 7276SOL     OW22726   5.789   6.517   4.723
 7276SOL    HW122727   5.710   6.561   4.766
 7276SOL    HW222728   5.827   6.448   4.785
 7277SOL     OW22729   4.639   0.269   6.198
 7277SOL    HW122730   4.685   0.325   6.129
 7277SOL    HW222731   4.614   0.181   6.158
 7278SOL     OW22732   2.869   3.511   2.687
 7278SOL    HW122733   2.888   3.478   2.779
 7278SOL    HW222734   2.873   3.434   2.623
 7279SOL     OW22735   3.050   6.840   6.230
 7279SOL    HW122736   2.976   6.807   6.171
 7279SOL    HW222737   3.069   6.936   6.209
 7280SOL     OW22738   4.680   1.416   5.929
 7280SOL    HW122739   4.619   1.373   5.863
 7280SOL    HW222740   4.627   1.476   5.988
 7281SOL     OW22741   5.204   1.439   6.283
 7281SOL    HW122742   5.258   1.458   6.201
 7281SOL    HW222743   5.163   1.524   6.316
 7282SOL     OW22744   5.636   5.622   2.222
 7282SOL    HW122745   5.717   5.566   2.240
 7282SOL    HW222746   5.632   5.698   2.285
 7283SOL     OW22747   1.963   0.729   3.760
 7283SOL    HW122748   2.038   0.770   3.708
 7283SOL    HW222749   1.986   0.728   3.857
 7284SOL     OW22750   0.217   3.948   4.900
 7284SOL    HW122751   0.174   3.939   4.810
 7284SOL    HW222752   0.232   3.857   4.940
 7285SOL     OW22753   5.163   5.798   1.418
 7285SOL    HW122754   5.091   5.777   1.485
 7285SOL    HW222755   5.124   5.795   1.326
 7286SOL     OW22756   2.101   3.633   1.377
 7286SOL    HW122757   2.115   3.536   1.397
 7286SOL    HW222758   2.043   3.674   1.448
 7287SOL     OW22759   5.988   1.239   6.557
 7287SOL    HW122760   5.967   1.291   6.640
 7287SOL    HW222761   6.088   1.232   6.546
 7288SOL     OW22762   3.592   6.627   6.925
 7288SOL    HW122763   3.567   6.595   6.833
 7288SOL    HW222764   3.678   6.585   6.952
 7289SOL     OW22765   4.526   1.847   3.465
 7289SOL    HW122766   4.622   1.874   3.463
 7289SOL    HW222767   4.494   1.829   3.372
 7290SOL     OW22768   2.384   5.239   4.410
 7290SOL    HW122769   2.382   5.304   4.486
 7290SOL    HW222770   2.410   5.287   4.326
 7291SOL     OW22771   2.579   5.445   1.896
 7291SOL    HW122772   2.593   5.400   1.984
 7291SOL    HW222773   2.659   5.500   1.873
 7292SOL     OW22774   2.805   6.915   4.535
 7292SOL    HW122775   2.824   7.009   4.507
 7292SOL    HW222776   2.846   6.851   4.469
 7293SOL     OW22777   1.062   2.509   5.462
 7293SOL    HW122778   1.074   2.419   5.420
 7293SOL    HW222779   1.026   2.573   5.395
 7294SOL     OW22780   3.377   5.155   0.875
 7294SOL    HW122781   3.380   5.111   0.965
 7294SOL    HW222782   3.326   5.098   0.811
 7295SOL     OW22783   5.786   0.515   1.532
 7295SOL    HW122784   5.823   0.574   1.460
 7295SOL    HW222785   5.714   0.457   1.493
 7296SOL     OW22786   3.858   4.593   1.468
 7296SOL    HW122787   3.836   4.516   1.408
 7296SOL    HW222788   3.860   4.562   1.563
 7297SOL     OW22789   5.186   0.033   1.771
 7297SOL    HW122790   5.197   6.972   1.832
 7297SOL    HW222791   5.120   0.097   1.811
 7298SOL     OW22792   5.579   3.665   4.179
 7298SOL    HW122793   5.610   3.726   4.251
 7298SOL    HW222794   5.651   3.598   4.158
 7299SOL     OW22795   6.453   4.163   6.618
 7299SOL    HW122796   6.461   4.260   6.597
 7299SOL    HW222797   6.532   4.133   6.671
 7300SOL     OW22798   4.161   5.160   1.084
 7300SOL    HW122799   4.094   5.234   1.079
 7300SOL    HW222800   4.206   5.149   0.995
 7301SOL     OW22801   6.491   0.513   6.062
 7301SOL    HW122802   6.498   0.428   6.011
 7301SOL    HW222803   6.576   0.530   6.111
 7302SOL     OW22804   5.110   1.179   6.527
 7302SOL    HW122805   5.161   1.262   6.546
 7302SOL    HW222806   5.129   1.110   6.597
 7303SOL     OW22807   3.532   1.320   0.317
 7303SOL    HW122808   3.586   1.236   0.326
 7303SOL    HW222809   3.505   1.352   0.408
 7304SOL     OW22810   3.172   3.842   5.630
 7304SOL    HW122811   3.240   3.771   5.611
 7304SOL    HW222812   3.169   3.906   5.553
 7305SOL     OW22813   5.195   1.070   0.676
 7305SOL    HW122814   5.110   1.120   0.694
 7305SOL    HW222815   5.271   1.135   0.672
 7306SOL     OW22816   4.863   4.855   1.822
 7306SOL    HW122817   4.861   4.954   1.834
 7306SOL    HW222818   4.792   4.813   1.878
 7307SOL     OW22819   3.942   6.375   2.459
 7307SOL    HW122820   3.991   6.428   2.390
 7307SOL    HW222821   3.969   6.279   2.452
 7308SOL     OW22822   6.691   2.199   4.386
 7308SOL    HW122823   6.621   2.268   4.366
 7308SOL    HW222824   6.755   2.193   4.310
 7309SOL     OW22825   4.285   6.470   1.387
 7309SOL    HW122826   4.194   6.429   1.378
 7309SOL    HW222827   4.326   6.441   1.474
 7310SOL     OW22828   3.135   5.053   1.545
 7310SOL    HW122829   3.106   5.115   1.618
 7310SOL    HW222830   3.080   4.970   1.548
 7311SOL     OW22831   2.702   2.260   1.849
 7311SOL    HW122832   2.765   2.300   1.915
 7311SOL    HW222833   2.754   2.229   1.769
 7312SOL     OW22834   6.812   1.069   5.867
 7312SOL    HW122835   6.752   1.141   5.903
 7312SOL    HW222836   6.757   1.002   5.817
 7313SOL     OW22837   4.218   2.319   6.491
 7313SOL    HW122838   4.192   2.289   6.583
 7313SOL    HW222839   4.244   2.415   6.493
 7314SOL     OW22840   0.307   3.244   4.161
 7314SOL    HW122841   0.330   3.246   4.259
 7314SOL    HW222842   0.286   3.151   4.134
 7315SOL     OW22843   6.807   0.081   4.290
 7315SOL    HW122844   6.735   0.014   4.274
 7315SOL    HW222845   6.878   0.072   4.219
 7316SOL     OW22846   3.392   3.740   5.516
 7316SOL    HW122847   3.358   3.767   5.426
 7316SOL    HW222848   3.454   3.662   5.506
 7317SOL     OW22849   3.604   1.119   3.822
 7317SOL    HW122850   3.591   1.187   3.894
 7317SOL    HW222851   3.675   1.149   3.759
 7318SOL     OW22852   1.829   2.015   1.179
 7318SOL    HW122853   1.797   2.050   1.091
 7318SOL    HW222854   1.885   2.084   1.225
 7319SOL     OW22855   5.855   4.749   6.825
 7319SOL    HW122856   5.867   4.653   6.851
 7319SOL    HW222857   5.870   4.758   6.726
 7320SOL     OW22858   0.195   3.138   1.967
 7320SOL    HW122859   0.201   3.137   2.067
 7320SOL    HW222860   0.184   3.044   1.934
 7321SOL     OW22861   3.043   1.210   4.266
 7321SOL    HW122862   3.006   1.198   4.358
 7321SOL    HW222863   3.116   1.143   4.250
 7322SOL     OW22864   0.111   4.092   3.058
 7322SOL    HW122865   0.166   4.171   3.086
 7322SOL    HW222866   0.094   4.096   2.959
 7323SOL     OW22867   2.118   3.625   3.488
 7323SOL    HW122868   2.100   3.723   3.497
 7323SOL    HW222869   2.141   3.604   3.393
 7324SOL     OW22870   5.515   6.826   2.905
 7324SOL    HW122871   5.597   6.792   2.951
 7324SOL    HW222872   5.538   6.907   2.851
 7325SOL     OW22873   3.255   6.163   6.969
 7325SOL    HW122874   3.159   6.136   6.976
 7325SOL    HW222875   3.262   6.263   6.968
 7326SOL     OW22876   2.881   6.871   5.287
 7326SOL    HW122877   2.789   6.854   5.323
 7326SOL    HW222878   2.917   6.955   5.329
 7327SOL     OW22879   1.280   2.817   5.537
 7327SOL    HW122880   1.214   2.790   5.467
 7327SOL    HW222881   1.312   2.910   5.518
 7328SOL     OW22882   2.573   0.158   6.802
 7328SOL    HW122883   2.483   0.200   6.813
 7328SOL    HW222884   2.632   0.186   6.878
 7329SOL     OW22885   4.294   2.877   1.111
 7329SOL    HW122886   4.215   2.938   1.108
 7329SOL    HW222887   4.307   2.844   1.204
 7330SOL     OW22888   4.269   1.444   0.140
 7330SOL    HW122889   4.328   1.484   0.210
 7330SOL    HW222890   4.275   1.498   0.056
 7331SOL     OW22891   5.582   0.323   2.013
 7331SOL    HW122892   5.657   0.355   2.071
 7331SOL    HW222893   5.600   0.349   1.918
 7332SOL     OW22894   3.546   5.302   1.175
 7332SOL    HW122895   3.538   5.398   1.150
 7332SOL    HW222896   3.506   5.245   1.103
 7333SOL     OW22897   1.132   4.874   2.449
 7333SOL    HW122898   1.081   4.957   2.426
 7333SOL    HW222899   1.208   4.897   2.509
 7334SOL     OW22900   4.014   6.468   4.290
 7334SOL    HW122901   3.962   6.529   4.350
 7334SOL    HW222902   3.964   6.382   4.279
 7335SOL     OW22903   2.054   2.715   2.726
 7335SOL    HW122904   2.075   2.744   2.820
 7335SOL    HW222905   2.053   2.615   2.722
 7336SOL     OW22906   2.056   6.499   3.408
 7336SOL    HW122907   1.960   6.514   3.430
 7336SOL    HW222908   2.109   6.581   3.430
 7337SOL     OW22909   6.656   2.909   2.149
 7337SOL    HW122910   6.654   2.845   2.072
 7337SOL    HW222911   6.655   3.003   2.115
 7338SOL     OW22912   6.781   2.927   0.647
 7338SOL    HW122913   6.823   3.006   0.692
 7338SOL    HW222914   6.761   2.949   0.552
 7339SOL     OW22915   6.993   5.611   4.687
 7339SOL    HW122916   0.015   5.560   4.612
 7339SOL    HW222917   6.900   5.639   4.663
 7340SOL     OW22918   2.321   0.237   6.794
 7340SOL    HW122919   2.303   0.139   6.793
 7340SOL    HW222920   2.281   0.279   6.712
 7341SOL     OW22921   6.261   2.614   6.464
 7341SOL    HW122922   6.215   2.642   6.380
 7341SOL    HW222923   6.348   2.570   6.440
 7342SOL     OW22924   6.775   6.989   2.543
 7342SOL    HW122925   6.836   0.034   2.496
 7342SOL    HW222926   6.775   7.010   2.641
 7343SOL     OW22927   5.325   3.413   6.938
 7343SOL    HW122928   5.278   3.488   6.890
 7343SOL    HW222929   5.302   3.326   6.895
 7344SOL     OW22930   1.411   6.607   6.131
 7344SOL    HW122931   1.369   6.651   6.211
 7344SOL    HW222932   1.383   6.511   6.127
 7345SOL     OW22933   3.605   5.648   5.981
 7345SOL    HW122934   3.533   5.620   6.045
 7345SOL    HW222935   3.688   5.595   6.000
 7346SOL     OW22936   5.068   4.707   2.881
 7346SOL    HW122937   5.071   4.614   2.915
 7346SOL    HW222938   5.159   4.747   2.883
 7347SOL     OW22939   5.778   2.446   6.670
 7347SOL    HW122940   5.693   2.411   6.710
 7347SOL    HW222941   5.814   2.520   6.728
 7348SOL     OW22942   6.832   4.833   1.715
 7348SOL    HW122943   6.871   4.743   1.699
 7348SOL    HW222944   6.786   4.834   1.804
 7349SOL     OW22945   3.837   1.920   1.783
 7349SOL    HW122946   3.743   1.941   1.756
 7349SOL    HW222947   3.848   1.939   1.881
 7350SOL     OW22948   3.405   0.406   5.205
 7350SOL    HW122949   3.479   0.464   5.170
 7350SOL    HW222950   3.393   0.327   5.145
 7351SOL     OW22951   3.380   4.968   4.121
 7351SOL    HW122952   3.475   4.953   4.093
 7351SOL    HW222953   3.363   4.921   4.208
 7352SOL     OW22954   6.789   2.690   3.781
 7352SOL    HW122955   6.823   2.661   3.870
 7352SOL    HW222956   6.816   2.622   3.712
 7353SOL     OW22957   6.146   0.370   6.573
 7353SOL    HW122958   6.084   0.310   6.624
 7353SOL    HW222959   6.128   0.465   6.598
 7354SOL     OW22960   0.771   1.679   3.074
 7354SOL    HW122961   0.677   1.713   3.065
 7354SOL    HW222962   0.833   1.756   3.089
 7355SOL     OW22963   1.575   2.008   6.957
 7355SOL    HW122964   1.597   2.031   6.862
 7355SOL    HW222965   1.661   1.997   7.009
 7356SOL     OW22966   4.348   4.141   6.080
 7356SOL    HW122967   4.419   4.143   6.010
 7356SOL    HW222968   4.260   4.166   6.039
 7357SOL     OW22969   5.311   5.871   2.160
 7357SOL    HW122970   5.351   5.865   2.251
 7357SOL    HW222971   5.243   5.799   2.149
 7358SOL     OW22972   5.865   0.928   3.728
 7358SOL    HW122973   5.826   0.971   3.810
 7358SOL    HW222974   5.795   0.872   3.684
 7359SOL     OW22975   5.009   0.204   1.092
 7359SOL    HW122976   5.012   0.155   1.179
 7359SOL    HW222977   5.006   0.302   1.108
 7360SOL     OW22978   2.824   3.659   5.067
 7360SOL    HW122979   2.878   3.603   5.004
 7360SOL    HW222980   2.766   3.721   5.014
 7361SOL     OW22981   5.300   0.356   3.760
 7361SOL    HW122982   5.326   0.412   3.839
 7361SOL    HW222983   5.243   0.280   3.790
 7362SOL     OW22984   3.429   5.279   6.268
 7362SOL    HW122985   3.477   5.208   6.216
 7362SOL    HW222986   3.454   5.273   6.364
 7363SOL     OW22987   3.756   0.794   0.988
 7363SOL    HW122988   3.832   0.730   0.992
 7363SOL    HW222989   3.726   0.805   0.894
 7364SOL     OW22990   5.535   0.009   1.322
 7364SOL    HW122991   5.502   0.103   1.314
 7364SOL    HW222992   5.471   6.965   1.276
 7365SOL     OW22993   5.701   4.718   2.233
 7365SOL    HW122994   5.659   4.765   2.155
 7365SOL    HW222995   5.705   4.780   2.311
 7366SOL     OW22996   2.175   1.234   4.278
 7366SOL    HW122997   2.081   1.220   4.310
 7366SOL    HW222998   2.184   1.197   4.185
 7367SOL     OW22999   4.187   0.252   6.693
 7367SOL    HW123000   4.173   0.153   6.679
 7367SOL    HW223001   4.143   0.302   6.619
 7368SOL     OW23002   3.825   4.069   3.413
 7368SOL    HW123003   3.765   4.137   3.372
 7368SOL    HW223004   3.773   4.014   3.479
 7369SOL     OW23005   5.355   2.245   0.702
 7369SOL    HW123006   5.297   2.280   0.628
 7369SOL    HW223007   5.298   2.216   0.778
 7370SOL     OW23008   2.063   1.710   4.305
 7370SOL    HW123009   2.163   1.721   4.307
 7370SOL    HW223010   2.036   1.638   4.369
 7371SOL     OW23011   4.120   0.678   3.574
 7371SOL    HW123012   4.163   0.718   3.493
 7371SOL    HW223013   4.165   0.711   3.656
 7372SOL     OW23014   5.550   0.734   5.583
 7372SOL    HW123015   5.587   0.762   5.495
 7372SOL    HW223016   5.538   0.814   5.641
 7373SOL     OW23017   5.581   3.300   4.299
 7373SOL    HW123018   5.606   3.318   4.395
 7373SOL    HW223019   5.646   3.346   4.238
 7374SOL     OW23020   6.336   1.878   5.315
 7374SOL    HW123021   6.343   1.936   5.234
 7374SOL    HW223022   6.245   1.837   5.318
 7375SOL     OW23023   1.894   3.653   2.135
 7375SOL    HW123024   1.883   3.704   2.050
 7375SOL    HW223025   1.847   3.701   2.210
 7376SOL     OW23026   0.225   3.708   0.084
 7376SOL    HW123027   0.205   3.698   7.005
 7376SOL    HW223028   0.190   3.796   0.116
 7377SOL     OW23029   2.822   6.071   1.139
 7377SOL    HW123030   2.731   6.034   1.120
 7377SOL    HW223031   2.814   6.160   1.183
 7378SOL     OW23032   1.111   5.919   3.612
 7378SOL    HW123033   1.013   5.935   3.597
 7378SOL    HW223034   1.145   5.983   3.680
 7379SOL     OW23035   3.890   1.303   1.253
 7379SOL    HW123036   3.839   1.237   1.308
 7379SOL    HW223037   3.968   1.257   1.210
 7380SOL     OW23038   5.209   3.813   2.228
 7380SOL    HW123039   5.170   3.876   2.296
 7380SOL    HW223040   5.276   3.862   2.173
 7381SOL     OW23041   3.667   1.132   0.873
 7381SOL    HW123042   3.760   1.101   0.854
 7381SOL    HW223043   3.669   1.219   0.923
 7382SOL     OW23044   6.469   1.395   6.251
 7382SOL    HW123045   6.391   1.430   6.302
 7382SOL    HW223046   6.436   1.345   6.171
 7383SOL     OW23047   1.943   6.986   0.398
 7383SOL    HW123048   2.043   6.984   0.398
 7383SOL    HW223049   1.910   7.010   0.489
 7384SOL     OW23050   6.994   7.003   1.200
 7384SOL    HW123051   6.990   0.081   1.228
 7384SOL    HW223052   0.069   6.982   1.169
 7385SOL     OW23053   5.841   4.129   3.070
 7385SOL    HW123054   5.788   4.045   3.063
 7385SOL    HW223055   5.788   4.198   3.119
 7386SOL     OW23056   5.715   3.311   0.434
 7386SOL    HW123057   5.702   3.213   0.422
 7386SOL    HW223058   5.811   3.329   0.455
 7387SOL     OW23059   6.897   5.940   5.454
 7387SOL    HW123060   6.859   5.956   5.362
 7387SOL    HW223061   6.967   6.008   5.473
 7388SOL     OW23062   2.251   5.199   2.867
 7388SOL    HW123063   2.272   5.197   2.965
 7388SOL    HW223064   2.179   5.132   2.847
 7389SOL     OW23065   5.854   3.111   6.856
 7389SOL    HW123066   5.853   3.071   6.948
 7389SOL    HW223067   5.872   3.040   6.788
 7390SOL     OW23068   2.422   2.538   3.005
 7390SOL    HW123069   2.505   2.490   2.975
 7390SOL    HW223070   2.432   2.563   3.101
 7391SOL     OW23071   3.871   3.055   3.338
 7391SOL    HW123072   3.917   3.083   3.253
 7391SOL    HW223073   3.860   3.135   3.397
 7392SOL     OW23074   2.919   6.217   6.743
 7392SOL    HW123075   2.919   6.296   6.804
 7392SOL    HW223076   2.837   6.162   6.761
 7393SOL     OW23077   5.265   5.132   4.170
 7393SOL    HW123078   5.291   5.199   4.101
 7393SOL    HW223079   5.202   5.174   4.236
 7394SOL     OW23080   2.763   1.774   5.987
 7394SOL    HW123081   2.835   1.836   6.018
 7394SOL    HW223082   2.799   1.681   5.978
 7395SOL     OW23083   3.030   5.524   0.911
 7395SOL    HW123084   3.032   5.597   0.842
 7395SOL    HW223085   2.966   5.549   0.983
 7396SOL     OW23086   2.454   5.255   2.034
 7396SOL    HW123087   2.371   5.199   2.028
 7396SOL    HW223088   2.492   5.268   1.943
 7397SOL     OW23089   5.822   4.280   3.864
 7397SOL    HW123090   5.769   4.233   3.934
 7397SOL    HW223091   5.764   4.298   3.784
 7398SOL     OW23092   2.559   4.740   2.413
 7398SOL    HW123093   2.594   4.833   2.406
 7398SOL    HW223094   2.569   4.694   2.324
 7399SOL     OW23095   4.948   2.386   5.115
 7399SOL    HW123096   5.022   2.377   5.048
 7399SOL    HW223097   4.914   2.296   5.141
 7400SOL     OW23098   5.391   2.875   5.565
 7400SOL    HW123099   5.415   2.971   5.579
 7400SOL    HW223100   5.355   2.837   5.650
 7401SOL     OW23101   1.595   2.858   3.922
 7401SOL    HW123102   1.659   2.854   3.999
 7401SOL    HW223103   1.504   2.882   3.956
 7402SOL     OW23104   3.325   6.137   4.574
 7402SOL    HW123105   3.346   6.137   4.672
 7402SOL    HW223106   3.409   6.119   4.522
 7403SOL     OW23107   1.775   3.886   4.180
 7403SOL    HW123108   1.678   3.872   4.200
 7403SOL    HW223109   1.819   3.928   4.260
 7404SOL     OW23110   3.497   3.475   1.141
 7404SOL    HW123111   3.457   3.399   1.193
 7404SOL    HW223112   3.597   3.466   1.140
 7405SOL     OW23113   3.868   6.479   3.967
 7405SOL    HW123114   3.822   6.473   4.056
 7405SOL    HW223115   3.800   6.494   3.895
 7406SOL     OW23116   0.946   1.305   5.111
 7406SOL    HW123117   1.016   1.256   5.058
 7406SOL    HW223118   0.969   1.402   5.113
 7407SOL     OW23119   0.975   5.847   5.490
 7407SOL    HW123120   0.896   5.850   5.552
 7407SOL    HW223121   0.969   5.924   5.426
 7408SOL     OW23122   3.811   4.792   5.316
 7408SOL    HW123123   3.854   4.834   5.237
 7408SOL    HW223124   3.824   4.850   5.396
 7409SOL     OW23125   6.453   3.254   1.040
 7409SOL    HW123126   6.529   3.274   1.103
 7409SOL    HW223127   6.488   3.205   0.960
 7410SOL     OW23128   0.479   0.737   1.136
 7410SOL    HW123129   0.576   0.740   1.158
 7410SOL    HW223130   0.451   0.823   1.094
 7411SOL     OW23131   1.752   1.706   5.235
 7411SOL    HW123132   1.816   1.695   5.159
 7411SOL    HW223133   1.802   1.724   5.319
 7412SOL     OW23134   4.185   6.606   0.386
 7412SOL    HW123135   4.115   6.541   0.415
 7412SOL    HW223136   4.182   6.615   0.286
 7413SOL     OW23137   4.351   6.974   3.807
 7413SOL    HW123138   4.348   7.000   3.903
 7413SOL    HW223139   4.260   6.947   3.776
 7414SOL     OW23140   3.415   1.376   4.249
 7414SOL    HW123141   3.371   1.352   4.336
 7414SOL    HW223142   3.370   1.456   4.210
 7415SOL     OW23143   3.748   6.263   6.195
 7415SOL    HW123144   3.693   6.344   6.178
 7415SOL    HW223145   3.831   6.288   6.243
 7416SOL     OW23146   1.419   0.784   2.018
 7416SOL    HW123147   1.358   0.789   2.098
 7416SOL    HW223148   1.462   0.873   2.004
 7417SOL     OW23149   0.433   1.103   3.220
 7417SOL    HW123150   0.491   1.027   3.191
 7417SOL    HW223151   0.419   1.100   3.319
 7418SOL     OW23152   1.641   4.003   5.951
 7418SOL    HW123153   1.569   3.978   5.888
 7418SOL    HW223154   1.722   3.947   5.935
 7419SOL     OW23155   6.938   3.835   3.925
 7419SOL    HW123156   7.012   3.825   3.991
 7419SOL    HW223157   6.852   3.852   3.974
 7420SOL     OW23158   6.946   0.031   1.869
 7420SOL    HW123159   0.009   0.089   1.874
 7420SOL    HW223160   6.964   6.971   1.809
 7421SOL     OW23161   5.529   4.058   1.021
 7421SOL    HW123162   5.606   4.022   0.967
 7421SOL    HW223163   5.494   3.986   1.080
 7422SOL     OW23164   5.793   2.132   2.852
 7422SOL    HW123165   5.722   2.083   2.904
 7422SOL    HW223166   5.769   2.132   2.755
 7423SOL     OW23167   5.245   1.763   5.805
 7423SOL    HW123168   5.253   1.862   5.798
 7423SOL    HW223169   5.334   1.724   5.830
 7424SOL     OW23170   0.805   2.369   3.717
 7424SOL    HW123171   0.741   2.416   3.779
 7424SOL    HW223172   0.758   2.297   3.668
 7425SOL     OW23173   6.006   0.488   1.120
 7425SOL    HW123174   6.037   0.514   1.029
 7425SOL    HW223175   6.042   0.551   1.188
 7426SOL     OW23176   4.019   3.269   5.501
 7426SOL    HW123177   4.101   3.305   5.545
 7426SOL    HW223178   4.030   3.171   5.483
 7427SOL     OW23179   3.007   0.945   3.447
 7427SOL    HW123180   3.002   0.966   3.349
 7427SOL    HW223181   2.915   0.925   3.482
 7428SOL     OW23182   4.804   6.281   5.049
 7428SOL    HW123183   4.849   6.212   4.993
 7428SOL    HW223184   4.870   6.352   5.075
 7429SOL     OW23185   1.545   6.556   2.885
 7429SOL    HW123186   1.515   6.528   2.976
 7429SOL    HW223187   1.644   6.545   2.877
 7430SOL     OW23188   6.811   5.359   2.647
 7430SOL    HW123189   6.764   5.285   2.600
 7430SOL    HW223190   6.813   5.341   2.745
 7431SOL     OW23191   1.225   1.691   3.789
 7431SOL    HW123192   1.209   1.708   3.887
 7431SOL    HW223193   1.321   1.706   3.768
 7432SOL     OW23194   2.488   0.554   3.070
 7432SOL    HW123195   2.389   0.563   3.085
 7432SOL    HW223196   2.527   0.645   3.054
 7433SOL     OW23197   2.618   6.988   6.604
 7433SOL    HW123198   2.540   6.926   6.593
 7433SOL    HW223199   2.600   0.032   6.680
 7434SOL     OW23200   4.042   6.682   4.622
 7434SOL    HW123201   3.973   6.736   4.669
 7434SOL    HW223202   4.123   6.738   4.605
 7435SOL     OW23203   5.140   4.440   2.985
 7435SOL    HW123204   5.239   4.449   2.974
 7435SOL    HW223205   5.120   4.383   3.065
 7436SOL     OW23206   5.586   2.780   6.035
 7436SOL    HW123207   5.613   2.726   6.116
 7436SOL    HW223208   5.666   2.796   5.978
 7437SOL     OW23209   3.101   6.808   0.717
 7437SOL    HW123210   3.136   6.859   0.639
 7437SOL    HW223211   3.150   6.837   0.800
 7438SOL     OW23212   1.672   0.366   0.103
 7438SOL    HW123213   1.602   0.346   0.035
 7438SOL    HW223214   1.733   0.287   0.112
 7439SOL     OW23215   1.220   4.216   6.764
 7439SOL    HW123216   1.235   4.230   6.666
 7439SOL    HW223217   1.155   4.141   6.777
 7440SOL     OW23218   5.562   3.680   3.913
 7440SOL    HW123219   5.592   3.707   4.005
 7440SOL    HW223220   5.621   3.607   3.879
 7441SOL     OW23221   5.577   5.616   1.129
 7441SOL    HW123222   5.581   5.647   1.034
 7441SOL    HW223223   5.545   5.690   1.187
 7442SOL     OW23224   5.240   0.475   5.747
 7442SOL    HW123225   5.187   0.522   5.676
 7442SOL    HW223226   5.281   0.542   5.808
 7443SOL     OW23227   0.461   0.914   1.959
 7443SOL    HW123228   0.382   0.950   2.009
 7443SOL    HW223229   0.461   0.952   1.866
 7444SOL     OW23230   2.078   6.689   6.824
 7444SOL    HW123231   2.096   6.670   6.920
 7444SOL    HW223232   1.991   6.738   6.815
 7445SOL     OW23233   4.026   6.459   1.682
 7445SOL    HW123234   4.042   6.408   1.597
 7445SOL    HW223235   4.053   6.555   1.669
 7446SOL     OW23236   5.630   4.318   0.338
 7446SOL    HW123237   5.617   4.412   0.308
 7446SOL    HW223238   5.692   4.271   0.275
 7447SOL     OW23239   0.257   4.587   0.766
 7447SOL    HW123240   0.333   4.522   0.774
 7447SOL    HW223241   0.281   4.672   0.814
 7448SOL     OW23242   4.610   5.237   0.011
 7448SOL    HW123243   4.569   5.224   0.101
 7448SOL    HW223244   4.640   5.149   6.993
 7449SOL     OW23245   0.328   4.641   6.408
 7449SOL    HW123246   0.297   4.546   6.408
 7449SOL    HW223247   0.269   4.696   6.467
 7450SOL     OW23248   5.353   2.297   5.118
 7450SOL    HW123249   5.411   2.234   5.170
 7450SOL    HW223250   5.304   2.357   5.181
 7451SOL     OW23251   4.712   4.389   3.136
 7451SOL    HW123252   4.728   4.310   3.196
 7451SOL    HW223253   4.718   4.473   3.190
 7452SOL     OW23254   6.024   5.334   5.669
 7452SOL    HW123255   6.034   5.253   5.728
 7452SOL    HW223256   6.030   5.417   5.725
 7453SOL     OW23257   3.260   6.020   6.126
 7453SOL    HW123258   3.199   6.057   6.056
 7453SOL    HW223259   3.256   5.920   6.123
 7454SOL     OW23260   4.430   2.244   0.971
 7454SOL    HW123261   4.380   2.236   1.058
 7454SOL    HW223262   4.515   2.192   0.978
 7455SOL     OW23263   6.696   1.844   3.280
 7455SOL    HW123264   6.616   1.885   3.236
 7455SOL    HW223265   6.680   1.747   3.296
 7456SOL     OW23266   2.783   2.094   6.358
 7456SOL    HW123267   2.721   2.143   6.419
 7456SOL    HW223268   2.732   2.020   6.313
 7457SOL     OW23269   2.323   0.669   2.698
 7457SOL    HW123270   2.330   0.731   2.777
 7457SOL    HW223271   2.384   0.701   2.625
 7458SOL     OW23272   1.751   4.936   5.255
 7458SOL    HW123273   1.826   5.002   5.267
 7458SOL    HW223274   1.789   4.843   5.252
 7459SOL     OW23275   5.851   0.430   2.587
 7459SOL    HW123276   5.753   0.413   2.586
 7459SOL    HW223277   5.884   0.434   2.682
 7460SOL     OW23278   1.797   6.375   0.828
 7460SOL    HW123279   1.779   6.339   0.920
 7460SOL    HW223280   1.866   6.448   0.834
 7461SOL     OW23281   2.070   4.450   5.929
 7461SOL    HW123282   1.971   4.447   5.942
 7461SOL    HW223283   2.097   4.384   5.859
 7462SOL     OW23284   1.455   4.253   0.494
 7462SOL    HW123285   1.420   4.211   0.411
 7462SOL    HW223286   1.388   4.319   0.529
 7463SOL     OW23287   3.983   5.371   1.401
 7463SOL    HW123288   4.071   5.369   1.353
 7463SOL    HW223289   3.962   5.465   1.426
 7464SOL     OW23290   6.184   6.263   5.107
 7464SOL    HW123291   6.116   6.194   5.082
 7464SOL    HW223292   6.139   6.337   5.157
 7465SOL     OW23293   1.666   4.830   0.328
 7465SOL    HW123294   1.667   4.762   0.402
 7465SOL    HW223295   1.648   4.920   0.366
 7466SOL     OW23296   0.722   0.550   5.150
 7466SOL    HW123297   0.645   0.613   5.140
 7466SOL    HW223298   0.733   0.497   5.066
 7467SOL     OW23299   0.392   3.229   5.111
 7467SOL    HW123300   0.311   3.182   5.075
 7467SOL    HW223301   0.394   3.220   5.210
 7468SOL     OW23302   5.710   4.078   5.851
 7468SOL    HW123303   5.734   4.150   5.785
 7468SOL    HW223304   5.625   4.033   5.822
 7469SOL     OW23305   0.033   2.207   0.789
 7469SOL    HW123306   0.113   2.205   0.729
 7469SOL    HW223307   7.001   2.292   0.773
 7470SOL     OW23308   5.720   2.682   3.419
 7470SOL    HW123309   5.774   2.711   3.498
 7470SOL    HW223310   5.652   2.615   3.448
 7471SOL     OW23311   4.023   5.885   6.065
 7471SOL    HW123312   4.110   5.865   6.111
 7471SOL    HW223313   4.026   5.851   5.971
 7472SOL     OW23314   6.445   0.021   5.797
 7472SOL    HW123315   6.351   0.019   5.762
 7472SOL    HW223316   6.507   7.001   5.728
 7473SOL     OW23317   3.331   5.833   3.751
 7473SOL    HW123318   3.409   5.873   3.799
 7473SOL    HW223319   3.248   5.884   3.773
 7474SOL     OW23320   5.897   1.723   6.906
 7474SOL    HW123321   5.893   1.661   6.984
 7474SOL    HW223322   5.935   1.674   6.827
 7475SOL     OW23323   5.227   2.165   0.919
 7475SOL    HW123324   5.225   2.080   0.867
 7475SOL    HW223325   5.285   2.152   1.000
 7476SOL     OW23326   2.232   0.398   2.993
 7476SOL    HW123327   2.267   0.374   3.084
 7476SOL    HW223328   2.217   0.497   2.988
 7477SOL     OW23329   0.688   3.928   4.885
 7477SOL    HW123330   0.672   3.844   4.833
 7477SOL    HW223331   0.782   3.928   4.919
 7478SOL     OW23332   0.767   1.068   6.324
 7478SOL    HW123333   0.788   0.980   6.282
 7478SOL    HW223334   0.712   1.123   6.262
 7479SOL     OW23335   5.188   2.695   0.423
 7479SOL    HW123336   5.218   2.762   0.492
 7479SOL    HW223337   5.143   2.618   0.469
 7480SOL     OW23338   3.631   4.835   2.394
 7480SOL    HW123339   3.565   4.760   2.386
 7480SOL    HW223340   3.661   4.863   2.303
 7481SOL     OW23341   0.153   3.701   6.835
 7481SOL    HW123342   0.070   3.666   6.790
 7481SOL    HW223343   0.233   3.656   6.796
 7482SOL     OW23344   4.859   2.329   3.083
 7482SOL    HW123345   4.888   2.399   3.018
 7482SOL    HW223346   4.861   2.366   3.175
 7483SOL     OW23347   4.724   2.044   5.560
 7483SOL    HW123348   4.762   2.104   5.630
 7483SOL    HW223349   4.790   1.972   5.539
 7484SOL     OW23350   3.539   6.690   3.826
 7484SOL    HW123351   3.590   6.610   3.796
 7484SOL    HW223352   3.459   6.661   3.878
 7485SOL     OW23353   3.645   6.545   5.715
 7485SOL    HW123354   3.649   6.510   5.622
 7485SOL    HW223355   3.727   6.598   5.735
 7486SOL     OW23356   2.430   6.639   1.091
 7486SOL    HW123357   2.391   6.714   1.144
 7486SOL    HW223358   2.434   6.557   1.147
 7487SOL     OW23359   3.923   5.986   4.222
 7487SOL    HW123360   3.999   6.037   4.261
 7487SOL    HW223361   3.857   5.964   4.293
 7488SOL     OW23362   0.688   5.535   4.051
 7488SOL    HW123363   0.710   5.611   3.991
 7488SOL    HW223364   0.626   5.472   4.005
 7489SOL     OW23365   5.491   3.119   6.870
 7489SOL    HW123366   5.486   3.158   6.962
 7489SOL    HW223367   5.541   3.032   6.873
 7490SOL     OW23368   0.687   2.568   2.520
 7490SOL    HW123369   0.604   2.625   2.519
 7490SOL    HW223370   0.759   2.613   2.467
 7491SOL     OW23371   4.185   3.036   0.467
 7491SOL    HW123372   4.265   3.096   0.473
 7491SOL    HW223373   4.215   2.943   0.445
 7492SOL     OW23374   1.448   0.148   4.339
 7492SOL    HW123375   1.490   0.179   4.424
 7492SOL    HW223376   1.502   0.179   4.261
 7493SOL     OW23377   6.730   4.545   5.362
 7493SOL    HW123378   6.767   4.555   5.454
 7493SOL    HW223379   6.635   4.577   5.361
 7494SOL     OW23380   0.071   1.048   1.810
 7494SOL    HW123381   0.052   1.052   1.712
 7494SOL    HW223382   0.008   0.984   1.854
 7495SOL     OW23383   1.727   3.891   4.862
 7495SOL    HW123384   1.791   3.848   4.926
 7495SOL    HW223385   1.634   3.858   4.881
 7496SOL     OW23386   5.863   4.536   2.572
 7496SOL    HW123387   5.893   4.468   2.505
 7496SOL    HW223388   5.886   4.505   2.664
 7497SOL     OW23389   7.003   6.662   1.281
 7497SOL    HW123390   0.066   6.671   1.340
 7497SOL    HW223391   0.013   6.624   1.193
 7498SOL     OW23392   3.348   6.801   2.806
 7498SOL    HW123393   3.308   6.821   2.895
 7498SOL    HW223394   3.288   6.836   2.734
 7499SOL     OW23395   2.907   1.611   3.874
 7499SOL    HW123396   2.942   1.573   3.789
 7499SOL    HW223397   2.926   1.709   3.878
 7500SOL     OW23398   3.842   0.177   3.560
 7500SOL    HW123399   3.941   0.171   3.569
 7500SOL    HW223400   3.802   0.211   3.645
 7501SOL     OW23401   6.126   2.396   5.243
 7501SOL    HW123402   6.224   2.414   5.237
 7501SOL    HW223403   6.076   2.482   5.232
 7502SOL     OW23404   4.825   0.663   3.945
 7502SOL    HW123405   4.884   0.734   3.983
 7502SOL    HW223406   4.729   0.683   3.968
 7503SOL     OW23407   1.836   5.674   1.610
 7503SOL    HW123408   1.847   5.577   1.592
 7503SOL    HW223409   1.894   5.700   1.687
 7504SOL     OW23410   6.723   6.893   4.768
 7504SOL    HW123411   6.699   6.863   4.676
 7504SOL    HW223412   6.758   6.815   4.820
 7505SOL     OW23413   0.305   6.148   5.165
 7505SOL    HW123414   0.380   6.199   5.207
 7505SOL    HW223415   0.317   6.050   5.183
 7506SOL     OW23416   3.505   1.591   3.883
 7506SOL    HW123417   3.455   1.669   3.845
 7506SOL    HW223418   3.494   1.589   3.982
 7507SOL     OW23419   6.835   4.485   5.634
 7507SOL    HW123420   6.847   4.514   5.729
 7507SOL    HW223421   6.912   4.428   5.606
 7508SOL     OW23422   2.526   5.780   0.214
 7508SOL    HW123423   2.434   5.751   0.187
 7508SOL    HW223424   2.560   5.719   0.286
 7509SOL     OW23425   6.076   4.962   1.705
 7509SOL    HW123426   6.118   5.019   1.776
 7509SOL    HW223427   6.103   4.996   1.615
 7510SOL     OW23428   3.222   3.769   2.966
 7510SOL    HW123429   3.129   3.804   2.951
 7510SOL    HW223430   3.268   3.824   3.035
 7511SOL     OW23431   4.500   6.551   4.393
 7511SOL    HW123432   4.592   6.584   4.416
 7511SOL    HW223433   4.464   6.499   4.470
 7512SOL     OW23434   3.631   1.058   0.325
 7512SOL    HW123435   3.646   1.018   0.235
 7512SOL    HW223436   3.689   1.011   0.392
 7513SOL     OW23437   1.297   2.333   2.375
 7513SOL    HW123438   1.377   2.283   2.409
 7513SOL    HW223439   1.328   2.417   2.330
 7514SOL     OW23440   1.381   5.557   1.653
 7514SOL    HW123441   1.454   5.621   1.678
 7514SOL    HW223442   1.370   5.490   1.726
 7515SOL     OW23443   0.453   4.932   5.234
 7515SOL    HW123444   0.386   5.000   5.264
 7515SOL    HW223445   0.544   4.959   5.264
 7516SOL     OW23446   1.526   6.218   5.352
 7516SOL    HW123447   1.604   6.181   5.403
 7516SOL    HW223448   1.443   6.172   5.380
 7517SOL     OW23449   0.824   1.503   6.109
 7517SOL    HW123450   0.888   1.463   6.175
 7517SOL    HW223451   0.877   1.544   6.034
 7518SOL     OW23452   4.722   2.073   3.686
 7518SOL    HW123453   4.744   2.125   3.768
 7518SOL    HW223454   4.632   2.032   3.695
 7519SOL     OW23455   3.749   6.090   3.978
 7519SOL    HW123456   3.808   6.132   3.910
 7519SOL    HW223457   3.805   6.040   4.044
 7520SOL     OW23458   1.746   1.470   0.550
 7520SOL    HW123459   1.821   1.474   0.483
 7520SOL    HW223460   1.782   1.439   0.638
 7521SOL     OW23461   3.770   1.942   5.499
 7521SOL    HW123462   3.819   2.029   5.511
 7521SOL    HW223463   3.787   1.907   5.407
 7522SOL     OW23464   1.901   6.806   3.322
 7522SOL    HW123465   1.939   6.841   3.408
 7522SOL    HW223466   1.811   6.848   3.306
 7523SOL     OW23467   5.524   1.014   0.678
 7523SOL    HW123468   5.539   0.939   0.614
 7523SOL    HW223469   5.516   1.100   0.627
 7524SOL     OW23470   0.030   3.368   4.545
 7524SOL    HW123471   0.074   3.357   4.455
 7524SOL    HW223472   6.951   3.389   4.531
 7525SOL     OW23473   3.969   5.658   6.210
 7525SOL    HW123474   3.916   5.653   6.295
 7525SOL    HW223475   3.949   5.743   6.163
 7526SOL     OW23476   2.294   3.456   1.586
 7526SOL    HW123477   2.352   3.492   1.513
 7526SOL    HW223478   2.334   3.479   1.675
 7527SOL     OW23479   4.019   4.933   3.778
 7527SOL    HW123480   4.108   4.961   3.816
 7527SOL    HW223481   4.020   4.947   3.679
 7528SOL     OW23482   5.914   3.138   6.193
 7528SOL    HW123483   5.933   3.235   6.203
 7528SOL    HW223484   5.986   3.085   6.239
 7529SOL     OW23485   6.059   2.810   3.980
 7529SOL    HW123486   5.986   2.799   3.912
 7529SOL    HW223487   6.047   2.897   4.027
 7530SOL     OW23488   0.749   2.039   1.977
 7530SOL    HW123489   0.652   2.063   1.978
 7530SOL    HW223490   0.775   2.004   2.067
 7531SOL     OW23491   4.273   1.828   4.071
 7531SOL    HW123492   4.254   1.926   4.066
 7531SOL    HW223493   4.215   1.786   4.141
 7532SOL     OW23494   4.545   5.435   6.581
 7532SOL    HW123495   4.567   5.450   6.677
 7532SOL    HW223496   4.551   5.338   6.560
 7533SOL     OW23497   4.449   4.349   1.647
 7533SOL    HW123498   4.355   4.328   1.620
 7533SOL    HW223499   4.481   4.280   1.711
 7534SOL     OW23500   3.748   0.073   4.654
 7534SOL    HW123501   3.831   0.084   4.600
 7534SOL    HW223502   3.737   0.151   4.715
 7535SOL     OW23503   0.694   6.259   4.221
 7535SOL    HW123504   0.617   6.320   4.203
 7535SOL    HW223505   0.668   6.165   4.199
 7536SOL     OW23506   5.629   5.911   4.769
 7536SOL    HW123507   5.714   5.884   4.814
 7536SOL    HW223508   5.576   5.969   4.830
 7537SOL     OW23509   2.771   6.776   3.050
 7537SOL    HW123510   2.727   6.865   3.059
 7537SOL    HW223511   2.753   6.738   2.959
 7538SOL     OW23512   0.639   3.596   0.379
 7538SOL    HW123513   0.543   3.610   0.359
 7538SOL    HW223514   0.661   3.636   0.468
 7539SOL     OW23515   0.020   0.375   4.276
 7539SOL    HW123516   0.034   0.338   4.185
 7539SOL    HW223517   0.095   0.345   4.336
 7540SOL     OW23518   5.963   5.542   3.150
 7540SOL    HW123519   6.048   5.491   3.160
 7540SOL    HW223520   5.980   5.639   3.167
 7541SOL     OW23521   2.349   4.288   6.181
 7541SOL    HW123522   2.329   4.363   6.244
 7541SOL    HW223523   2.276   4.280   6.113
 7542SOL     OW23524   6.439   5.773   5.140
 7542SOL    HW123525   6.408   5.700   5.079
 7542SOL    HW223526   6.454   5.857   5.087
 7543SOL     OW23527   2.503   1.165   6.609
 7543SOL    HW123528   2.426   1.144   6.549
 7543SOL    HW223529   2.486   1.251   6.658
 7544SOL     OW23530   6.771   1.970   3.994
 7544SOL    HW123531   6.773   1.908   3.916
 7544SOL    HW223532   6.834   1.938   4.064
 7545SOL     OW23533   1.401   4.827   5.929
 7545SOL    HW123534   1.456   4.763   5.981
 7545SOL    HW223535   1.459   4.881   5.868
 7546SOL     OW23536   2.425   2.707   1.758
 7546SOL    HW123537   2.436   2.698   1.857
 7546SOL    HW223538   2.497   2.766   1.721
 7547SOL     OW23539   4.204   0.257   1.329
 7547SOL    HW123540   4.292   0.287   1.294
 7547SOL    HW223541   4.131   0.293   1.271
 7548SOL     OW23542   3.512   2.713   6.141
 7548SOL    HW123543   3.490   2.716   6.044
 7548SOL    HW223544   3.610   2.697   6.153
 7549SOL     OW23545   5.288   1.733   3.980
 7549SOL    HW123546   5.211   1.730   4.044
 7549SOL    HW223547   5.372   1.708   4.028
 7550SOL     OW23548   2.731   4.857   4.151
 7550SOL    HW123549   2.689   4.802   4.079
 7550SOL    HW223550   2.766   4.797   4.223
 7551SOL     OW23551   6.478   2.547   6.081
 7551SOL    HW123552   6.464   2.516   6.175
 7551SOL    HW223553   6.419   2.625   6.063
 7552SOL     OW23554   2.398   6.757   4.949
 7552SOL    HW123555   2.331   6.825   4.920
 7552SOL    HW223556   2.483   6.770   4.899
 7553SOL     OW23557   5.344   6.119   5.494
 7553SOL    HW123558   5.375   6.210   5.465
 7553SOL    HW223559   5.419   6.073   5.542
 7554SOL     OW23560   4.994   0.734   1.000
 7554SOL    HW123561   5.087   0.713   0.969
 7554SOL    HW223562   4.984   0.833   1.010
 7555SOL     OW23563   4.223   5.212   4.996
 7555SOL    HW123564   4.279   5.129   4.990
 7555SOL    HW223565   4.140   5.193   5.049
 7556SOL     OW23566   0.422   6.425   1.626
 7556SOL    HW123567   0.368   6.367   1.687
 7556SOL    HW223568   0.509   6.380   1.606
 7557SOL     OW23569   4.797   0.570   0.858
 7557SOL    HW123570   4.827   0.475   0.862
 7557SOL    HW223571   4.869   0.629   0.896
 7558SOL     OW23572   1.052   1.731   4.240
 7558SOL    HW123573   1.042   1.826   4.271
 7558SOL    HW223574   1.103   1.679   4.308
 7559SOL     OW23575   2.686   1.810   5.303
 7559SOL    HW123576   2.728   1.809   5.394
 7559SOL    HW223577   2.751   1.845   5.236
 7560SOL     OW23578   1.011   1.837   5.996
 7560SOL    HW123579   0.933   1.802   5.944
 7560SOL    HW223580   1.032   1.773   6.071
 7561SOL     OW23581   5.934   1.446   5.131
 7561SOL    HW123582   5.891   1.486   5.212
 7561SOL    HW223583   6.032   1.462   5.134
 7562SOL     OW23584   2.176   6.031   3.245
 7562SOL    HW123585   2.204   5.959   3.308
 7562SOL    HW223586   2.159   6.115   3.297
 7563SOL     OW23587   3.541   5.423   2.016
 7563SOL    HW123588   3.580   5.334   2.038
 7563SOL    HW223589   3.581   5.458   1.931
 7564SOL     OW23590   3.318   2.151   5.645
 7564SOL    HW123591   3.400   2.133   5.590
 7564SOL    HW223592   3.243   2.176   5.584
 7565SOL     OW23593   6.555   3.932   5.873
 7565SOL    HW123594   6.541   4.018   5.824
 7565SOL    HW223595   6.485   3.866   5.848
 7566SOL     OW23596   4.532   4.879   1.181
 7566SOL    HW123597   4.580   4.895   1.268
 7566SOL    HW223598   4.565   4.795   1.140
 7567SOL     OW23599   1.178   0.317   4.170
 7567SOL    HW123600   1.236   0.257   4.115
 7567SOL    HW223601   1.082   0.297   4.151
 7568SOL     OW23602   5.992   5.903   1.983
 7568SOL    HW123603   6.033   5.961   2.054
 7568SOL    HW223604   5.974   5.812   2.020
 7569SOL     OW23605   4.705   3.770   0.381
 7569SOL    HW123606   4.673   3.785   0.288
 7569SOL    HW223607   4.659   3.833   0.443
 7570SOL     OW23608   0.445   3.131   2.642
 7570SOL    HW123609   0.518   3.172   2.587
 7570SOL    HW223610   0.450   3.164   2.736
 7571SOL     OW23611   5.288   2.030   2.886
 7571SOL    HW123612   5.221   1.956   2.896
 7571SOL    HW223613   5.241   2.118   2.890
 7572SOL     OW23614   4.541   0.117   3.645
 7572SOL    HW123615   4.468   0.067   3.691
 7572SOL    HW223616   4.611   0.143   3.711
 7573SOL     OW23617   4.807   6.398   5.664
 7573SOL    HW123618   4.749   6.331   5.710
 7573SOL    HW223619   4.750   6.473   5.629
 7574SOL     OW23620   1.101   2.974   3.594
 7574SOL    HW123621   1.138   2.954   3.503
 7574SOL    HW223622   1.065   2.889   3.634
 7575SOL     OW23623   0.245   6.976   2.033
 7575SOL    HW123624   0.239   6.993   1.935
 7575SOL    HW223625   0.207   6.886   2.054
 7576SOL     OW23626   5.256   2.395   0.303
 7576SOL    HW123627   5.244   2.307   0.258
 7576SOL    HW223628   5.192   2.461   0.264
 7577SOL     OW23629   0.673   6.871   1.447
 7577SOL    HW123630   0.731   6.886   1.367
 7577SOL    HW223631   0.591   6.928   1.439
 7578SOL     OW23632   6.541   5.931   3.361
 7578SOL    HW123633   6.517   6.027   3.343
 7578SOL    HW223634   6.593   5.925   3.446
 7579SOL     OW23635   0.546   1.209   6.925
 7579SOL    HW123636   0.618   1.150   6.962
 7579SOL    HW223637   0.581   1.302   6.916
 7580SOL     OW23638   2.511   4.897   3.642
 7580SOL    HW123639   2.438   4.894   3.573
 7580SOL    HW223640   2.562   4.811   3.640
 7581SOL     OW23641   6.573   0.876   2.270
 7581SOL    HW123642   6.623   0.885   2.184
 7581SOL    HW223643   6.628   0.826   2.336
 7582SOL     OW23644   2.585   1.356   5.887
 7582SOL    HW123645   2.651   1.429   5.905
 7582SOL    HW223646   2.554   1.362   5.793
 7583SOL     OW23647   5.049   2.749   3.130
 7583SOL    HW123648   5.106   2.799   3.196
 7583SOL    HW223649   5.033   2.657   3.164
 7584SOL     OW23650   0.287   0.856   3.573
 7584SOL    HW123651   0.227   0.841   3.495
 7584SOL    HW223652   0.289   0.774   3.630
 7585SOL     OW23653   1.205   1.475   6.559
 7585SOL    HW123654   1.136   1.547   6.572
 7585SOL    HW223655   1.293   1.506   6.595
 7586SOL     OW23656   1.641   0.730   2.512
 7586SOL    HW123657   1.674   0.822   2.491
 7586SOL    HW223658   1.701   0.689   2.582
 7587SOL     OW23659   3.913   0.494   0.793
 7587SOL    HW123660   3.885   0.563   0.727
 7587SOL    HW223661   4.005   0.462   0.772
 7588SOL     OW23662   2.347   2.773   4.152
 7588SOL    HW123663   2.369   2.675   4.150
 7588SOL    HW223664   2.426   2.824   4.183
 7589SOL     OW23665   0.562   0.468   2.622
 7589SOL    HW123666   0.590   0.379   2.584
 7589SOL    HW223667   0.640   0.530   2.624
 7590SOL     OW23668   0.035   0.916   6.783
 7590SOL    HW123669   6.976   0.900   6.846
 7590SOL    HW223670   0.097   0.983   6.824
 7591SOL     OW23671   3.831   3.028   4.364
 7591SOL    HW123672   3.916   3.080   4.360
 7591SOL    HW223673   3.819   2.977   4.278
 7592SOL     OW23674   6.920   6.695   4.815
 7592SOL    HW123675   6.995   6.729   4.759
 7592SOL    HW223676   6.905   6.598   4.796
 7593SOL     OW23677   0.965   1.091   5.858
 7593SOL    HW123678   0.977   1.045   5.771
 7593SOL    HW223679   0.943   1.187   5.842
 7594SOL     OW23680   0.325   4.307   0.304
 7594SOL    HW123681   0.288   4.381   0.359
 7594SOL    HW223682   0.418   4.329   0.277
 7595SOL     OW23683   1.100   3.150   6.196
 7595SOL    HW123684   1.050   3.156   6.109
 7595SOL    HW223685   1.180   3.210   6.193
 7596SOL     OW23686   3.347   1.203   5.642
 7596SOL    HW123687   3.334   1.104   5.641
 7596SOL    HW223688   3.407   1.228   5.719
 7597SOL     OW23689   1.475   4.331   1.946
 7597SOL    HW123690   1.526   4.415   1.928
 7597SOL    HW223691   1.475   4.275   1.863
 7598SOL     OW23692   6.559   0.999   2.737
 7598SOL    HW123693   6.622   0.930   2.774
 7598SOL    HW223694   6.569   1.084   2.790
 7599SOL     OW23695   3.210   3.824   1.077
 7599SOL    HW123696   3.172   3.759   1.011
 7599SOL    HW223697   3.136   3.873   1.122
 7600SOL     OW23698   1.700   6.694   4.331
 7600SOL    HW123699   1.727   6.756   4.257
 7600SOL    HW223700   1.780   6.647   4.367
 7601SOL     OW23701   3.028   6.615   1.981
 7601SOL    HW123702   2.996   6.527   2.018
 7601SOL    HW223703   3.111   6.643   2.029
 7602SOL     OW23704   0.131   2.216   0.514
 7602SOL    HW123705   0.109   2.243   0.420
 7602SOL    HW223706   0.207   2.271   0.549
 7603SOL     OW23707   3.607   7.007   5.911
 7603SOL    HW123708   3.569   0.081   5.898
 7603SOL    HW223709   3.637   6.971   5.823
 7604SOL     OW23710   0.190   2.167   5.178
 7604SOL    HW123711   0.260   2.105   5.213
 7604SOL    HW223712   0.213   2.193   5.084
 7605SOL     OW23713   2.182   6.531   0.048
 7605SOL    HW123714   2.125   6.476   0.109
 7605SOL    HW223715   2.248   6.583   0.102
 7606SOL     OW23716   6.633   1.206   2.917
 7606SOL    HW123717   6.677   1.139   2.976
 7606SOL    HW223718   6.701   1.273   2.886
 7607SOL     OW23719   1.687   6.207   5.791
 7607SOL    HW123720   1.761   6.272   5.774
 7607SOL    HW223721   1.617   6.249   5.849
 7608SOL     OW23722   5.610   2.400   6.322
 7608SOL    HW123723   5.608   2.314   6.372
 7608SOL    HW223724   5.662   2.468   6.374
 7609SOL     OW23725   1.764   1.909   4.983
 7609SOL    HW123726   1.775   1.940   5.077
 7609SOL    HW223727   1.685   1.847   4.977
 7610SOL     OW23728   4.065   5.092   4.590
 7610SOL    HW123729   4.116   5.012   4.622
 7610SOL    HW223730   3.967   5.073   4.597
 7611SOL     OW23731   4.851   3.356   0.196
 7611SOL    HW123732   4.922   3.421   0.221
 7611SOL    HW223733   4.830   3.297   0.274
 7612SOL     OW23734   3.722   1.847   3.540
 7612SOL    HW123735   3.677   1.882   3.458
 7612SOL    HW223736   3.742   1.750   3.528
 7613SOL     OW23737   0.852   1.602   1.099
 7613SOL    HW123738   0.880   1.506   1.103
 7613SOL    HW223739   0.792   1.622   1.177
 7614SOL     OW23740   5.053   3.837   0.088
 7614SOL    HW123741   5.148   3.819   0.062
 7614SOL    HW223742   5.050   3.883   0.177
 7615SOL     OW23743   5.663   3.588   5.042
 7615SOL    HW123744   5.618   3.501   5.025
 7615SOL    HW223745   5.702   3.589   5.134
 7616SOL     OW23746   5.913   0.181   3.385
 7616SOL    HW123747   5.881   0.218   3.298
 7616SOL    HW223748   5.950   0.089   3.370
 7617SOL     OW23749   6.384   3.953   3.550
 7617SOL    HW123750   6.407   4.027   3.613
 7617SOL    HW223751   6.285   3.953   3.534
 7618SOL     OW23752   2.485   2.756   0.446
 7618SOL    HW123753   2.506   2.674   0.392
 7618SOL    HW223754   2.386   2.762   0.460
 7619SOL     OW23755   1.368   1.589   4.730
 7619SOL    HW123756   1.379   1.687   4.713
 7619SOL    HW223757   1.452   1.541   4.703
 7620SOL     OW23758   4.196   4.449   0.774
 7620SOL    HW123759   4.152   4.491   0.695
 7620SOL    HW223760   4.125   4.416   0.837
 7621SOL     OW23761   6.179   4.190   0.034
 7621SOL    HW123762   6.092   4.179   7.005
 7621SOL    HW223763   6.165   4.183   0.132
 7622SOL     OW23764   3.076   4.002   1.266
 7622SOL    HW123765   2.994   4.052   1.240
 7622SOL    HW223766   3.129   4.056   1.331
 7623SOL     OW23767   5.109   4.298   1.449
 7623SOL    HW123768   5.112   4.388   1.492
 7623SOL    HW223769   5.018   4.281   1.413
 7624SOL     OW23770   1.146   3.202   2.214
 7624SOL    HW123771   1.226   3.254   2.185
 7624SOL    HW223772   1.169   3.104   2.215
 7625SOL     OW23773   5.519   0.971   1.680
 7625SOL    HW123774   5.448   0.901   1.668
 7625SOL    HW223775   5.603   0.941   1.635
 7626SOL     OW23776   4.498   0.653   5.970
 7626SOL    HW123777   4.558   0.730   5.948
 7626SOL    HW223778   4.503   0.634   6.068
 7627SOL     OW23779   4.154   2.540   6.791
 7627SOL    HW123780   4.156   2.621   6.732
 7627SOL    HW223781   4.060   2.515   6.810
 7628SOL     OW23782   3.450   2.652   0.341
 7628SOL    HW123783   3.438   2.687   0.248
 7628SOL    HW223784   3.368   2.601   0.368
 7629SOL     OW23785   6.214   2.404   3.075
 7629SOL    HW123786   6.122   2.384   3.107
 7629SOL    HW223787   6.226   2.503   3.066
 7630SOL     OW23788   0.862   6.360   4.924
 7630SOL    HW123789   0.945   6.341   4.872
 7630SOL    HW223790   0.842   6.458   4.919
 7631SOL     OW23791   1.020   0.484   5.849
 7631SOL    HW123792   0.939   0.443   5.807
 7631SOL    HW223793   1.061   0.420   5.914
 7632SOL     OW23794   4.161   5.980   0.012
 7632SOL    HW123795   4.250   5.954   0.051
 7632SOL    HW223796   4.115   6.042   0.075
 7633SOL     OW23797   6.779   1.178   1.288
 7633SOL    HW123798   6.852   1.123   1.246
 7633SOL    HW223799   6.697   1.173   1.231
 7634SOL     OW23800   6.676   2.791   6.989
 7634SOL    HW123801   6.718   2.868   6.942
 7634SOL    HW223802   6.740   2.714   6.993
 7635SOL     OW23803   2.267   3.573   5.710
 7635SOL    HW123804   2.252   3.670   5.731
 7635SOL    HW223805   2.264   3.560   5.611
 7636SOL     OW23806   6.921   3.834   4.287
 7636SOL    HW123807   7.006   3.862   4.243
 7636SOL    HW223808   6.843   3.868   4.234
 7637SOL     OW23809   1.205   5.239   5.065
 7637SOL    HW123810   1.212   5.140   5.057
 7637SOL    HW223811   1.295   5.278   5.085
 7638SOL     OW23812   0.319   6.194   1.353
 7638SOL    HW123813   0.334   6.115   1.411
 7638SOL    HW223814   0.406   6.240   1.335
 7639SOL     OW23815   1.347   1.048   0.016
 7639SOL    HW123816   1.368   1.051   0.114
 7639SOL    HW223817   1.396   0.971   6.992
 7640SOL     OW23818   3.189   1.015   0.852
 7640SOL    HW123819   3.185   0.916   0.862
 7640SOL    HW223820   3.225   1.056   0.936
 7641SOL     OW23821   0.592   4.009   3.735
 7641SOL    HW123822   0.509   3.998   3.681
 7641SOL    HW223823   0.611   3.923   3.784
 7642SOL     OW23824   5.896   1.257   2.997
 7642SOL    HW123825   5.878   1.347   2.958
 7642SOL    HW223826   5.850   1.187   2.943
 7643SOL     OW23827   5.235   3.489   3.542
 7643SOL    HW123828   5.251   3.518   3.637
 7643SOL    HW223829   5.273   3.398   3.529
 7644SOL     OW23830   5.584   3.805   1.406
 7644SOL    HW123831   5.586   3.820   1.505
 7644SOL    HW223832   5.672   3.830   1.366
 7645SOL     OW23833   3.272   4.813   6.324
 7645SOL    HW123834   3.229   4.855   6.404
 7645SOL    HW223835   3.247   4.865   6.242
 7646SOL     OW23836   6.167   1.255   0.492
 7646SOL    HW123837   6.107   1.330   0.520
 7646SOL    HW223838   6.114   1.187   0.442
 7647SOL     OW23839   0.165   2.094   4.359
 7647SOL    HW123840   0.157   2.003   4.401
 7647SOL    HW223841   0.075   2.124   4.329
 7648SOL     OW23842   2.479   2.142   1.885
 7648SOL    HW123843   2.570   2.175   1.859
 7648SOL    HW223844   2.475   2.134   1.985
 7649SOL     OW23845   3.776   1.093   6.199
 7649SOL    HW123846   3.793   1.000   6.231
 7649SOL    HW223847   3.721   1.142   6.267
 7650SOL     OW23848   4.124   2.584   0.647
 7650SOL    HW123849   4.178   2.640   0.711
 7650SOL    HW223850   4.032   2.622   0.640
 7651SOL     OW23851   3.130   4.934   6.133
 7651SOL    HW123852   3.110   4.962   6.039
 7651SOL    HW223853   3.140   5.015   6.191
 7652SOL     OW23854   1.489   0.945   4.309
 7652SOL    HW123855   1.470   0.849   4.328
 7652SOL    HW223856   1.443   0.972   4.224
 7653SOL     OW23857   1.599   0.958   6.309
 7653SOL    HW123858   1.606   1.038   6.249
 7653SOL    HW223859   1.663   0.888   6.278
 7654SOL     OW23860   5.734   1.842   6.122
 7654SOL    HW123861   5.759   1.854   6.025
 7654SOL    HW223862   5.802   1.887   6.179
 7655SOL     OW23863   3.393   1.388   3.091
 7655SOL    HW123864   3.401   1.387   3.191
 7655SOL    HW223865   3.365   1.479   3.061
 7656SOL     OW23866   6.672   3.624   6.780
 7656SOL    HW123867   6.607   3.589   6.848
 7656SOL    HW223868   6.638   3.606   6.688
 7657SOL     OW23869   1.310   4.173   4.558
 7657SOL    HW123870   1.344   4.259   4.518
 7657SOL    HW223871   1.235   4.193   4.621
 7658SOL     OW23872   2.356   0.658   1.095
 7658SOL    HW123873   2.406   0.680   1.011
 7658SOL    HW223874   2.335   0.743   1.144
 7659SOL     OW23875   4.586   4.061   5.910
 7659SOL    HW123876   4.635   4.142   5.878
 7659SOL    HW223877   4.531   4.024   5.836
 7660SOL     OW23878   6.735   5.157   5.139
 7660SOL    HW123879   6.663   5.101   5.099
 7660SOL    HW223880   6.732   5.150   5.239
 7661SOL     OW23881   3.894   1.404   5.174
 7661SOL    HW123882   3.936   1.400   5.084
 7661SOL    HW223883   3.810   1.350   5.174
 7662SOL     OW23884   6.326   6.475   1.452
 7662SOL    HW123885   6.372   6.448   1.367
 7662SOL    HW223886   6.389   6.530   1.508
 7663SOL     OW23887   0.162   5.365   5.332
 7663SOL    HW123888   0.255   5.372   5.294
 7663SOL    HW223889   0.098   5.340   5.259
 7664SOL     OW23890   3.774   1.990   2.060
 7664SOL    HW123891   3.712   2.057   2.018
 7664SOL    HW223892   3.868   2.023   2.051
 7665SOL     OW23893   3.528   0.252   5.868
 7665SOL    HW123894   3.451   0.217   5.813
 7665SOL    HW223895   3.492   0.309   5.941
 7666SOL     OW23896   5.379   4.337   3.238
 7666SOL    HW123897   5.288   4.361   3.272
 7666SOL    HW223898   5.399   4.391   3.156
 7667SOL     OW23899   3.959   5.959   2.798
 7667SOL    HW123900   3.901   5.965   2.717
 7667SOL    HW223901   3.911   5.909   2.870
 7668SOL     OW23902   2.298   5.667   0.620
 7668SOL    HW123903   2.249   5.754   0.624
 7668SOL    HW223904   2.301   5.626   0.712
 7669SOL     OW23905   2.189   1.225   6.327
 7669SOL    HW123906   2.276   1.218   6.279
 7669SOL    HW223907   2.181   1.150   6.392
 7670SOL     OW23908   0.617   7.017   1.164
 7670SOL    HW123909   0.601   6.923   1.133
 7670SOL    HW223910   0.651   0.053   1.088
 7671SOL     OW23911   3.371   0.163   0.705
 7671SOL    HW123912   3.339   0.254   0.732
 7671SOL    HW223913   3.362   0.152   0.607
 7672SOL     OW23914   4.947   4.420   2.434
 7672SOL    HW123915   4.860   4.380   2.464
 7672SOL    HW223916   4.975   4.490   2.500
 7673SOL     OW23917   1.800   6.348   4.251
 7673SOL    HW123918   1.838   6.356   4.343
 7673SOL    HW223919   1.703   6.372   4.252
 7674SOL     OW23920   4.880   5.827   4.632
 7674SOL    HW123921   4.929   5.740   4.628
 7674SOL    HW223922   4.882   5.870   4.542
 7675SOL     OW23923   4.860   6.210   3.360
 7675SOL    HW123924   4.796   6.257   3.421
 7675SOL    HW223925   4.826   6.214   3.266
 7676SOL     OW23926   3.536   2.899   5.486
 7676SOL    HW123927   3.502   2.993   5.489
 7676SOL    HW223928   3.493   2.850   5.410
 7677SOL     OW23929   6.431   4.722   0.304
 7677SOL    HW123930   6.531   4.733   0.305
 7677SOL    HW223931   6.408   4.634   0.264
 7678SOL     OW23932   2.027   1.197   5.076
 7678SOL    HW123933   1.991   1.266   5.138
 7678SOL    HW223934   1.992   1.107   5.102
 7679SOL     OW23935   3.558   5.833   5.126
 7679SOL    HW123936   3.530   5.737   5.128
 7679SOL    HW223937   3.657   5.839   5.121
 7680SOL     OW23938   1.963   6.930   4.391
 7680SOL    HW123939   1.896   6.977   4.334
 7680SOL    HW223940   2.002   6.853   4.340
 7681SOL     OW23941   2.656   3.340   6.275
 7681SOL    HW123942   2.706   3.269   6.324
 7681SOL    HW223943   2.675   3.332   6.177
 7682SOL     OW23944   3.006   0.745   2.663
 7682SOL    HW123945   3.031   0.665   2.718
 7682SOL    HW223946   3.066   0.822   2.688
 7683SOL     OW23947   0.506   5.057   4.769
 7683SOL    HW123948   0.427   5.062   4.708
 7683SOL    HW223949   0.589   5.050   4.714
 7684SOL     OW23950   4.764   3.313   1.237
 7684SOL    HW123951   4.790   3.359   1.322
 7684SOL    HW223952   4.780   3.215   1.246
 7685SOL     OW23953   2.172   0.345   0.314
 7685SOL    HW123954   2.115   0.304   0.386
 7685SOL    HW223955   2.116   0.408   0.260
 7686SOL     OW23956   6.335   6.981   4.888
 7686SOL    HW123957   6.362   6.887   4.910
 7686SOL    HW223958   6.311   6.986   4.791
 7687SOL     OW23959   5.354   4.302   6.236
 7687SOL    HW123960   5.424   4.256   6.181
 7687SOL    HW223961   5.266   4.258   6.219
 7688SOL     OW23962   0.155   4.087   6.452
 7688SOL    HW123963   0.160   3.994   6.417
 7688SOL    HW223964   0.061   4.120   6.446
 7689SOL     OW23965   4.342   1.067   1.621
 7689SOL    HW123966   4.389   0.981   1.602
 7689SOL    HW223967   4.364   1.133   1.549
 7690SOL     OW23968   5.647   5.679   1.776
 7690SOL    HW123969   5.587   5.729   1.839
 7690SOL    HW223970   5.595   5.652   1.695
 7691SOL     OW23971   4.960   3.607   3.555
 7691SOL    HW123972   5.051   3.584   3.521
 7691SOL    HW223973   4.912   3.522   3.580
 7692SOL     OW23974   3.177   0.262   2.642
 7692SOL    HW123975   3.108   0.213   2.696
 7692SOL    HW223976   3.179   0.358   2.670
 7693SOL     OW23977   2.341   0.725   1.579
 7693SOL    HW123978   2.382   0.761   1.663
 7693SOL    HW223979   2.389   0.763   1.500
 7694SOL     OW23980   4.880   1.396   5.357
 7694SOL    HW123981   4.828   1.425   5.277
 7694SOL    HW223982   4.836   1.432   5.440
 7695SOL     OW23983   4.763   6.851   3.800
 7695SOL    HW123984   4.665   6.837   3.814
 7695SOL    HW223985   4.787   6.945   3.823
 7696SOL     OW23986   1.983   2.885   5.690
 7696SOL    HW123987   1.947   2.831   5.766
 7696SOL    HW223988   1.907   2.928   5.641
 7697SOL     OW23989   5.085   0.140   3.200
 7697SOL    HW123990   5.120   0.233   3.215
 7697SOL    HW223991   5.003   0.144   3.144
 7698SOL     OW23992   6.214   3.020   0.870
 7698SOL    HW123993   6.275   3.012   0.791
 7698SOL    HW223994   6.136   2.958   0.858
 7699SOL     OW23995   4.930   5.482   5.745
 7699SOL    HW123996   4.912   5.553   5.677
 7699SOL    HW223997   4.942   5.394   5.699
 7700SOL     OW23998   5.231   6.310   2.207
 7700SOL    HW123999   5.175   6.284   2.285
 7700SOL    HW224000   5.248   6.230   2.150
 7701SOL     OW24001   1.306   2.589   6.060
 7701SOL    HW124002   1.325   2.585   5.962
 7701SOL    HW224003   1.392   2.586   6.111
 7702SOL     OW24004   4.671   0.009   4.380
 7702SOL    HW124005   4.769   0.030   4.390
 7702SOL    HW224006   4.651   7.011   4.284
 7703SOL     OW24007   6.700   0.147   5.386
 7703SOL    HW124008   6.615   0.199   5.382
 7703SOL    HW224009   6.695   0.082   5.462
 7704SOL     OW24010   1.006   1.746   4.776
 7704SOL    HW124011   0.997   1.646   4.775
 7704SOL    HW224012   0.963   1.782   4.859
 7705SOL     OW24013   1.450   5.063   6.954
 7705SOL    HW124014   1.383   5.121   7.001
 7705SOL    HW224015   1.533   5.057   7.009
 7706SOL     OW24016   3.701   2.936   2.446
 7706SOL    HW124017   3.673   3.023   2.404
 7706SOL    HW224018   3.628   2.869   2.433
 7707SOL     OW24019   0.008   3.950   0.126
 7707SOL    HW124020   7.010   4.049   0.123
 7707SOL    HW224021   6.975   3.905   0.053
 7708SOL     OW24022   2.152   0.570   4.345
 7708SOL    HW124023   2.251   0.565   4.357
 7708SOL    HW224024   2.126   0.663   4.318
 7709SOL     OW24025   0.155   4.819   1.643
 7709SOL    HW124026   0.071   4.766   1.631
 7709SOL    HW224027   0.215   4.803   1.564
 7710SOL     OW24028   0.136   3.176   1.054
 7710SOL    HW124029   0.165   3.135   0.967
 7710SOL    HW224030   0.190   3.258   1.072
 7711SOL     OW24031   7.003   4.819   4.840
 7711SOL    HW124032   7.009   4.845   4.936
 7711SOL    HW224033   0.069   4.845   4.793
 7712SOL     OW24034   0.305   5.770   5.538
 7712SOL    HW124035   0.233   5.710   5.575
 7712SOL    HW224036   0.393   5.746   5.580
 7713SOL     OW24037   1.353   4.159   7.015
 7713SOL    HW124038   1.424   4.216   6.974
 7713SOL    HW224039   1.271   4.160   6.958
 7714SOL     OW24040   6.629   1.785   4.644
 7714SOL    HW124041   6.709   1.726   4.631
 7714SOL    HW224042   6.567   1.776   4.566
 7715SOL     OW24043   3.864   3.244   5.116
 7715SOL    HW124044   3.786   3.252   5.055
 7715SOL    HW224045   3.853   3.305   5.194
 7716SOL     OW24046   0.840   6.412   6.107
 7716SOL    HW124047   0.840   6.405   6.207
 7716SOL    HW224048   0.827   6.508   6.081
 7717SOL     OW24049   0.311   2.427   6.384
 7717SOL    HW124050   0.349   2.342   6.420
 7717SOL    HW224051   0.213   2.430   6.402
 7718SOL     OW24052   1.031   3.678   3.203
 7718SOL    HW124053   0.939   3.714   3.186
 7718SOL    HW224054   1.024   3.589   3.247
 7719SOL     OW24055   1.696   5.386   4.769
 7719SOL    HW124056   1.610   5.434   4.783
 7719SOL    HW224057   1.772   5.451   4.778
 7720SOL     OW24058   4.642   1.265   6.461
 7720SOL    HW124059   4.650   1.289   6.558
 7720SOL    HW224060   4.729   1.230   6.428
 7721SOL     OW24061   0.008   6.885   2.897
 7721SOL    HW124062   0.070   6.962   2.881
 7721SOL    HW224063   6.958   6.882   2.824
 7722SOL     OW24064   1.347   5.564   3.873
 7722SOL    HW124065   1.355   5.634   3.803
 7722SOL    HW224066   1.296   5.600   3.951
 7723SOL     OW24067   4.840   3.765   6.972
 7723SOL    HW124068   4.874   3.690   6.915
 7723SOL    HW224069   4.918   3.809   7.017
 7724SOL     OW24070   2.277   3.814   1.304
 7724SOL    HW124071   2.249   3.862   1.221
 7724SOL    HW224072   2.197   3.774   1.347
 7725SOL     OW24073   5.184   2.899   3.944
 7725SOL    HW124074   5.161   2.968   3.876
 7725SOL    HW224075   5.196   2.943   4.033
 7726SOL     OW24076   1.312   2.935   5.787
 7726SOL    HW124077   1.409   2.955   5.771
 7726SOL    HW224078   1.278   2.875   5.714
 7727SOL     OW24079   4.366   0.924   2.187
 7727SOL    HW124080   4.464   0.935   2.172
 7727SOL    HW224081   4.326   0.870   2.113
 7728SOL     OW24082   1.885   3.918   4.622
 7728SOL    HW124083   1.819   3.880   4.687
 7728SOL    HW224084   1.943   3.985   4.668
 7729SOL     OW24085   6.666   1.417   3.129
 7729SOL    HW124086   6.611   1.367   3.061
 7729SOL    HW224087   6.666   1.514   3.106
 7730SOL     OW24088   6.425   4.608   4.895
 7730SOL    HW124089   6.495   4.667   4.854
 7730SOL    HW224090   6.393   4.649   4.980
 7731SOL     OW24091   6.946   6.948   6.431
 7731SOL    HW124092   6.969   6.906   6.344
 7731SOL    HW224093   6.991   6.899   6.506
 7732SOL     OW24094   3.342   6.989   6.475
 7732SOL    HW124095   3.393   0.017   6.403
 7732SOL    HW224096   3.244   6.994   6.456
 7733SOL     OW24097   6.423   5.629   1.438
 7733SOL    HW124098   6.366   5.677   1.370
 7733SOL    HW224099   6.405   5.668   1.529
 7734SOL     OW24100   3.381   4.041   4.375
 7734SOL    HW124101   3.448   4.085   4.316
 7734SOL    HW224102   3.381   4.085   4.465
 7735SOL     OW24103   0.457   6.750   1.220
 7735SOL    HW124104   0.363   6.775   1.198
 7735SOL    HW224105   0.506   6.727   1.136
 7736SOL     OW24106   1.343   3.170   6.477
 7736SOL    HW124107   1.313   3.105   6.406
 7736SOL    HW224108   1.348   3.262   6.438
 7737SOL     OW24109   4.270   4.341   0.200
 7737SOL    HW124110   4.369   4.342   0.212
 7737SOL    HW224111   4.248   4.340   0.102
 7738SOL     OW24112   2.380   0.450   5.265
 7738SOL    HW124113   2.375   0.546   5.239
 7738SOL    HW224114   2.461   0.436   5.323
 7739SOL     OW24115   1.850   1.641   0.841
 7739SOL    HW124116   1.761   1.609   0.810
 7739SOL    HW224117   1.917   1.568   0.829
 7740SOL     OW24118   1.805   0.448   4.904
 7740SOL    HW124119   1.891   0.405   4.876
 7740SOL    HW224120   1.728   0.398   4.865
 7741SOL     OW24121   1.135   4.594   6.103
 7741SOL    HW124122   1.162   4.566   6.011
 7741SOL    HW224123   1.118   4.513   6.159
 7742SOL     OW24124   4.659   1.963   4.324
 7742SOL    HW124125   4.590   1.896   4.348
 7742SOL    HW224126   4.712   1.989   4.405
 7743SOL     OW24127   4.392   1.835   5.712
 7743SOL    HW124128   4.322   1.816   5.781
 7743SOL    HW224129   4.349   1.878   5.632
 7744SOL     OW24130   1.437   6.836   4.642
 7744SOL    HW124131   1.420   6.907   4.711
 7744SOL    HW224132   1.536   6.819   4.636
 7745SOL     OW24133   2.853   6.979   1.064
 7745SOL    HW124134   2.838   0.030   0.994
 7745SOL    HW224135   2.775   6.917   1.068
 7746SOL     OW24136   0.828   5.919   0.926
 7746SOL    HW124137   0.905   5.957   0.874
 7746SOL    HW224138   0.857   5.900   1.020
 7747SOL     OW24139   0.562   5.875   1.007
 7747SOL    HW124140   0.497   5.848   0.936
 7747SOL    HW224141   0.655   5.866   0.973
 7748SOL     OW24142   4.711   1.944   6.449
 7748SOL    HW124143   4.772   1.916   6.375
 7748SOL    HW224144   4.760   2.007   6.510
 7749SOL     OW24145   3.537   3.643   4.228
 7749SOL    HW124146   3.447   3.683   4.246
 7749SOL    HW224147   3.525   3.552   4.188
 7750SOL     OW24148   5.433   4.299   5.716
 7750SOL    HW124149   5.476   4.348   5.792
 7750SOL    HW224150   5.460   4.203   5.718
 7751SOL     OW24151   0.021   1.213   4.471
 7751SOL    HW124152   0.075   1.169   4.542
 7751SOL    HW224153   0.006   1.149   4.396
 7752SOL     OW24154   6.482   5.698   5.435
 7752SOL    HW124155   6.576   5.663   5.439
 7752SOL    HW224156   6.450   5.697   5.341
 7753SOL     OW24157   2.699   1.192   4.970
 7753SOL    HW124158   2.678   1.200   4.873
 7753SOL    HW224159   2.633   1.132   5.015
 7754SOL     OW24160   6.294   0.695   1.742
 7754SOL    HW124161   6.328   0.612   1.787
 7754SOL    HW224162   6.371   0.744   1.700
 7755SOL     OW24163   1.087   5.765   5.254
 7755SOL    HW124164   1.017   5.702   5.221
 7755SOL    HW224165   1.073   5.782   5.351
 7756SOL     OW24166   3.753   5.336   2.787
 7756SOL    HW124167   3.753   5.273   2.865
 7756SOL    HW224168   3.836   5.321   2.733
 7757SOL     OW24169   4.382   6.195   5.933
 7757SOL    HW124170   4.352   6.162   5.844
 7757SOL    HW224171   4.399   6.118   5.993
 7758SOL     OW24172   3.259   2.333   6.005
 7758SOL    HW124173   3.190   2.263   5.989
 7758SOL    HW224174   3.215   2.421   6.024
 7759SOL     OW24175   2.211   0.793   4.919
 7759SOL    HW124176   2.182   0.874   4.868
 7759SOL    HW224177   2.216   0.715   4.857
 7760SOL     OW24178   4.809   1.825   3.434
 7760SOL    HW124179   4.804   1.726   3.444
 7760SOL    HW224180   4.860   1.864   3.511
 7761SOL     OW24181   3.631   6.977   6.612
 7761SOL    HW124182   3.559   6.940   6.554
 7761SOL    HW224183   3.672   0.039   6.568
 7762SOL     OW24184   2.447   1.999   0.931
 7762SOL    HW124185   2.419   2.077   0.874
 7762SOL    HW224186   2.383   1.923   0.916
 7763SOL     OW24187   2.231   1.771   0.906
 7763SOL    HW124188   2.154   1.816   0.952
 7763SOL    HW224189   2.270   1.703   0.967
 7764SOL     OW24190   3.881   3.058   2.898
 7764SOL    HW124191   3.887   3.024   2.805
 7764SOL    HW224192   3.787   3.047   2.931
 7765SOL     OW24193   6.983   2.128   2.474
 7765SOL    HW124194   6.903   2.072   2.492
 7765SOL    HW224195   6.996   2.137   2.375
 7766SOL     OW24196   6.887   3.405   6.799
 7766SOL    HW124197   6.844   3.493   6.819
 7766SOL    HW224198   6.817   3.335   6.787
 7767SOL     OW24199   5.728   4.319   5.280
 7767SOL    HW124200   5.804   4.296   5.341
 7767SOL    HW224201   5.642   4.293   5.324
 7768SOL     OW24202   4.007   5.349   2.159
 7768SOL    HW124203   3.958   5.347   2.071
 7768SOL    HW224204   3.944   5.324   2.232
 7769SOL     OW24205   6.253   2.176   1.893
 7769SOL    HW124206   6.254   2.086   1.851
 7769SOL    HW224207   6.346   2.215   1.891
 7770SOL     OW24208   3.840   5.784   1.567
 7770SOL    HW124209   3.919   5.723   1.555
 7770SOL    HW224210   3.863   5.855   1.634
 7771SOL     OW24211   2.207   1.514   5.241
 7771SOL    HW124212   2.143   1.522   5.318
 7771SOL    HW224213   2.190   1.587   5.175
 7772SOL     OW24214   5.341   1.252   4.904
 7772SOL    HW124215   5.433   1.219   4.928
 7772SOL    HW224216   5.278   1.232   4.979
 7773SOL     OW24217   3.952   4.562   5.366
 7773SOL    HW124218   3.903   4.647   5.345
 7773SOL    HW224219   3.898   4.484   5.335
 7774SOL     OW24220   4.653   1.476   6.271
 7774SOL    HW124221   4.732   1.448   6.216
 7774SOL    HW224222   4.623   1.400   6.328
 7775SOL     OW24223   3.045   0.109   2.189
 7775SOL    HW124224   3.097   0.192   2.208
 7775SOL    HW224225   3.107   0.030   2.192
 7776SOL     OW24226   3.554   3.771   0.368
 7776SOL    HW124227   3.643   3.726   0.376
 7776SOL    HW224228   3.494   3.716   0.310
 7777SOL     OW24229   1.705   0.701   6.872
 7777SOL    HW124230   1.773   0.683   6.800
 7777SOL    HW224231   1.661   0.616   6.899
 7778SOL     OW24232   5.948   0.770   1.012
 7778SOL    HW124233   6.028   0.712   1.029
 7778SOL    HW224234   5.958   0.856   1.063
 7779SOL     OW24235   3.490   3.335   6.864
 7779SOL    HW124236   3.511   3.285   6.780
 7779SOL    HW224237   3.398   3.310   6.895
 7780SOL     OW24238   1.325   0.465   4.343
 7780SOL    HW124239   1.284   0.398   4.281
 7780SOL    HW224240   1.370   0.418   4.418
 7781SOL     OW24241   1.395   5.030   5.035
 7781SOL    HW124242   1.440   5.035   5.124
 7781SOL    HW224243   1.437   5.095   4.972
 7782SOL     OW24244   3.530   4.404   6.677
 7782SOL    HW124245   3.486   4.328   6.726
 7782SOL    HW224246   3.530   4.485   6.736
 7783SOL     OW24247   3.124   5.369   6.158
 7783SOL    HW124248   3.055   5.347   6.089
 7783SOL    HW224249   3.212   5.382   6.113
 7784SOL     OW24250   6.982   2.780   6.802
 7784SOL    HW124251   6.982   2.694   6.853
 7784SOL    HW224252   7.015   2.764   6.709
 7785SOL     OW24253   2.418   6.232   4.264
 7785SOL    HW124254   2.463   6.197   4.346
 7785SOL    HW224255   2.475   6.213   4.184
 7786SOL     OW24256   3.091   3.980   4.447
 7786SOL    HW124257   3.123   4.041   4.520
 7786SOL    HW224258   3.102   3.885   4.476
 7787SOL     OW24259   2.681   2.171   5.379
 7787SOL    HW124260   2.698   2.245   5.444
 7787SOL    HW224261   2.754   2.103   5.386
 7788SOL     OW24262   0.359   1.503   0.202
 7788SOL    HW124263   0.316   1.424   0.158
 7788SOL    HW224264   0.331   1.508   0.298
 7789SOL     OW24265   2.148   7.013   1.346
 7789SOL    HW124266   2.050   0.005   1.362
 7789SOL    HW224267   2.188   0.082   1.319
 7790SOL     OW24268   6.307   3.792   2.604
 7790SOL    HW124269   6.322   3.778   2.702
 7790SOL    HW224270   6.331   3.885   2.579
 7791SOL     OW24271   1.499   4.848   4.624
 7791SOL    HW124272   1.593   4.878   4.632
 7791SOL    HW224273   1.455   4.851   4.714
 7792SOL     OW24274   2.632   5.473   5.700
 7792SOL    HW124275   2.724   5.505   5.679
 7792SOL    HW224276   2.631   5.373   5.700
 7793SOL     OW24277   0.682   0.601   6.653
 7793SOL    HW124278   0.739   0.595   6.735
 7793SOL    HW224279   0.622   0.521   6.648
 7794SOL     OW24280   5.229   5.526   3.733
 7794SOL    HW124281   5.134   5.520   3.765
 7794SOL    HW224282   5.251   5.621   3.714
 7795SOL     OW24283   1.975   4.761   5.277
 7795SOL    HW124284   1.961   4.736   5.181
 7795SOL    HW224285   2.066   4.801   5.288
 7796SOL     OW24286   4.047   3.382   3.614
 7796SOL    HW124287   4.113   3.336   3.555
 7796SOL    HW224288   4.041   3.333   3.701
 7797SOL     OW24289   1.255   0.089   2.437
 7797SOL    HW124290   1.291   0.147   2.509
 7797SOL    HW224291   1.156   0.105   2.427
 7798SOL     OW24292   4.337   5.742   6.773
 7798SOL    HW124293   4.275   5.754   6.851
 7798SOL    HW224294   4.308   5.663   6.719
 7799SOL     OW24295   6.590   5.044   1.154
 7799SOL    HW124296   6.608   5.036   1.251
 7799SOL    HW224297   6.635   5.126   1.118
 7800SOL     OW24298   0.773   5.956   2.186
 7800SOL    HW124299   0.808   5.887   2.250
 7800SOL    HW224300   0.795   5.929   2.093
 7801SOL     OW24301   4.067   1.973   6.556
 7801SOL    HW124302   3.979   1.926   6.562
 7801SOL    HW224303   4.140   1.910   6.581
 7802SOL     OW24304   6.073   1.845   1.206
 7802SOL    HW124305   6.052   1.767   1.147
 7802SOL    HW224306   5.989   1.880   1.247
 7803SOL     OW24307   3.757   4.147   5.507
 7803SOL    HW124308   3.852   4.126   5.532
 7803SOL    HW224309   3.704   4.162   5.590
 7804SOL     OW24310   4.962   1.546   6.446
 7804SOL    HW124311   4.924   1.511   6.360
 7804SOL    HW224312   4.964   1.646   6.443
 7805SOL     OW24313   4.933   3.829   2.143
 7805SOL    HW124314   5.027   3.808   2.169
 7805SOL    HW224315   4.922   3.929   2.138
 7806SOL     OW24316   4.723   2.815   6.988
 7806SOL    HW124317   4.679   2.843   0.055
 7806SOL    HW224318   4.805   2.870   6.973
 7807SOL     OW24319   0.171   3.984   6.820
 7807SOL    HW124320   0.156   3.891   6.852
 7807SOL    HW224321   0.269   4.003   6.817
 7808SOL     OW24322   0.692   1.551   4.836
 7808SOL    HW124323   0.660   1.620   4.901
 7808SOL    HW224324   0.654   1.571   4.745
 7809SOL     OW24325   1.602   5.395   5.332
 7809SOL    HW124326   1.627   5.492   5.334
 7809SOL    HW224327   1.685   5.339   5.334
 7810SOL     OW24328   2.763   1.478   6.948
 7810SOL    HW124329   2.730   1.383   6.949
 7810SOL    HW224330   2.813   1.494   6.863
 7811SOL     OW24331   0.104   4.152   4.291
 7811SOL    HW124332   0.063   4.172   4.380
 7811SOL    HW224333   0.105   4.235   4.235
 7812SOL     OW24334   1.358   1.405   3.673
 7812SOL    HW124335   1.366   1.336   3.746
 7812SOL    HW224336   1.379   1.495   3.711
 7813SOL     OW24337   6.349   3.049   0.631
 7813SOL    HW124338   6.431   3.100   0.655
 7813SOL    HW224339   6.284   3.109   0.586
 7814SOL     OW24340   1.105   3.831   3.747
 7814SOL    HW124341   1.034   3.895   3.776
 7814SOL    HW224342   1.077   3.787   3.661
 7815SOL     OW24343   6.335   1.745   5.823
 7815SOL    HW124344   6.349   1.701   5.912
 7815SOL    HW224345   6.262   1.812   5.830
 7816SOL     OW24346   1.318   3.826   5.108
 7816SOL    HW124347   1.371   3.750   5.070
 7816SOL    HW224348   1.223   3.818   5.077
 7817SOL     OW24349   5.192   3.433   4.939
 7817SOL    HW124350   5.173   3.503   4.870
 7817SOL    HW224351   5.279   3.454   4.984
 7818SOL     OW24352   5.263   5.170   2.521
 7818SOL    HW124353   5.313   5.086   2.542
 7818SOL    HW224354   5.207   5.156   2.439
 7819SOL     OW24355   7.018   1.296   1.315
 7819SOL    HW124356   6.930   1.269   1.277
 7819SOL    HW224357   0.058   1.215   1.324
 7820SOL     OW24358   1.716   0.170   6.070
 7820SOL    HW124359   1.630   0.127   6.097
 7820SOL    HW224360   1.701   0.269   6.059
 7821SOL     OW24361   3.025   5.195   1.354
 7821SOL    HW124362   3.064   5.143   1.430
 7821SOL    HW224363   3.069   5.166   1.269
 7822SOL     OW24364   1.604   5.675   5.308
 7822SOL    HW124365   1.639   5.703   5.219
 7822SOL    HW224366   1.504   5.677   5.307
 7823SOL     OW24367   1.488   4.501   4.947
 7823SOL    HW124368   1.565   4.556   4.978
 7823SOL    HW224369   1.520   4.432   4.882
 7824SOL     OW24370   0.388   3.171   5.386
 7824SOL    HW124371   0.340   3.217   5.460
 7824SOL    HW224372   0.426   3.084   5.419
 7825SOL     OW24373   2.907   1.507   6.744
 7825SOL    HW124374   2.973   1.433   6.736
 7825SOL    HW224375   2.952   1.594   6.723
 7826SOL     OW24376   0.726   3.143   5.898
 7826SOL    HW124377   0.735   3.100   5.988
 7826SOL    HW224378   0.630   3.145   5.872
 7827SOL     OW24379   6.389   5.543   5.015
 7827SOL    HW124380   6.433   5.513   5.100
 7827SOL    HW224381   6.386   5.467   4.950
 7828SOL     OW24382   0.800   4.853   0.092
 7828SOL    HW124383   0.857   4.907   0.029
 7828SOL    HW224384   0.848   4.769   0.116
 7829SOL     OW24385   3.817   3.040   0.690
 7829SOL    HW124386   3.849   3.079   0.603
 7829SOL    HW224387   3.779   2.949   0.673
 7830SOL     OW24388   2.781   5.264   3.786
 7830SOL    HW124389   2.728   5.269   3.702
 7830SOL    HW224390   2.842   5.185   3.783
 7831SOL     OW24391   1.621   0.348   6.713
 7831SOL    HW124392   1.582   0.279   6.652
 7831SOL    HW224393   1.720   0.341   6.713
 7832SOL     OW24394   6.051   0.932   4.634
 7832SOL    HW124395   5.996   0.984   4.699
 7832SOL    HW224396   6.140   0.977   4.623
 7833SOL     OW24397   1.636   0.285   3.229
 7833SOL    HW124398   1.652   0.269   3.326
 7833SOL    HW224399   1.628   0.383   3.212
 7834SOL     OW24400   6.322   3.622   5.254
 7834SOL    HW124401   6.322   3.606   5.353
 7834SOL    HW224402   6.245   3.574   5.213
 7835SOL     OW24403   4.133   2.396   5.423
 7835SOL    HW124404   4.139   2.460   5.346
 7835SOL    HW224405   4.223   2.388   5.467
 7836SOL     OW24406   3.241   3.415   3.975
 7836SOL    HW124407   3.184   3.333   3.964
 7836SOL    HW224408   3.203   3.489   3.920
 7837SOL     OW24409   6.966   5.896   0.347
 7837SOL    HW124410   6.936   5.991   0.339
 7837SOL    HW224411   6.890   5.835   0.328
 7838SOL     OW24412   4.700   5.776   2.407
 7838SOL    HW124413   4.697   5.839   2.330
 7838SOL    HW224414   4.709   5.682   2.373
 7839SOL     OW24415   5.857   2.725   4.308
 7839SOL    HW124416   5.848   2.821   4.281
 7839SOL    HW224417   5.900   2.719   4.398
 7840SOL     OW24418   1.870   3.042   4.313
 7840SOL    HW124419   1.875   2.974   4.386
 7840SOL    HW224420   1.951   3.034   4.255
 7841SOL     OW24421   3.986   1.624   6.168
 7841SOL    HW124422   4.075   1.669   6.160
 7841SOL    HW224423   3.932   1.669   6.239
 7842SOL     OW24424   1.498   0.612   1.815
 7842SOL    HW124425   1.462   0.654   1.898
 7842SOL    HW224426   1.426   0.556   1.773
 7843SOL     OW24427   0.045   6.095   3.451
 7843SOL    HW124428   6.971   6.129   3.467
 7843SOL    HW224429   0.083   6.059   3.536
 7844SOL     OW24430   3.896   1.196   2.280
 7844SOL    HW124431   3.823   1.133   2.251
 7844SOL    HW224432   3.979   1.177   2.228
 7845SOL     OW24433   6.889   3.092   0.958
 7845SOL    HW124434   6.974   3.088   1.011
 7845SOL    HW224435   6.839   3.007   0.968
 7846SOL     OW24436   1.032   1.779   0.695
 7846SOL    HW124437   1.108   1.769   0.632
 7846SOL    HW224438   1.045   1.861   0.750
 7847SOL     OW24439   5.148   4.274   5.691
 7847SOL    HW124440   5.115   4.243   5.780
 7847SOL    HW224441   5.247   4.288   5.695
 7848SOL     OW24442   3.792   4.280   1.150
 7848SOL    HW124443   3.715   4.309   1.208
 7848SOL    HW224444   3.756   4.245   1.064
 7849SOL     OW24445   4.307   4.733   6.796
 7849SOL    HW124446   4.366   4.653   6.806
 7849SOL    HW224447   4.352   4.813   6.835
 7850SOL     OW24448   6.839   1.277   3.930
 7850SOL    HW124449   6.809   1.186   3.959
 7850SOL    HW224450   6.917   1.306   3.986
 7851SOL     OW24451   6.961   4.886   1.228
 7851SOL    HW124452   6.955   4.958   1.297
 7851SOL    HW224453   6.897   4.812   1.250
 7852SOL     OW24454   1.013   3.078   6.483
 7852SOL    HW124455   1.099   3.080   6.535
 7852SOL    HW224456   1.033   3.073   6.385
 7853SOL     OW24457   4.089   2.960   1.654
 7853SOL    HW124458   4.014   2.935   1.715
 7853SOL    HW224459   4.166   2.994   1.709
 7854SOL     OW24460   4.899   2.034   6.685
 7854SOL    HW124461   4.911   1.945   6.641
 7854SOL    HW224462   4.963   2.100   6.644
 7855SOL     OW24463   5.245   6.919   4.444
 7855SOL    HW124464   5.197   6.843   4.399
 7855SOL    HW224465   5.252   6.900   4.542
 7856SOL     OW24466   2.251   6.929   4.223
 7856SOL    HW124467   2.194   6.925   4.141
 7856SOL    HW224468   2.306   6.846   4.230
 7857SOL     OW24469   6.107   4.802   1.339
 7857SOL    HW124470   6.052   4.803   1.255
 7857SOL    HW224471   6.098   4.714   1.384
 7858SOL     OW24472   0.004   4.403   6.534
 7858SOL    HW124473   6.966   4.337   6.483
 7858SOL    HW224474   6.972   4.435   6.614
 7859SOL     OW24475   5.141   2.553   0.673
 7859SOL    HW124476   5.124   2.643   0.714
 7859SOL    HW224477   5.118   2.482   0.740
 7860SOL     OW24478   2.753   1.474   4.900
 7860SOL    HW124479   2.786   1.393   4.852
 7860SOL    HW224480   2.807   1.553   4.873
 7861SOL     OW24481   2.341   6.248   0.248
 7861SOL    HW124482   2.363   6.205   0.161
 7861SOL    HW224483   2.395   6.331   0.259
 7862SOL     OW24484   2.151   5.699   6.606
 7862SOL    HW124485   2.103   5.783   6.630
 7862SOL    HW224486   2.249   5.717   6.601
 7863SOL     OW24487   0.728   4.174   3.423
 7863SOL    HW124488   0.752   4.124   3.506
 7863SOL    HW224489   0.688   4.111   3.356
 7864SOL     OW24490   2.002   6.111   5.630
 7864SOL    HW124491   1.963   6.192   5.674
 7864SOL    HW224492   2.061   6.063   5.695
 7865SOL     OW24493   5.530   4.599   3.546
 7865SOL    HW124494   5.438   4.568   3.571
 7865SOL    HW224495   5.526   4.650   3.460
 7866SOL     OW24496   6.953   0.652   6.441
 7866SOL    HW124497   6.972   0.575   6.379
 7866SOL    HW224498   7.009   0.642   6.523
 7867SOL     OW24499   4.711   4.834   3.442
 7867SOL    HW124500   4.806   4.858   3.423
 7867SOL    HW224501   4.655   4.917   3.445
 7868SOL     OW24502   3.037   6.501   1.389
 7868SOL    HW124503   2.986   6.446   1.456
 7868SOL    HW224504   2.990   6.588   1.376
 7869SOL     OW24505   5.893   4.752   6.537
 7869SOL    HW124506   5.863   4.802   6.455
 7869SOL    HW224507   5.985   4.717   6.522
 7870SOL     OW24508   5.808   5.345   4.451
 7870SOL    HW124509   5.883   5.348   4.385
 7870SOL    HW224510   5.731   5.296   4.411
 7871SOL     OW24511   5.511   1.617   1.067
 7871SOL    HW124512   5.574   1.652   1.136
 7871SOL    HW224513   5.501   1.518   1.079
 7872SOL     OW24514   1.226   5.664   3.169
 7872SOL    HW124515   1.187   5.590   3.224
 7872SOL    HW224516   1.302   5.706   3.218
 7873SOL     OW24517   5.259   1.944   6.908
 7873SOL    HW124518   5.199   1.865   6.918
 7873SOL    HW224519   5.350   1.921   6.944
 7874SOL     OW24520   5.876   2.810   0.447
 7874SOL    HW124521   5.905   2.725   0.491
 7874SOL    HW224522   5.777   2.821   0.459
 7875SOL     OW24523   6.308   4.649   6.286
 7875SOL    HW124524   6.366   4.645   6.205
 7875SOL    HW224525   6.225   4.595   6.270
 7876SOL     OW24526   1.445   0.194   3.741
 7876SOL    HW124527   1.345   0.199   3.737
 7876SOL    HW224528   1.476   0.229   3.829
 7877SOL     OW24529   0.231   2.886   3.305
 7877SOL    HW124530   0.314   2.845   3.269
 7877SOL    HW224531   0.155   2.870   3.242
 7878SOL     OW24532   4.694   4.816   3.045
 7878SOL    HW124533   4.617   4.877   3.030
 7878SOL    HW224534   4.672   4.725   3.009
 7879SOL     OW24535   3.270   4.898   2.763
 7879SOL    HW124536   3.357   4.906   2.715
 7879SOL    HW224537   3.281   4.835   2.840
 7880SOL     OW24538   1.175   4.529   2.142
 7880SOL    HW124539   1.233   4.581   2.079
 7880SOL    HW224540   1.081   4.561   2.133
 7881SOL     OW24541   4.800   4.151   3.632
 7881SOL    HW124542   4.897   4.131   3.622
 7881SOL    HW224543   4.750   4.065   3.647
 7882SOL     OW24544   0.948   3.324   0.093
 7882SOL    HW124545   0.996   3.315   0.005
 7882SOL    HW224546   0.870   3.261   0.095
 7883SOL     OW24547   0.947   0.553   5.495
 7883SOL    HW124548   0.895   0.513   5.570
 7883SOL    HW224549   0.902   0.638   5.466
 7884SOL     OW24550   0.868   2.775   4.338
 7884SOL    HW124551   0.888   2.833   4.260
 7884SOL    HW224552   0.787   2.719   4.319
 7885SOL     OW24553   6.797   6.178   6.481
 7885SOL    HW124554   6.782   6.094   6.429
 7885SOL    HW224555   6.718   6.238   6.471
 7886SOL     OW24556   5.157   4.521   0.726
 7886SOL    HW124557   5.148   4.620   0.725
 7886SOL    HW224558   5.210   4.493   0.806
 7887SOL     OW24559   4.501   2.943   6.079
 7887SOL    HW124560   4.586   2.891   6.069
 7887SOL    HW224561   4.469   2.938   6.174
 7888SOL     OW24562   5.142   0.184   4.546
 7888SOL    HW124563   5.079   0.132   4.488
 7888SOL    HW224564   5.234   0.180   4.507
 7889SOL     OW24565   0.932   5.077   2.225
 7889SOL    HW124566   0.847   5.120   2.195
 7889SOL    HW224567   0.976   5.031   2.148
 7890SOL     OW24568   1.858   2.881   2.615
 7890SOL    HW124569   1.884   2.903   2.521
 7890SOL    HW224570   1.913   2.804   2.648
 7891SOL     OW24571   1.161   4.798   2.955
 7891SOL    HW124572   1.139   4.712   3.001
 7891SOL    HW224573   1.254   4.793   2.918
 7892SOL     OW24574   2.196   2.559   5.767
 7892SOL    HW124575   2.254   2.478   5.766
 7892SOL    HW224576   2.243   2.635   5.721
 7893SOL     OW24577   6.038   6.259   1.675
 7893SOL    HW124578   5.979   6.221   1.604
 7893SOL    HW224579   6.078   6.345   1.642
 7894SOL     OW24580   2.849   0.299   1.885
 7894SOL    HW124581   2.891   0.210   1.902
 7894SOL    HW224582   2.863   0.358   1.964
 7895SOL     OW24583   6.762   1.036   3.406
 7895SOL    HW124584   6.792   1.131   3.417
 7895SOL    HW224585   6.790   0.984   3.487
 7896SOL     OW24586   4.258   1.487   5.912
 7896SOL    HW124587   4.210   1.463   5.828
 7896SOL    HW224588   4.252   1.585   5.928
 7897SOL     OW24589   2.729   2.722   6.316
 7897SOL    HW124590   2.677   2.647   6.357
 7897SOL    HW224591   2.763   2.693   6.226
 7898SOL     OW24592   4.357   2.390   3.639
 7898SOL    HW124593   4.405   2.476   3.618
 7898SOL    HW224594   4.357   2.332   3.558
 7899SOL     OW24595   4.828   0.885   2.807
 7899SOL    HW124596   4.894   0.811   2.818
 7899SOL    HW224597   4.754   0.855   2.747
 7900SOL     OW24598   1.808   5.191   0.895
 7900SOL    HW124599   1.776   5.270   0.947
 7900SOL    HW224600   1.908   5.188   0.895
 7901SOL     OW24601   5.685   5.711   0.741
 7901SOL    HW124602   5.772   5.668   0.766
 7901SOL    HW224603   5.686   5.807   0.770
 7902SOL     OW24604   5.233   5.151   6.618
 7902SOL    HW124605   5.186   5.150   6.529
 7902SOL    HW224606   5.330   5.173   6.604
 7903SOL     OW24607   0.048   2.547   6.924
 7903SOL    HW124608   0.139   2.570   6.957
 7903SOL    HW224609   0.048   2.452   6.891
 7904SOL     OW24610   6.908   1.173   2.370
 7904SOL    HW124611   6.813   1.187   2.341
 7904SOL    HW224612   6.966   1.165   2.289
 7905SOL     OW24613   2.769   2.007   0.955
 7905SOL    HW124614   2.820   1.951   0.889
 7905SOL    HW224615   2.672   1.982   0.952
 7906SOL     OW24616   0.111   5.305   0.132
 7906SOL    HW124617   0.150   5.312   0.040
 7906SOL    HW224618   0.044   5.378   0.146
 7907SOL     OW24619   5.786   2.862   2.353
 7907SOL    HW124620   5.779   2.797   2.429
 7907SOL    HW224621   5.727   2.940   2.370
 7908SOL     OW24622   6.347   1.656   3.050
 7908SOL    HW124623   6.272   1.695   3.103
 7908SOL    HW224624   6.329   1.558   3.034
 7909SOL     OW24625   4.709   5.605   5.569
 7909SOL    HW124626   4.700   5.627   5.472
 7909SOL    HW224627   4.658   5.673   5.623
 7910SOL     OW24628   5.623   4.043   6.229
 7910SOL    HW124629   5.692   3.998   6.284
 7910SOL    HW224630   5.641   4.142   6.227
 7911SOL     OW24631   6.945   4.915   0.149
 7911SOL    HW124632   6.866   4.972   0.172
 7911SOL    HW224633   6.965   4.924   0.051
 7912SOL     OW24634   0.245   5.099   5.319
 7912SOL    HW124635   0.214   5.193   5.333
 7912SOL    HW224636   0.167   5.038   5.316
 7913SOL     OW24637   0.809   6.193   6.729
 7913SOL    HW124638   0.862   6.236   6.802
 7913SOL    HW224639   0.726   6.153   6.768
 7914SOL     OW24640   0.338   3.414   2.454
 7914SOL    HW124641   0.283   3.343   2.498
 7914SOL    HW224642   0.431   3.379   2.437
 7915SOL     OW24643   4.624   1.201   2.020
 7915SOL    HW124644   4.642   1.296   1.995
 7915SOL    HW224645   4.528   1.180   2.003
 7916SOL     OW24646   4.571   3.429   5.496
 7916SOL    HW124647   4.633   3.406   5.421
 7916SOL    HW224648   4.476   3.423   5.463
 7917SOL     OW24649   3.493   4.165   3.473
 7917SOL    HW124650   3.424   4.145   3.543
 7917SOL    HW224651   3.582   4.134   3.505
 7918SOL     OW24652   6.167   2.493   1.964
 7918SOL    HW124653   6.165   2.403   2.008
 7918SOL    HW224654   6.258   2.511   1.929
 7919SOL     OW24655   5.818   4.857   1.771
 7919SOL    HW124656   5.912   4.862   1.738
 7919SOL    HW224657   5.783   4.764   1.759
 7920SOL     OW24658   0.326   6.286   2.087
 7920SOL    HW124659   0.360   6.202   2.128
 7920SOL    HW224660   0.242   6.314   2.133
 7921SOL     OW24661   3.599   6.593   2.170
 7921SOL    HW124662   3.616   6.688   2.195
 7921SOL    HW224663   3.679   6.538   2.190
 7922SOL     OW24664   0.749   5.110   6.475
 7922SOL    HW124665   0.679   5.044   6.505
 7922SOL    HW224666   0.830   5.060   6.445
 7923SOL     OW24667   0.989   1.514   3.202
 7923SOL    HW124668   1.074   1.565   3.196
 7923SOL    HW224669   0.912   1.572   3.176
 7924SOL     OW24670   2.544   1.191   3.739
 7924SOL    HW124671   2.591   1.223   3.657
 7924SOL    HW224672   2.606   1.193   3.817
 7925SOL     OW24673   0.296   1.050   6.810
 7925SOL    HW124674   0.375   1.007   6.766
 7925SOL    HW224675   0.326   1.131   6.860
 7926SOL     OW24676   3.314   0.152   1.811
 7926SOL    HW124677   3.260   0.071   1.787
 7926SOL    HW224678   3.257   0.216   1.862
 7927SOL     OW24679   4.784   4.562   3.962
 7927SOL    HW124680   4.834   4.502   3.900
 7927SOL    HW224681   4.689   4.531   3.969
 7928SOL     OW24682   1.442   4.451   0.152
 7928SOL    HW124683   1.344   4.436   0.165
 7928SOL    HW224684   1.473   4.400   0.072
 7929SOL     OW24685   4.001   3.625   4.761
 7929SOL    HW124686   3.942   3.677   4.698
 7929SOL    HW224687   4.094   3.622   4.725
 7930SOL     OW24688   5.131   5.809   4.253
 7930SOL    HW124689   5.083   5.839   4.171
 7930SOL    HW224690   5.176   5.887   4.296
 7931SOL     OW24691   1.992   3.551   0.560
 7931SOL    HW124692   1.896   3.569   0.581
 7931SOL    HW224693   2.028   3.484   0.625
 7932SOL     OW24694   3.127   6.912   1.062
 7932SOL    HW124695   3.032   6.938   1.043
 7932SOL    HW224696   3.184   6.934   0.983
 7933SOL     OW24697   1.261   0.998   6.337
 7933SOL    HW124698   1.246   1.053   6.419
 7933SOL    HW224699   1.280   1.058   6.259
 7934SOL     OW24700   4.108   3.015   5.536
 7934SOL    HW124701   4.197   3.027   5.580
 7934SOL    HW224702   4.110   2.933   5.480
 7935SOL     OW24703   4.497   5.976   1.433
 7935SOL    HW124704   4.549   5.925   1.365
 7935SOL    HW224705   4.526   5.948   1.525
 7936SOL     OW24706   4.724   5.183   3.115
 7936SOL    HW124707   4.671   5.225   3.042
 7936SOL    HW224708   4.803   5.135   3.076
 7937SOL     OW24709   6.455   6.770   5.946
 7937SOL    HW124710   6.528   6.756   6.012
 7937SOL    HW224711   6.451   6.867   5.922
 7938SOL     OW24712   5.544   4.536   4.390
 7938SOL    HW124713   5.556   4.630   4.424
 7938SOL    HW224714   5.449   4.523   4.360
 7939SOL     OW24715   0.685   6.885   4.585
 7939SOL    HW124716   0.610   6.934   4.540
 7939SOL    HW224717   0.726   6.821   4.521
 7940SOL     OW24718   1.832   5.793   0.805
 7940SOL    HW124719   1.910   5.768   0.862
 7940SOL    HW224720   1.761   5.724   0.813
 7941SOL     OW24721   0.592   0.324   0.255
 7941SOL    HW124722   0.649   0.251   0.291
 7941SOL    HW224723   0.598   0.404   0.316
 7942SOL     OW24724   1.385   1.552   1.001
 7942SOL    HW124725   1.393   1.453   1.000
 7942SOL    HW224726   1.292   1.578   0.973
 7943SOL     OW24727   5.704   2.072   0.485
 7943SOL    HW124728   5.648   1.994   0.459
 7943SOL    HW224729   5.782   2.079   0.423
 7944SOL     OW24730   0.286   3.929   2.044
 7944SOL    HW124731   0.369   3.873   2.032
 7944SOL    HW224732   0.230   3.891   2.117
 7945SOL     OW24733   5.358   6.807   1.388
 7945SOL    HW124734   5.259   6.797   1.375
 7945SOL    HW224735   5.405   6.775   1.306
 7946SOL     OW24736   1.614   2.162   5.892
 7946SOL    HW124737   1.693   2.209   5.853
 7946SOL    HW224738   1.532   2.218   5.879
 7947SOL     OW24739   4.438   4.845   6.340
 7947SOL    HW124740   4.353   4.805   6.374
 7947SOL    HW224741   4.492   4.881   6.417
 7948SOL     OW24742   1.275   4.818   0.038
 7948SOL    HW124743   1.327   4.748   0.088
 7948SOL    HW224744   1.266   4.900   0.094
 7949SOL     OW24745   6.375   4.256   4.129
 7949SOL    HW124746   6.295   4.309   4.100
 7949SOL    HW224747   6.438   4.316   4.177
 7950SOL     OW24748   3.408   4.958   4.404
 7950SOL    HW124749   3.435   5.054   4.406
 7950SOL    HW224750   3.333   4.943   4.468
 7951SOL     OW24751   2.955   3.455   0.811
 7951SOL    HW124752   2.903   3.370   0.826
 7951SOL    HW224753   3.049   3.442   0.840
 7952SOL     OW24754   4.724   4.632   0.268
 7952SOL    HW124755   4.802   4.609   0.325
 7952SOL    HW224756   4.749   4.706   0.205
 7953SOL     OW24757   2.314   2.840   3.317
 7953SOL    HW124758   2.267   2.835   3.405
 7953SOL    HW224759   2.258   2.892   3.252
 7954SOL     OW24760   5.065   5.431   5.090
 7954SOL    HW124761   5.113   5.438   5.177
 7954SOL    HW224762   5.106   5.359   5.034
 7955SOL     OW24763   1.263   0.093   6.341
 7955SOL    HW124764   1.165   0.079   6.326
 7955SOL    HW224765   1.276   0.170   6.404
 7956SOL     OW24766   6.285   0.067   3.994
 7956SOL    HW124767   6.319   0.105   4.080
 7956SOL    HW224768   6.276   6.986   4.003
 7957SOL     OW24769   1.192   2.350   1.323
 7957SOL    HW124770   1.181   2.384   1.416
 7957SOL    HW224771   1.244   2.265   1.325
 7958SOL     OW24772   1.933   5.394   2.872
 7958SOL    HW124773   1.891   5.305   2.892
 7958SOL    HW224774   2.005   5.412   2.938
 7959SOL     OW24775   4.774   5.328   0.609
 7959SOL    HW124776   4.717   5.396   0.563
 7959SOL    HW224777   4.857   5.313   0.555
 7960SOL     OW24778   2.235   2.749   0.581
 7960SOL    HW124779   2.142   2.713   0.578
 7960SOL    HW224780   2.266   2.752   0.676
 7961SOL     OW24781   1.870   5.554   0.038
 7961SOL    HW124782   1.836   5.646   0.058
 7961SOL    HW224783   1.960   5.561   7.014
 7962SOL     OW24784   1.307   0.270   1.977
 7962SOL    HW124785   1.366   0.232   2.048
 7962SOL    HW224786   1.287   0.366   1.998
 7963SOL     OW24787   1.426   6.896   4.322
 7963SOL    HW124788   1.419   6.995   4.323
 7963SOL    HW224789   1.443   6.862   4.414
 7964SOL     OW24790   6.331   5.747   3.315
 7964SOL    HW124791   6.241   5.784   3.338
 7964SOL    HW224792   6.401   5.817   3.327
 7965SOL     OW24793   5.916   1.947   0.803
 7965SOL    HW124794   5.865   1.884   0.861
 7965SOL    HW224795   5.913   2.039   0.843
 7966SOL     OW24796   6.619   6.031   3.650
 7966SOL    HW124797   6.698   6.016   3.710
 7966SOL    HW224798   6.557   5.953   3.657
 7967SOL     OW24799   2.994   6.432   3.123
 7967SOL    HW124800   2.941   6.382   3.055
 7967SOL    HW224801   2.981   6.389   3.213
 7968SOL     OW24802   1.932   1.012   1.500
 7968SOL    HW124803   1.975   1.033   1.412
 7968SOL    HW224804   1.942   0.914   1.520
 7969SOL     OW24805   3.329   2.132   3.347
 7969SOL    HW124806   3.376   2.126   3.259
 7969SOL    HW224807   3.230   2.139   3.332
 7970SOL     OW24808   0.703   5.008   3.252
 7970SOL    HW124809   0.712   5.009   3.351
 7970SOL    HW224810   0.651   4.928   3.224
 7971SOL     OW24811   2.314   1.574   2.116
 7971SOL    HW124812   2.299   1.634   2.195
 7971SOL    HW224813   2.404   1.531   2.124
 7972SOL     OW24814   1.149   4.942   1.784
 7972SOL    HW124815   1.075   4.975   1.725
 7972SOL    HW224816   1.227   5.005   1.778
 7973SOL     OW24817   4.521   2.044   2.379
 7973SOL    HW124818   4.487   2.080   2.465
 7973SOL    HW224819   4.610   2.002   2.393
 7974SOL     OW24820   5.613   6.641   4.111
 7974SOL    HW124821   5.562   6.620   4.195
 7974SOL    HW224822   5.685   6.707   4.131
 7975SOL     OW24823   2.633   0.794   3.044
 7975SOL    HW124824   2.709   0.776   2.981
 7975SOL    HW224825   2.633   0.891   3.068
 7976SOL     OW24826   0.357   6.615   6.179
 7976SOL    HW124827   0.331   6.668   6.098
 7976SOL    HW224828   0.277   6.564   6.212
 7977SOL     OW24829   5.011   6.606   1.795
 7977SOL    HW124830   5.093   6.657   1.822
 7977SOL    HW224831   5.018   6.512   1.828
 7978SOL     OW24832   3.893   2.522   6.422
 7978SOL    HW124833   3.928   2.433   6.390
 7978SOL    HW224834   3.909   2.531   6.520
 7979SOL     OW24835   4.459   6.828   4.353
 7979SOL    HW124836   4.473   6.731   4.332
 7979SOL    HW224837   4.538   6.863   4.403
 7980SOL     OW24838   2.676   0.375   2.330
 7980SOL    HW124839   2.606   0.391   2.400
 7980SOL    HW224840   2.635   0.388   2.239
 7981SOL     OW24841   1.246   6.208   2.964
 7981SOL    HW124842   1.242   6.290   3.021
 7981SOL    HW224843   1.277   6.130   3.018
 7982SOL     OW24844   0.177   2.700   0.631
 7982SOL    HW124845   0.229   2.785   0.622
 7982SOL    HW224846   0.106   2.697   0.560
 7983SOL     OW24847   4.650   2.532   1.956
 7983SOL    HW124848   4.702   2.453   1.988
 7983SOL    HW224849   4.553   2.510   1.951
 7984SOL     OW24850   0.276   0.622   0.300
 7984SOL    HW124851   0.234   0.654   0.215
 7984SOL    HW224852   0.346   0.687   0.329
 7985SOL     OW24853   0.741   1.197   0.908
 7985SOL    HW124854   0.819   1.155   0.953
 7985SOL    HW224855   0.696   1.130   0.849
 7986SOL     OW24856   4.179   2.570   0.359
 7986SOL    HW124857   4.132   2.576   0.446
 7986SOL    HW224858   4.129   2.508   0.298
 7987SOL     OW24859   0.326   2.463   4.851
 7987SOL    HW124860   0.308   2.470   4.752
 7987SOL    HW224861   0.367   2.549   4.883
 7988SOL     OW24862   2.500   1.606   5.637
 7988SOL    HW124863   2.564   1.568   5.570
 7988SOL    HW224864   2.533   1.695   5.668
 7989SOL     OW24865   3.470   3.340   5.325
 7989SOL    HW124866   3.519   3.422   5.298
 7989SOL    HW224867   3.450   3.285   5.244
 7990SOL     OW24868   2.371   2.508   4.747
 7990SOL    HW124869   2.422   2.451   4.812
 7990SOL    HW224870   2.315   2.574   4.798
 7991SOL     OW24871   0.185   3.675   4.864
 7991SOL    HW124872   0.247   3.608   4.907
 7991SOL    HW224873   0.171   3.649   4.768
 7992SOL     OW24874   2.187   0.684   0.509
 7992SOL    HW124875   2.136   0.651   0.429
 7992SOL    HW224876   2.200   0.609   0.573
 7993SOL     OW24877   2.094   6.616   6.108
 7993SOL    HW124878   2.097   6.714   6.128
 7993SOL    HW224879   2.148   6.567   6.176
 7994SOL     OW24880   6.063   0.492   4.102
 7994SOL    HW124881   5.994   0.424   4.126
 7994SOL    HW224882   6.055   0.570   4.163
 7995SOL     OW24883   4.182   5.003   3.213
 7995SOL    HW124884   4.154   5.094   3.243
 7995SOL    HW224885   4.202   4.946   3.293
 7996SOL     OW24886   3.883   1.066   5.011
 7996SOL    HW124887   3.832   1.152   5.020
 7996SOL    HW224888   3.980   1.083   5.029
 7997SOL     OW24889   5.501   2.459   2.383
 7997SOL    HW124890   5.534   2.545   2.346
 7997SOL    HW224891   5.508   2.461   2.483
 7998SOL     OW24892   6.036   5.175   6.539
 7998SOL    HW124893   5.975   5.237   6.589
 7998SOL    HW224894   6.095   5.127   6.603
 7999SOL     OW24895   1.486   0.715   5.509
 7999SOL    HW124896   1.534   0.663   5.580
 7999SOL    HW224897   1.474   0.658   5.428
 8000SOL     OW24898   5.844   0.073   5.716
 8000SOL    HW124899   5.825   0.103   5.623
 8000SOL    HW224900   5.821   0.146   5.780
 8001SOL     OW24901   2.141   6.559   1.264
 8001SOL    HW124902   2.221   6.580   1.321
 8001SOL    HW224903   2.172   6.523   1.176
 8002SOL     OW24904   5.399   3.138   5.600
 8002SOL    HW124905   5.304   3.169   5.594
 8002SOL    HW224906   5.451   3.201   5.658
 8003SOL     OW24907   3.667   5.286   3.185
 8003SOL    HW124908   3.682   5.382   3.160
 8003SOL    HW224909   3.569   5.271   3.197
 8004SOL     OW24910   1.364   4.155   2.309
 8004SOL    HW124911   1.330   4.182   2.219
 8004SOL    HW224912   1.306   4.081   2.345
 8005SOL     OW24913   2.679   1.055   1.807
 8005SOL    HW124914   2.748   1.127   1.805
 8005SOL    HW224915   2.712   0.979   1.864
 8006SOL     OW24916   3.352   6.463   0.993
 8006SOL    HW124917   3.292   6.516   1.053
 8006SOL    HW224918   3.317   6.469   0.899
 8007SOL     OW24919   0.781   0.952   4.278
 8007SOL    HW124920   0.768   0.900   4.362
 8007SOL    HW224921   0.752   0.897   4.199
 8008SOL     OW24922   5.981   5.862   0.563
 8008SOL    HW124923   6.005   5.777   0.610
 8008SOL    HW224924   5.959   5.842   0.468
 8009SOL     OW24925   0.126   7.004   3.889
 8009SOL    HW124926   0.079   6.917   3.875
 8009SOL    HW224927   0.132   0.035   3.802
 8010SOL     OW24928   2.179   2.864   6.818
 8010SOL    HW124929   2.248   2.826   6.755
 8010SOL    HW224930   2.188   2.964   6.820
 8011SOL     OW24931   2.159   2.347   0.804
 8011SOL    HW124932   2.162   2.375   0.900
 8011SOL    HW224933   2.219   2.268   0.790
 8012SOL     OW24934   3.020   6.732   3.121
 8012SOL    HW124935   3.026   6.632   3.118
 8012SOL    HW224936   2.947   6.762   3.060
 8013SOL     OW24937   6.310   5.255   5.181
 8013SOL    HW124938   6.280   5.272   5.275
 8013SOL    HW224939   6.404   5.287   5.169
 8014SOL     OW24940   1.914   0.240   6.745
 8014SOL    HW124941   1.927   0.170   6.815
 8014SOL    HW224942   1.871   0.199   6.664
 8015SOL     OW24943   1.498   2.087   6.504
 8015SOL    HW124944   1.595   2.108   6.503
 8015SOL    HW224945   1.446   2.170   6.527
 8016SOL     OW24946   3.571   6.617   1.112
 8016SOL    HW124947   3.486   6.567   1.095
 8016SOL    HW224948   3.557   6.681   1.188
 8017SOL     OW24949   5.859   4.248   4.628
 8017SOL    HW124950   5.768   4.290   4.628
 8017SOL    HW224951   5.855   4.159   4.672
 8018SOL     OW24952   5.208   2.546   4.602
 8018SOL    HW124953   5.229   2.605   4.680
 8018SOL    HW224954   5.262   2.574   4.523
 8019SOL     OW24955   2.446   4.862   1.619
 8019SOL    HW124956   2.534   4.907   1.604
 8019SOL    HW224957   2.424   4.863   1.716
 8020SOL     OW24958   6.119   6.536   6.254
 8020SOL    HW124959   6.040   6.547   6.194
 8020SOL    HW224960   6.106   6.591   6.336
 8021SOL     OW24961   0.734   0.880   1.184
 8021SOL    HW124962   0.665   0.952   1.196
 8021SOL    HW224963   0.786   0.897   1.101
 8022SOL     OW24964   4.246   5.683   3.468
 8022SOL    HW124965   4.323   5.746   3.460
 8022SOL    HW224966   4.231   5.660   3.564
 8023SOL     OW24967   5.964   6.264   3.817
 8023SOL    HW124968   6.011   6.347   3.788
 8023SOL    HW224969   5.908   6.229   3.741
 8024SOL     OW24970   4.968   4.968   4.386
 8024SOL    HW124971   4.892   4.974   4.451
 8024SOL    HW224972   4.949   5.028   4.308
 8025SOL     OW24973   3.232   5.584   0.384
 8025SOL    HW124974   3.250   5.682   0.381
 8025SOL    HW224975   3.261   5.547   0.473
 8026SOL     OW24976   1.972   2.738   1.042
 8026SOL    HW124977   1.904   2.794   0.994
 8026SOL    HW224978   2.000   2.785   1.126
 8027SOL     OW24979   5.187   3.483   5.846
 8027SOL    HW124980   5.096   3.516   5.870
 8027SOL    HW224981   5.189   3.457   5.749
 8028SOL     OW24982   5.425   4.875   0.353
 8028SOL    HW124983   5.485   4.862   0.274
 8028SOL    HW224984   5.330   4.866   0.324
 8029SOL     OW24985   3.139   4.787   0.426
 8029SOL    HW124986   3.080   4.728   0.482
 8029SOL    HW224987   3.084   4.862   0.389
 8030SOL     OW24988   5.927   4.097   6.925
 8030SOL    HW124989   5.917   3.998   6.922
 8030SOL    HW224990   5.914   4.134   6.833
 8031SOL     OW24991   3.910   6.097   1.675
 8031SOL    HW124992   3.932   6.118   1.580
 8031SOL    HW224993   3.825   6.143   1.701
 8032SOL     OW24994   5.487   5.056   6.313
 8032SOL    HW124995   5.504   5.003   6.396
 8032SOL    HW224996   5.486   5.154   6.335
 8033SOL     OW24997   6.264   2.621   0.351
 8033SOL    HW124998   6.274   2.625   0.450
 8033SOL    HW224999   6.219   2.705   0.319
 8034SOL     OW25000   5.926   1.161   5.151
 8034SOL    HW125001   6.023   1.141   5.155
 8034SOL    HW225002   5.913   1.261   5.149
 8035SOL     OW25003   5.379   6.141   0.079
 8035SOL    HW125004   5.474   6.171   0.096
 8035SOL    HW225005   5.335   6.122   0.167
 8036SOL     OW25006   2.104   4.214   1.358
 8036SOL    HW125007   2.166   4.207   1.280
 8036SOL    HW225008   2.156   4.226   1.442
 8037SOL     OW25009   1.969   3.635   1.059
 8037SOL    HW125010   2.067   3.621   1.073
 8037SOL    HW225011   1.954   3.679   0.971
 8038SOL     OW25012   0.123   1.696   3.947
 8038SOL    HW125013   0.071   1.723   3.865
 8038SOL    HW225014   0.139   1.598   3.946
 8039SOL     OW25015   2.749   6.485   4.627
 8039SOL    HW125016   2.673   6.471   4.564
 8039SOL    HW225017   2.717   6.533   4.708
 8040SOL     OW25018   6.627   5.574   0.914
 8040SOL    HW125019   6.606   5.519   0.833
 8040SOL    HW225020   6.568   5.546   0.990
 8041SOL     OW25021   4.027   1.982   0.449
 8041SOL    HW125022   4.023   1.897   0.395
 8041SOL    HW225023   4.044   1.959   0.545
 8042SOL     OW25024   2.518   3.566   1.115
 8042SOL    HW125025   2.569   3.648   1.089
 8042SOL    HW225026   2.467   3.532   1.036
 8043SOL     OW25027   2.293   6.909   1.541
 8043SOL    HW125028   2.232   6.956   1.477
 8043SOL    HW225029   2.244   6.891   1.627
 8044SOL     OW25030   3.187   4.008   1.765
 8044SOL    HW125031   3.182   3.908   1.762
 8044SOL    HW225032   3.117   4.044   1.827
 8045SOL     OW25033   6.236   2.922   3.419
 8045SOL    HW125034   6.189   2.885   3.338
 8045SOL    HW225035   6.212   2.868   3.499
 8046SOL     OW25036   0.203   5.358   5.996
 8046SOL    HW125037   0.166   5.295   5.927
 8046SOL    HW225038   0.167   5.333   6.086
 8047SOL     OW25039   3.050   5.934   3.838
 8047SOL    HW125040   2.979   5.913   3.771
 8047SOL    HW225041   3.028   6.019   3.886
 8048SOL     OW25042   6.371   0.625   5.681
 8048SOL    HW125043   6.362   0.584   5.590
 8048SOL    HW225044   6.366   0.553   5.751
 8049SOL     OW25045   1.530   5.572   0.332
 8049SOL    HW125046   1.550   5.663   0.297
 8049SOL    HW225047   1.603   5.543   0.393
 8050SOL     OW25048   1.394   2.666   1.334
 8050SOL    HW125049   1.346   2.707   1.412
 8050SOL    HW225050   1.382   2.724   1.253
 8051SOL     OW25051   3.512   1.572   3.346
 8051SOL    HW125052   3.500   1.474   3.330
 8051SOL    HW225053   3.574   1.586   3.423
 8052SOL     OW25054   3.208   2.174   2.959
 8052SOL    HW125055   3.125   2.180   3.014
 8052SOL    HW225056   3.185   2.188   2.862
 8053SOL     OW25057   3.813   3.281   2.064
 8053SOL    HW125058   3.815   3.373   2.025
 8053SOL    HW225059   3.876   3.276   2.142
 8054SOL     OW25060   4.115   5.709   4.437
 8054SOL    HW125061   4.117   5.646   4.515
 8054SOL    HW225062   4.028   5.757   4.435
 8055SOL     OW25063   1.322   0.051   5.146
 8055SOL    HW125064   1.401   7.010   5.131
 8055SOL    HW225065   1.321   0.123   5.077
 8056SOL     OW25066   3.923   1.765   3.107
 8056SOL    HW125067   3.848   1.698   3.110
 8056SOL    HW225068   3.944   1.787   3.012
 8057SOL     OW25069   4.165   6.566   3.482
 8057SOL    HW125070   4.230   6.631   3.441
 8057SOL    HW225071   4.201   6.473   3.472
 8058SOL     OW25072   1.780   0.133   3.032
 8058SOL    HW125073   1.877   0.152   3.019
 8058SOL    HW225074   1.751   0.166   3.122
 8059SOL     OW25075   2.401   1.705   3.961
 8059SOL    HW125076   2.371   1.616   3.994
 8059SOL    HW225077   2.464   1.746   4.026
 8060SOL     OW25078   0.406   1.524   5.070
 8060SOL    HW125079   0.344   1.599   5.052
 8060SOL    HW225080   0.500   1.554   5.057
 8061SOL     OW25081   0.185   5.429   1.413
 8061SOL    HW125082   0.177   5.392   1.505
 8061SOL    HW225083   0.178   5.529   1.416
 8062SOL     OW25084   2.055   3.773   2.410
 8062SOL    HW125085   2.029   3.785   2.505
 8062SOL    HW225086   2.110   3.690   2.401
 8063SOL     OW25087   3.142   2.945   0.050
 8063SOL    HW125088   3.106   2.942   0.143
 8063SOL    HW225089   3.199   2.865   0.033
 8064SOL     OW25090   6.447   3.239   6.969
 8064SOL    HW125091   6.430   3.194   6.882
 8064SOL    HW225092   6.409   3.184   0.025
 8065SOL     OW25093   4.252   0.049   6.249
 8065SOL    HW125094   4.267   0.147   6.239
 8065SOL    HW225095   4.248   0.006   6.159
 8066SOL     OW25096   2.320   0.195   1.263
 8066SOL    HW125097   2.411   0.167   1.234
 8066SOL    HW225098   2.284   0.262   1.198
 8067SOL     OW25099   5.237   2.049   1.877
 8067SOL    HW125100   5.322   2.037   1.826
 8067SOL    HW225101   5.186   2.127   1.841
 8068SOL     OW25102   0.532   4.404   4.099
 8068SOL    HW125103   0.570   4.377   4.188
 8068SOL    HW225104   0.556   4.337   4.030
 8069SOL     OW25105   1.751   6.261   2.200
 8069SOL    HW125106   1.723   6.341   2.253
 8069SOL    HW225107   1.798   6.291   2.117
 8070SOL     OW25108   4.104   0.204   2.066
 8070SOL    HW125109   4.031   0.215   2.134
 8070SOL    HW225110   4.177   0.270   2.084
 8071SOL     OW25111   3.503   6.399   0.146
 8071SOL    HW125112   3.458   6.467   0.088
 8071SOL    HW225113   3.480   6.307   0.115
 8072SOL     OW25114   5.385   0.703   2.213
 8072SOL    HW125115   5.334   0.755   2.283
 8072SOL    HW225116   5.321   0.661   2.150
 8073SOL     OW25117   3.981   6.522   5.618
 8073SOL    HW125118   4.000   6.618   5.598
 8073SOL    HW225119   3.912   6.488   5.554
 8074SOL     OW25120   3.204   3.826   6.922
 8074SOL    HW125121   3.168   3.838   7.015
 8074SOL    HW225122   3.199   3.729   6.897
 8075SOL     OW25123   6.068   1.246   2.316
 8075SOL    HW125124   6.149   1.205   2.358
 8075SOL    HW225125   6.091   1.275   2.223
 8076SOL     OW25126   5.321   3.092   6.390
 8076SOL    HW125127   5.404   3.098   6.445
 8076SOL    HW225128   5.242   3.084   6.451
 8077SOL     OW25129   1.293   1.193   0.541
 8077SOL    HW125130   1.346   1.276   0.523
 8077SOL    HW225131   1.202   1.218   0.572
 8078SOL     OW25132   5.971   3.411   0.437
 8078SOL    HW125133   6.069   3.426   0.424
 8078SOL    HW225134   5.921   3.446   0.358
 8079SOL     OW25135   0.263   1.814   1.964
 8079SOL    HW125136   0.351   1.773   1.938
 8079SOL    HW225137   0.190   1.747   1.951
 8080SOL     OW25138   3.583   5.232   0.169
 8080SOL    HW125139   3.547   5.220   0.261
 8080SOL    HW225140   3.541   5.312   0.126
 8081SOL     OW25141   6.081   0.477   5.584
 8081SOL    HW125142   6.159   0.462   5.644
 8081SOL    HW225143   6.000   0.499   5.640
 8082SOL     OW25144   6.154   3.116   4.144
 8082SOL    HW125145   6.080   3.064   4.188
 8082SOL    HW225146   6.217   3.150   4.213
 8083SOL     OW25147   5.383   2.563   4.379
 8083SOL    HW125148   5.345   2.470   4.382
 8083SOL    HW225149   5.483   2.558   4.379
 8084SOL     OW25150   0.175   0.075   1.435
 8084SOL    HW125151   0.169   0.145   1.364
 8084SOL    HW225152   0.261   0.025   1.426
 8085SOL     OW25153   6.381   2.211   1.107
 8085SOL    HW125154   6.338   2.243   1.192
 8085SOL    HW225155   6.320   2.145   1.063
 8086SOL     OW25156   3.200   6.625   5.611
 8086SOL    HW125157   3.272   6.584   5.666
 8086SOL    HW225158   3.163   6.705   5.657
 8087SOL     OW25159   2.535   3.040   1.445
 8087SOL    HW125160   2.501   3.083   1.528
 8087SOL    HW225161   2.495   3.085   1.365
 8088SOL     OW25162   4.509   0.444   2.672
 8088SOL    HW125163   4.583   0.426   2.737
 8088SOL    HW225164   4.458   0.360   2.656
 8089SOL     OW25165   5.832   2.896   0.742
 8089SOL    HW125166   5.841   2.825   0.672
 8089SOL    HW225167   5.888   2.871   0.821
 8090SOL     OW25168   4.603   2.314   4.967
 8090SOL    HW125169   4.659   2.397   4.971
 8090SOL    HW225170   4.522   2.326   5.025
 8091SOL     OW25171   3.235   5.464   5.888
 8091SOL    HW125172   3.295   5.385   5.899
 8091SOL    HW225173   3.283   5.537   5.841
 8092SOL     OW25174   0.330   1.791   4.089
 8092SOL    HW125175   0.342   1.730   4.167
 8092SOL    HW225176   0.252   1.760   4.034
 8093SOL     OW25177   5.450   5.978   1.017
 8093SOL    HW125178   5.425   5.999   1.111
 8093SOL    HW225179   5.374   6.001   0.956
 8094SOL     OW25180   1.203   3.805   4.430
 8094SOL    HW125181   1.248   3.833   4.515
 8094SOL    HW225182   1.273   3.784   4.362
 8095SOL     OW25183   5.893   3.625   4.592
 8095SOL    HW125184   5.830   3.647   4.666
 8095SOL    HW225185   5.983   3.664   4.612
 8096SOL     OW25186   3.787   0.249   1.101
 8096SOL    HW125187   3.730   0.189   1.045
 8096SOL    HW225188   3.731   0.322   1.140
 8097SOL     OW25189   4.544   0.935   4.769
 8097SOL    HW125190   4.449   0.939   4.800
 8097SOL    HW225191   4.589   1.021   4.790
 8098SOL     OW25192   2.890   0.463   4.184
 8098SOL    HW125193   2.883   0.515   4.269
 8098SOL    HW225194   2.963   0.396   4.193
 8099SOL     OW25195   5.419   6.470   4.890
 8099SOL    HW125196   5.364   6.469   4.973
 8099SOL    HW225197   5.363   6.441   4.812
 8100SOL     OW25198   0.846   6.246   1.108
 8100SOL    HW125199   0.822   6.151   1.089
 8100SOL    HW225200   0.942   6.252   1.135
 8101SOL     OW25201   0.886   5.570   2.682
 8101SOL    HW125202   0.810   5.505   2.681
 8101SOL    HW225203   0.972   5.520   2.688
 8102SOL     OW25204   0.283   0.126   6.549
 8102SOL    HW125205   0.377   0.106   6.577
 8102SOL    HW225206   0.226   0.139   6.630
 8103SOL     OW25207   2.665   1.671   2.496
 8103SOL    HW125208   2.728   1.681   2.419
 8103SOL    HW225209   2.716   1.676   2.582
 8104SOL     OW25210   2.707   6.264   6.000
 8104SOL    HW125211   2.757   6.183   5.969
 8104SOL    HW225212   2.736   6.287   6.093
 8105SOL     OW25213   1.688   2.629   2.605
 8105SOL    HW125214   1.594   2.659   2.623
 8105SOL    HW225215   1.749   2.708   2.614
 8106SOL     OW25216   0.338   4.110   4.638
 8106SOL    HW125217   0.354   4.127   4.735
 8106SOL    HW225218   0.339   4.011   4.621
 8107SOL     OW25219   1.675   5.969   6.259
 8107SOL    HW125220   1.604   6.032   6.288
 8107SOL    HW225221   1.684   5.971   6.159
 8108SOL     OW25222   2.175   3.432   4.703
 8108SOL    HW125223   2.138   3.524   4.719
 8108SOL    HW225224   2.273   3.438   4.687
 8109SOL     OW25225   0.769   5.608   5.453
 8109SOL    HW125226   0.805   5.627   5.362
 8109SOL    HW225227   0.840   5.568   5.510
 8110SOL     OW25228   1.633   4.383   0.696
 8110SOL    HW125229   1.598   4.335   0.615
 8110SOL    HW225230   1.691   4.322   0.749
 8111SOL     OW25231   2.612   6.007   4.347
 8111SOL    HW125232   2.575   5.953   4.271
 8111SOL    HW225233   2.703   5.972   4.371
 8112SOL     OW25234   4.127   0.946   4.573
 8112SOL    HW125235   4.155   0.929   4.667
 8112SOL    HW225236   4.030   0.921   4.562
 8113SOL     OW25237   3.844   2.969   5.958
 8113SOL    HW125238   3.862   2.940   6.051
 8113SOL    HW225239   3.812   3.064   5.958
 8114SOL     OW25240   3.118   4.206   1.481
 8114SOL    HW125241   3.078   4.296   1.461
 8114SOL    HW225242   3.209   4.217   1.519
 8115SOL     OW25243   3.960   2.175   0.863
 8115SOL    HW125244   3.943   2.113   0.940
 8115SOL    HW225245   4.012   2.254   0.895
 8116SOL     OW25246   5.052   0.865   5.827
 8116SOL    HW125247   4.996   0.943   5.801
 8116SOL    HW225248   5.149   0.886   5.810
 8117SOL     OW25249   2.635   1.890   5.733
 8117SOL    HW125250   2.609   1.985   5.719
 8117SOL    HW225251   2.646   1.872   5.831
 8118SOL     OW25252   1.282   2.701   4.291
 8118SOL    HW125253   1.196   2.746   4.312
 8118SOL    HW225254   1.356   2.747   4.340
 8119SOL     OW25255   1.392   5.723   2.005
 8119SOL    HW125256   1.362   5.762   2.092
 8119SOL    HW225257   1.462   5.783   1.965
 8120SOL     OW25258   4.665   4.142   1.587
 8120SOL    HW125259   4.587   4.123   1.647
 8120SOL    HW225260   4.691   4.058   1.539
 8121SOL     OW25261   6.685   7.003   3.312
 8121SOL    HW125262   6.612   6.964   3.368
 8121SOL    HW225263   6.747   0.038   3.371
 8122SOL     OW25264   0.671   5.977   1.605
 8122SOL    HW125265   0.593   5.941   1.554
 8122SOL    HW225266   0.728   6.033   1.544
 8123SOL     OW25267   0.438   5.816   0.392
 8123SOL    HW125268   0.409   5.911   0.393
 8123SOL    HW225269   0.370   5.759   0.438
 8124SOL     OW25270   0.485   5.952   2.668
 8124SOL    HW125271   0.534   5.888   2.727
 8124SOL    HW225272   0.536   5.963   2.582
 8125SOL     OW25273   5.857   5.328   3.012
 8125SOL    HW125274   5.882   5.401   3.076
 8125SOL    HW225275   5.840   5.367   2.922
 8126SOL     OW25276   5.923   5.031   2.299
 8126SOL    HW125277   5.911   5.118   2.250
 8126SOL    HW225278   6.002   5.039   2.360
 8127SOL     OW25279   3.600   4.545   0.946
 8127SOL    HW125280   3.580   4.528   0.850
 8127SOL    HW225281   3.531   4.499   1.002
 8128SOL     OW25282   3.851   2.475   5.354
 8128SOL    HW125283   3.790   2.415   5.303
 8128SOL    HW225284   3.930   2.499   5.297
 8129SOL     OW25285   4.898   6.618   0.045
 8129SOL    HW125286   4.953   6.623   6.980
 8129SOL    HW225287   4.938   6.549   0.107
 8130SOL     OW25288   1.151   0.019   0.744
 8130SOL    HW125289   1.201   6.957   0.713
 8130SOL    HW225290   1.181   0.045   0.836
 8131SOL     OW25291   1.409   1.718   0.066
 8131SOL    HW125292   1.410   1.811   0.104
 8131SOL    HW225293   1.390   1.652   0.139
 8132SOL     OW25294   6.055   4.349   3.064
 8132SOL    HW125295   5.978   4.302   3.107
 8132SOL    HW225296   6.096   4.289   2.994
 8133SOL     OW25297   0.986   5.750   1.877
 8133SOL    HW125298   0.900   5.798   1.891
 8133SOL    HW225299   0.969   5.652   1.866
 8134SOL     OW25300   2.026   2.518   2.064
 8134SOL    HW125301   2.090   2.502   1.989
 8134SOL    HW225302   2.055   2.465   2.144
 8135SOL     OW25303   3.763   5.979   2.608
 8135SOL    HW125304   3.705   6.057   2.586
 8135SOL    HW225305   3.752   5.908   2.539
 8136SOL     OW25306   3.222   6.056   1.542
 8136SOL    HW125307   3.287   6.123   1.578
 8136SOL    HW225308   3.145   6.104   1.500
 8137SOL     OW25309   2.935   3.895   4.766
 8137SOL    HW125310   2.849   3.920   4.722
 8137SOL    HW225311   2.983   3.828   4.709
 8138SOL     OW25312   5.451   0.533   3.932
 8138SOL    HW125313   5.362   0.579   3.929
 8138SOL    HW225314   5.523   0.600   3.946
 8139SOL     OW25315   1.703   2.971   4.675
 8139SOL    HW125316   1.798   2.938   4.669
 8139SOL    HW225317   1.697   3.042   4.745
 8140SOL     OW25318   4.781   1.013   1.056
 8140SOL    HW125319   4.748   1.104   1.084
 8140SOL    HW225320   4.747   0.992   0.965
 8141SOL     OW25321   5.868   0.765   5.305
 8141SOL    HW125322   5.787   0.806   5.347
 8141SOL    HW225323   5.867   0.666   5.319
 8142SOL     OW25324   2.378   5.145   1.463
 8142SOL    HW125325   2.461   5.167   1.515
 8142SOL    HW225326   2.400   5.141   1.366
 8143SOL     OW25327   5.826   5.011   0.744
 8143SOL    HW125328   5.741   5.020   0.797
 8143SOL    HW225329   5.811   4.949   0.667
 8144SOL     OW25330   0.417   5.176   0.325
 8144SOL    HW125331   0.516   5.174   0.309
 8144SOL    HW225332   0.372   5.109   0.267
 8145SOL     OW25333   5.583   5.947   0.087
 8145SOL    HW125334   5.604   5.849   0.080
 8145SOL    HW225335   5.578   5.987   7.014
 8146SOL     OW25336   6.082   0.038   4.557
 8146SOL    HW125337   6.088   0.138   4.559
 8146SOL    HW225338   6.173   7.017   4.569
 8147SOL     OW25339   1.520   0.517   6.217
 8147SOL    HW125340   1.536   0.444   6.284
 8147SOL    HW225341   1.605   0.565   6.199
 8148SOL     OW25342   4.624   3.990   0.539
 8148SOL    HW125343   4.651   4.059   0.472
 8148SOL    HW225344   4.631   4.029   0.631
 8149SOL     OW25345   0.645   0.280   5.339
 8149SOL    HW125346   0.569   0.261   5.277
 8149SOL    HW225347   0.652   0.378   5.353
 8150SOL     OW25348   0.535   4.125   0.446
 8150SOL    HW125349   0.503   4.213   0.480
 8150SOL    HW225350   0.493   4.051   0.498
 8151SOL     OW25351   6.605   6.021   3.034
 8151SOL    HW125352   6.519   6.072   3.025
 8151SOL    HW225353   6.653   6.022   2.947
 8152SOL     OW25354   5.126   1.230   3.031
 8152SOL    HW125355   5.063   1.221   3.107
 8152SOL    HW225356   5.079   1.209   2.945
 8153SOL     OW25357   0.107   1.573   1.932
 8153SOL    HW125358   0.136   1.565   1.836
 8153SOL    HW225359   0.163   1.512   1.989
 8154SOL     OW25360   2.123   1.172   2.563
 8154SOL    HW125361   2.055   1.132   2.501
 8154SOL    HW225362   2.202   1.112   2.570
 8155SOL     OW25363   1.557   5.340   3.457
 8155SOL    HW125364   1.632   5.377   3.403
 8155SOL    HW225365   1.501   5.415   3.494
 8156SOL     OW25366   0.746   4.719   0.644
 8156SOL    HW125367   0.652   4.750   0.634
 8156SOL    HW225368   0.750   4.621   0.625
 8157SOL     OW25369   6.730   4.444   4.807
 8157SOL    HW125370   6.743   4.403   4.717
 8157SOL    HW225371   6.759   4.540   4.803
 8158SOL     OW25372   6.007   5.657   6.631
 8158SOL    HW125373   6.059   5.678   6.548
 8158SOL    HW225374   6.066   5.608   6.696
 8159SOL     OW25375   2.618   6.917   4.807
 8159SOL    HW125376   2.622   6.866   4.721
 8159SOL    HW225377   2.664   7.005   4.797
 8160SOL     OW25378   5.892   1.698   2.004
 8160SOL    HW125379   5.955   1.776   2.000
 8160SOL    HW225380   5.882   1.668   2.099
 8161SOL     OW25381   5.669   3.025   1.716
 8161SOL    HW125382   5.765   3.032   1.743
 8161SOL    HW225383   5.652   2.936   1.674
 8162SOL     OW25384   0.371   5.638   5.063
 8162SOL    HW125385   0.288   5.685   5.092
 8162SOL    HW225386   0.386   5.558   5.122
 8163SOL     OW25387   4.272   4.626   5.559
 8163SOL    HW125388   4.188   4.679   5.570
 8163SOL    HW225389   4.314   4.610   5.649
 8164SOL     OW25390   5.505   1.573   0.531
 8164SOL    HW125391   5.513   1.672   0.538
 8164SOL    HW225392   5.456   1.538   0.611
 8165SOL     OW25393   0.284   1.680   6.975
 8165SOL    HW125394   0.362   1.663   0.017
 8165SOL    HW225395   0.256   1.776   6.984
 8166SOL     OW25396   1.269   1.664   5.639
 8166SOL    HW125397   1.278   1.705   5.729
 8166SOL    HW225398   1.335   1.706   5.576
 8167SOL     OW25399   1.873   3.505   3.822
 8167SOL    HW125400   1.775   3.493   3.804
 8167SOL    HW225401   1.888   3.504   3.921
 8168SOL     OW25402   1.654   0.347   2.096
 8168SOL    HW125403   1.731   0.380   2.150
 8168SOL    HW225404   1.572   0.342   2.152
 8169SOL     OW25405   4.946   2.918   0.658
 8169SOL    HW125406   5.015   2.869   0.712
 8169SOL    HW225407   4.861   2.923   0.709
 8170SOL     OW25408   0.051   4.933   2.345
 8170SOL    HW125409   7.003   5.003   2.319
 8170SOL    HW225410   0.004   4.858   2.391
 8171SOL     OW25411   2.415   1.455   0.589
 8171SOL    HW125412   2.408   1.511   0.671
 8171SOL    HW225413   2.431   1.514   0.510
 8172SOL     OW25414   1.400   2.510   0.466
 8172SOL    HW125415   1.385   2.587   0.528
 8172SOL    HW225416   1.329   2.509   0.396
 8173SOL     OW25417   6.019   1.061   1.672
 8173SOL    HW125418   5.925   1.030   1.655
 8173SOL    HW225419   6.073   0.985   1.708
 8174SOL     OW25420   2.853   5.873   3.382
 8174SOL    HW125421   2.828   5.929   3.303
 8174SOL    HW225422   2.798   5.789   3.381
 8175SOL     OW25423   0.115   1.652   5.776
 8175SOL    HW125424   0.072   1.629   5.689
 8175SOL    HW225425   0.055   1.626   5.852
 8176SOL     OW25426   2.470   4.472   0.352
 8176SOL    HW125427   2.490   4.494   0.447
 8176SOL    HW225428   2.540   4.411   0.316
 8177SOL     OW25429   3.328   1.035   3.775
 8177SOL    HW125430   3.420   1.044   3.815
 8177SOL    HW225431   3.299   1.124   3.740
 8178SOL     OW25432   2.769   6.590   1.135
 8178SOL    HW125433   2.708   6.649   1.081
 8178SOL    HW225434   2.852   6.572   1.082
 8179SOL     OW25435   5.618   0.600   3.280
 8179SOL    HW125436   5.709   0.634   3.305
 8179SOL    HW225437   5.590   0.531   3.346
 8180SOL     OW25438   4.869   6.516   0.465
 8180SOL    HW125439   4.849   6.507   0.368
 8180SOL    HW225440   4.920   6.435   0.496
 8181SOL     OW25441   6.996   0.390   0.029
 8181SOL    HW125442   0.073   0.371   0.049
 8181SOL    HW225443   6.986   0.484   7.014
 8182SOL     OW25444   3.109   3.270   4.221
 8182SOL    HW125445   3.120   3.174   4.244
 8182SOL    HW225446   3.070   3.278   4.129
 8183SOL     OW25447   6.799   0.693   5.657
 8183SOL    HW125448   6.741   0.612   5.670
 8183SOL    HW225449   6.741   0.773   5.642
 8184SOL     OW25450   0.259   5.823   6.134
 8184SOL    HW125451   0.209   5.838   6.219
 8184SOL    HW225452   0.349   5.865   6.141
 8185SOL     OW25453   0.381   6.296   6.069
 8185SOL    HW125454   0.393   6.281   6.167
 8185SOL    HW225455   0.440   6.372   6.040
 8186SOL     OW25456   1.915   5.373   6.709
 8186SOL    HW125457   1.870   5.304   6.653
 8186SOL    HW225458   1.974   5.430   6.651
 8187SOL     OW25459   1.551   0.521   5.720
 8187SOL    HW125460   1.514   0.428   5.716
 8187SOL    HW225461   1.509   0.570   5.797
 8188SOL     OW25462   1.482   2.995   2.827
 8188SOL    HW125463   1.499   3.011   2.730
 8188SOL    HW225464   1.390   3.028   2.850
 8189SOL     OW25465   5.570   4.918   4.096
 8189SOL    HW125466   5.555   4.926   3.998
 8189SOL    HW225467   5.606   4.827   4.117
 8190SOL     OW25468   6.569   3.864   2.757
 8190SOL    HW125469   6.596   3.787   2.817
 8190SOL    HW225470   6.579   3.836   2.662
 8191SOL     OW25471   4.028   5.343   0.926
 8191SOL    HW125472   3.928   5.349   0.933
 8191SOL    HW225473   4.053   5.308   0.836
 8192SOL     OW25474   0.727   6.319   3.466
 8192SOL    HW125475   0.677   6.253   3.410
 8192SOL    HW225476   0.675   6.404   3.471
 8193SOL     OW25477   0.917   5.052   4.264
 8193SOL    HW125478   0.982   4.995   4.314
 8193SOL    HW225479   0.933   5.148   4.284
 8194SOL     OW25480   4.461   6.616   1.718
 8194SOL    HW125481   4.406   6.673   1.779
 8194SOL    HW225482   4.484   6.668   1.635
 8195SOL     OW25483   6.280   6.782   4.056
 8195SOL    HW125484   6.187   6.802   4.086
 8195SOL    HW225485   6.336   6.758   4.136
 8196SOL     OW25486   5.087   1.286   1.679
 8196SOL    HW125487   5.161   1.311   1.741
 8196SOL    HW225488   5.005   1.341   1.700
 8197SOL     OW25489   3.698   2.105   2.664
 8197SOL    HW125490   3.683   2.006   2.667
 8197SOL    HW225491   3.734   2.135   2.752
 8198SOL     OW25492   1.397   6.017   1.568
 8198SOL    HW125493   1.367   6.009   1.663
 8198SOL    HW225494   1.360   5.941   1.515
 8199SOL     OW25495   5.596   2.977   0.165
 8199SOL    HW125496   5.687   2.990   0.127
 8199SOL    HW225497   5.558   2.890   0.133
 8200SOL     OW25498   4.274   3.209   0.876
 8200SOL    HW125499   4.227   3.255   0.952
 8200SOL    HW225500   4.372   3.221   0.885
 8201SOL     OW25501   6.235   0.026   5.182
 8201SOL    HW125502   6.288   6.990   5.117
 8201SOL    HW225503   6.140   0.028   5.153
 8202SOL     OW25504   0.567   6.459   2.041
 8202SOL    HW125505   0.612   6.374   2.069
 8202SOL    HW225506   0.469   6.442   2.030
 8203SOL     OW25507   1.788   3.449   1.152
 8203SOL    HW125508   1.793   3.444   1.252
 8203SOL    HW225509   1.856   3.515   1.119
 8204SOL     OW25510   2.990   2.758   0.836
 8204SOL    HW125511   3.071   2.707   0.864
 8204SOL    HW225512   2.980   2.754   0.737
 8205SOL     OW25513   1.278   3.738   6.970
 8205SOL    HW125514   1.322   3.791   6.898
 8205SOL    HW225515   1.197   3.693   6.933
 8206SOL     OW25516   3.063   0.576   0.665
 8206SOL    HW125517   2.980   0.528   0.694
 8206SOL    HW225518   3.040   0.672   0.646
 8207SOL     OW25519   3.846   4.105   4.798
 8207SOL    HW125520   3.915   4.172   4.772
 8207SOL    HW225521   3.888   4.037   4.859
 8208SOL     OW25522   1.995   0.754   0.281
 8208SOL    HW125523   2.070   0.771   0.218
 8208SOL    HW225524   1.962   0.660   0.270
 8209SOL     OW25525   6.223   1.413   4.762
 8209SOL    HW125526   6.292   1.341   4.749
 8209SOL    HW225527   6.236   1.455   4.852
 8210SOL     OW25528   1.957   2.535   6.164
 8210SOL    HW125529   1.916   2.473   6.230
 8210SOL    HW225530   2.012   2.603   6.212
 8211SOL     OW25531   3.584   4.798   1.586
 8211SOL    HW125532   3.576   4.729   1.658
 8211SOL    HW225533   3.665   4.853   1.602
 8212SOL     OW25534   1.634   2.954   3.661
 8212SOL    HW125535   1.698   2.903   3.604
 8212SOL    HW225536   1.652   2.934   3.758
 8213SOL     OW25537   6.579   5.032   1.429
 8213SOL    HW125538   6.510   5.010   1.498
 8213SOL    HW225539   6.669   5.040   1.472
 8214SOL     OW25540   5.686   3.822   3.631
 8214SOL    HW125541   5.609   3.760   3.643
 8214SOL    HW225542   5.657   3.901   3.577
 8215SOL     OW25543   3.343   5.243   2.838
 8215SOL    HW125544   3.342   5.215   2.934
 8215SOL    HW225545   3.256   5.220   2.795
 8216SOL     OW25546   5.391   3.867   3.782
 8216SOL    HW125547   5.439   3.798   3.836
 8216SOL    HW225548   5.295   3.840   3.772
 8217SOL     OW25549   2.093   5.899   0.199
 8217SOL    HW125550   2.011   5.863   0.244
 8217SOL    HW225551   2.071   5.983   0.150
 8218SOL     OW25552   6.260   2.567   6.724
 8218SOL    HW125553   6.303   2.635   6.783
 8218SOL    HW225554   6.264   2.598   6.629
 8219SOL     OW25555   5.751   1.940   6.962
 8219SOL    HW125556   5.807   1.858   6.962
 8219SOL    HW225557   5.799   2.014   7.010
 8220SOL     OW25558   4.096   3.581   1.950
 8220SOL    HW125559   4.108   3.636   1.867
 8220SOL    HW225560   4.171   3.516   1.958
 8221SOL     OW25561   5.284   6.172   3.453
 8221SOL    HW125562   5.247   6.184   3.362
 8221SOL    HW225563   5.375   6.130   3.447
 8222SOL     OW25564   6.792   2.270   1.872
 8222SOL    HW125565   6.828   2.340   1.935
 8222SOL    HW225566   6.813   2.179   1.907
 8223SOL     OW25567   0.602   5.299   5.876
 8223SOL    HW125568   0.650   5.381   5.846
 8223SOL    HW225569   0.668   5.232   5.910
 8224SOL     OW25570   1.360   3.403   3.993
 8224SOL    HW125571   1.411   3.340   3.935
 8224SOL    HW225572   1.389   3.394   4.088
 8225SOL     OW25573   4.967   1.632   0.373
 8225SOL    HW125574   4.976   1.730   0.394
 8225SOL    HW225575   5.019   1.579   0.440
 8226SOL     OW25576   4.478   0.487   0.416
 8226SOL    HW125577   4.382   0.510   0.431
 8226SOL    HW225578   4.534   0.568   0.433
 8227SOL     OW25579   6.291   3.405   2.733
 8227SOL    HW125580   6.270   3.310   2.755
 8227SOL    HW225581   6.374   3.433   2.781
 8228SOL     OW25582   6.750   2.727   4.847
 8228SOL    HW125583   6.806   2.809   4.856
 8228SOL    HW225584   6.692   2.718   4.928
 8229SOL     OW25585   3.632   5.225   0.796
 8229SOL    HW125586   3.649   5.282   0.876
 8229SOL    HW225587   3.538   5.190   0.799
 8230SOL     OW25588   5.060   6.942   3.936
 8230SOL    HW125589   5.072   6.938   4.035
 8230SOL    HW225590   5.005   6.864   3.906
 8231SOL     OW25591   4.248   6.199   0.580
 8231SOL    HW125592   4.214   6.153   0.662
 8231SOL    HW225593   4.189   6.277   0.558
 8232SOL     OW25594   2.932   2.307   6.239
 8232SOL    HW125595   2.897   2.228   6.289
 8232SOL    HW225596   2.860   2.377   6.233
 8233SOL     OW25597   0.260   5.299   6.849
 8233SOL    HW125598   0.321   5.237   6.898
 8233SOL    HW225599   0.313   5.357   6.788
 8234SOL     OW25600   3.755   2.150   6.615
 8234SOL    HW125601   3.842   2.171   6.659
 8234SOL    HW225602   3.688   2.220   6.638
 8235SOL     OW25603   4.884   2.281   0.559
 8235SOL    HW125604   4.799   2.290   0.507
 8235SOL    HW225605   4.865   2.242   0.649
 8236SOL     OW25606   5.373   2.940   0.889
 8236SOL    HW125607   5.395   3.038   0.896
 8236SOL    HW225608   5.453   2.891   0.854
 8237SOL     OW25609   4.198   6.396   5.496
 8237SOL    HW125610   4.123   6.438   5.548
 8237SOL    HW225611   4.269   6.464   5.478
 8238SOL     OW25612   1.693   1.560   6.501
 8238SOL    HW125613   1.751   1.501   6.557
 8238SOL    HW225614   1.737   1.648   6.489
 8239SOL     OW25615   6.912   1.828   6.258
 8239SOL    HW125616   6.865   1.893   6.319
 8239SOL    HW225617   7.009   1.824   6.282
 8240SOL     OW25618   3.700   4.019   3.648
 8240SOL    HW125619   3.788   3.999   3.692
 8240SOL    HW225620   3.626   4.000   3.712
 8241SOL     OW25621   4.440   6.838   0.828
 8241SOL    HW125622   4.384   6.780   0.769
 8241SOL    HW225623   4.533   6.800   0.833
 8242SOL     OW25624   0.881   4.054   5.563
 8242SOL    HW125625   0.952   4.005   5.513
 8242SOL    HW225626   0.902   4.151   5.564
 8243SOL     OW25627   0.855   3.233   4.867
 8243SOL    HW125628   0.888   3.140   4.849
 8243SOL    HW225629   0.775   3.229   4.928
 8244SOL     OW25630   0.907   6.424   4.575
 8244SOL    HW125631   0.935   6.351   4.512
 8244SOL    HW225632   0.968   6.424   4.655
 8245SOL     OW25633   3.632   2.802   0.678
 8245SOL    HW125634   3.552   2.834   0.730
 8245SOL    HW225635   3.609   2.716   0.633
 8246SOL     OW25636   5.150   3.836   5.835
 8246SOL    HW125637   5.145   3.867   5.740
 8246SOL    HW225638   5.196   3.747   5.839
 8247SOL     OW25639   0.957   0.176   1.560
 8247SOL    HW125640   0.942   0.169   1.461
 8247SOL    HW225641   0.954   0.272   1.587
 8248SOL     OW25642   6.658   3.980   3.375
 8248SOL    HW125643   6.714   3.904   3.343
 8248SOL    HW225644   6.645   3.972   3.474
 8249SOL     OW25645   2.066   5.184   3.223
 8249SOL    HW125646   2.004   5.141   3.157
 8249SOL    HW225647   2.160   5.173   3.191
 8250SOL     OW25648   3.838   3.853   2.428
 8250SOL    HW125649   3.879   3.763   2.420
 8250SOL    HW225650   3.776   3.855   2.507
 8251SOL     OW25651   5.619   1.749   5.011
 8251SOL    HW125652   5.589   1.821   5.075
 8251SOL    HW225653   5.612   1.783   4.917
 8252SOL     OW25654   1.712   3.492   4.650
 8252SOL    HW125655   1.619   3.488   4.686
 8252SOL    HW225656   1.714   3.550   4.569
 8253SOL     OW25657   3.249   2.908   5.501
 8253SOL    HW125658   3.327   2.909   5.563
 8253SOL    HW225659   3.219   3.002   5.484
 8254SOL     OW25660   3.776   5.863   3.653
 8254SOL    HW125661   3.745   5.768   3.654
 8254SOL    HW225662   3.874   5.866   3.673
 8255SOL     OW25663   4.610   4.987   4.086
 8255SOL    HW125664   4.673   4.975   4.009
 8255SOL    HW225665   4.599   4.900   4.134
 8256SOL     OW25666   6.957   1.795   3.755
 8256SOL    HW125667   6.986   1.853   3.679
 8256SOL    HW225668   6.857   1.792   3.759
 8257SOL     OW25669   6.796   4.218   3.847
 8257SOL    HW125670   6.817   4.200   3.751
 8257SOL    HW225671   6.729   4.293   3.853
 8258SOL     OW25672   4.569   2.021   0.053
 8258SOL    HW125673   4.484   2.063   0.019
 8258SOL    HW225674   4.547   1.938   0.104
 8259SOL     OW25675   3.713   1.556   1.876
 8259SOL    HW125676   3.779   1.602   1.935
 8259SOL    HW225677   3.649   1.623   1.839
 8260SOL     OW25678   2.643   6.159   0.396
 8260SOL    HW125679   2.725   6.112   0.428
 8260SOL    HW225680   2.592   6.195   0.473
 8261SOL     OW25681   5.855   1.442   1.405
 8261SOL    HW125682   5.756   1.429   1.408
 8261SOL    HW225683   5.901   1.356   1.426
 8262SOL     OW25684   0.889   2.481   1.013
 8262SOL    HW125685   0.843   2.429   1.085
 8262SOL    HW225686   0.945   2.419   0.958
 8263SOL     OW25687   6.581   1.166   0.573
 8263SOL    HW125688   6.599   1.262   0.596
 8263SOL    HW225689   6.487   1.142   0.599
 8264SOL     OW25690   1.789   4.874   2.893
 8264SOL    HW125691   1.840   4.791   2.872
 8264SOL    HW225692   1.694   4.850   2.916
 8265SOL     OW25693   1.936   0.737   1.526
 8265SOL    HW125694   1.883   0.699   1.602
 8265SOL    HW225695   1.976   0.662   1.473
 8266SOL     OW25696   3.094   0.155   3.184
 8266SOL    HW125697   3.190   0.151   3.154
 8266SOL    HW225698   3.077   0.082   3.250
 8267SOL     OW25699   0.547   3.470   1.051
 8267SOL    HW125700   0.455   3.434   1.063
 8267SOL    HW225701   0.613   3.395   1.048
 8268SOL     OW25702   2.973   6.492   5.625
 8268SOL    HW125703   3.054   6.541   5.593
 8268SOL    HW225704   2.976   6.397   5.594
 8269SOL     OW25705   5.891   1.690   1.515
 8269SOL    HW125706   5.828   1.698   1.592
 8269SOL    HW225707   5.898   1.594   1.487
 8270SOL     OW25708   3.729   6.123   3.593
 8270SOL    HW125709   3.719   6.025   3.612
 8270SOL    HW225710   3.817   6.155   3.628
 8271SOL     OW25711   6.987   2.114   2.191
 8271SOL    HW125712   0.064   2.084   2.184
 8271SOL    HW225713   6.939   2.096   2.105
 8272SOL     OW25714   3.484   1.458   3.630
 8272SOL    HW125715   3.566   1.403   3.620
 8272SOL    HW225716   3.497   1.524   3.705
 8273SOL     OW25717   2.327   6.331   0.671
 8273SOL    HW125718   2.306   6.290   0.759
 8273SOL    HW225719   2.355   6.427   0.685
 8274SOL     OW25720   5.589   5.309   3.233
 8274SOL    HW125721   5.633   5.391   3.196
 8274SOL    HW225722   5.497   5.332   3.264
 8275SOL     OW25723   5.175   2.637   5.932
 8275SOL    HW125724   5.126   2.641   6.019
 8275SOL    HW225725   5.110   2.647   5.856
 8276SOL     OW25726   0.669   2.007   3.134
 8276SOL    HW125727   0.758   1.983   3.096
 8276SOL    HW225728   0.666   1.981   3.230
 8277SOL     OW25729   6.236   0.256   6.316
 8277SOL    HW125730   6.189   0.290   6.397
 8277SOL    HW225731   6.232   0.156   6.314
 8278SOL     OW25732   2.208   2.618   0.266
 8278SOL    HW125733   2.130   2.584   0.318
 8278SOL    HW225734   2.197   2.716   0.250
 8279SOL     OW25735   0.007   6.205   3.820
 8279SOL    HW125736   6.979   6.268   3.757
 8279SOL    HW225737   0.068   6.144   3.768
 8280SOL     OW25738   2.641   3.044   6.048
 8280SOL    HW125739   2.581   2.990   5.989
 8280SOL    HW225740   2.719   3.076   5.996
 8281SOL     OW25741   6.304   5.906   2.050
 8281SOL    HW125742   6.395   5.875   2.076
 8281SOL    HW225743   6.259   5.948   2.129
 8282SOL     OW25744   5.070   2.364   5.476
 8282SOL    HW125745   5.138   2.356   5.548
 8282SOL    HW225746   5.045   2.273   5.443
 8283SOL     OW25747   1.782   4.353   5.698
 8283SOL    HW125748   1.740   4.373   5.786
 8283SOL    HW225749   1.713   4.355   5.626
 8284SOL     OW25750   6.617   4.677   2.304
 8284SOL    HW125751   6.696   4.637   2.257
 8284SOL    HW225752   6.609   4.637   2.396
 8285SOL     OW25753   3.523   3.490   4.863
 8285SOL    HW125754   3.548   3.542   4.945
 8285SOL    HW225755   3.606   3.454   4.821
 8286SOL     OW25756   6.129   1.993   5.927
 8286SOL    HW125757   6.180   2.068   5.969
 8286SOL    HW225758   6.045   1.977   5.979
 8287SOL     OW25759   1.242   5.699   4.865
 8287SOL    HW125760   1.156   5.651   4.850
 8287SOL    HW225761   1.226   5.779   4.922
 8288SOL     OW25762   2.653   2.439   2.848
 8288SOL    HW125763   2.580   2.475   2.790
 8288SOL    HW225764   2.719   2.389   2.792
 8289SOL     OW25765   0.423   6.276   6.994
 8289SOL    HW125766   0.455   6.350   0.035
 8289SOL    HW225767   0.339   6.237   0.014
 8290SOL     OW25768   6.791   2.839   0.998
 8290SOL    HW125769   6.848   2.822   1.079
 8290SOL    HW225770   6.718   2.770   0.994
 8291SOL     OW25771   4.586   0.254   0.504
 8291SOL    HW125772   4.575   0.349   0.477
 8291SOL    HW225773   4.529   0.195   0.447
 8292SOL     OW25774   3.170   0.203   6.663
 8292SOL    HW125775   3.254   0.207   6.718
 8292SOL    HW225776   3.094   0.174   6.721
 8293SOL     OW25777   5.566   5.968   5.549
 8293SOL    HW125778   5.542   5.903   5.476
 8293SOL    HW225779   5.639   5.929   5.605
 8294SOL     OW25780   5.580   2.350   0.384
 8294SOL    HW125781   5.496   2.352   0.438
 8294SOL    HW225782   5.639   2.276   0.416
 8295SOL     OW25783   5.358   3.576   0.838
 8295SOL    HW125784   5.455   3.601   0.836
 8295SOL    HW225785   5.326   3.575   0.932
 8296SOL     OW25786   1.737   5.232   6.976
 8296SOL    HW125787   1.667   5.195   0.018
 8296SOL    HW225788   1.825   5.190   6.997
 8297SOL     OW25789   0.420   2.948   3.011
 8297SOL    HW125790   0.336   2.968   3.061
 8297SOL    HW225791   0.446   3.027   2.956
 8298SOL     OW25792   4.442   1.409   1.576
 8298SOL    HW125793   4.420   1.368   1.488
 8298SOL    HW225794   4.541   1.403   1.591
 8299SOL     OW25795   6.487   2.464   1.479
 8299SOL    HW125796   6.537   2.378   1.490
 8299SOL    HW225797   6.488   2.491   1.383
 8300SOL     OW25798   0.974   5.056   3.704
 8300SOL    HW125799   1.042   5.129   3.702
 8300SOL    HW225800   1.016   4.971   3.671
 8301SOL     OW25801   3.906   3.040   6.684
 8301SOL    HW125802   3.962   3.087   6.615
 8301SOL    HW225803   3.878   2.951   6.649
 8302SOL     OW25804   5.850   5.986   6.323
 8302SOL    HW125805   5.871   5.921   6.251
 8302SOL    HW225806   5.878   5.948   6.412
 8303SOL     OW25807   0.473   0.722   5.121
 8303SOL    HW125808   0.445   0.762   5.208
 8303SOL    HW225809   0.408   0.750   5.050
 8304SOL     OW25810   1.011   3.640   6.959
 8304SOL    HW125811   0.937   3.585   6.997
 8304SOL    HW225812   1.030   3.609   6.866
 8305SOL     OW25813   3.448   5.774   3.146
 8305SOL    HW125814   3.394   5.789   3.229
 8305SOL    HW225815   3.507   5.854   3.130
 8306SOL     OW25816   0.773   3.364   3.996
 8306SOL    HW125817   0.836   3.299   4.038
 8306SOL    HW225818   0.787   3.455   4.035
 8307SOL     OW25819   3.722   5.935   1.374
 8307SOL    HW125820   3.739   5.863   1.441
 8307SOL    HW225821   3.731   5.898   1.281
 8308SOL     OW25822   3.695   6.273   2.570
 8308SOL    HW125823   3.614   6.270   2.512
 8308SOL    HW225824   3.772   6.312   2.519
 8309SOL     OW25825   4.946   6.090   2.023
 8309SOL    HW125826   4.938   6.104   2.122
 8309SOL    HW225827   4.928   5.994   2.001
 8310SOL     OW25828   0.227   4.495   0.450
 8310SOL    HW125829   0.273   4.583   0.438
 8310SOL    HW225830   0.131   4.510   0.471
 8311SOL     OW25831   6.472   0.602   0.267
 8311SOL    HW125832   6.449   0.523   0.324
 8311SOL    HW225833   6.568   0.597   0.240
 8312SOL     OW25834   5.694   6.692   1.459
 8312SOL    HW125835   5.629   6.618   1.442
 8312SOL    HW225836   5.756   6.666   1.533
 8313SOL     OW25837   3.473   1.276   2.402
 8313SOL    HW125838   3.555   1.277   2.459
 8313SOL    HW225839   3.492   1.318   2.314
 8314SOL     OW25840   6.407   0.423   2.827
 8314SOL    HW125841   6.495   0.450   2.789
 8314SOL    HW225842   6.417   0.403   2.925
 8315SOL     OW25843   5.230   4.002   6.599
 8315SOL    HW125844   5.185   4.055   6.671
 8315SOL    HW225845   5.320   3.973   6.631
 8316SOL     OW25846   2.278   4.558   6.648
 8316SOL    HW125847   2.205   4.513   6.700
 8316SOL    HW225848   2.348   4.591   6.712
 8317SOL     OW25849   2.005   4.278   2.073
 8317SOL    HW125850   1.976   4.370   2.044
 8317SOL    HW225851   1.927   4.216   2.068
 8318SOL     OW25852   3.655   1.765   4.864
 8318SOL    HW125853   3.633   1.683   4.811
 8318SOL    HW225854   3.585   1.779   4.934
 8319SOL     OW25855   3.450   1.060   4.780
 8319SOL    HW125856   3.418   1.043   4.873
 8319SOL    HW225857   3.516   0.990   4.753
 8320SOL     OW25858   3.347   4.450   1.668
 8320SOL    HW125859   3.371   4.353   1.657
 8320SOL    HW225860   3.416   4.495   1.724
 8321SOL     OW25861   0.615   0.769   1.413
 8321SOL    HW125862   0.676   0.700   1.453
 8321SOL    HW225863   0.664   0.818   1.340
 8322SOL     OW25864   6.491   6.475   6.911
 8322SOL    HW125865   6.430   6.463   6.833
 8322SOL    HW225866   6.441   6.516   6.987
 8323SOL     OW25867   1.136   1.744   1.678
 8323SOL    HW125868   1.122   1.669   1.614
 8323SOL    HW225869   1.162   1.707   1.767
 8324SOL     OW25870   6.805   1.155   1.924
 8324SOL    HW125871   6.878   1.089   1.943
 8324SOL    HW225872   6.722   1.129   1.974
 8325SOL     OW25873   3.454   3.213   3.860
 8325SOL    HW125874   3.506   3.242   3.780
 8325SOL    HW225875   3.393   3.287   3.889
 8326SOL     OW25876   3.926   3.602   5.691
 8326SOL    HW125877   3.973   3.607   5.780
 8326SOL    HW225878   3.873   3.517   5.686
 8327SOL     OW25879   5.273   2.034   5.753
 8327SOL    HW125880   5.309   2.088   5.829
 8327SOL    HW225881   5.189   2.077   5.719
 8328SOL     OW25882   2.663   2.296   5.126
 8328SOL    HW125883   2.758   2.321   5.111
 8328SOL    HW225884   2.653   2.255   5.217
 8329SOL     OW25885   6.807   3.240   5.208
 8329SOL    HW125886   6.840   3.270   5.118
 8329SOL    HW225887   6.768   3.319   5.256
 8330SOL     OW25888   2.775   6.602   7.009
 8330SOL    HW125889   2.802   6.647   0.076
 8330SOL    HW225890   2.807   6.655   6.931
 8331SOL     OW25891   2.509   6.956   0.429
 8331SOL    HW125892   2.564   6.924   0.506
 8331SOL    HW225893   2.523   6.894   0.351
 8332SOL     OW25894   5.137   5.660   2.531
 8332SOL    HW125895   5.172   5.568   2.552
 8332SOL    HW225896   5.037   5.656   2.527
 8333SOL     OW25897   0.580   5.625   6.074
 8333SOL    HW125898   0.574   5.690   6.149
 8333SOL    HW225899   0.566   5.671   5.987
 8334SOL     OW25900   6.330   1.712   3.754
 8334SOL    HW125901   6.232   1.702   3.738
 8334SOL    HW225902   6.351   1.807   3.777
 8335SOL     OW25903   5.474   6.778   5.966
 8335SOL    HW125904   5.432   6.834   6.038
 8335SOL    HW225905   5.404   6.744   5.904
 8336SOL     OW25906   0.197   1.746   2.297
 8336SOL    HW125907   0.186   1.830   2.243
 8336SOL    HW225908   0.294   1.729   2.312
 8337SOL     OW25909   0.602   6.429   2.641
 8337SOL    HW125910   0.662   6.507   2.655
 8337SOL    HW225911   0.654   6.352   2.605
 8338SOL     OW25912   1.621   4.915   1.127
 8338SOL    HW125913   1.697   4.883   1.071
 8338SOL    HW225914   1.649   4.997   1.178
 8339SOL     OW25915   5.671   1.308   2.686
 8339SOL    HW125916   5.758   1.331   2.643
 8339SOL    HW225917   5.667   1.348   2.777
 8340SOL     OW25918   5.002   3.594   0.823
 8340SOL    HW125919   5.041   3.648   0.747
 8340SOL    HW225920   4.957   3.513   0.786
 8341SOL     OW25921   2.535   6.165   0.655
 8341SOL    HW125922   2.456   6.227   0.657
 8341SOL    HW225923   2.511   6.078   0.699
 8342SOL     OW25924   4.238   0.766   0.627
 8342SOL    HW125925   4.241   0.718   0.714
 8342SOL    HW225926   4.273   0.859   0.638
 8343SOL     OW25927   1.304   5.711   6.307
 8343SOL    HW125928   1.400   5.693   6.288
 8343SOL    HW225929   1.283   5.807   6.288
 8344SOL     OW25930   4.054   6.198   5.643
 8344SOL    HW125931   4.074   6.288   5.602
 8344SOL    HW225932   3.961   6.197   5.678
 8345SOL     OW25933   6.320   1.127   2.407
 8345SOL    HW125934   6.292   1.158   2.498
 8345SOL    HW225935   6.389   1.189   2.371
 8346SOL     OW25936   3.303   5.557   1.211
 8346SOL    HW125937   3.388   5.597   1.244
 8346SOL    HW225938   3.283   5.474   1.263
 8347SOL     OW25939   3.573   5.967   4.813
 8347SOL    HW125940   3.557   5.913   4.896
 8347SOL    HW225941   3.515   6.048   4.814
 8348SOL     OW25942   1.422   0.494   0.271
 8348SOL    HW125943   1.346   0.430   0.261
 8348SOL    HW225944   1.430   0.551   0.190
 8349SOL     OW25945   5.285   5.077   1.605
 8349SOL    HW125946   5.218   5.124   1.662
 8349SOL    HW225947   5.289   4.981   1.631
 8350SOL     OW25948   6.100   0.657   4.590
 8350SOL    HW125949   6.072   0.752   4.601
 8350SOL    HW225950   6.186   0.652   4.540
 8351SOL     OW25951   3.413   6.217   3.007
 8351SOL    HW125952   3.501   6.247   3.044
 8351SOL    HW225953   3.422   6.199   2.909
 8352SOL     OW25954   6.946   5.829   2.077
 8352SOL    HW125955   6.922   5.732   2.087
 8352SOL    HW225956   0.027   5.839   2.082
 8353SOL     OW25957   0.182   3.507   2.230
 8353SOL    HW125958   0.226   3.463   2.308
 8353SOL    HW225959   0.132   3.587   2.260
 8354SOL     OW25960   2.533   1.416   6.733
 8354SOL    HW125961   2.487   1.498   6.765
 8354SOL    HW225962   2.595   1.440   6.657
 8355SOL     OW25963   2.721   0.776   0.286
 8355SOL    HW125964   2.649   0.708   0.277
 8355SOL    HW225965   2.743   0.814   0.196
 8356SOL     OW25966   2.179   5.339   6.953
 8356SOL    HW125967   2.250   5.270   6.944
 8356SOL    HW225968   2.110   5.326   6.882
 8357SOL     OW25969   4.589   5.650   4.877
 8357SOL    HW125970   4.665   5.715   4.870
 8357SOL    HW225971   4.582   5.598   4.791
 8358SOL     OW25972   2.297   2.853   5.661
 8358SOL    HW125973   2.334   2.884   5.574
 8358SOL    HW225974   2.198   2.869   5.663
 8359SOL     OW25975   4.453   5.350   4.383
 8359SOL    HW125976   4.508   5.308   4.456
 8359SOL    HW225977   4.494   5.328   4.294
 8360SOL     OW25978   4.894   0.444   3.234
 8360SOL    HW125979   4.909   0.420   3.138
 8360SOL    HW225980   4.873   0.542   3.241
 8361SOL     OW25981   1.779   0.582   2.696
 8361SOL    HW125982   1.734   0.553   2.780
 8361SOL    HW225983   1.873   0.547   2.694
 8362SOL     OW25984   2.794   2.227   0.238
 8362SOL    HW125985   2.772   2.280   0.320
 8362SOL    HW225986   2.747   2.139   0.242
 8363SOL     OW25987   6.945   3.124   0.704
 8363SOL    HW125988   6.886   3.176   0.642
 8363SOL    HW225989   6.936   3.160   0.797
 8364SOL     OW25990   6.700   3.821   4.070
 8364SOL    HW125991   6.668   3.749   4.008
 8364SOL    HW225992   6.636   3.897   4.068
 8365SOL     OW25993   2.392   3.346   5.829
 8365SOL    HW125994   2.436   3.343   5.918
 8365SOL    HW225995   2.371   3.441   5.805
 8366SOL     OW25996   2.899   6.216   2.982
 8366SOL    HW125997   2.825   6.162   2.942
 8366SOL    HW225998   2.973   6.226   2.916
 8367SOL     OW25999   5.771   5.791   3.789
 8367SOL    HW126000   5.700   5.838   3.842
 8367SOL    HW226001   5.784   5.699   3.826
 8368SOL     OW26002   3.169   5.140   6.360
 8368SOL    HW126003   3.144   5.210   6.293
 8368SOL    HW226004   3.230   5.180   6.428
 8369SOL     OW26005   2.109   0.998   0.845
 8369SOL    HW126006   2.082   0.970   0.753
 8369SOL    HW226007   2.178   0.934   0.881
 8370SOL     OW26008   1.243   1.840   6.256
 8370SOL    HW126009   1.247   1.935   6.226
 8370SOL    HW226010   1.322   1.790   6.222
 8371SOL     OW26011   1.914   3.141   0.430
 8371SOL    HW126012   1.914   3.086   0.513
 8371SOL    HW226013   2.007   3.171   0.410
 8372SOL     OW26014   0.222   1.173   2.319
 8372SOL    HW126015   0.163   1.242   2.277
 8372SOL    HW226016   0.259   1.209   2.405
 8373SOL     OW26017   1.729   6.456   5.078
 8373SOL    HW126018   1.642   6.418   5.047
 8373SOL    HW226019   1.802   6.426   5.017
 8374SOL     OW26020   6.519   6.872   6.697
 8374SOL    HW126021   6.613   6.848   6.719
 8374SOL    HW226022   6.492   6.827   6.611
 8375SOL     OW26023   3.438   0.527   6.908
 8375SOL    HW126024   3.496   0.527   6.827
 8375SOL    HW226025   3.485   0.479   6.983
 8376SOL     OW26026   3.209   0.579   4.605
 8376SOL    HW126027   3.245   0.509   4.544
 8376SOL    HW226028   3.284   0.631   4.646
 8377SOL     OW26029   5.691   4.400   0.975
 8377SOL    HW126030   5.642   4.353   1.049
 8377SOL    HW226031   5.729   4.486   1.010
 8378SOL     OW26032   4.578   2.416   3.183
 8378SOL    HW126033   4.611   2.495   3.234
 8378SOL    HW226034   4.596   2.428   3.086
 8379SOL     OW26035   6.208   2.413   2.592
 8379SOL    HW126036   6.140   2.428   2.663
 8379SOL    HW226037   6.166   2.424   2.502
 8380SOL     OW26038   4.471   1.323   3.483
 8380SOL    HW126039   4.387   1.378   3.477
 8380SOL    HW226040   4.508   1.329   3.575
 8381SOL     OW26041   1.944   5.751   4.739
 8381SOL    HW126042   1.969   5.722   4.647
 8381SOL    HW226043   2.011   5.714   4.804
 8382SOL     OW26044   1.512   2.723   2.095
 8382SOL    HW126045   1.445   2.680   2.155
 8382SOL    HW226046   1.545   2.656   2.029
 8383SOL     OW26047   2.706   2.450   6.184
 8383SOL    HW126048   2.654   2.456   6.270
 8383SOL    HW226049   2.650   2.485   6.109
 8384SOL     OW26050   0.500   6.917   2.124
 8384SOL    HW126051   0.537   6.932   2.032
 8384SOL    HW226052   0.400   6.927   2.122
 8385SOL     OW26053   5.074   1.964   1.305
 8385SOL    HW126054   5.159   1.919   1.280
 8385SOL    HW226055   5.071   1.978   1.404
 8386SOL     OW26056   1.123   4.398   2.525
 8386SOL    HW126057   1.098   4.478   2.469
 8386SOL    HW226058   1.104   4.315   2.473
 8387SOL     OW26059   0.563   2.494   1.457
 8387SOL    HW126060   0.526   2.407   1.423
 8387SOL    HW226061   0.566   2.493   1.557
 8388SOL     OW26062   1.795   0.129   2.265
 8388SOL    HW126063   1.827   0.057   2.204
 8388SOL    HW226064   1.695   0.132   2.263
 8389SOL     OW26065   5.157   2.633   2.478
 8389SOL    HW126066   5.163   2.543   2.436
 8389SOL    HW226067   5.141   2.702   2.407
 8390SOL     OW26068   5.252   1.252   5.691
 8390SOL    HW126069   5.302   1.247   5.605
 8390SOL    HW226070   5.316   1.244   5.767
 8391SOL     OW26071   6.746   6.992   1.332
 8391SOL    HW126072   6.693   6.908   1.348
 8391SOL    HW226073   6.830   6.969   1.282
 8392SOL     OW26074   5.189   2.939   4.826
 8392SOL    HW126075   5.134   2.940   4.743
 8392SOL    HW226076   5.128   2.933   4.906
 8393SOL     OW26077   5.283   0.627   1.400
 8393SOL    HW126078   5.208   0.692   1.413
 8393SOL    HW226079   5.252   0.553   1.340
 8394SOL     OW26080   5.704   3.353   2.015
 8394SOL    HW126081   5.659   3.307   1.939
 8394SOL    HW226082   5.652   3.434   2.041
 8395SOL     OW26083   1.703   1.421   4.920
 8395SOL    HW126084   1.672   1.514   4.943
 8395SOL    HW226085   1.698   1.363   5.001
 8396SOL     OW26086   4.054   5.516   4.647
 8396SOL    HW126087   4.020   5.469   4.565
 8396SOL    HW226088   4.099   5.450   4.707
 8397SOL     OW26089   6.265   1.233   2.656
 8397SOL    HW126090   6.247   1.330   2.672
 8397SOL    HW226091   6.210   1.178   2.719
 8398SOL     OW26092   4.478   2.091   5.981
 8398SOL    HW126093   4.543   2.029   5.937
 8398SOL    HW226094   4.514   2.185   5.976
 8399SOL     OW26095   6.666   5.391   0.711
 8399SOL    HW126096   6.742   5.385   0.646
 8399SOL    HW226097   6.612   5.307   0.708
 8400SOL     OW26098   1.398   2.582   4.571
 8400SOL    HW126099   1.492   2.610   4.592
 8400SOL    HW226100   1.335   2.652   4.605
 8401SOL     OW26101   2.827   0.125   6.056
 8401SOL    HW126102   2.861   0.219   6.057
 8401SOL    HW226103   2.893   0.065   6.011
 8402SOL     OW26104   3.635   0.641   6.178
 8402SOL    HW126105   3.633   0.541   6.185
 8402SOL    HW226106   3.545   0.677   6.202
 8403SOL     OW26107   6.016   4.637   4.332
 8403SOL    HW126108   5.973   4.667   4.247
 8403SOL    HW226109   6.082   4.564   4.313
 8404SOL     OW26110   1.103   2.156   6.254
 8404SOL    HW126111   1.177   2.168   6.187
 8404SOL    HW226112   1.036   2.230   6.243
 8405SOL     OW26113   3.769   0.732   5.938
 8405SOL    HW126114   3.858   0.740   5.983
 8405SOL    HW226115   3.700   0.704   6.005
 8406SOL     OW26116   4.801   0.340   5.924
 8406SOL    HW126117   4.764   0.290   5.846
 8406SOL    HW226118   4.894   0.371   5.902
 8407SOL     OW26119   3.620   6.867   4.058
 8407SOL    HW126120   3.566   6.952   4.061
 8407SOL    HW226121   3.649   6.850   3.963
 8408SOL     OW26122   3.751   1.399   1.589
 8408SOL    HW126123   3.776   1.430   1.680
 8408SOL    HW226124   3.659   1.359   1.591
 8409SOL     OW26125   4.242   2.242   2.231
 8409SOL    HW126126   4.173   2.183   2.273
 8409SOL    HW226127   4.292   2.292   2.302
 8410SOL     OW26128   6.735   2.072   1.243
 8410SOL    HW126129   6.643   2.069   1.283
 8410SOL    HW226130   6.734   2.023   1.155
 8411SOL     OW26131   2.116   5.413   0.982
 8411SOL    HW126132   2.078   5.385   1.070
 8411SOL    HW226133   2.091   5.346   0.912
 8412SOL     OW26134   2.253   2.409   6.197
 8412SOL    HW126135   2.327   2.343   6.186
 8412SOL    HW226136   2.270   2.489   6.139
 8413SOL     OW26137   4.370   5.603   5.001
 8413SOL    HW126138   4.326   5.525   4.956
 8413SOL    HW226139   4.446   5.635   4.945
 8414SOL     OW26140   1.494   0.908   1.589
 8414SOL    HW126141   1.567   0.843   1.569
 8414SOL    HW226142   1.412   0.883   1.537
 8415SOL     OW26143   2.370   1.068   5.391
 8415SOL    HW126144   2.410   0.991   5.440
 8415SOL    HW226145   2.274   1.049   5.372
 8416SOL     OW26146   6.739   1.577   5.198
 8416SOL    HW126147   6.723   1.501   5.261
 8416SOL    HW226148   6.700   1.660   5.235
 8417SOL     OW26149   1.573   3.558   5.381
 8417SOL    HW126150   1.670   3.534   5.389
 8417SOL    HW226151   1.522   3.480   5.344
 8418SOL     OW26152   0.663   5.991   2.442
 8418SOL    HW126153   0.715   6.004   2.357
 8418SOL    HW226154   0.701   6.049   2.514
 8419SOL     OW26155   4.073   1.775   4.261
 8419SOL    HW126156   4.025   1.838   4.199
 8419SOL    HW226157   4.007   1.728   4.319
 8420SOL     OW26158   3.596   0.214   2.331
 8420SOL    HW126159   3.621   0.293   2.387
 8420SOL    HW226160   3.506   0.231   2.290
 8421SOL     OW26161   4.588   6.538   6.191
 8421SOL    HW126162   4.647   6.473   6.143
 8421SOL    HW226163   4.502   6.493   6.215
 8422SOL     OW26164   4.719   2.284   3.518
 8422SOL    HW126165   4.695   2.257   3.424
 8422SOL    HW226166   4.707   2.206   3.579
 8423SOL     OW26167   6.793   5.597   6.273
 8423SOL    HW126168   6.817   5.587   6.177
 8423SOL    HW226169   6.875   5.615   6.327
 8424SOL     OW26170   2.755   0.097   3.972
 8424SOL    HW126171   2.752   0.077   3.874
 8424SOL    HW226172   2.688   0.168   3.993
 8425SOL     OW26173   3.722   4.081   2.845
 8425SOL    HW126174   3.682   4.005   2.793
 8425SOL    HW226175   3.765   4.146   2.782
 8426SOL     OW26176   3.851   2.933   1.827
 8426SOL    HW126177   3.893   3.022   1.809
 8426SOL    HW226178   3.834   2.923   1.925
 8427SOL     OW26179   3.462   3.624   3.899
 8427SOL    HW126180   3.387   3.645   3.962
 8427SOL    HW226181   3.484   3.527   3.904
 8428SOL     OW26182   6.512   6.929   0.682
 8428SOL    HW126183   6.534   6.893   0.772
 8428SOL    HW226184   6.585   6.905   0.618
 8429SOL     OW26185   2.547   5.741   5.759
 8429SOL    HW126186   2.456   5.740   5.719
 8429SOL    HW226187   2.593   5.654   5.741
 8430SOL     OW26188   4.099   6.622   4.995
 8430SOL    HW126189   4.043   6.559   4.941
 8430SOL    HW226190   4.180   6.649   4.942
 8431SOL     OW26191   2.785   3.547   6.471
 8431SOL    HW126192   2.731   3.511   6.395
 8431SOL    HW226193   2.725   3.585   6.541
 8432SOL     OW26194   6.578   4.746   6.394
 8432SOL    HW126195   6.539   4.833   6.425
 8432SOL    HW226196   6.506   4.691   6.351
 8433SOL     OW26197   5.701   2.673   0.964
 8433SOL    HW126198   5.627   2.700   0.903
 8433SOL    HW226199   5.759   2.605   0.919
 8434SOL     OW26200   2.201   6.038   5.271
 8434SOL    HW126201   2.277   6.068   5.329
 8434SOL    HW226202   2.173   5.946   5.297
 8435SOL     OW26203   4.978   1.068   3.263
 8435SOL    HW126204   4.954   1.151   3.314
 8435SOL    HW226205   5.075   1.048   3.275
 8436SOL     OW26206   2.441   5.904   2.355
 8436SOL    HW126207   2.363   5.871   2.301
 8436SOL    HW226208   2.408   5.956   2.433
 8437SOL     OW26209   1.245   4.276   2.079
 8437SOL    HW126210   1.209   4.364   2.110
 8437SOL    HW226211   1.340   4.287   2.049
 8438SOL     OW26212   1.034   4.123   2.144
 8438SOL    HW126213   1.107   4.172   2.094
 8438SOL    HW226214   1.062   4.028   2.159
 8439SOL     OW26215   5.757   5.015   3.648
 8439SOL    HW126216   5.795   4.943   3.590
 8439SOL    HW226217   5.740   5.097   3.593
 8440SOL     OW26218   2.264   1.292   3.283
 8440SOL    HW126219   2.209   1.310   3.365
 8440SOL    HW226220   2.204   1.290   3.203
 8441SOL     OW26221   6.077   1.512   4.555
 8441SOL    HW126222   6.118   1.455   4.627
 8441SOL    HW226223   6.088   1.466   4.467
 8442SOL     OW26224   3.462   1.457   6.385
 8442SOL    HW126225   3.444   1.531   6.449
 8442SOL    HW226226   3.389   1.453   6.316
 8443SOL     OW26227   0.865   4.012   3.149
 8443SOL    HW126228   0.816   3.945   3.204
 8443SOL    HW226229   0.887   4.092   3.206
 8444SOL     OW26230   5.183   5.086   4.560
 8444SOL    HW126231   5.117   5.046   4.496
 8444SOL    HW226232   5.264   5.027   4.563
 8445SOL     OW26233   4.727   5.959   6.820
 8445SOL    HW126234   4.643   5.909   6.840
 8445SOL    HW226235   4.729   6.044   6.872
 8446SOL     OW26236   6.781   5.468   4.880
 8446SOL    HW126237   6.787   5.368   4.880
 8446SOL    HW226238   6.838   5.504   4.806
 8447SOL     OW26239   4.112   2.166   3.374
 8447SOL    HW126240   4.118   2.071   3.344
 8447SOL    HW226241   4.046   2.173   3.450
 8448SOL     OW26242   3.402   6.618   3.091
 8448SOL    HW126243   3.341   6.558   3.039
 8448SOL    HW226244   3.431   6.572   3.175
 8449SOL     OW26245   2.183   2.227   2.885
 8449SOL    HW126246   2.224   2.168   2.955
 8449SOL    HW226247   2.143   2.170   2.814
 8450SOL     OW26248   7.009   1.242   0.125
 8450SOL    HW126249   6.961   1.250   0.037
 8450SOL    HW226250   0.024   1.332   0.153
 8451SOL     OW26251   4.464   2.626   1.166
 8451SOL    HW126252   4.400   2.605   1.240
 8451SOL    HW226253   4.511   2.712   1.186
 8452SOL     OW26254   5.064   2.047   5.452
 8452SOL    HW126255   5.021   1.986   5.518
 8452SOL    HW226256   5.128   1.995   5.395
 8453SOL     OW26257   0.407   6.127   1.001
 8453SOL    HW126258   0.332   6.109   1.065
 8453SOL    HW226259   0.442   6.040   0.965
 8454SOL     OW26260   6.616   4.335   6.867
 8454SOL    HW126261   6.668   4.418   6.848
 8454SOL    HW226262   6.661   4.257   6.823
 8455SOL     OW26263   0.204   0.787   2.965
 8455SOL    HW126264   0.190   0.792   2.867
 8455SOL    HW226265   0.285   0.840   2.990
 8456SOL     OW26266   6.319   0.701   3.621
 8456SOL    HW126267   6.286   0.787   3.660
 8456SOL    HW226268   6.260   0.626   3.652
 8457SOL     OW26269   6.777   0.097   5.119
 8457SOL    HW126270   6.841   0.020   5.113
 8457SOL    HW226271   6.744   0.106   5.213
 8458SOL     OW26272   0.057   6.409   6.959
 8458SOL    HW126273   0.061   6.502   6.921
 8458SOL    HW226274   6.984   6.391   6.995
 8459SOL     OW26275   1.390   5.529   3.541
 8459SOL    HW126276   1.293   5.506   3.534
 8459SOL    HW226277   1.399   5.627   3.559
 8460SOL     OW26278   3.218   4.114   3.576
 8460SOL    HW126279   3.142   4.172   3.547
 8460SOL    HW226280   3.190   4.061   3.656
 8461SOL     OW26281   6.610   3.629   3.890
 8461SOL    HW126282   6.548   3.559   3.925
 8461SOL    HW226283   6.560   3.694   3.834
 8462SOL     OW26284   1.985   2.997   2.042
 8462SOL    HW126285   2.052   2.938   2.086
 8462SOL    HW226286   1.924   3.036   2.111
 8463SOL     OW26287   5.020   1.227   2.389
 8463SOL    HW126288   5.101   1.219   2.447
 8463SOL    HW226289   5.016   1.150   2.326
 8464SOL     OW26290   6.434   2.068   4.444
 8464SOL    HW126291   6.398   2.007   4.373
 8464SOL    HW226292   6.534   2.072   4.436
 8465SOL     OW26293   1.511   2.309   0.269
 8465SOL    HW126294   1.609   2.323   0.281
 8465SOL    HW226295   1.468   2.393   0.237
 8466SOL     OW26296   0.600   0.154   4.000
 8466SOL    HW126297   0.636   0.161   3.907
 8466SOL    HW226298   0.511   0.109   3.998
 8467SOL     OW26299   2.942   5.356   0.735
 8467SOL    HW126300   2.842   5.356   0.736
 8467SOL    HW226301   2.977   5.398   0.818
 8468SOL     OW26302   4.854   1.880   0.660
 8468SOL    HW126303   4.805   1.920   0.582
 8468SOL    HW226304   4.951   1.906   0.654
 8469SOL     OW26305   3.873   2.474   6.713
 8469SOL    HW126306   3.905   2.380   6.722
 8469SOL    HW226307   3.784   2.484   6.758
 8470SOL     OW26308   1.869   2.818   6.767
 8470SOL    HW126309   1.875   2.842   6.670
 8470SOL    HW226310   1.938   2.868   6.819
 8471SOL     OW26311   3.956   1.201   3.690
 8471SOL    HW126312   3.970   1.115   3.738
 8471SOL    HW226313   4.044   1.243   3.669
 8472SOL     OW26314   1.448   6.188   3.684
 8472SOL    HW126315   1.355   6.180   3.720
 8472SOL    HW226316   1.446   6.234   3.595
 8473SOL     OW26317   6.515   5.521   0.171
 8473SOL    HW126318   6.552   5.594   0.114
 8473SOL    HW226319   6.550   5.530   0.264
 8474SOL     OW26320   4.371   4.965   0.641
 8474SOL    HW126321   4.453   4.924   0.602
 8474SOL    HW226322   4.371   4.950   0.740
 8475SOL     OW26323   4.457   1.095   3.285
 8475SOL    HW126324   4.546   1.050   3.291
 8475SOL    HW226325   4.460   1.182   3.335
 8476SOL     OW26326   4.860   0.312   2.697
 8476SOL    HW126327   4.882   0.376   2.622
 8476SOL    HW226328   4.768   0.276   2.684
 8477SOL     OW26329   2.784   1.129   2.143
 8477SOL    HW126330   2.770   1.081   2.056
 8477SOL    HW226331   2.695   1.146   2.185
 8478SOL     OW26332   2.038   0.335   5.831
 8478SOL    HW126333   2.102   0.411   5.843
 8478SOL    HW226334   1.965   0.363   5.768
 8479SOL     OW26335   4.647   0.985   2.185
 8479SOL    HW126336   4.615   1.075   2.155
 8479SOL    HW226337   4.747   0.986   2.189
 8480SOL     OW26338   1.286   1.442   1.378
 8480SOL    HW126339   1.343   1.517   1.346
 8480SOL    HW226340   1.191   1.459   1.351
 8481SOL     OW26341   3.745   0.096   4.329
 8481SOL    HW126342   3.788   0.031   4.267
 8481SOL    HW226343   3.807   0.117   4.404
 8482SOL     OW26344   0.956   0.434   2.083
 8482SOL    HW126345   0.921   0.377   2.009
 8482SOL    HW226346   0.914   0.525   2.078
 8483SOL     OW26347   4.407   5.880   2.389
 8483SOL    HW126348   4.395   5.979   2.381
 8483SOL    HW226349   4.421   5.841   2.298
 8484SOL     OW26350   0.791   4.792   4.744
 8484SOL    HW126351   0.854   4.715   4.730
 8484SOL    HW226352   0.811   4.836   4.831
 8485SOL     OW26353   2.985   3.240   6.056
 8485SOL    HW126354   2.905   3.300   6.060
 8485SOL    HW226355   3.045   3.271   5.983
 8486SOL     OW26356   4.577   0.690   2.195
 8486SOL    HW126357   4.578   0.693   2.295
 8486SOL    HW226358   4.625   0.769   2.158
 8487SOL     OW26359   4.235   6.896   1.011
 8487SOL    HW126360   4.325   6.880   0.971
 8487SOL    HW226361   4.209   6.819   1.068
 8488SOL     OW26362   5.102   3.169   4.476
 8488SOL    HW126363   5.199   3.190   4.466
 8488SOL    HW226364   5.060   3.234   4.539
 8489SOL     OW26365   4.385   5.028   2.951
 8489SOL    HW126366   4.352   5.107   2.899
 8489SOL    HW226367   4.341   5.026   3.040
 8490SOL     OW26368   3.680   5.577   2.673
 8490SOL    HW126369   3.754   5.571   2.606
 8490SOL    HW226370   3.681   5.496   2.732
 8491SOL     OW26371   1.723   1.015   2.476
 8491SOL    HW126372   1.674   1.096   2.443
 8491SOL    HW226373   1.813   1.011   2.432
 8492SOL     OW26374   5.742   3.769   4.406
 8492SOL    HW126375   5.793   3.707   4.466
 8492SOL    HW226376   5.695   3.838   4.461
 8493SOL     OW26377   3.519   1.881   0.907
 8493SOL    HW126378   3.455   1.865   0.982
 8493SOL    HW226379   3.586   1.950   0.935
 8494SOL     OW26380   3.406   5.702   0.126
 8494SOL    HW126381   3.325   5.758   0.146
 8494SOL    HW226382   3.457   5.742   0.050
 8495SOL     OW26383   0.302   2.874   0.011
 8495SOL    HW126384   0.358   2.950   0.044
 8495SOL    HW226385   0.307   2.798   0.075
 8496SOL     OW26386   6.838   2.952   3.154
 8496SOL    HW126387   6.889   2.917   3.076
 8496SOL    HW226388   6.766   2.886   3.178
 8497SOL     OW26389   6.001   5.464   3.508
 8497SOL    HW126390   6.088   5.480   3.555
 8497SOL    HW226391   5.958   5.552   3.488
 8498SOL     OW26392   6.918   1.213   0.649
 8498SOL    HW126393   6.986   1.192   0.719
 8498SOL    HW226394   6.942   1.299   0.603
 8499SOL     OW26395   3.225   4.114   6.620
 8499SOL    HW126396   3.143   4.106   6.677
 8499SOL    HW226397   3.212   4.186   6.553
 8500SOL     OW26398   3.040   0.986   6.463
 8500SOL    HW126399   3.062   0.950   6.372
 8500SOL    HW226400   3.052   1.085   6.463
 8501SOL     OW26401   2.293   4.576   5.986
 8501SOL    HW126402   2.206   4.529   5.968
 8501SOL    HW226403   2.367   4.524   5.944
 8502SOL     OW26404   0.230   0.489   2.346
 8502SOL    HW126405   0.303   0.556   2.352
 8502SOL    HW226406   0.268   0.400   2.319
 8503SOL     OW26407   2.973   5.297   3.208
 8503SOL    HW126408   3.043   5.258   3.269
 8503SOL    HW226409   2.943   5.385   3.245
 8504SOL     OW26410   0.725   5.659   3.062
 8504SOL    HW126411   0.817   5.626   3.081
 8504SOL    HW226412   0.660   5.613   3.123
 8505SOL     OW26413   4.749   2.843   3.882
 8505SOL    HW126414   4.723   2.818   3.975
 8505SOL    HW226415   4.741   2.762   3.823
 8506SOL     OW26416   1.025   6.507   0.425
 8506SOL    HW126417   0.974   6.429   0.388
 8506SOL    HW226418   0.960   6.577   0.456
 8507SOL     OW26419   2.113   1.090   4.862
 8507SOL    HW126420   2.070   1.126   4.945
 8507SOL    HW226421   2.043   1.051   4.802
 8508SOL     OW26422   1.243   2.891   6.036
 8508SOL    HW126423   1.264   2.902   5.939
 8508SOL    HW226424   1.280   2.803   6.068
 8509SOL     OW26425   5.953   2.065   4.491
 8509SOL    HW126426   5.951   1.973   4.452
 8509SOL    HW226427   5.903   2.066   4.577
 8510SOL     OW26428   4.998   0.237   2.931
 8510SOL    HW126429   5.085   0.195   2.904
 8510SOL    HW226430   4.951   0.269   2.849
 8511SOL     OW26431   6.728   4.865   1.951
 8511SOL    HW126432   6.761   4.798   2.017
 8511SOL    HW226433   6.630   4.854   1.938
 8512SOL     OW26434   4.534   1.887   0.494
 8512SOL    HW126435   4.466   1.941   0.446
 8512SOL    HW226436   4.501   1.864   0.586
 8513SOL     OW26437   0.137   4.520   1.084
 8513SOL    HW126438   0.084   4.519   1.169
 8513SOL    HW226439   0.077   4.501   1.007
 8514SOL     OW26440   2.595   2.665   5.738
 8514SOL    HW126441   2.623   2.692   5.646
 8514SOL    HW226442   2.589   2.747   5.796
 8515SOL     OW26443   1.307   0.171   1.160
 8515SOL    HW126444   1.231   0.220   1.116
 8515SOL    HW226445   1.278   0.139   1.250
 8516SOL     OW26446   5.343   2.272   3.729
 8516SOL    HW126447   5.312   2.177   3.738
 8516SOL    HW226448   5.331   2.302   3.634
 8517SOL     OW26449   1.928   2.001   5.459
 8517SOL    HW126450   1.892   2.035   5.372
 8517SOL    HW226451   2.014   1.951   5.442
 8518SOL     OW26452   5.128   4.494   0.376
 8518SOL    HW126453   5.064   4.430   0.419
 8518SOL    HW226454   5.218   4.486   0.418
 8519SOL     OW26455   1.521   3.498   1.078
 8519SOL    HW126456   1.579   3.433   1.127
 8519SOL    HW226457   1.456   3.539   1.141
 8520SOL     OW26458   3.926   4.009   5.887
 8520SOL    HW126459   3.843   4.000   5.941
 8520SOL    HW226460   3.988   4.075   5.929
 8521SOL     OW26461   1.606   6.491   5.754
 8521SOL    HW126462   1.628   6.466   5.660
 8521SOL    HW226463   1.658   6.572   5.781
 8522SOL     OW26464   0.969   6.895   0.529
 8522SOL    HW126465   1.037   6.854   0.589
 8522SOL    HW226466   0.983   6.994   0.526
 8523SOL     OW26467   3.179   1.551   6.920
 8523SOL    HW126468   3.246   1.606   6.971
 8523SOL    HW226469   3.220   1.464   6.894
 8524SOL     OW26470   2.335   5.851   4.348
 8524SOL    HW126471   2.373   5.866   4.439
 8524SOL    HW226472   2.306   5.755   4.340
 8525SOL     OW26473   6.199   5.016   1.464
 8525SOL    HW126474   6.281   4.980   1.510
 8525SOL    HW226475   6.150   4.941   1.420
 8526SOL     OW26476   0.952   5.807   0.672
 8526SOL    HW126477   0.943   5.736   0.742
 8526SOL    HW226478   1.027   5.783   0.610
 8527SOL     OW26479   3.101   0.911   5.427
 8527SOL    HW126480   3.081   0.852   5.349
 8527SOL    HW226481   3.032   0.897   5.498
 8528SOL     OW26482   5.163   1.523   0.521
 8528SOL    HW126483   5.090   1.469   0.563
 8528SOL    HW226484   5.208   1.468   0.450
 8529SOL     OW26485   0.879   6.302   6.382
 8529SOL    HW126486   0.816   6.331   6.454
 8529SOL    HW226487   0.866   6.205   6.364
 8530SOL     OW26488   2.976   3.778   4.051
 8530SOL    HW126489   3.037   3.732   3.987
 8530SOL    HW226490   2.960   3.719   4.130
 8531SOL     OW26491   6.677   5.215   4.226
 8531SOL    HW126492   6.748   5.255   4.283
 8531SOL    HW226493   6.711   5.131   4.183
 8532SOL     OW26494   2.590   5.191   5.641
 8532SOL    HW126495   2.532   5.127   5.692
 8532SOL    HW226496   2.536   5.236   5.570
 8533SOL     OW26497   2.366   6.341   5.707
 8533SOL    HW126498   2.315   6.325   5.791
 8533SOL    HW226499   2.311   6.314   5.628
 8534SOL     OW26500   2.510   2.231   3.873
 8534SOL    HW126501   2.433   2.183   3.831
 8534SOL    HW226502   2.590   2.225   3.813
 8535SOL     OW26503   6.187   0.750   2.709
 8535SOL    HW126504   6.261   0.778   2.771
 8535SOL    HW226505   6.222   0.748   2.615
 8536SOL     OW26506   0.691   1.305   4.972
 8536SOL    HW126507   0.780   1.317   5.017
 8536SOL    HW226508   0.654   1.395   4.948
 8537SOL     OW26509   0.026   1.309   2.583
 8537SOL    HW126510   7.000   1.262   2.506
 8537SOL    HW226511   0.027   1.407   2.565
 8538SOL     OW26512   1.204   2.381   0.073
 8538SOL    HW126513   1.289   2.431   0.089
 8538SOL    HW226514   1.170   2.401   7.000
 8539SOL     OW26515   5.957   2.371   3.150
 8539SOL    HW126516   5.896   2.310   3.201
 8539SOL    HW226517   5.904   2.420   3.080
 8540SOL     OW26518   3.825   0.204   0.763
 8540SOL    HW126519   3.849   0.301   0.769
 8540SOL    HW226520   3.743   0.187   0.819
 8541SOL     OW26521   1.953   2.848   4.505
 8541SOL    HW126522   1.946   2.752   4.480
 8541SOL    HW226523   2.048   2.870   4.528
 8542SOL     OW26524   3.593   4.869   0.785
 8542SOL    HW126525   3.676   4.814   0.790
 8542SOL    HW226526   3.526   4.824   0.726
 8543SOL     OW26527   2.418   2.168   6.168
 8543SOL    HW126528   2.419   2.136   6.262
 8543SOL    HW226529   2.338   2.130   6.121
 8544SOL     OW26530   6.793   3.141   3.449
 8544SOL    HW126531   6.709   3.101   3.484
 8544SOL    HW226532   6.789   3.147   3.350
 8545SOL     OW26533   4.999   6.515   5.080
 8545SOL    HW126534   4.986   6.543   4.985
 8545SOL    HW226535   5.096   6.506   5.099
 8546SOL     OW26536   4.528   1.625   6.047
 8546SOL    HW126537   4.451   1.689   6.052
 8546SOL    HW226538   4.541   1.582   6.136
 8547SOL     OW26539   0.588   4.584   3.027
 8547SOL    HW126540   0.585   4.610   3.124
 8547SOL    HW226541   0.577   4.485   3.019
 8548SOL     OW26542   5.993   1.388   5.504
 8548SOL    HW126543   5.922   1.452   5.534
 8548SOL    HW226544   5.995   1.310   5.566
 8549SOL     OW26545   5.564   3.323   5.041
 8549SOL    HW126546   5.537   3.314   4.945
 8549SOL    HW226547   5.494   3.283   5.100
 8550SOL     OW26548   0.869   4.075   6.588
 8550SOL    HW126549   0.831   4.015   6.518
 8550SOL    HW226550   0.835   4.046   6.678
 8551SOL     OW26551   3.319   3.956   0.352
 8551SOL    HW126552   3.350   3.862   0.362
 8551SOL    HW226553   3.368   4.000   0.277
 8552SOL     OW26554   3.182   6.483   4.174
 8552SOL    HW126555   3.193   6.451   4.268
 8552SOL    HW226556   3.138   6.411   4.119
 8553SOL     OW26557   5.650   5.980   0.365
 8553SOL    HW126558   5.637   6.015   0.272
 8553SOL    HW226559   5.714   6.039   0.414
 8554SOL     OW26560   6.324   4.361   6.911
 8554SOL    HW126561   6.417   4.333   6.937
 8554SOL    HW226562   6.258   4.296   6.950
 8555SOL     OW26563   0.912   7.017   4.207
 8555SOL    HW126564   0.939   0.095   4.197
 8555SOL    HW226565   0.979   6.970   4.264
 8556SOL     OW26566   6.557   0.119   3.932
 8556SOL    HW126567   6.573   0.210   3.969
 8556SOL    HW226568   6.460   0.097   3.935
 8557SOL     OW26569   0.345   0.931   0.565
 8557SOL    HW126570   0.261   0.877   0.567
 8557SOL    HW226571   0.323   1.027   0.546
 8558SOL     OW26572   0.949   5.482   1.814
 8558SOL    HW126573   1.022   5.450   1.873
 8558SOL    HW226574   0.861   5.455   1.851
 8559SOL     OW26575   0.625   1.321   6.204
 8559SOL    HW126576   0.601   1.389   6.273
 8559SOL    HW226577   0.705   1.352   6.153
 8560SOL     OW26578   6.506   2.496   6.380
 8560SOL    HW126579   6.540   2.588   6.362
 8560SOL    HW226580   6.579   2.441   6.420
 8561SOL     OW26581   4.989   6.674   4.490
 8561SOL    HW126582   4.960   6.601   4.428
 8561SOL    HW226583   5.089   6.681   4.487
 8562SOL     OW26584   3.536   6.950   4.462
 8562SOL    HW126585   3.538   6.852   4.446
 8562SOL    HW226586   3.605   6.994   4.403
 8563SOL     OW26587   2.561   2.530   5.972
 8563SOL    HW126588   2.475   2.563   6.010
 8563SOL    HW226589   2.579   2.575   5.885
 8564SOL     OW26590   0.454   7.012   3.768
 8564SOL    HW126591   0.551   0.016   3.755
 8564SOL    HW226592   0.442   6.969   3.857
 8565SOL     OW26593   4.630   0.530   1.625
 8565SOL    HW126594   4.581   0.545   1.539
 8565SOL    HW226595   4.659   0.618   1.663
 8566SOL     OW26596   2.083   3.536   3.228
 8566SOL    HW126597   2.095   3.469   3.155
 8566SOL    HW226598   2.011   3.505   3.290
 8567SOL     OW26599   5.035   6.679   0.922
 8567SOL    HW126600   4.991   6.732   0.995
 8567SOL    HW226601   4.988   6.696   0.835
 8568SOL     OW26602   5.489   1.212   0.279
 8568SOL    HW126603   5.515   1.151   0.205
 8568SOL    HW226604   5.567   1.270   0.304
 8569SOL     OW26605   4.189   1.506   5.231
 8569SOL    HW126606   4.289   1.513   5.226
 8569SOL    HW226607   4.149   1.547   5.149
 8570SOL     OW26608   1.112   4.436   6.933
 8570SOL    HW126609   1.145   4.422   0.009
 8570SOL    HW226610   1.162   4.375   6.871
 8571SOL     OW26611   6.987   4.464   4.966
 8571SOL    HW126612   6.896   4.431   4.941
 8571SOL    HW226613   0.037   4.420   4.907
 8572SOL     OW26614   3.037   5.043   5.199
 8572SOL    HW126615   2.968   4.971   5.189
 8572SOL    HW226616   3.125   5.001   5.220
 8573SOL     OW26617   4.278   5.406   4.804
 8573SOL    HW126618   4.283   5.335   4.875
 8573SOL    HW226619   4.299   5.365   4.715
 8574SOL     OW26620   0.646   3.726   4.734
 8574SOL    HW126621   0.617   3.631   4.750
 8574SOL    HW226622   0.702   3.729   4.651
 8575SOL     OW26623   3.223   3.255   6.865
 8575SOL    HW126624   3.214   3.242   6.766
 8575SOL    HW226625   3.232   3.166   6.910
 8576SOL     OW26626   1.724   6.918   1.635
 8576SOL    HW126627   1.717   6.895   1.732
 8576SOL    HW226628   1.789   6.856   1.592
 8577SOL     OW26629   6.690   5.342   3.251
 8577SOL    HW126630   6.789   5.341   3.256
 8577SOL    HW226631   6.654   5.420   3.302
 8578SOL     OW26632   4.551   6.571   3.606
 8578SOL    HW126633   4.517   6.496   3.661
 8578SOL    HW226634   4.646   6.590   3.629
 8579SOL     OW26635   0.512   5.862   3.104
 8579SOL    HW126636   0.529   5.853   3.202
 8579SOL    HW226637   0.598   5.852   3.054
 8580SOL     OW26638   2.822   4.133   6.154
 8580SOL    HW126639   2.860   4.224   6.140
 8580SOL    HW226640   2.842   4.102   6.247
 8581SOL     OW26641   3.281   2.501   1.026
 8581SOL    HW126642   3.265   2.539   1.117
 8581SOL    HW226643   3.194   2.492   0.978
 8582SOL     OW26644   4.633   4.375   1.153
 8582SOL    HW126645   4.724   4.353   1.118
 8582SOL    HW226646   4.623   4.338   1.246
 8583SOL     OW26647   5.476   0.050   6.077
 8583SOL    HW126648   5.463   6.990   6.138
 8583SOL    HW226649   5.389   0.096   6.063
 8584SOL     OW26650   0.100   5.261   6.225
 8584SOL    HW126651   0.086   5.165   6.250
 8584SOL    HW226652   0.068   5.320   6.300
 8585SOL     OW26653   0.938   1.386   0.918
 8585SOL    HW126654   0.860   1.328   0.896
 8585SOL    HW226655   0.988   1.347   0.995
 8586SOL     OW26656   4.191   5.476   4.048
 8586SOL    HW126657   4.183   5.419   4.129
 8586SOL    HW226658   4.108   5.468   3.993
 8587SOL     OW26659   0.182   1.737   1.201
 8587SOL    HW126660   0.113   1.777   1.262
 8587SOL    HW226661   0.144   1.655   1.158
 8588SOL     OW26662   4.408   2.164   0.406
 8588SOL    HW126663   4.424   2.170   0.308
 8588SOL    HW226664   4.473   2.224   0.454
 8589SOL     OW26665   2.988   1.513   4.654
 8589SOL    HW126666   2.991   1.594   4.595
 8589SOL    HW226667   3.034   1.534   4.741
 8590SOL     OW26668   6.373   5.162   5.789
 8590SOL    HW126669   6.426   5.212   5.720
 8590SOL    HW226670   6.276   5.186   5.781
 8591SOL     OW26671   1.020   2.941   0.008
 8591SOL    HW126672   0.958   2.976   0.078
 8591SOL    HW226673   0.969   2.889   6.958
 8592SOL     OW26674   6.516   5.678   6.182
 8592SOL    HW126675   6.616   5.675   6.190
 8592SOL    HW226676   6.479   5.731   6.258
 8593SOL     OW26677   0.675   0.215   3.170
 8593SOL    HW126678   0.670   0.245   3.075
 8593SOL    HW226679   0.730   0.281   3.222
 8594SOL     OW26680   3.299   3.738   3.561
 8594SOL    HW126681   3.360   3.812   3.533
 8594SOL    HW226682   3.239   3.713   3.485
 8595SOL     OW26683   1.920   2.607   1.474
 8595SOL    HW126684   1.965   2.524   1.508
 8595SOL    HW226685   1.920   2.676   1.546
 8596SOL     OW26686   6.219   4.776   2.174
 8596SOL    HW126687   6.122   4.773   2.154
 8596SOL    HW226688   6.266   4.703   2.126
 8597SOL     OW26689   2.080   1.718   0.597
 8597SOL    HW126690   2.159   1.777   0.616
 8597SOL    HW226691   2.079   1.642   0.662
 8598SOL     OW26692   5.095   4.236   0.763
 8598SOL    HW126693   5.158   4.170   0.721
 8598SOL    HW226694   5.129   4.262   0.853
 8599SOL     OW26695   1.417   3.253   2.434
 8599SOL    HW126696   1.321   3.265   2.461
 8599SOL    HW226697   1.425   3.262   2.335
 8600SOL     OW26698   6.207   3.770   6.306
 8600SOL    HW126699   6.263   3.692   6.334
 8600SOL    HW226700   6.225   3.847   6.366
 8601SOL     OW26701   0.388   0.478   4.534
 8601SOL    HW126702   0.424   0.438   4.618
 8601SOL    HW226703   0.324   0.415   4.492
 8602SOL     OW26704   2.931   6.226   2.314
 8602SOL    HW126705   3.002   6.292   2.336
 8602SOL    HW226706   2.898   6.184   2.398
 8603SOL     OW26707   4.534   3.664   1.195
 8603SOL    HW126708   4.519   3.601   1.119
 8603SOL    HW226709   4.628   3.653   1.229
 8604SOL     OW26710   5.388   2.286   3.062
 8604SOL    HW126711   5.455   2.213   3.049
 8604SOL    HW226712   5.318   2.256   3.127
 8605SOL     OW26713   2.925   6.645   2.337
 8605SOL    HW126714   2.826   6.655   2.326
 8605SOL    HW226715   2.971   6.687   2.258
 8606SOL     OW26716   4.094   5.103   5.528
 8606SOL    HW126717   4.072   5.073   5.621
 8606SOL    HW226718   4.027   5.171   5.498
 8607SOL     OW26719   3.619   6.318   1.573
 8607SOL    HW126720   3.602   6.390   1.640
 8607SOL    HW226721   3.651   6.235   1.619
 8608SOL     OW26722   5.125   6.121   2.404
 8608SOL    HW126723   5.087   6.038   2.443
 8608SOL    HW226724   5.215   6.140   2.445
 8609SOL     OW26725   3.990   0.725   6.117
 8609SOL    HW126726   4.000   0.630   6.148
 8609SOL    HW226727   4.081   0.765   6.107
 8610SOL     OW26728   0.095   6.793   4.627
 8610SOL    HW126729   0.194   6.779   4.625
 8610SOL    HW226730   0.064   6.826   4.538
 8611SOL     OW26731   1.510   1.685   3.155
 8611SOL    HW126732   1.539   1.774   3.121
 8611SOL    HW226733   1.574   1.654   3.226
 8612SOL     OW26734   4.469   2.841   5.408
 8612SOL    HW126735   4.490   2.781   5.330
 8612SOL    HW226736   4.370   2.846   5.421
 8613SOL     OW26737   1.086   1.341   0.029
 8613SOL    HW126738   1.134   1.421   7.011
 8613SOL    HW226739   1.056   1.359   0.122
 8614SOL     OW26740   0.921   1.470   3.457
 8614SOL    HW126741   0.998   1.413   3.484
 8614SOL    HW226742   0.932   1.498   3.361
 8615SOL     OW26743   4.502   2.367   5.413
 8615SOL    HW126744   4.448   2.377   5.330
 8615SOL    HW226745   4.556   2.283   5.407
 8616SOL     OW26746   1.484   3.450   6.588
 8616SOL    HW126747   1.451   3.410   6.673
 8616SOL    HW226748   1.554   3.519   6.608
 8617SOL     OW26749   6.074   3.469   1.409
 8617SOL    HW126750   6.032   3.382   1.386
 8617SOL    HW226751   6.006   3.529   1.451
 8618SOL     OW26752   4.884   0.571   3.598
 8618SOL    HW126753   4.851   0.483   3.563
 8618SOL    HW226754   4.835   0.646   3.552
 8619SOL     OW26755   4.401   5.707   0.377
 8619SOL    HW126756   4.343   5.789   0.377
 8619SOL    HW226757   4.483   5.725   0.324
 8620SOL     OW26758   6.150   6.448   3.351
 8620SOL    HW126759   6.161   6.472   3.254
 8620SOL    HW226760   6.164   6.530   3.407
 8621SOL     OW26761   5.972   0.947   3.057
 8621SOL    HW126762   5.901   0.953   2.987
 8621SOL    HW226763   5.934   0.977   3.145
 8622SOL     OW26764   5.401   5.684   6.858
 8622SOL    HW126765   5.472   5.749   6.832
 8622SOL    HW226766   5.442   5.607   6.907
 8623SOL     OW26767   6.490   2.934   2.676
 8623SOL    HW126768   6.523   2.951   2.584
 8623SOL    HW226769   6.563   2.896   2.732
 8624SOL     OW26770   0.551   5.137   3.615
 8624SOL    HW126771   0.554   5.182   3.704
 8624SOL    HW226772   0.518   5.201   3.546
 8625SOL     OW26773   3.627   0.608   5.703
 8625SOL    HW126774   3.606   0.528   5.759
 8625SOL    HW226775   3.693   0.665   5.751
 8626SOL     OW26776   3.085   3.163   2.255
 8626SOL    HW126777   3.017   3.093   2.231
 8626SOL    HW226778   3.058   3.250   2.214
 8627SOL     OW26779   2.230   0.069   6.446
 8627SOL    HW126780   2.190   0.137   6.507
 8627SOL    HW226781   2.209   0.091   6.351
 8628SOL     OW26782   5.893   1.307   0.160
 8628SOL    HW126783   5.868   1.212   0.142
 8628SOL    HW226784   5.953   1.340   0.087
 8629SOL     OW26785   1.175   5.229   3.653
 8629SOL    HW126786   1.157   5.326   3.634
 8629SOL    HW226787   1.269   5.208   3.626
 8630SOL     OW26788   5.249   4.397   4.057
 8630SOL    HW126789   5.193   4.479   4.046
 8630SOL    HW226790   5.336   4.409   4.010
 8631SOL     OW26791   3.636   5.755   4.058
 8631SOL    HW126792   3.629   5.775   3.960
 8631SOL    HW226793   3.556   5.791   4.106
 8632SOL     OW26794   4.851   0.330   3.473
 8632SOL    HW126795   4.838   0.233   3.454
 8632SOL    HW226796   4.865   0.379   3.386
 8633SOL     OW26797   6.417   0.620   3.931
 8633SOL    HW126798   6.426   0.544   3.996
 8633SOL    HW226799   6.362   0.590   3.853
 8634SOL     OW26800   6.467   5.483   1.890
 8634SOL    HW126801   6.566   5.493   1.903
 8634SOL    HW226802   6.435   5.552   1.825
 8635SOL     OW26803   6.374   4.101   5.398
 8635SOL    HW126804   6.358   4.183   5.344
 8635SOL    HW226805   6.472   4.091   5.417
 8636SOL     OW26806   5.310   5.826   0.053
 8636SOL    HW126807   5.321   5.796   6.977
 8636SOL    HW226808   5.370   5.904   0.071
 8637SOL     OW26809   1.523   0.396   1.560
 8637SOL    HW126810   1.556   0.336   1.487
 8637SOL    HW226811   1.545   0.491   1.538
 8638SOL     OW26812   4.128   5.152   0.147
 8638SOL    HW126813   4.049   5.196   0.104
 8638SOL    HW226814   4.096   5.091   0.219
 8639SOL     OW26815   6.882   2.952   1.899
 8639SOL    HW126816   6.847   2.864   1.865
 8639SOL    HW226817   6.923   2.938   1.989
 8640SOL     OW26818   5.212   6.477   1.244
 8640SOL    HW126819   5.184   6.566   1.279
 8640SOL    HW226820   5.158   6.405   1.288
 8641SOL     OW26821   5.298   4.887   3.929
 8641SOL    HW126822   5.277   4.973   3.976
 8641SOL    HW226823   5.341   4.823   3.994
 8642SOL     OW26824   4.830   1.708   1.831
 8642SOL    HW126825   4.841   1.803   1.858
 8642SOL    HW226826   4.856   1.697   1.735
 8643SOL     OW26827   4.726   1.106   6.071
 8643SOL    HW126828   4.732   1.044   6.149
 8643SOL    HW226829   4.637   1.150   6.069
 8644SOL     OW26830   6.384   3.540   5.502
 8644SOL    HW126831   6.471   3.532   5.453
 8644SOL    HW226832   6.379   3.472   5.574
 8645SOL     OW26833   5.889   4.641   1.585
 8645SOL    HW126834   5.962   4.582   1.622
 8645SOL    HW226835   5.810   4.585   1.561
 8646SOL     OW26836   5.416   0.623   0.428
 8646SOL    HW126837   5.490   0.625   0.495
 8646SOL    HW226838   5.350   0.695   0.450
 8647SOL     OW26839   4.488   5.054   1.753
 8647SOL    HW126840   4.515   4.984   1.819
 8647SOL    HW226841   4.397   5.035   1.718
 8648SOL     OW26842   5.275   1.859   4.355
 8648SOL    HW126843   5.229   1.787   4.304
 8648SOL    HW226844   5.311   1.927   4.291
 8649SOL     OW26845   0.179   4.603   5.648
 8649SOL    HW126846   0.189   4.506   5.671
 8649SOL    HW226847   0.269   4.640   5.624
 8650SOL     OW26848   1.389   4.518   2.345
 8650SOL    HW126849   1.381   4.426   2.381
 8650SOL    HW226850   1.300   4.548   2.310
 8651SOL     OW26851   3.082   1.953   1.437
 8651SOL    HW126852   3.106   1.877   1.376
 8651SOL    HW226853   3.131   2.035   1.409
 8652SOL     OW26854   1.569   4.015   3.955
 8652SOL    HW126855   1.643   3.968   4.002
 8652SOL    HW226856   1.497   3.950   3.931
 8653SOL     OW26857   6.201   3.236   6.527
 8653SOL    HW126858   6.125   3.302   6.535
 8653SOL    HW226859   6.281   3.282   6.489
 8654SOL     OW26860   0.072   6.958   3.174
 8654SOL    HW126861   0.023   6.935   3.091
 8654SOL    HW226862   0.170   6.967   3.154
 8655SOL     OW26863   5.920   5.988   4.081
 8655SOL    HW126864   5.903   6.051   4.156
 8655SOL    HW226865   6.008   6.009   4.039
 8656SOL     OW26866   6.252   2.291   1.358
 8656SOL    HW126867   6.291   2.271   1.448
 8656SOL    HW226868   6.293   2.375   1.322
 8657SOL     OW26869   3.286   4.246   0.447
 8657SOL    HW126870   3.287   4.214   0.353
 8657SOL    HW226871   3.191   4.252   0.479
 8658SOL     OW26872   0.133   5.061   0.281
 8658SOL    HW126873   0.137   5.142   0.223
 8658SOL    HW226874   0.041   5.022   0.279
 8659SOL     OW26875   5.046   0.417   4.067
 8659SOL    HW126876   4.995   0.371   3.995
 8659SOL    HW226877   4.983   0.459   4.132
 8660SOL     OW26878   5.755   4.644   1.091
 8660SOL    HW126879   5.665   4.656   1.049
 8660SOL    HW226880   5.759   4.696   1.176
 8661SOL     OW26881   6.223   3.729   1.852
 8661SOL    HW126882   6.272   3.661   1.905
 8661SOL    HW226883   6.139   3.688   1.815
 8662SOL     OW26884   0.164   0.496   0.510
 8662SOL    HW126885   0.235   0.511   0.579
 8662SOL    HW226886   0.190   0.539   0.424
 8663SOL     OW26887   2.508   5.631   0.446
 8663SOL    HW126888   2.517   5.532   0.435
 8663SOL    HW226889   2.432   5.651   0.508
 8664SOL     OW26890   4.098   5.128   1.500
 8664SOL    HW126891   3.998   5.121   1.500
 8664SOL    HW226892   4.125   5.222   1.522
 8665SOL     OW26893   4.966   5.239   5.633
 8665SOL    HW126894   5.035   5.172   5.659
 8665SOL    HW226895   4.925   5.212   5.546
 8666SOL     OW26896   5.333   3.655   4.270
 8666SOL    HW126897   5.423   3.641   4.229
 8666SOL    HW226898   5.343   3.707   4.355
 8667SOL     OW26899   5.128   1.443   3.503
 8667SOL    HW126900   5.202   1.456   3.437
 8667SOL    HW226901   5.074   1.527   3.509
 8668SOL     OW26902   3.524   1.771   4.409
 8668SOL    HW126903   3.540   1.852   4.466
 8668SOL    HW226904   3.459   1.710   4.455
 8669SOL     OW26905   3.711   0.867   6.344
 8669SOL    HW126906   3.616   0.900   6.338
 8669SOL    HW226907   3.726   0.798   6.273
 8670SOL     OW26908   4.093   4.767   4.493
 8670SOL    HW126909   4.001   4.744   4.462
 8670SOL    HW226910   4.091   4.789   4.591
 8671SOL     OW26911   5.735   6.610   2.891
 8671SOL    HW126912   5.719   6.601   2.989
 8671SOL    HW226913   5.779   6.698   2.872
 8672SOL     OW26914   3.104   4.800   5.045
 8672SOL    HW126915   3.135   4.762   5.133
 8672SOL    HW226916   3.010   4.770   5.028
 8673SOL     OW26917   5.880   1.695   0.929
 8673SOL    HW126918   5.948   1.632   0.964
 8673SOL    HW226919   5.866   1.678   0.831
 8674SOL     OW26920   0.625   0.263   2.909
 8674SOL    HW126921   0.649   0.170   2.883
 8674SOL    HW226922   0.548   0.295   2.853
 8675SOL     OW26923   2.076   1.439   2.682
 8675SOL    HW126924   1.995   1.470   2.633
 8675SOL    HW226925   2.085   1.340   2.670
 8676SOL     OW26926   4.519   6.724   3.859
 8676SOL    HW126927   4.514   6.680   3.769
 8676SOL    HW226928   4.431   6.717   3.905
 8677SOL     OW26929   2.281   4.325   5.047
 8677SOL    HW126930   2.236   4.242   5.014
 8677SOL    HW226931   2.331   4.305   5.132
 8678SOL     OW26932   1.036   0.447   6.575
 8678SOL    HW126933   1.077   0.532   6.608
 8678SOL    HW226934   0.993   0.463   6.486
 8679SOL     OW26935   6.667   2.494   4.729
 8679SOL    HW126936   6.696   2.582   4.768
 8679SOL    HW226937   6.590   2.509   4.667
 8680SOL     OW26938   1.371   3.065   0.117
 8680SOL    HW126939   1.466   3.064   0.086
 8680SOL    HW226940   1.367   3.041   0.214
 8681SOL     OW26941   4.363   3.777   0.769
 8681SOL    HW126942   4.296   3.748   0.701
 8681SOL    HW226943   4.333   3.863   0.810
 8682SOL     OW26944   2.058   5.932   2.611
 8682SOL    HW126945   2.073   6.029   2.591
 8682SOL    HW226946   2.078   5.877   2.530
 8683SOL     OW26947   6.614   3.342   6.581
 8683SOL    HW126948   6.692   3.280   6.569
 8683SOL    HW226949   6.540   3.293   6.627
 8684SOL     OW26950   6.476   2.663   4.100
 8684SOL    HW126951   6.483   2.754   4.059
 8684SOL    HW226952   6.390   2.656   4.151
 8685SOL     OW26953   0.704   1.970   5.394
 8685SOL    HW126954   0.631   1.927   5.448
 8685SOL    HW226955   0.683   1.960   5.297
 8686SOL     OW26956   6.457   2.383   3.222
 8686SOL    HW126957   6.364   2.353   3.204
 8686SOL    HW226958   6.519   2.347   3.152
 8687SOL     OW26959   4.367   0.223   2.583
 8687SOL    HW126960   4.344   0.130   2.612
 8687SOL    HW226961   4.285   0.267   2.546
 8688SOL     OW26962   2.097   0.056   2.169
 8688SOL    HW126963   2.009   0.063   2.122
 8688SOL    HW226964   2.089   7.013   2.248
 8689SOL     OW26965   4.210   5.816   0.622
 8689SOL    HW126966   4.207   5.821   0.523
 8689SOL    HW226967   4.179   5.726   0.652
 8690SOL     OW26968   0.609   1.409   2.862
 8690SOL    HW126969   0.687   1.368   2.910
 8690SOL    HW226970   0.608   1.379   2.767
 8691SOL     OW26971   5.882   1.686   0.675
 8691SOL    HW126972   5.941   1.765   0.695
 8691SOL    HW226973   5.863   1.683   0.577
 8692SOL     OW26974   1.816   1.542   4.355
 8692SOL    HW126975   1.732   1.494   4.331
 8692SOL    HW226976   1.873   1.484   4.413
 8693SOL     OW26977   5.597   2.128   0.752
 8693SOL    HW126978   5.519   2.189   0.734
 8693SOL    HW226979   5.635   2.097   0.665
 8694SOL     OW26980   4.458   6.520   5.820
 8694SOL    HW126981   4.440   6.607   5.866
 8694SOL    HW226982   4.420   6.445   5.874
 8695SOL     OW26983   3.961   4.401   5.832
 8695SOL    HW126984   3.999   4.390   5.740
 8695SOL    HW226985   3.863   4.381   5.830
 8696SOL     OW26986   2.111   5.201   1.250
 8696SOL    HW126987   2.085   5.147   1.330
 8696SOL    HW226988   2.209   5.221   1.254
 8697SOL     OW26989   6.007   4.547   1.155
 8697SOL    HW126990   5.911   4.568   1.134
 8697SOL    HW226991   6.010   4.468   1.217
 8698SOL     OW26992   5.658   5.544   4.580
 8698SOL    HW126993   5.651   5.587   4.490
 8698SOL    HW226994   5.703   5.455   4.572
 8699SOL     OW26995   1.197   1.290   5.425
 8699SOL    HW126996   1.202   1.312   5.328
 8699SOL    HW226997   1.289   1.274   5.461
 8700SOL     OW26998   2.803   1.247   5.481
 8700SOL    HW126999   2.866   1.302   5.427
 8700SOL    HW227000   2.760   1.303   5.551
 8701SOL     OW27001   1.258   1.871   4.773
 8701SOL    HW127002   1.169   1.839   4.808
 8701SOL    HW227003   1.253   1.883   4.674
 8702SOL     OW27004   4.714   6.176   7.009
 8702SOL    HW127005   4.775   6.175   0.069
 8702SOL    HW227006   4.696   6.271   6.983
 8703SOL     OW27007   2.607   5.344   1.043
 8703SOL    HW127008   2.641   5.435   1.067
 8703SOL    HW227009   2.623   5.326   0.946
 8704SOL     OW27010   0.355   4.142   1.301
 8704SOL    HW127011   0.355   4.061   1.243
 8704SOL    HW227012   0.332   4.117   1.395
 8705SOL     OW27013   4.641   0.015   5.681
 8705SOL    HW127014   4.707   0.020   5.757
 8705SOL    HW227015   4.643   6.941   5.642
 8706SOL     OW27016   5.244   1.763   0.608
 8706SOL    HW127017   5.214   1.676   0.567
 8706SOL    HW227018   5.202   1.839   0.559
 8707SOL     OW27019   4.747   2.910   5.859
 8707SOL    HW127020   4.832   2.958   5.880
 8707SOL    HW227021   4.735   2.906   5.759
 8708SOL     OW27022   4.098   1.577   1.035
 8708SOL    HW127023   4.019   1.637   1.041
 8708SOL    HW227024   4.120   1.542   1.126
 8709SOL     OW27025   0.180   3.813   0.875
 8709SOL    HW127026   0.264   3.770   0.909
 8709SOL    HW227027   0.153   3.770   0.789
 8710SOL     OW27028   1.297   3.176   3.187
 8710SOL    HW127029   1.380   3.169   3.132
 8710SOL    HW227030   1.298   3.261   3.239
 8711SOL     OW27031   0.676   1.231   4.179
 8711SOL    HW127032   0.740   1.190   4.115
 8711SOL    HW227033   0.707   1.216   4.273
 8712SOL     OW27034   3.446   1.628   5.508
 8712SOL    HW127035   3.516   1.666   5.568
 8712SOL    HW227036   3.368   1.691   5.504
 8713SOL     OW27037   6.922   4.533   3.506
 8713SOL    HW127038   6.995   4.536   3.437
 8713SOL    HW227039   6.962   4.536   3.597
 8714SOL     OW27040   1.555   1.760   4.937
 8714SOL    HW127041   1.492   1.830   4.905
 8714SOL    HW227042   1.503   1.678   4.963
 8715SOL     OW27043   6.255   1.921   1.379
 8715SOL    HW127044   6.186   1.893   1.312
 8715SOL    HW227045   6.263   1.851   1.450
 8716SOL     OW27046   1.702   1.934   1.514
 8716SOL    HW127047   1.717   1.898   1.422
 8716SOL    HW227048   1.639   2.011   1.510
 8717SOL     OW27049   3.199   3.411   0.939
 8717SOL    HW127050   3.204   3.312   0.952
 8717SOL    HW227051   3.288   3.445   0.910
 8718SOL     OW27052   6.189   3.107   5.367
 8718SOL    HW127053   6.156   3.201   5.360
 8718SOL    HW227054   6.283   3.107   5.401
 8719SOL     OW27055   6.709   0.787   6.479
 8719SOL    HW127056   6.643   0.712   6.478
 8719SOL    HW227057   6.801   0.750   6.469
 8720SOL     OW27058   5.040   4.105   5.937
 8720SOL    HW127059   5.067   4.022   5.888
 8720SOL    HW227060   4.960   4.145   5.893
 8721SOL     OW27061   0.203   2.515   4.264
 8721SOL    HW127062   0.178   2.497   4.169
 8721SOL    HW227063   0.295   2.555   4.267
 8722SOL     OW27064   3.532   2.500   0.545
 8722SOL    HW127065   3.506   2.574   0.482
 8722SOL    HW227066   3.455   2.437   0.555
 8723SOL     OW27067   6.897   4.230   0.934
 8723SOL    HW127068   6.965   4.303   0.941
 8723SOL    HW227069   6.925   4.165   0.864
 8724SOL     OW27070   4.956   6.799   6.705
 8724SOL    HW127071   4.941   6.798   6.606
 8724SOL    HW227072   5.036   6.743   6.727
 8725SOL     OW27073   2.657   5.694   0.688
 8725SOL    HW127074   2.608   5.685   0.601
 8725SOL    HW227075   2.683   5.603   0.720
 8726SOL     OW27076   5.552   0.350   1.736
 8726SOL    HW127077   5.606   0.269   1.714
 8726SOL    HW227078   5.611   0.430   1.739
 8727SOL     OW27079   6.266   5.794   1.296
 8727SOL    HW127080   6.226   5.739   1.223
 8727SOL    HW227081   6.269   5.890   1.268
 8728SOL     OW27082   2.459   0.006   5.394
 8728SOL    HW127083   2.495   6.983   5.311
 8728SOL    HW227084   2.384   0.069   5.371
 8729SOL     OW27085   6.063   6.048   4.669
 8729SOL    HW127086   6.142   5.999   4.706
 8729SOL    HW227087   6.082   6.078   4.576
 8730SOL     OW27088   0.062   6.402   1.622
 8730SOL    HW127089   0.121   6.456   1.562
 8730SOL    HW227090   0.112   6.379   1.706
 8731SOL     OW27091   0.943   1.612   2.887
 8731SOL    HW127092   0.904   1.627   2.796
 8731SOL    HW227093   0.871   1.611   2.956
 8732SOL     OW27094   5.167   4.792   1.332
 8732SOL    HW127095   5.119   4.848   1.400
 8732SOL    HW227096   5.105   4.771   1.256
 8733SOL     OW27097   0.654   6.303   1.565
 8733SOL    HW127098   0.723   6.329   1.497
 8733SOL    HW227099   0.700   6.267   1.646
 8734SOL     OW27100   6.139   5.279   0.951
 8734SOL    HW127101   6.131   5.323   1.040
 8734SOL    HW227102   6.180   5.189   0.963
 8735SOL     OW27103   6.662   2.269   6.427
 8735SOL    HW127104   6.627   2.216   6.504
 8735SOL    HW227105   6.703   2.208   6.360
 8736SOL     OW27106   0.748   4.748   6.804
 8736SOL    HW127107   0.679   4.676   6.798
 8736SOL    HW227108   0.839   4.709   6.791
 8737SOL     OW27109   3.506   5.926   6.254
 8737SOL    HW127110   3.437   5.994   6.229
 8737SOL    HW227111   3.580   5.929   6.188
 8738SOL     OW27112   1.125   3.501   4.404
 8738SOL    HW127113   1.154   3.590   4.367
 8738SOL    HW227114   1.104   3.511   4.501
 8739SOL     OW27115   1.164   3.031   5.119
 8739SOL    HW127116   1.156   2.997   5.213
 8739SOL    HW227117   1.085   3.001   5.066
 8740SOL     OW27118   1.989   6.249   1.201
 8740SOL    HW127119   1.990   6.171   1.140
 8740SOL    HW227120   1.984   6.217   1.296
 8741SOL     OW27121   1.559   3.563   2.137
 8741SOL    HW127122   1.567   3.614   2.223
 8741SOL    HW227123   1.601   3.615   2.063
 8742SOL     OW27124   4.477   0.146   2.051
 8742SOL    HW127125   4.496   0.125   1.955
 8742SOL    HW227126   4.418   0.226   2.057
 8743SOL     OW27127   2.491   4.460   2.936
 8743SOL    HW127128   2.453   4.438   2.847
 8743SOL    HW227129   2.417   4.467   3.003
 8744SOL     OW27130   3.357   2.758   5.887
 8744SOL    HW127131   3.299   2.794   5.960
 8744SOL    HW227132   3.300   2.728   5.811
 8745SOL     OW27133   6.345   2.183   6.059
 8745SOL    HW127134   6.333   2.254   5.989
 8745SOL    HW227135   6.340   2.225   6.150
 8746SOL     OW27136   5.219   4.569   5.562
 8746SOL    HW127137   5.229   4.643   5.628
 8746SOL    HW227138   5.274   4.589   5.481
 8747SOL     OW27139   1.853   2.541   4.153
 8747SOL    HW127140   1.910   2.511   4.076
 8747SOL    HW227141   1.800   2.464   4.188
 8748SOL     OW27142   2.154   0.293   6.600
 8748SOL    HW127143   2.074   0.256   6.646
 8748SOL    HW227144   2.126   0.368   6.540
 8749SOL     OW27145   4.251   0.913   3.404
 8749SOL    HW127146   4.313   0.938   3.479
 8749SOL    HW227147   4.283   0.957   3.319
 8750SOL     OW27148   2.510   1.068   5.099
 8750SOL    HW127149   2.559   1.078   5.186
 8750SOL    HW227150   2.412   1.087   5.114
 8751SOL     OW27151   2.027   0.121   2.706
 8751SOL    HW127152   2.035   0.131   2.805
 8751SOL    HW227153   2.073   0.037   2.677
 8752SOL     OW27154   1.595   2.393   6.246
 8752SOL    HW127155   1.621   2.479   6.201
 8752SOL    HW227156   1.501   2.400   6.279
 8753SOL     OW27157   5.173   1.174   5.130
 8753SOL    HW127158   5.216   1.260   5.159
 8753SOL    HW227159   5.082   1.167   5.171
 8754SOL     OW27160   1.281   1.141   5.707
 8754SOL    HW127161   1.309   1.058   5.660
 8754SOL    HW227162   1.181   1.145   5.712
 8755SOL     OW27163   2.000   1.871   0.969
 8755SOL    HW127164   1.926   1.816   0.929
 8755SOL    HW227165   1.963   1.957   1.003
 8756SOL     OW27166   2.213   3.064   4.372
 8756SOL    HW127167   2.231   3.010   4.454
 8756SOL    HW227168   2.156   3.011   4.309
 8757SOL     OW27169   5.232   5.952   4.640
 8757SOL    HW127170   5.286   6.019   4.590
 8757SOL    HW227171   5.242   5.862   4.597
 8758SOL     OW27172   6.028   6.239   1.945
 8758SOL    HW127173   6.026   6.249   1.846
 8758SOL    HW227174   5.946   6.280   1.985
 8759SOL     OW27175   5.122   0.982   6.068
 8759SOL    HW127176   5.172   1.063   6.097
 8759SOL    HW227177   5.095   0.992   5.972
 8760SOL     OW27178   1.828   2.610   3.632
 8760SOL    HW127179   1.881   2.661   3.700
 8760SOL    HW227180   1.731   2.621   3.649
 8761SOL     OW27181   4.700   6.724   0.836
 8761SOL    HW127182   4.682   6.632   0.870
 8761SOL    HW227183   4.781   6.723   0.777
 8762SOL     OW27184   0.772   4.118   0.558
 8762SOL    HW127185   0.771   4.115   0.658
 8762SOL    HW227186   0.678   4.117   0.524
 8763SOL     OW27187   0.132   6.387   6.030
 8763SOL    HW127188   0.065   6.331   6.079
 8763SOL    HW227189   0.222   6.343   6.035
 8764SOL     OW27190   3.515   2.090   4.948
 8764SOL    HW127191   3.602   2.120   4.911
 8764SOL    HW227192   3.448   2.083   4.874
 8765SOL     OW27193   0.041   0.504   4.737
 8765SOL    HW127194   0.129   0.515   4.691
 8765SOL    HW227195   0.033   0.573   4.809
 8766SOL     OW27196   2.460   4.459   2.419
 8766SOL    HW127197   2.439   4.433   2.513
 8766SOL    HW227198   2.413   4.397   2.356
 8767SOL     OW27199   4.839   1.685   4.562
 8767SOL    HW127200   4.901   1.675   4.640
 8767SOL    HW227201   4.848   1.777   4.524
 8768SOL     OW27202   1.500   3.282   6.816
 8768SOL    HW127203   1.430   3.260   6.883
 8768SOL    HW227204   1.575   3.331   6.860
 8769SOL     OW27205   1.809   0.476   5.186
 8769SOL    HW127206   1.811   0.573   5.212
 8769SOL    HW227207   1.818   0.468   5.087
 8770SOL     OW27208   5.595   2.247   2.238
 8770SOL    HW127209   5.579   2.322   2.303
 8770SOL    HW227210   5.528   2.174   2.255
 8771SOL     OW27211   1.346   2.415   6.353
 8771SOL    HW127212   1.357   2.357   6.433
 8771SOL    HW227213   1.262   2.469   6.362
 8772SOL     OW27214   5.429   6.889   7.001
 8772SOL    HW127215   5.386   6.830   6.932
 8772SOL    HW227216   5.442   6.980   6.963
 8773SOL     OW27217   2.716   2.235   3.036
 8773SOL    HW127218   2.688   2.305   2.970
 8773SOL    HW227219   2.667   2.150   3.017
 8774SOL     OW27220   1.126   0.832   6.822
 8774SOL    HW127221   1.082   0.913   6.861
 8774SOL    HW227222   1.224   0.848   6.817
 8775SOL     OW27223   6.395   0.141   4.255
 8775SOL    HW127224   6.488   0.104   4.262
 8775SOL    HW227225   6.399   0.241   4.260
 8776SOL     OW27226   3.526   3.161   4.768
 8776SOL    HW127227   3.476   3.081   4.801
 8776SOL    HW227228   3.465   3.217   4.711
 8777SOL     OW27229   6.204   5.708   1.789
 8777SOL    HW127230   6.227   5.742   1.881
 8777SOL    HW227231   6.140   5.772   1.746
 8778SOL     OW27232   0.927   2.288   3.342
 8778SOL    HW127233   0.964   2.352   3.410
 8778SOL    HW227234   0.914   2.335   3.255
 8779SOL     OW27235   1.984   4.098   0.586
 8779SOL    HW127236   2.033   4.031   0.642
 8779SOL    HW227237   1.942   4.053   0.507
 8780SOL     OW27238   1.740   5.690   4.202
 8780SOL    HW127239   1.751   5.765   4.267
 8780SOL    HW227240   1.683   5.619   4.243
 8781SOL     OW27241   0.619   2.051   2.385
 8781SOL    HW127242   0.614   2.134   2.440
 8781SOL    HW227243   0.526   2.020   2.364
 8782SOL     OW27244   4.547   1.689   2.588
 8782SOL    HW127245   4.580   1.782   2.577
 8782SOL    HW227246   4.493   1.682   2.672
 8783SOL     OW27247   5.193   3.524   5.287
 8783SOL    HW127248   5.173   3.426   5.287
 8783SOL    HW227249   5.121   3.573   5.239
 8784SOL     OW27250   5.513   4.211   5.441
 8784SOL    HW127251   5.459   4.127   5.433
 8784SOL    HW227252   5.470   4.273   5.506
 8785SOL     OW27253   5.538   4.755   6.797
 8785SOL    HW127254   5.635   4.776   6.810
 8785SOL    HW227255   5.522   4.730   6.701
 8786SOL     OW27256   1.286   6.052   0.597
 8786SOL    HW127257   1.305   6.139   0.553
 8786SOL    HW227258   1.245   5.989   0.531
 8787SOL     OW27259   1.096   2.898   0.579
 8787SOL    HW127260   1.111   2.918   0.676
 8787SOL    HW227261   1.008   2.852   0.568
 8788SOL     OW27262   1.090   1.882   5.536
 8788SOL    HW127263   1.063   1.792   5.572
 8788SOL    HW227264   1.156   1.924   5.598
 8789SOL     OW27265   0.163   0.204   6.783
 8789SOL    HW127266   0.109   0.286   6.762
 8789SOL    HW227267   0.252   0.231   6.819
 8790SOL     OW27268   5.480   1.881   0.023
 8790SOL    HW127269   5.568   1.908   7.001
 8790SOL    HW227270   5.487   1.787   0.055
 8791SOL     OW27271   5.020   6.650   5.481
 8791SOL    HW127272   4.936   6.638   5.428
 8791SOL    HW227273   5.000   6.702   5.564
 8792SOL     OW27274   4.805   0.022   2.575
 8792SOL    HW127275   4.815   0.030   2.674
 8792SOL    HW227276   4.714   7.004   2.554
 8793SOL     OW27277   1.128   5.301   4.452
 8793SOL    HW127278   1.070   5.377   4.423
 8793SOL    HW227279   1.087   5.257   4.531
 8794SOL     OW27280   3.104   6.898   2.728
 8794SOL    HW127281   3.053   6.976   2.765
 8794SOL    HW227282   3.039   6.828   2.696
 8795SOL     OW27283   1.684   6.466   5.451
 8795SOL    HW127284   1.751   6.527   5.408
 8795SOL    HW227285   1.715   6.371   5.444
 8796SOL     OW27286   5.433   2.719   5.089
 8796SOL    HW127287   5.427   2.785   5.164
 8796SOL    HW227288   5.351   2.661   5.089
 8797SOL     OW27289   0.471   6.464   0.167
 8797SOL    HW127290   0.441   6.550   0.125
 8797SOL    HW227291   0.547   6.483   0.230
 8798SOL     OW27292   4.355   3.470   6.014
 8798SOL    HW127293   4.310   3.381   6.006
 8798SOL    HW227294   4.363   3.511   5.923
 8799SOL     OW27295   3.670   6.338   3.078
 8799SOL    HW127296   3.708   6.326   2.986
 8799SOL    HW227297   3.687   6.432   3.108
 8800SOL     OW27298   4.250   5.202   6.830
 8800SOL    HW127299   4.279   5.295   6.811
 8800SOL    HW227300   4.151   5.194   6.822
 8801SOL     OW27301   3.024   0.407   5.000
 8801SOL    HW127302   3.010   0.474   4.927
 8801SOL    HW227303   2.977   0.439   5.083
 8802SOL     OW27304   2.913   0.301   2.468
 8802SOL    HW127305   2.982   0.282   2.398
 8802SOL    HW227306   2.834   0.344   2.425
 8803SOL     OW27307   3.558   6.141   0.554
 8803SOL    HW127308   3.527   6.233   0.577
 8803SOL    HW227309   3.480   6.078   0.556
 8804SOL     OW27310   4.182   0.380   0.788
 8804SOL    HW127311   4.206   0.316   0.861
 8804SOL    HW227312   4.186   0.333   0.700
 8805SOL     OW27313   0.035   0.125   2.841
 8805SOL    HW127314   0.040   0.187   2.919
 8805SOL    HW227315   0.058   0.175   2.757
 8806SOL     OW27316   2.029   4.949   6.842
 8806SOL    HW127317   1.932   4.922   6.843
 8806SOL    HW227318   2.058   4.966   6.748
 8807SOL     OW27319   1.421   6.139   6.577
 8807SOL    HW127320   1.445   6.235   6.564
 8807SOL    HW227321   1.407   6.097   6.488
 8808SOL     OW27322   6.318   1.331   0.946
 8808SOL    HW127323   6.336   1.269   0.869
 8808SOL    HW227324   6.306   1.278   1.029
 8809SOL     OW27325   6.220   3.772   1.196
 8809SOL    HW127326   6.255   3.682   1.224
 8809SOL    HW227327   6.226   3.781   1.097
 8810SOL     OW27328   5.078   1.366   3.795
 8810SOL    HW127329   4.990   1.324   3.774
 8810SOL    HW227330   5.086   1.453   3.745
 8811SOL     OW27331   1.454   1.452   4.031
 8811SOL    HW127332   1.407   1.367   4.010
 8811SOL    HW227333   1.538   1.459   3.977
 8812SOL     OW27334   1.526   0.414   0.802
 8812SOL    HW127335   1.579   0.494   0.827
 8812SOL    HW227336   1.466   0.437   0.725
 8813SOL     OW27337   1.642   4.799   1.405
 8813SOL    HW127338   1.705   4.764   1.336
 8813SOL    HW227339   1.566   4.847   1.361
 8814SOL     OW27340   5.316   0.105   0.187
 8814SOL    HW127341   5.265   0.053   0.118
 8814SOL    HW227342   5.381   0.045   0.233
 8815SOL     OW27343   0.158   6.258   3.264
 8815SOL    HW127344   0.157   6.180   3.327
 8815SOL    HW227345   0.074   6.258   3.209
 8816SOL     OW27346   1.212   5.820   1.740
 8816SOL    HW127347   1.118   5.814   1.775
 8816SOL    HW227348   1.276   5.818   1.817
 8817SOL     OW27349   2.518   4.782   5.375
 8817SOL    HW127350   2.563   4.729   5.303
 8817SOL    HW227351   2.543   4.878   5.367
 8818SOL     OW27352   0.094   5.122   4.446
 8818SOL    HW127353   0.110   5.162   4.355
 8818SOL    HW227354   0.016   5.060   4.442
 8819SOL     OW27355   5.431   0.246   4.500
 8819SOL    HW127356   5.493   0.177   4.538
 8819SOL    HW227357   5.451   0.259   4.403
 8820SOL     OW27358   1.818   2.790   4.093
 8820SOL    HW127359   1.882   2.846   4.144
 8820SOL    HW227360   1.814   2.698   4.133
 8821SOL     OW27361   1.786   0.749   6.292
 8821SOL    HW127362   1.753   0.672   6.346
 8821SOL    HW227363   1.884   0.761   6.305
 8822SOL     OW27364   0.052   2.175   3.591
 8822SOL    HW127365   0.056   2.089   3.540
 8822SOL    HW227366   0.113   2.169   3.670
 8823SOL     OW27367   2.469   5.773   2.051
 8823SOL    HW127368   2.509   5.700   2.108
 8823SOL    HW227369   2.435   5.733   1.966
 8824SOL     OW27370   4.138   3.578   0.887
 8824SOL    HW127371   4.206   3.645   0.855
 8824SOL    HW227372   4.046   3.612   0.866
 8825SOL     OW27373   1.513   2.153   1.500
 8825SOL    HW127374   1.569   2.235   1.512
 8825SOL    HW227375   1.488   2.116   1.589
 8826SOL     OW27376   5.832   1.024   0.136
 8826SOL    HW127377   5.853   0.930   0.163
 8826SOL    HW227378   5.744   1.026   0.088
 8827SOL     OW27379   1.345   1.216   3.863
 8827SOL    HW127380   1.292   1.170   3.934
 8827SOL    HW227381   1.390   1.147   3.805
 8828SOL     OW27382   2.002   6.209   2.540
 8828SOL    HW127383   1.904   6.226   2.547
 8828SOL    HW227384   2.032   6.229   2.447
 8829SOL     OW27385   0.523   1.648   0.045
 8829SOL    HW127386   0.599   1.696   0.088
 8829SOL    HW227387   0.474   1.594   0.114
 8830SOL     OW27388   0.539   2.322   0.529
 8830SOL    HW127389   0.457   2.379   0.539
 8830SOL    HW227390   0.584   2.312   0.617
 8831SOL     OW27391   6.921   1.022   2.602
 8831SOL    HW127392   6.912   1.091   2.531
 8831SOL    HW227393   6.969   1.061   2.681
 8832SOL     OW27394   0.441   0.703   2.481
 8832SOL    HW127395   0.475   0.656   2.563
 8832SOL    HW227396   0.423   0.799   2.503
 8833SOL     OW27397   1.892   4.713   3.442
 8833SOL    HW127398   1.859   4.655   3.368
 8833SOL    HW227399   1.903   4.659   3.525
 8834SOL     OW27400   5.745   4.021   4.735
 8834SOL    HW127401   5.734   3.930   4.773
 8834SOL    HW227402   5.681   4.084   4.780
 8835SOL     OW27403   0.534   0.037   6.696
 8835SOL    HW127404   0.473   6.999   6.752
 8835SOL    HW227405   0.561   7.004   6.614
 8836SOL     OW27406   4.803   1.997   0.900
 8836SOL    HW127407   4.769   1.924   0.960
 8836SOL    HW227408   4.825   1.960   0.810
 8837SOL     OW27409   1.074   1.535   2.524
 8837SOL    HW127410   1.062   1.481   2.441
 8837SOL    HW227411   1.076   1.632   2.501
 8838SOL     OW27412   2.224   5.839   3.431
 8838SOL    HW127413   2.206   5.891   3.514
 8838SOL    HW227414   2.295   5.771   3.449
 8839SOL     OW27415   6.555   6.488   4.181
 8839SOL    HW127416   6.648   6.459   4.202
 8839SOL    HW227417   6.537   6.473   4.083
 8840SOL     OW27418   5.443   1.925   2.052
 8840SOL    HW127419   5.510   1.973   1.995
 8840SOL    HW227420   5.357   1.976   2.052
 8841SOL     OW27421   2.191   0.656   4.690
 8841SOL    HW127422   2.264   0.624   4.630
 8841SOL    HW227423   2.167   0.750   4.667
 8842SOL     OW27424   2.211   2.936   2.403
 8842SOL    HW127425   2.219   2.886   2.317
 8842SOL    HW227426   2.116   2.964   2.417
 8843SOL     OW27427   0.398   3.248   4.408
 8843SOL    HW127428   0.399   3.343   4.438
 8843SOL    HW227429   0.482   3.203   4.438
 8844SOL     OW27430   5.848   1.358   6.350
 8844SOL    HW127431   5.901   1.443   6.348
 8844SOL    HW227432   5.884   1.297   6.421
 8845SOL     OW27433   5.916   4.028   0.331
 8845SOL    HW127434   5.967   3.943   0.341
 8845SOL    HW227435   5.856   4.041   0.410
 8846SOL     OW27436   2.172   4.869   2.858
 8846SOL    HW127437   2.133   4.777   2.853
 8846SOL    HW227438   2.161   4.915   2.770
 8847SOL     OW27439   2.505   0.749   2.507
 8847SOL    HW127440   2.484   0.705   2.420
 8847SOL    HW227441   2.597   0.789   2.503
 8848SOL     OW27442   1.495   0.034   2.868
 8848SOL    HW127443   1.488   6.958   2.835
 8848SOL    HW227444   1.543   0.090   2.801
 8849SOL     OW27445   2.919   6.737   1.341
 8849SOL    HW127446   2.849   6.728   1.270
 8849SOL    HW227447   2.974   6.819   1.324
 8850SOL     OW27448   2.867   2.583   7.010
 8850SOL    HW127449   2.819   2.641   0.058
 8850SOL    HW227450   2.893   2.638   6.930
 8851SOL     OW27451   1.485   3.513   2.622
 8851SOL    HW127452   1.482   3.474   2.714
 8851SOL    HW227453   1.472   3.441   2.554
 8852SOL     OW27454   1.207   2.262   5.793
 8852SOL    HW127455   1.193   2.357   5.765
 8852SOL    HW227456   1.123   2.226   5.834
 8853SOL     OW27457   5.668   1.195   1.415
 8853SOL    HW127458   5.640   1.138   1.337
 8853SOL    HW227459   5.588   1.218   1.470
 8854SOL     OW27460   0.906   1.955   4.960
 8854SOL    HW127461   0.901   2.043   5.007
 8854SOL    HW227462   0.847   1.957   4.879
 8855SOL     OW27463   5.096   5.302   1.299
 8855SOL    HW127464   5.183   5.304   1.249
 8855SOL    HW227465   5.106   5.350   1.385
 8856SOL     OW27466   6.663   0.943   5.636
 8856SOL    HW127467   6.692   0.992   5.555
 8856SOL    HW227468   6.575   0.978   5.667
 8857SOL     OW27469   6.115   1.991   6.412
 8857SOL    HW127470   6.200   2.043   6.423
 8857SOL    HW227471   6.074   1.975   6.502
 8858SOL     OW27472   6.566   6.486   4.854
 8858SOL    HW127473   6.487   6.429   4.876
 8858SOL    HW227474   6.602   6.527   4.937
 8859SOL     OW27475   0.602   6.542   3.488
 8859SOL    HW127476   0.580   6.622   3.432
 8859SOL    HW227477   0.659   6.569   3.565
 8860SOL     OW27478   0.116   4.092   2.776
 8860SOL    HW127479   0.108   3.996   2.801
 8860SOL    HW227480   0.085   4.104   2.681
 8861SOL     OW27481   3.932   2.936   0.937
 8861SOL    HW127482   3.989   2.972   1.010
 8861SOL    HW227483   3.930   3.000   0.861
 8862SOL     OW27484   4.731   4.746   4.866
 8862SOL    HW127485   4.757   4.670   4.807
 8862SOL    HW227486   4.798   4.756   4.939
 8863SOL     OW27487   2.149   3.831   3.252
 8863SOL    HW127488   2.177   3.737   3.230
 8863SOL    HW227489   2.195   3.861   3.335
 8864SOL     OW27490   6.455   2.234   5.111
 8864SOL    HW127491   6.409   2.145   5.105
 8864SOL    HW227492   6.553   2.222   5.094
 8865SOL     OW27493   2.960   1.390   0.524
 8865SOL    HW127494   3.029   1.341   0.576
 8865SOL    HW227495   2.871   1.347   0.537
 8866SOL     OW27496   5.991   6.547   2.048
 8866SOL    HW127497   5.921   6.483   2.016
 8866SOL    HW227498   5.948   6.625   2.093
 8867SOL     OW27499   6.595   3.293   2.368
 8867SOL    HW127500   6.685   3.334   2.385
 8867SOL    HW227501   6.524   3.350   2.409
 8868SOL     OW27502   0.098   3.285   3.500
 8868SOL    HW127503   0.043   3.362   3.533
 8868SOL    HW227504   0.106   3.216   3.572
 8869SOL     OW27505   4.056   0.012   3.167
 8869SOL    HW127506   4.096   7.003   3.255
 8869SOL    HW227507   4.016   0.104   3.176
 8870SOL     OW27508   1.665   0.493   2.915
 8870SOL    HW127509   1.594   0.425   2.899
 8870SOL    HW227510   1.628   0.567   2.970
 8871SOL     OW27511   6.652   0.072   2.258
 8871SOL    HW127512   6.609   0.079   2.168
 8871SOL    HW227513   6.585   0.042   2.325
 8872SOL     OW27514   6.720   3.936   3.677
 8872SOL    HW127515   6.803   3.883   3.698
 8872SOL    HW227516   6.747   4.028   3.646
 8873SOL     OW27517   2.318   1.986   2.635
 8873SOL    HW127518   2.366   1.996   2.548
 8873SOL    HW227519   2.376   1.938   2.700
 8874SOL     OW27520   2.667   6.584   0.728
 8874SOL    HW127521   2.686   6.487   0.746
 8874SOL    HW227522   2.728   6.640   0.784
 8875SOL     OW27523   6.579   3.197   4.079
 8875SOL    HW127524   6.498   3.251   4.054
 8875SOL    HW227525   6.660   3.255   4.077
 8876SOL     OW27526   4.501   0.083   6.659
 8876SOL    HW127527   4.466   0.081   6.565
 8876SOL    HW227528   4.425   0.075   6.723
 8877SOL     OW27529   0.776   4.735   1.063
 8877SOL    HW127530   0.854   4.686   1.024
 8877SOL    HW227531   0.808   4.814   1.114
 8878SOL     OW27532   4.865   4.239   1.048
 8878SOL    HW127533   4.952   4.268   1.087
 8878SOL    HW227534   4.862   4.263   0.951
 8879SOL     OW27535   6.733   4.357   2.878
 8879SOL    HW127536   6.644   4.402   2.873
 8879SOL    HW227537   6.723   4.262   2.849
 8880SOL     OW27538   4.172   1.619   3.116
 8880SOL    HW127539   4.114   1.667   3.050
 8880SOL    HW227540   4.134   1.529   3.135
 8881SOL     OW27541   3.914   4.848   4.075
 8881SOL    HW127542   3.975   4.919   4.112
 8881SOL    HW227543   3.937   4.832   3.979
 8882SOL     OW27544   4.245   0.834   0.339
 8882SOL    HW127545   4.254   0.798   0.432
 8882SOL    HW227546   4.149   0.830   0.311
 8883SOL     OW27547   0.009   6.607   4.322
 8883SOL    HW127548   0.055   6.692   4.347
 8883SOL    HW227549   0.078   6.536   4.304
 8884SOL     OW27550   4.851   3.465   5.615
 8884SOL    HW127551   4.792   3.503   5.543
 8884SOL    HW227552   4.836   3.367   5.621
 8885SOL     OW27553   5.654   5.978   0.801
 8885SOL    HW127554   5.747   6.011   0.816
 8885SOL    HW227555   5.594   6.013   0.873
 8886SOL     OW27556   3.711   5.960   6.614
 8886SOL    HW127557   3.683   6.032   6.550
 8886SOL    HW227558   3.775   5.999   6.681
 8887SOL     OW27559   4.891   0.301   1.385
 8887SOL    HW127560   4.931   0.329   1.473
 8887SOL    HW227561   4.822   0.368   1.357
 8888SOL     OW27562   3.139   2.143   2.675
 8888SOL    HW127563   3.195   2.061   2.687
 8888SOL    HW227564   3.143   2.173   2.579
 8889SOL     OW27565   1.328   5.386   6.721
 8889SOL    HW127566   1.340   5.411   6.624
 8889SOL    HW227567   1.265   5.451   6.764
 8890SOL     OW27568   0.651   6.540   0.365
 8890SOL    HW127569   0.718   6.474   0.329
 8890SOL    HW227570   0.699   6.608   0.420
 8891SOL     OW27571   6.471   4.140   5.709
 8891SOL    HW127572   6.502   4.234   5.695
 8891SOL    HW227573   6.456   4.097   5.621
 8892SOL     OW27574   2.672   5.578   4.621
 8892SOL    HW127575   2.745   5.514   4.646
 8892SOL    HW227576   2.589   5.527   4.601
 8893SOL     OW27577   1.122   5.318   5.350
 8893SOL    HW127578   1.210   5.292   5.390
 8893SOL    HW227579   1.116   5.283   5.257
 8894SOL     OW27580   4.473   1.921   1.181
 8894SOL    HW127581   4.452   1.967   1.267
 8894SOL    HW227582   4.392   1.872   1.148
 8895SOL     OW27583   6.589   3.750   0.802
 8895SOL    HW127584   6.640   3.711   0.878
 8895SOL    HW227585   6.526   3.682   0.765
 8896SOL     OW27586   0.513   2.215   3.974
 8896SOL    HW127587   0.467   2.169   4.050
 8896SOL    HW227588   0.503   2.161   3.891
 8897SOL     OW27589   1.913   5.000   4.068
 8897SOL    HW127590   1.955   5.004   4.159
 8897SOL    HW227591   1.858   4.917   4.061
 8898SOL     OW27592   4.752   4.042   2.467
 8898SOL    HW127593   4.759   3.952   2.425
 8898SOL    HW227594   4.745   4.033   2.566
 8899SOL     OW27595   1.551   3.837   3.574
 8899SOL    HW127596   1.614   3.910   3.600
 8899SOL    HW227597   1.465   3.877   3.542
 8900SOL     OW27598   4.736   2.242   4.221
 8900SOL    HW127599   4.754   2.339   4.204
 8900SOL    HW227600   4.794   2.186   4.162
 8901SOL     OW27601   1.236   4.818   4.217
 8901SOL    HW127602   1.244   4.728   4.174
 8901SOL    HW227603   1.164   4.816   4.287
 8902SOL     OW27604   0.590   4.889   0.478
 8902SOL    HW127605   0.690   4.894   0.484
 8902SOL    HW227606   0.563   4.797   0.450
 8903SOL     OW27607   0.963   0.287   5.334
 8903SOL    HW127608   0.970   0.386   5.339
 8903SOL    HW227609   0.883   0.257   5.386
 8904SOL     OW27610   0.415   1.076   3.503
 8904SOL    HW127611   0.397   1.154   3.563
 8904SOL    HW227612   0.359   0.998   3.533
 8905SOL     OW27613   1.163   3.583   2.670
 8905SOL    HW127614   1.200   3.661   2.620
 8905SOL    HW227615   1.181   3.594   2.768
 8906SOL     OW27616   5.741   0.108   6.931
 8906SOL    HW127617   5.693   0.062   7.005
 8906SOL    HW227618   5.760   0.203   6.958
 8907SOL     OW27619   2.970   3.487   4.916
 8907SOL    HW127620   3.070   3.488   4.906
 8907SOL    HW227621   2.931   3.425   4.848
 8908SOL     OW27622   1.650   4.192   6.744
 8908SOL    HW127623   1.604   4.107   6.718
 8908SOL    HW227624   1.592   4.243   6.808
 8909SOL     OW27625   1.256   6.305   1.430
 8909SOL    HW127626   1.296   6.387   1.471
 8909SOL    HW227627   1.220   6.246   1.503
 8910SOL     OW27628   1.793   0.326   3.493
 8910SOL    HW127629   1.813   0.423   3.488
 8910SOL    HW227630   1.878   0.274   3.479
 8911SOL     OW27631   4.279   2.337   4.891
 8911SOL    HW127632   4.218   2.386   4.952
 8911SOL    HW227633   4.225   2.279   4.830
 8912SOL     OW27634   3.719   3.742   3.979
 8912SOL    HW127635   3.705   3.685   3.897
 8912SOL    HW227636   3.652   3.717   4.049
 8913SOL     OW27637   5.372   6.450   0.067
 8913SOL    HW127638   5.349   6.356   0.044
 8913SOL    HW227639   5.384   6.459   0.166
 8914SOL     OW27640   4.943   5.070   6.177
 8914SOL    HW127641   4.927   4.984   6.130
 8914SOL    HW227642   4.884   5.141   6.139
 8915SOL     OW27643   1.429   1.069   3.096
 8915SOL    HW127644   1.440   1.107   3.188
 8915SOL    HW227645   1.405   1.142   3.032
 8916SOL     OW27646   5.118   1.144   0.966
 8916SOL    HW127647   5.210   1.130   0.929
 8916SOL    HW227648   5.107   1.092   1.050
 8917SOL     OW27649   5.852   1.737   0.355
 8917SOL    HW127650   5.882   1.807   0.291
 8917SOL    HW227651   5.762   1.702   0.327
 8918SOL     OW27652   0.828   3.702   2.495
 8918SOL    HW127653   0.811   3.662   2.405
 8918SOL    HW227654   0.896   3.647   2.544
 8919SOL     OW27655   6.235   3.346   1.738
 8919SOL    HW127656   6.273   3.322   1.827
 8919SOL    HW227657   6.165   3.280   1.712
 8920SOL     OW27658   6.566   0.987   6.851
 8920SOL    HW127659   6.545   1.073   6.898
 8920SOL    HW227660   6.561   1.002   6.752
 8921SOL     OW27661   2.065   3.309   2.396
 8921SOL    HW127662   2.106   3.384   2.344
 8921SOL    HW227663   1.992   3.344   2.454
 8922SOL     OW27664   4.275   5.700   4.157
 8922SOL    HW127665   4.265   5.611   4.113
 8922SOL    HW227666   4.238   5.696   4.250
 8923SOL     OW27667   2.299   1.638   4.558
 8923SOL    HW127668   2.371   1.599   4.615
 8923SOL    HW227669   2.222   1.574   4.554
 8924SOL     OW27670   6.664   5.137   5.389
 8924SOL    HW127671   6.700   5.066   5.449
 8924SOL    HW227672   6.602   5.196   5.441
 8925SOL     OW27673   0.749   6.211   2.600
 8925SOL    HW127674   0.799   6.236   2.516
 8925SOL    HW227675   0.807   6.229   2.679
 8926SOL     OW27676   5.843   0.996   6.516
 8926SOL    HW127677   5.910   1.070   6.525
 8926SOL    HW227678   5.751   1.033   6.529
 8927SOL     OW27679   1.527   1.039   5.865
 8927SOL    HW127680   1.469   1.007   5.791
 8927SOL    HW227681   1.479   1.026   5.952
 8928SOL     OW27682   0.489   6.788   5.237
 8928SOL    HW127683   0.550   6.809   5.313
 8928SOL    HW227684   0.412   6.852   5.238
 8929SOL     OW27685   0.497   1.656   3.876
 8929SOL    HW127686   0.502   1.576   3.936
 8929SOL    HW227687   0.440   1.726   3.919
 8930SOL     OW27688   2.108   4.856   3.358
 8930SOL    HW127689   2.160   4.884   3.438
 8930SOL    HW227690   2.030   4.800   3.386
 8931SOL     OW27691   4.305   2.811   0.392
 8931SOL    HW127692   4.343   2.816   0.300
 8931SOL    HW227693   4.257   2.723   0.404
 8932SOL     OW27694   0.885   3.631   3.549
 8932SOL    HW127695   0.850   3.577   3.626
 8932SOL    HW227696   0.973   3.595   3.520
 8933SOL     OW27697   3.717   2.202   5.248
 8933SOL    HW127698   3.625   2.210   5.211
 8933SOL    HW227699   3.784   2.217   5.175
 8934SOL     OW27700   2.301   5.764   2.920
 8934SOL    HW127701   2.334   5.760   3.014
 8934SOL    HW227702   2.345   5.693   2.865
 8935SOL     OW27703   6.985   4.486   0.865
 8935SOL    HW127704   0.060   4.493   0.829
 8935SOL    HW227705   6.921   4.469   0.790
 8936SOL     OW27706   3.420   2.847   0.837
 8936SOL    HW127707   3.353   2.817   0.769
 8936SOL    HW227708   3.374   2.863   0.924
 8937SOL     OW27709   0.444   6.286   6.396
 8937SOL    HW127710   0.357   6.310   6.439
 8937SOL    HW227711   0.460   6.188   6.407
 8938SOL     OW27712   5.301   6.342   1.692
 8938SOL    HW127713   5.244   6.314   1.770
 8938SOL    HW227714   5.369   6.271   1.675
 8939SOL     OW27715   4.153   1.952   4.829
 8939SOL    HW127716   4.212   1.915   4.901
 8939SOL    HW227717   4.084   2.012   4.869
 8940SOL     OW27718   5.777   0.702   2.606
 8940SOL    HW127719   5.791   0.607   2.581
 8940SOL    HW227720   5.680   0.726   2.593
 8941SOL     OW27721   4.907   1.832   5.886
 8941SOL    HW127722   4.916   1.732   5.886
 8941SOL    HW227723   4.812   1.857   5.868
 8942SOL     OW27724   0.958   3.070   5.377
 8942SOL    HW127725   0.991   2.985   5.334
 8942SOL    HW227726   1.004   3.082   5.465
 8943SOL     OW27727   5.263   3.592   1.112
 8943SOL    HW127728   5.295   3.632   1.197
 8943SOL    HW227729   5.186   3.645   1.077
 8944SOL     OW27730   4.146   5.586   1.019
 8944SOL    HW127731   4.214   5.593   1.093
 8944SOL    HW227732   4.105   5.495   1.021
 8945SOL     OW27733   2.304   1.043   4.456
 8945SOL    HW127734   2.391   1.000   4.431
 8945SOL    HW227735   2.261   1.082   4.374
 8946SOL     OW27736   3.871   1.439   4.488
 8946SOL    HW127737   3.781   1.396   4.493
 8946SOL    HW227738   3.942   1.372   4.509
 8947SOL     OW27739   3.916   3.946   5.040
 8947SOL    HW127740   3.994   3.967   5.099
 8947SOL    HW227741   3.921   3.851   5.010
 8948SOL     OW27742   6.375   5.174   2.657
 8948SOL    HW127743   6.469   5.143   2.649
 8948SOL    HW227744   6.369   5.272   2.638
 8949SOL     OW27745   2.269   5.704   0.125
 8949SOL    HW127746   2.202   5.751   0.182
 8949SOL    HW227747   2.270   5.745   0.033
 8950SOL     OW27748   4.675   2.544   4.607
 8950SOL    HW127749   4.577   2.541   4.625
 8950SOL    HW227750   4.713   2.452   4.617
 8951SOL     OW27751   2.612   2.202   6.010
 8951SOL    HW127752   2.521   2.189   6.048
 8951SOL    HW227753   2.658   2.277   6.057
 8952SOL     OW27754   6.671   0.695   3.058
 8952SOL    HW127755   6.746   0.722   2.997
 8952SOL    HW227756   6.645   0.600   3.038
 8953SOL     OW27757   1.936   4.183   6.840
 8953SOL    HW127758   1.845   4.173   6.798
 8953SOL    HW227759   1.926   4.189   6.939
 8954SOL     OW27760   1.692   5.968   5.957
 8954SOL    HW127761   1.693   6.039   5.887
 8954SOL    HW227762   1.608   5.914   5.949
 8955SOL     OW27763   6.103   3.646   3.405
 8955SOL    HW127764   6.099   3.743   3.431
 8955SOL    HW227765   6.050   3.592   3.470
 8956SOL     OW27766   0.781   0.842   5.700
 8956SOL    HW127767   0.720   0.837   5.620
 8956SOL    HW227768   0.868   0.882   5.673
 8957SOL     OW27769   2.752   5.284   2.095
 8957SOL    HW127770   2.740   5.299   2.193
 8957SOL    HW227771   2.836   5.329   2.065
 8958SOL     OW27772   2.490   0.495   3.904
 8958SOL    HW127773   2.566   0.530   3.850
 8958SOL    HW227774   2.525   0.436   3.977
 8959SOL     OW27775   2.776   4.634   1.625
 8959SOL    HW127776   2.827   4.578   1.690
 8959SOL    HW227777   2.834   4.708   1.591
 8960SOL     OW27778   3.962   6.081   1.412
 8960SOL    HW127779   4.017   6.050   1.334
 8960SOL    HW227780   3.867   6.050   1.400
 8961SOL     OW27781   1.498   2.301   3.798
 8961SOL    HW127782   1.421   2.276   3.857
 8961SOL    HW227783   1.546   2.380   3.837
 8962SOL     OW27784   5.159   0.283   3.507
 8962SOL    HW127785   5.166   0.295   3.606
 8962SOL    HW227786   5.063   0.287   3.479
 8963SOL     OW27787   0.184   0.628   3.710
 8963SOL    HW127788   0.224   0.603   3.798
 8963SOL    HW227789   0.089   0.657   3.724
 8964SOL     OW27790   6.270   4.659   2.934
 8964SOL    HW127791   6.271   4.758   2.919
 8964SOL    HW227792   6.215   4.639   3.015
 8965SOL     OW27793   1.205   5.523   1.156
 8965SOL    HW127794   1.128   5.571   1.198
 8965SOL    HW227795   1.183   5.426   1.148
 8966SOL     OW27796   2.922   3.141   5.373
 8966SOL    HW127797   2.873   3.226   5.353
 8966SOL    HW227798   3.021   3.160   5.377
 8967SOL     OW27799   4.176   0.238   0.556
 8967SOL    HW127800   4.100   0.176   0.541
 8967SOL    HW227801   4.235   0.240   0.475
 8968SOL     OW27802   5.467   5.517   2.742
 8968SOL    HW127803   5.468   5.531   2.841
 8968SOL    HW227804   5.560   5.525   2.707
 8969SOL     OW27805   6.132   1.373   4.342
 8969SOL    HW127806   6.062   1.312   4.306
 8969SOL    HW227807   6.195   1.399   4.268
 8970SOL     OW27808   3.736   2.084   1.544
 8970SOL    HW127809   3.689   2.170   1.526
 8970SOL    HW227810   3.816   2.101   1.601
 8971SOL     OW27811   4.288   5.489   2.749
 8971SOL    HW127812   4.207   5.493   2.807
 8971SOL    HW227813   4.308   5.580   2.713
 8972SOL     OW27814   5.502   0.766   4.840
 8972SOL    HW127815   5.582   0.809   4.798
 8972SOL    HW227816   5.419   0.802   4.798
 8973SOL     OW27817   1.354   4.697   0.284
 8973SOL    HW127818   1.391   4.609   0.253
 8973SOL    HW227819   1.394   4.720   0.373
 8974SOL     OW27820   0.520   2.931   4.231
 8974SOL    HW127821   0.520   2.869   4.309
 8974SOL    HW227822   0.612   2.935   4.192
 8975SOL     OW27823   2.557   0.110   0.197
 8975SOL    HW127824   2.604   0.026   0.224
 8975SOL    HW227825   2.464   0.089   0.167
 8976SOL     OW27826   0.309   5.413   4.726
 8976SOL    HW127827   0.355   5.500   4.743
 8976SOL    HW227828   0.248   5.422   4.648
 8977SOL     OW27829   5.903   1.313   5.946
 8977SOL    HW127830   5.970   1.257   5.994
 8977SOL    HW227831   5.950   1.391   5.903
 8978SOL     OW27832   5.455   5.955   0.572
 8978SOL    HW127833   5.493   5.987   0.659
 8978SOL    HW227834   5.518   5.975   0.498
 8979SOL     OW27835   1.675   4.909   4.962
 8979SOL    HW127836   1.635   4.975   4.899
 8979SOL    HW227837   1.683   4.950   5.053
 8980SOL     OW27838   4.002   3.164   4.079
 8980SOL    HW127839   3.974   3.092   4.143
 8980SOL    HW227840   4.049   3.237   4.128
 8981SOL     OW27841   3.391   1.128   5.260
 8981SOL    HW127842   3.426   1.202   5.317
 8981SOL    HW227843   3.296   1.110   5.283
 8982SOL     OW27844   3.822   4.421   0.650
 8982SOL    HW127845   3.795   4.509   0.687
 8982SOL    HW227846   3.848   4.360   0.726
 8983SOL     OW27847   4.785   4.908   0.395
 8983SOL    HW127848   4.688   4.923   0.376
 8983SOL    HW227849   4.839   4.942   0.318
 8984SOL     OW27850   1.902   6.000   3.241
 8984SOL    HW127851   1.997   6.029   3.242
 8984SOL    HW227852   1.881   5.955   3.154
 8985SOL     OW27853   3.748   3.241   5.966
 8985SOL    HW127854   3.752   3.307   6.041
 8985SOL    HW227855   3.653   3.229   5.937
 8986SOL     OW27856   3.569   5.950   2.824
 8986SOL    HW127857   3.642   5.927   2.759
 8986SOL    HW227858   3.520   6.031   2.794
 8987SOL     OW27859   5.463   6.588   1.884
 8987SOL    HW127860   5.464   6.506   1.828
 8987SOL    HW227861   5.382   6.588   1.942
 8988SOL     OW27862   0.394   5.371   5.221
 8988SOL    HW127863   0.401   5.284   5.172
 8988SOL    HW227864   0.482   5.392   5.263
 8989SOL     OW27865   3.732   3.107   6.908
 8989SOL    HW127866   3.801   3.085   6.839
 8989SOL    HW227867   3.656   3.157   6.865
 8990SOL     OW27868   0.483   6.409   4.108
 8990SOL    HW127869   0.411   6.355   4.063
 8990SOL    HW227870   0.446   6.451   4.191
 8991SOL     OW27871   0.970   1.999   5.336
 8991SOL    HW127872   0.875   1.976   5.357
 8991SOL    HW227873   1.029   1.962   5.408
 8992SOL     OW27874   6.168   2.556   0.079
 8992SOL    HW127875   6.228   2.587   0.006
 8992SOL    HW227876   6.208   2.581   0.167
 8993SOL     OW27877   4.805   2.247   0.166
 8993SOL    HW127878   4.902   2.244   0.144
 8993SOL    HW227879   4.752   2.207   0.091
 8994SOL     OW27880   2.115   5.675   4.095
 8994SOL    HW127881   2.178   5.752   4.084
 8994SOL    HW227882   2.075   5.652   4.006
 8995SOL     OW27883   6.979   1.473   0.551
 8995SOL    HW127884   6.919   1.551   0.533
 8995SOL    HW227885   0.055   1.498   0.527
 8996SOL     OW27886   4.387   5.250   6.296
 8996SOL    HW127887   4.330   5.331   6.311
 8996SOL    HW227888   4.483   5.277   6.292
 8997SOL     OW27889   6.389   0.785   4.699
 8997SOL    HW127890   6.314   0.794   4.765
 8997SOL    HW227891   6.451   0.713   4.729
 8998SOL     OW27892   5.937   3.020   4.263
 8998SOL    HW127893   5.856   2.994   4.211
 8998SOL    HW227894   5.912   3.088   4.332
 8999SOL     OW27895   3.822   0.279   6.242
 8999SOL    HW127896   3.884   0.354   6.220
 8999SOL    HW227897   3.850   0.197   6.191
 9000SOL     OW27898   1.408   4.114   1.449
 9000SOL    HW127899   1.315   4.099   1.483
 9000SOL    HW227900   1.454   4.183   1.504
 9001SOL     OW27901   0.997   5.333   2.911
 9001SOL    HW127902   0.992   5.428   2.941
 9001SOL    HW227903   1.038   5.329   2.820
 9002SOL     OW27904   1.168   4.370   0.186
 9002SOL    HW127905   1.219   4.294   0.225
 9002SOL    HW227906   1.091   4.392   0.246
 9003SOL     OW27907   5.767   0.385   1.221
 9003SOL    HW127908   5.858   0.411   1.190
 9003SOL    HW227909   5.733   0.454   1.285
 9004SOL     OW27910   3.810   4.477   0.085
 9004SOL    HW127911   3.795   4.572   0.056
 9004SOL    HW227912   3.858   4.476   0.172
 9005SOL     OW27913   4.887   1.206   4.973
 9005SOL    HW127914   4.946   1.132   4.942
 9005SOL    HW227915   4.923   1.293   4.938
 9006SOL     OW27916   3.339   5.983   0.571
 9006SOL    HW127917   3.288   6.007   0.654
 9006SOL    HW227918   3.396   5.903   0.589
 9007SOL     OW27919   2.775   0.833   2.547
 9007SOL    HW127920   2.761   0.909   2.611
 9007SOL    HW227921   2.862   0.788   2.567
 9008SOL     OW27922   0.347   5.631   2.948
 9008SOL    HW127923   0.275   5.665   2.887
 9008SOL    HW227924   0.402   5.708   2.981
 9009SOL     OW27925   3.747   5.827   1.096
 9009SOL    HW127926   3.839   5.828   1.056
 9009SOL    HW227927   3.680   5.811   1.024
 9010SOL     OW27928   1.843   6.065   4.178
 9010SOL    HW127929   1.801   6.140   4.229
 9010SOL    HW227930   1.833   5.980   4.229
 9011SOL     OW27931   2.787   1.905   2.158
 9011SOL    HW127932   2.851   1.979   2.141
 9011SOL    HW227933   2.723   1.931   2.231
 9012SOL     OW27934   1.767   6.366   6.502
 9012SOL    HW127935   1.725   6.364   6.411
 9012SOL    HW227936   1.695   6.359   6.572
 9013SOL     OW27937   1.863   6.571   4.077
 9013SOL    HW127938   1.962   6.585   4.078
 9013SOL    HW227939   1.841   6.485   4.124
 9014SOL     OW27940   5.219   2.898   3.290
 9014SOL    HW127941   5.304   2.872   3.244
 9014SOL    HW227942   5.206   2.840   3.371
 9015SOL     OW27943   5.379   1.540   6.866
 9015SOL    HW127944   5.392   1.571   6.772
 9015SOL    HW227945   5.356   1.442   6.866
 9016SOL     OW27946   5.791   5.781   6.533
 9016SOL    HW127947   5.748   5.726   6.461
 9016SOL    HW227948   5.862   5.728   6.578
 9017SOL     OW27949   3.993   0.383   4.472
 9017SOL    HW127950   3.948   0.296   4.491
 9017SOL    HW227951   4.092   0.369   4.468
 9018SOL     OW27952   4.204   4.014   6.449
 9018SOL    HW127953   4.237   3.980   6.361
 9018SOL    HW227954   4.106   4.035   6.442
 9019SOL     OW27955   0.624   3.719   3.845
 9019SOL    HW127956   0.580   3.644   3.795
 9019SOL    HW227957   0.582   3.727   3.935
 9020SOL     OW27958   5.537   6.191   2.333
 9020SOL    HW127959   5.456   6.244   2.359
 9020SOL    HW227960   5.566   6.136   2.411
 9021SOL     OW27961   0.745   0.821   4.519
 9021SOL    HW127962   0.693   0.766   4.584
 9021SOL    HW227963   0.776   0.905   4.563
 9022SOL     OW27964   4.134   3.008   6.305
 9022SOL    HW127965   4.198   3.082   6.283
 9022SOL    HW227966   4.177   2.920   6.283
 9023SOL     OW27967   6.044   3.775   0.845
 9023SOL    HW127968   6.135   3.788   0.885
 9023SOL    HW227969   6.043   3.692   0.789
 9024SOL     OW27970   1.489   5.433   6.120
 9024SOL    HW127971   1.542   5.404   6.040
 9024SOL    HW227972   1.502   5.531   6.135
 9025SOL     OW27973   1.068   5.666   1.338
 9025SOL    HW127974   0.988   5.722   1.316
 9025SOL    HW227975   1.049   5.614   1.422
 9026SOL     OW27976   4.700   1.630   0.238
 9026SOL    HW127977   4.774   1.609   0.303
 9026SOL    HW227978   4.713   1.576   0.155
 9027SOL     OW27979   0.716   4.128   2.938
 9027SOL    HW127980   0.755   4.072   3.012
 9027SOL    HW227981   0.699   4.071   2.858
 9028SOL     OW27982   3.111   4.422   5.673
 9028SOL    HW127983   3.101   4.417   5.573
 9028SOL    HW227984   3.144   4.334   5.708
 9029SOL     OW27985   4.183   6.436   4.677
 9029SOL    HW127986   4.149   6.501   4.609
 9029SOL    HW227987   4.110   6.413   4.741
 9030SOL     OW27988   2.496   1.678   2.916
 9030SOL    HW127989   2.407   1.707   2.881
 9030SOL    HW227990   2.498   1.691   3.015
 9031SOL     OW27991   4.287   6.824   4.573
 9031SOL    HW127992   4.336   6.834   4.487
 9031SOL    HW227993   4.330   6.752   4.628
 9032SOL     OW27994   4.976   3.907   1.834
 9032SOL    HW127995   4.947   3.842   1.763
 9032SOL    HW227996   4.937   3.880   1.922
 9033SOL     OW27997   0.837   6.606   3.048
 9033SOL    HW127998   0.887   6.597   2.963
 9033SOL    HW227999   0.794   6.518   3.070
 9034SOL     OW28000   4.226   6.181   3.942
 9034SOL    HW128001   4.226   6.100   4.000
 9034SOL    HW228002   4.315   6.226   3.948
 9035SOL     OW28003   1.835   4.848   6.553
 9035SOL    HW128004   1.738   4.869   6.539
 9035SOL    HW228005   1.891   4.912   6.499
 9036SOL     OW28006   1.269   4.162   5.409
 9036SOL    HW128007   1.365   4.134   5.422
 9036SOL    HW228008   1.209   4.083   5.423
 9037SOL     OW28009   1.270   2.069   2.866
 9037SOL    HW128010   1.274   1.976   2.904
 9037SOL    HW228011   1.194   2.075   2.801
 9038SOL     OW28012   4.337   3.414   5.321
 9038SOL    HW128013   4.263   3.420   5.255
 9038SOL    HW228014   4.329   3.329   5.373
 9039SOL     OW28015   3.850   5.762   6.498
 9039SOL    HW128016   3.807   5.843   6.537
 9039SOL    HW228017   3.792   5.726   6.424
 9040SOL     OW28018   2.615   1.495   1.209
 9040SOL    HW128019   2.515   1.501   1.198
 9040SOL    HW228020   2.659   1.566   1.155
 9041SOL     OW28021   6.894   2.394   1.605
 9041SOL    HW128022   6.835   2.376   1.526
 9041SOL    HW228023   6.846   2.369   1.689
 9042SOL     OW28024   3.592   6.109   0.018
 9042SOL    HW128025   3.520   6.062   6.985
 9042SOL    HW228026   3.668   6.046   0.034
 9043SOL     OW28027   3.091   2.048   0.375
 9043SOL    HW128028   3.046   1.994   0.304
 9043SOL    HW228029   3.122   1.988   0.449
 9044SOL     OW28030   1.115   1.054   0.207
 9044SOL    HW128031   1.138   1.082   0.113
 9044SOL    HW228032   1.199   1.040   0.259
 9045SOL     OW28033   3.765   1.578   3.521
 9045SOL    HW128034   3.796   1.503   3.462
 9045SOL    HW228035   3.759   1.546   3.615
 9046SOL     OW28036   3.451   3.814   2.384
 9046SOL    HW128037   3.461   3.901   2.335
 9046SOL    HW228038   3.417   3.832   2.477
 9047SOL     OW28039   1.203   3.531   5.701
 9047SOL    HW128040   1.227   3.459   5.766
 9047SOL    HW228041   1.287   3.574   5.666
 9048SOL     OW28042   6.495   1.935   6.109
 9048SOL    HW128043   6.574   1.925   6.048
 9048SOL    HW228044   6.443   2.016   6.083
 9049SOL     OW28045   3.112   0.119   6.394
 9049SOL    HW128046   3.014   0.106   6.412
 9049SOL    HW228047   3.154   0.163   6.474
 9050SOL     OW28048   0.675   5.127   0.232
 9050SOL    HW128049   0.758   5.164   0.274
 9050SOL    HW228050   0.687   5.028   0.218
 9051SOL     OW28051   2.456   0.886   1.383
 9051SOL    HW128052   2.436   0.974   1.426
 9051SOL    HW228053   2.386   0.866   1.314
 9052SOL     OW28054   1.212   2.242   5.473
 9052SOL    HW128055   1.227   2.163   5.533
 9052SOL    HW228056   1.295   2.299   5.472
 9053SOL     OW28057   1.697   0.864   0.066
 9053SOL    HW128058   1.687   0.789   0.131
 9053SOL    HW228059   1.730   0.828   6.997
 9054SOL     OW28060   2.367   6.071   2.547
 9054SOL    HW128061   2.380   6.042   2.641
 9054SOL    HW228062   2.345   6.169   2.545
 9055SOL     OW28063   0.091   3.946   4.676
 9055SOL    HW128064   0.014   3.885   4.693
 9055SOL    HW228065   0.069   4.009   4.601
 9056SOL     OW28066   6.287   2.803   2.824
 9056SOL    HW128067   6.215   2.871   2.841
 9056SOL    HW228068   6.356   2.841   2.763
 9057SOL     OW28069   3.903   1.933   4.124
 9057SOL    HW128070   3.840   1.925   4.047
 9057SOL    HW228071   3.861   1.987   4.197
 9058SOL     OW28072   2.116   0.794   5.411
 9058SOL    HW128073   2.043   0.858   5.387
 9058SOL    HW228074   2.179   0.837   5.475
 9059SOL     OW28075   0.929   1.941   3.058
 9059SOL    HW128076   0.985   1.985   3.127
 9059SOL    HW228077   0.959   1.969   2.967
 9060SOL     OW28078   5.459   2.925   5.313
 9060SOL    HW128079   5.558   2.942   5.310
 9060SOL    HW228080   5.434   2.894   5.405
 9061SOL     OW28081   3.232   5.972   2.716
 9061SOL    HW128082   3.222   5.888   2.663
 9061SOL    HW228083   3.228   5.950   2.814
 9062SOL     OW28084   1.582   5.399   1.106
 9062SOL    HW128085   1.629   5.410   1.194
 9062SOL    HW228086   1.526   5.479   1.087
 9063SOL     OW28087   3.037   1.300   2.059
 9063SOL    HW128088   2.998   1.391   2.047
 9063SOL    HW228089   2.970   1.242   2.107
 9064SOL     OW28090   5.707   3.749   0.279
 9064SOL    HW128091   5.651   3.719   0.356
 9064SOL    HW228092   5.780   3.808   0.312
 9065SOL     OW28093   2.370   1.247   6.894
 9065SOL    HW128094   2.306   1.279   6.825
 9065SOL    HW228095   2.459   1.292   6.881
 9066SOL     OW28096   5.302   6.505   0.356
 9066SOL    HW128097   5.229   6.529   0.293
 9066SOL    HW228098   5.359   6.586   0.374
 9067SOL     OW28099   1.069   6.545   2.767
 9067SOL    HW128100   1.041   6.629   2.721
 9067SOL    HW228101   1.111   6.567   2.855
 9068SOL     OW28102   1.542   6.025   0.010
 9068SOL    HW128103   1.453   5.998   6.992
 9068SOL    HW228104   1.590   6.082   6.961
 9069SOL     OW28105   1.395   2.764   6.466
 9069SOL    HW128106   1.448   2.700   6.410
 9069SOL    HW228107   1.373   2.846   6.413
 9070SOL     OW28108   1.271   4.201   3.358
 9070SOL    HW128109   1.173   4.196   3.378
 9070SOL    HW228110   1.317   4.121   3.395
 9071SOL     OW28111   4.996   6.281   0.495
 9071SOL    HW128112   5.088   6.246   0.509
 9071SOL    HW228113   4.934   6.205   0.471
 9072SOL     OW28114   5.144   5.253   6.847
 9072SOL    HW128115   5.192   5.337   6.874
 9072SOL    HW228116   5.186   5.216   6.764
 9073SOL     OW28117   1.868   0.339   1.668
 9073SOL    HW128118   1.957   0.363   1.705
 9073SOL    HW228119   1.797   0.355   1.737
 9074SOL     OW28120   1.043   0.245   3.503
 9074SOL    HW128121   0.964   0.295   3.539
 9074SOL    HW228122   1.103   0.219   3.579
 9075SOL     OW28123   1.074   0.827   2.605
 9075SOL    HW128124   1.167   0.850   2.576
 9075SOL    HW228125   1.048   0.739   2.566
 9076SOL     OW28126   6.624   1.803   5.313
 9076SOL    HW128127   6.684   1.882   5.305
 9076SOL    HW228128   6.545   1.826   5.371
 9077SOL     OW28129   5.797   6.387   1.994
 9077SOL    HW128130   5.737   6.371   2.073
 9077SOL    HW228131   5.743   6.382   1.910
 9078SOL     OW28132   3.535   2.853   4.808
 9078SOL    HW128133   3.615   2.893   4.853
 9078SOL    HW228134   3.557   2.831   4.714
 9079SOL     OW28135   3.210   0.677   6.035
 9079SOL    HW128136   3.284   0.720   5.983
 9079SOL    HW228137   3.244   0.594   6.079
 9080SOL     OW28138   5.398   1.261   0.623
 9080SOL    HW128139   5.418   1.315   0.541
 9080SOL    HW228140   5.405   1.320   0.703
 9081SOL     OW28141   5.304   6.944   2.362
 9081SOL    HW128142   5.217   6.938   2.409
 9081SOL    HW228143   5.291   6.925   2.264
 9082SOL     OW28144   3.299   0.755   3.305
 9082SOL    HW128145   3.366   0.808   3.358
 9082SOL    HW228146   3.309   0.776   3.208
 9083SOL     OW28147   4.496   4.983   4.406
 9083SOL    HW128148   4.523   4.889   4.386
 9083SOL    HW228149   4.562   5.023   4.470
 9084SOL     OW28150   3.854   3.338   2.707
 9084SOL    HW128151   3.928   3.292   2.657
 9084SOL    HW228152   3.799   3.270   2.755
 9085SOL     OW28153   1.079   2.382   0.842
 9085SOL    HW128154   1.082   2.479   0.818
 9085SOL    HW228155   1.165   2.356   0.886
 9086SOL     OW28156   0.377   3.713   0.361
 9086SOL    HW128157   0.405   3.810   0.358
 9086SOL    HW228158   0.316   3.694   0.285
 9087SOL     OW28159   5.145   3.591   1.943
 9087SOL    HW128160   5.081   3.547   1.879
 9087SOL    HW228161   5.094   3.653   2.003
 9088SOL     OW28162   5.086   6.823   1.247
 9088SOL    HW128163   5.027   6.751   1.285
 9088SOL    HW228164   5.032   6.906   1.233
 9089SOL     OW28165   4.043   0.079   5.800
 9089SOL    HW128166   4.042   0.074   5.700
 9089SOL    HW228167   4.127   0.124   5.831
 9090SOL     OW28168   5.672   1.516   3.187
 9090SOL    HW128169   5.770   1.513   3.206
 9090SOL    HW228170   5.627   1.438   3.231
 9091SOL     OW28171   3.239   2.539   6.561
 9091SOL    HW128172   3.296   2.555   6.480
 9091SOL    HW228173   3.148   2.575   6.545
 9092SOL     OW28174   6.816   2.901   6.182
 9092SOL    HW128175   6.908   2.883   6.217
 9092SOL    HW228176   6.822   2.937   6.089
 9093SOL     OW28177   1.945   6.107   5.263
 9093SOL    HW128178   2.041   6.078   5.261
 9093SOL    HW228179   1.897   6.071   5.183
 9094SOL     OW28180   1.005   3.796   1.253
 9094SOL    HW128181   0.959   3.883   1.235
 9094SOL    HW228182   1.080   3.810   1.318
 9095SOL     OW28183   6.733   6.724   5.673
 9095SOL    HW128184   6.655   6.677   5.715
 9095SOL    HW228185   6.791   6.657   5.627
 9096SOL     OW28186   6.792   4.954   4.190
 9096SOL    HW128187   6.881   4.960   4.145
 9096SOL    HW228188   6.729   4.904   4.130
 9097SOL     OW28189   0.870   2.300   6.166
 9097SOL    HW128190   0.796   2.284   6.231
 9097SOL    HW228191   0.881   2.219   6.108
 9098SOL     OW28192   2.180   4.427   3.777
 9098SOL    HW128193   2.166   4.366   3.855
 9098SOL    HW228194   2.249   4.387   3.715
 9099SOL     OW28195   2.236   1.984   6.942
 9099SOL    HW128196   2.326   1.944   6.929
 9099SOL    HW228197   2.245   2.076   6.980
 9100SOL     OW28198   1.264   4.472   3.426
 9100SOL    HW128199   1.293   4.380   3.453
 9100SOL    HW228200   1.336   4.537   3.449
 9101SOL     OW28201   0.421   2.827   0.405
 9101SOL    HW128202   0.502   2.862   0.452
 9101SOL    HW228203   0.339   2.863   0.449
 9102SOL     OW28204   4.237   6.729   2.721
 9102SOL    HW128205   4.306   6.667   2.682
 9102SOL    HW228206   4.154   6.677   2.740
 9103SOL     OW28207   6.284   0.776   1.077
 9103SOL    HW128208   6.328   0.775   0.988
 9103SOL    HW228209   6.317   0.854   1.131
 9104SOL     OW28210   6.084   1.784   6.190
 9104SOL    HW128211   6.136   1.851   6.242
 9104SOL    HW228212   6.147   1.721   6.144
 9105SOL     OW28213   2.160   1.243   5.498
 9105SOL    HW128214   2.106   1.314   5.543
 9105SOL    HW228215   2.193   1.177   5.566
 9106SOL     OW28216   1.393   3.499   0.106
 9106SOL    HW128217   1.340   3.545   0.036
 9106SOL    HW228218   1.331   3.449   0.167
 9107SOL     OW28219   3.365   1.808   0.313
 9107SOL    HW128220   3.278   1.807   0.265
 9107SOL    HW228221   3.425   1.737   0.275
 9108SOL     OW28222   6.422   5.574   5.937
 9108SOL    HW128223   6.448   5.619   6.022
 9108SOL    HW228224   6.449   5.631   5.860
 9109SOL     OW28225   5.711   3.827   2.730
 9109SOL    HW128226   5.713   3.828   2.630
 9109SOL    HW228227   5.787   3.881   2.766
 9110SOL     OW28228   1.311   6.080   3.261
 9110SOL    HW128229   1.230   6.039   3.304
 9110SOL    HW228230   1.323   6.042   3.170
 9111SOL     OW28231   4.442   2.161   6.425
 9111SOL    HW128232   4.470   2.127   6.515
 9111SOL    HW228233   4.355   2.209   6.434
 9112SOL     OW28234   1.166   5.265   1.481
 9112SOL    HW128235   1.114   5.330   1.536
 9112SOL    HW228236   1.161   5.175   1.524
 9113SOL     OW28237   5.661   0.637   4.550
 9113SOL    HW128238   5.717   0.711   4.588
 9113SOL    HW228239   5.641   0.656   4.454
 9114SOL     OW28240   1.148   6.450   6.012
 9114SOL    HW128241   1.057   6.489   5.999
 9114SOL    HW228242   1.214   6.500   5.955
 9115SOL     OW28243   4.744   4.282   4.847
 9115SOL    HW128244   4.661   4.335   4.830
 9115SOL    HW228245   4.727   4.186   4.825
 9116SOL     OW28246   1.922   0.553   2.969
 9116SOL    HW128247   1.826   0.528   2.961
 9116SOL    HW228248   1.978   0.491   2.914
 9117SOL     OW28249   2.585   6.349   6.969
 9117SOL    HW128250   2.683   6.364   6.981
 9117SOL    HW228251   2.561   6.258   7.003
 9118SOL     OW28252   6.688   3.896   2.333
 9118SOL    HW128253   6.717   3.948   2.413
 9118SOL    HW228254   6.714   3.946   2.250
 9119SOL     OW28255   3.114   0.597   0.199
 9119SOL    HW128256   3.150   0.519   0.250
 9119SOL    HW228257   3.083   0.667   0.264
 9120SOL     OW28258   6.334   3.954   4.782
 9120SOL    HW128259   6.361   4.051   4.781
 9120SOL    HW228260   6.277   3.936   4.862
 9121SOL     OW28261   3.923   0.627   4.588
 9121SOL    HW128262   3.933   0.690   4.511
 9121SOL    HW228263   3.937   0.533   4.556
 9122SOL     OW28264   1.088   3.255   1.556
 9122SOL    HW128265   1.141   3.175   1.585
 9122SOL    HW228266   1.058   3.242   1.462
 9123SOL     OW28267   6.809   6.337   4.274
 9123SOL    HW128268   6.804   6.390   4.359
 9123SOL    HW228269   6.837   6.398   4.200
 9124SOL     OW28270   3.028   5.038   0.340
 9124SOL    HW128271   3.060   5.124   0.381
 9124SOL    HW228272   2.971   5.059   0.261
 9125SOL     OW28273   5.716   6.421   1.631
 9125SOL    HW128274   5.672   6.362   1.699
 9125SOL    HW228275   5.653   6.438   1.556
 9126SOL     OW28276   4.176   4.751   0.529
 9126SOL    HW128277   4.226   4.825   0.575
 9126SOL    HW228278   4.238   4.703   0.467
 9127SOL     OW28279   6.695   4.795   5.145
 9127SOL    HW128280   6.630   4.837   5.209
 9127SOL    HW228281   6.720   4.704   5.179
 9128SOL     OW28282   5.736   4.184   5.616
 9128SOL    HW128283   5.783   4.270   5.599
 9128SOL    HW228284   5.663   4.172   5.550
 9129SOL     OW28285   0.893   2.705   0.530
 9129SOL    HW128286   0.966   2.638   0.543
 9129SOL    HW228287   0.810   2.658   0.500
 9130SOL     OW28288   2.899   3.321   4.712
 9130SOL    HW128289   2.896   3.235   4.763
 9130SOL    HW228290   2.940   3.305   4.622
 9131SOL     OW28291   5.373   2.482   0.535
 9131SOL    HW128292   5.363   2.502   0.438
 9131SOL    HW228293   5.289   2.507   0.583
 9132SOL     OW28294   0.908   4.013   3.843
 9132SOL    HW128295   0.829   4.032   3.902
 9132SOL    HW228296   0.908   4.077   3.766
 9133SOL     OW28297   5.894   0.095   1.091
 9133SOL    HW128298   5.989   0.126   1.095
 9133SOL    HW228299   5.834   0.168   1.122
 9134SOL     OW28300   4.934   4.794   0.641
 9134SOL    HW128301   4.960   4.863   0.573
 9134SOL    HW228302   4.877   4.837   0.711
 9135SOL     OW28303   6.356   6.177   3.028
 9135SOL    HW128304   6.302   6.176   3.112
 9135SOL    HW228305   6.397   6.267   3.016
 9136SOL     OW28306   6.701   4.722   0.296
 9136SOL    HW128307   6.722   4.637   0.346
 9136SOL    HW228308   6.784   4.774   0.280
 9137SOL     OW28309   5.399   6.634   5.351
 9137SOL    HW128310   5.474   6.687   5.312
 9137SOL    HW228311   5.398   6.645   5.450
 9138SOL     OW28312   1.941   4.045   6.601
 9138SOL    HW128313   2.005   4.059   6.526
 9138SOL    HW228314   1.973   4.093   6.683
 9139SOL     OW28315   6.797   0.222   1.469
 9139SOL    HW128316   6.789   0.133   1.424
 9139SOL    HW228317   6.718   0.237   1.528
 9140SOL     OW28318   1.977   3.749   2.662
 9140SOL    HW128319   1.883   3.733   2.632
 9140SOL    HW228320   2.014   3.666   2.704
 9141SOL     OW28321   0.165   5.793   4.763
 9141SOL    HW128322   0.114   5.708   4.750
 9141SOL    HW228323   0.102   5.869   4.775
 9142SOL     OW28324   0.873   5.012   3.961
 9142SOL    HW128325   0.936   5.006   3.883
 9142SOL    HW228326   0.908   5.078   4.028
 9143SOL     OW28327   6.201   3.978   3.188
 9143SOL    HW128328   6.282   3.929   3.222
 9143SOL    HW228329   6.182   4.056   3.247
 9144SOL     OW28330   2.863   4.209   5.266
 9144SOL    HW128331   2.893   4.129   5.216
 9144SOL    HW228332   2.895   4.292   5.220
 9145SOL     OW28333   1.448   5.846   5.910
 9145SOL    HW128334   1.408   5.881   5.826
 9145SOL    HW228335   1.438   5.747   5.914
 9146SOL     OW28336   5.819   2.672   3.144
 9146SOL    HW128337   5.745   2.641   3.084
 9146SOL    HW228338   5.784   2.684   3.236
 9147SOL     OW28339   3.743   0.309   5.705
 9147SOL    HW128340   3.673   0.293   5.774
 9147SOL    HW228341   3.743   0.233   5.639
 9148SOL     OW28342   5.033   6.014   1.143
 9148SOL    HW128343   4.959   6.029   1.208
 9148SOL    HW228344   5.060   5.918   1.145
 9149SOL     OW28345   0.428   3.686   0.639
 9149SOL    HW128346   0.405   3.669   0.543
 9149SOL    HW228347   0.527   3.680   0.650
 9150SOL     OW28348   2.634   3.183   0.156
 9150SOL    HW128349   2.727   3.178   0.120
 9150SOL    HW228350   2.603   3.091   0.179
 9151SOL     OW28351   1.912   3.268   3.705
 9151SOL    HW128352   1.892   3.360   3.739
 9151SOL    HW228353   1.894   3.201   3.777
 9152SOL     OW28354   2.291   4.134   2.784
 9152SOL    HW128355   2.271   4.156   2.689
 9152SOL    HW228356   2.390   4.135   2.799
 9153SOL     OW28357   0.231   2.988   5.890
 9153SOL    HW128358   0.177   2.907   5.869
 9153SOL    HW228359   0.174   3.054   5.939
 9154SOL     OW28360   5.258   4.884   3.328
 9154SOL    HW128361   5.294   4.845   3.413
 9154SOL    HW228362   5.302   4.840   3.250
 9155SOL     OW28363   1.064   6.038   2.703
 9155SOL    HW128364   1.097   5.963   2.761
 9155SOL    HW228365   1.002   6.001   2.634
 9156SOL     OW28366   6.961   4.016   5.562
 9156SOL    HW128367   7.003   4.026   5.652
 9156SOL    HW228368   7.008   3.943   5.512
 9157SOL     OW28369   1.243   4.450   5.323
 9157SOL    HW128370   1.324   4.446   5.264
 9157SOL    HW228371   1.240   4.369   5.381
 9158SOL     OW28372   6.661   3.657   4.605
 9158SOL    HW128373   6.643   3.726   4.535
 9158SOL    HW228374   6.634   3.693   4.695
 9159SOL     OW28375   2.162   1.572   3.724
 9159SOL    HW128376   2.198   1.484   3.754
 9159SOL    HW228377   2.237   1.631   3.696
 9160SOL     OW28378   1.186   3.153   6.960
 9160SOL    HW128379   1.271   3.128   7.005
 9160SOL    HW228380   1.126   3.073   6.956
 9161SOL     OW28381   6.387   3.440   2.476
 9161SOL    HW128382   6.351   3.428   2.569
 9161SOL    HW228383   6.315   3.475   2.417
 9162SOL     OW28384   3.884   2.225   1.767
 9162SOL    HW128385   3.961   2.260   1.820
 9162SOL    HW228386   3.798   2.259   1.805
 9163SOL     OW28387   2.578   2.349   4.325
 9163SOL    HW128388   2.504   2.283   4.338
 9163SOL    HW228389   2.627   2.361   4.411
 9164SOL     OW28390   1.924   0.046   6.230
 9164SOL    HW128391   1.942   6.989   6.167
 9164SOL    HW228392   1.847   0.100   6.197
 9165SOL     OW28393   5.369   1.736   6.316
 9165SOL    HW128394   5.446   1.683   6.281
 9165SOL    HW228395   5.403   1.822   6.354
 9166SOL     OW28396   4.579   6.212   2.115
 9166SOL    HW128397   4.500   6.253   2.070
 9166SOL    HW228398   4.648   6.283   2.134
 9167SOL     OW28399   1.775   1.677   4.604
 9167SOL    HW128400   1.810   1.638   4.519
 9167SOL    HW228401   1.738   1.768   4.587
 9168SOL     OW28402   6.785   6.196   4.820
 9168SOL    HW128403   6.720   6.141   4.768
 9168SOL    HW228404   6.740   6.237   4.899
 9169SOL     OW28405   6.551   5.760   0.629
 9169SOL    HW128406   6.527   5.772   0.532
 9169SOL    HW228407   6.644   5.793   0.645
 9170SOL     OW28408   1.788   1.047   5.496
 9170SOL    HW128409   1.766   1.139   5.530
 9170SOL    HW228410   1.714   1.016   5.436
 9171SOL     OW28411   3.474   5.527   6.695
 9171SOL    HW128412   3.422   5.593   6.641
 9171SOL    HW228413   3.495   5.447   6.638
 9172SOL     OW28414   4.427   1.922   5.392
 9172SOL    HW128415   4.391   1.916   5.300
 9172SOL    HW228416   4.371   1.986   5.446
 9173SOL     OW28417   5.456   3.756   5.144
 9173SOL    HW128418   5.531   3.718   5.089
 9173SOL    HW228419   5.476   3.743   5.241
 9174SOL     OW28420   6.507   4.692   1.414
 9174SOL    HW128421   6.532   4.756   1.486
 9174SOL    HW228422   6.413   4.661   1.427
 9175SOL     OW28423   2.099   6.807   1.144
 9175SOL    HW128424   2.091   6.864   1.225
 9175SOL    HW228425   2.110   6.711   1.171
 9176SOL     OW28426   1.750   0.658   1.719
 9176SOL    HW128427   1.668   0.652   1.775
 9176SOL    HW228428   1.831   0.637   1.774
 9177SOL     OW28429   0.719   6.632   4.004
 9177SOL    HW128430   0.626   6.596   3.995
 9177SOL    HW228431   0.782   6.557   4.021
 9178SOL     OW28432   1.213   4.554   0.821
 9178SOL    HW128433   1.164   4.606   0.751
 9178SOL    HW228434   1.302   4.596   0.839
 9179SOL     OW28435   3.677   5.214   3.833
 9179SOL    HW128436   3.722   5.226   3.921
 9179SOL    HW228437   3.694   5.121   3.800
 9180SOL     OW28438   0.240   1.047   5.174
 9180SOL    HW128439   0.325   1.085   5.139
 9180SOL    HW228440   0.186   1.120   5.217
 9181SOL     OW28441   2.974   2.230   3.699
 9181SOL    HW128442   3.064   2.197   3.671
 9181SOL    HW228443   2.956   2.201   3.794
 9182SOL     OW28444   0.356   2.004   2.392
 9182SOL    HW128445   0.298   2.035   2.467
 9182SOL    HW228446   0.306   2.012   2.305
 9183SOL     OW28447   1.639   1.473   6.246
 9183SOL    HW128448   1.632   1.499   6.343
 9183SOL    HW228449   1.733   1.486   6.215
 9184SOL     OW28450   3.243   4.083   0.978
 9184SOL    HW128451   3.260   4.115   1.071
 9184SOL    HW228452   3.217   3.987   0.980
 9185SOL     OW28453   1.352   0.284   5.941
 9185SOL    HW128454   1.382   0.230   6.020
 9185SOL    HW228455   1.366   0.381   5.960
 9186SOL     OW28456   4.948   0.024   6.850
 9186SOL    HW128457   4.977   6.981   6.776
 9186SOL    HW228458   5.004   0.007   6.931
 9187SOL     OW28459   5.570   2.567   0.714
 9187SOL    HW128460   5.495   2.521   0.666
 9187SOL    HW228461   5.641   2.499   0.735
 9188SOL     OW28462   1.848   0.080   1.259
 9188SOL    HW128463   1.761   0.031   1.265
 9188SOL    HW228464   1.872   0.116   1.349
 9189SOL     OW28465   3.164   0.498   5.756
 9189SOL    HW128466   3.195   0.408   5.786
 9189SOL    HW228467   3.156   0.558   5.836
 9190SOL     OW28468   4.379   0.769   5.111
 9190SOL    HW128469   4.295   0.736   5.066
 9190SOL    HW228470   4.393   0.719   5.196
 9191SOL     OW28471   5.782   6.991   1.625
 9191SOL    HW128472   5.816   6.995   1.719
 9191SOL    HW228473   5.799   0.060   1.579
 9192SOL     OW28474   4.883   3.718   4.487
 9192SOL    HW128475   4.866   3.649   4.417
 9192SOL    HW228476   4.874   3.676   4.578
 9193SOL     OW28477   3.990   3.669   3.337
 9193SOL    HW128478   3.918   3.646   3.402
 9193SOL    HW228479   4.010   3.589   3.279
 9194SOL     OW28480   3.691   4.905   2.886
 9194SOL    HW128481   3.635   4.925   2.805
 9194SOL    HW228482   3.723   4.810   2.881
 9195SOL     OW28483   0.587   2.823   2.816
 9195SOL    HW128484   0.540   2.858   2.896
 9195SOL    HW228485   0.614   2.727   2.831
 9196SOL     OW28486   5.228   6.364   4.449
 9196SOL    HW128487   5.193   6.310   4.526
 9196SOL    HW228488   5.254   6.455   4.482
 9197SOL     OW28489   4.669   1.680   6.525
 9197SOL    HW128490   4.720   1.618   6.465
 9197SOL    HW228491   4.691   1.775   6.501
 9198SOL     OW28492   5.955   2.284   5.442
 9198SOL    HW128493   6.009   2.294   5.358
 9198SOL    HW228494   5.986   2.351   5.509
 9199SOL     OW28495   1.326   3.311   6.176
 9199SOL    HW128496   1.416   3.319   6.133
 9199SOL    HW228497   1.302   3.399   6.218
 9200SOL     OW28498   4.994   5.833   0.794
 9200SOL    HW128499   5.072   5.790   0.839
 9200SOL    HW228500   5.025   5.912   0.741
 9201SOL     OW28501   0.702   3.832   2.195
 9201SOL    HW128502   0.634   3.839   2.123
 9201SOL    HW228503   0.718   3.736   2.217
 9202SOL     OW28504   2.228   6.013   3.673
 9202SOL    HW128505   2.132   6.021   3.699
 9202SOL    HW228506   2.276   6.098   3.696
 9203SOL     OW28507   4.971   0.766   0.427
 9203SOL    HW128508   4.970   0.724   0.336
 9203SOL    HW228509   4.946   0.697   0.495
 9204SOL     OW28510   5.429   4.529   3.028
 9204SOL    HW128511   5.498   4.520   2.957
 9204SOL    HW228512   5.406   4.625   3.041
 9205SOL     OW28513   4.561   2.481   1.583
 9205SOL    HW128514   4.620   2.549   1.626
 9205SOL    HW228515   4.603   2.391   1.591
 9206SOL     OW28516   6.358   6.185   4.640
 9206SOL    HW128517   6.345   6.178   4.739
 9206SOL    HW228518   6.324   6.274   4.608
 9207SOL     OW28519   3.811   6.310   6.859
 9207SOL    HW128520   3.841   6.218   6.835
 9207SOL    HW228521   3.716   6.307   6.891
 9208SOL     OW28522   4.268   4.052   1.682
 9208SOL    HW128523   4.338   4.076   1.749
 9208SOL    HW228524   4.251   4.131   1.622
 9209SOL     OW28525   4.018   0.070   2.707
 9209SOL    HW128526   3.988   6.998   2.676
 9209SOL    HW228527   4.084   0.059   2.781
 9210SOL     OW28528   0.803   6.670   0.532
 9210SOL    HW128529   0.718   6.675   0.585
 9210SOL    HW228530   0.854   6.756   0.544
 9211SOL     OW28531   4.914   1.396   6.162
 9211SOL    HW128532   4.979   1.325   6.189
 9211SOL    HW228533   4.898   1.391   6.063
 9212SOL     OW28534   5.916   4.121   5.393
 9212SOL    HW128535   6.005   4.085   5.422
 9212SOL    HW228536   5.846   4.094   5.458
 9213SOL     OW28537   6.521   6.193   2.080
 9213SOL    HW128538   6.513   6.285   2.118
 9213SOL    HW228539   6.456   6.182   2.005
 9214SOL     OW28540   2.228   1.500   5.652
 9214SOL    HW128541   2.203   1.437   5.726
 9214SOL    HW228542   2.324   1.525   5.662
 9215SOL     OW28543   0.540   3.980   3.243
 9215SOL    HW128544   0.486   3.988   3.160
 9215SOL    HW228545   0.565   3.885   3.259
 9216SOL     OW28546   2.398   6.284   3.104
 9216SOL    HW128547   2.483   6.235   3.125
 9216SOL    HW228548   2.323   6.244   3.158
 9217SOL     OW28549   4.466   1.671   0.016
 9217SOL    HW128550   4.539   1.677   6.967
 9217SOL    HW228551   4.377   1.671   6.989
 9218SOL     OW28552   5.517   5.602   6.540
 9218SOL    HW128553   5.420   5.599   6.515
 9218SOL    HW228554   5.568   5.653   6.471
 9219SOL     OW28555   3.033   2.467   5.575
 9219SOL    HW128556   3.028   2.525   5.494
 9219SOL    HW228557   3.028   2.524   5.657
 9220SOL     OW28558   0.520   6.739   3.318
 9220SOL    HW128559   0.545   6.833   3.295
 9220SOL    HW228560   0.473   6.697   3.240
 9221SOL     OW28561   2.871   1.376   1.165
 9221SOL    HW128562   2.927   1.442   1.114
 9221SOL    HW228563   2.781   1.415   1.182
 9222SOL     OW28564   1.293   4.987   4.001
 9222SOL    HW128565   1.385   5.023   3.983
 9222SOL    HW228566   1.291   4.943   4.091
 9223SOL     OW28567   6.362   3.253   4.313
 9223SOL    HW128568   6.377   3.347   4.282
 9223SOL    HW228569   6.414   3.236   4.396
 9224SOL     OW28570   2.007   4.648   2.808
 9224SOL    HW128571   2.019   4.614   2.715
 9224SOL    HW228572   1.994   4.570   2.870
 9225SOL     OW28573   6.541   5.326   5.927
 9225SOL    HW128574   6.475   5.264   5.883
 9225SOL    HW228575   6.498   5.415   5.941
 9226SOL     OW28576   0.909   0.531   6.122
 9226SOL    HW128577   0.847   0.549   6.199
 9226SOL    HW228578   0.907   0.608   6.058
 9227SOL     OW28579   3.524   4.056   0.853
 9227SOL    HW128580   3.428   4.084   0.860
 9227SOL    HW228581   3.547   4.039   0.757
 9228SOL     OW28582   3.820   2.986   4.796
 9228SOL    HW128583   3.817   3.085   4.785
 9228SOL    HW228584   3.841   2.964   4.891
 9229SOL     OW28585   6.881   5.350   0.538
 9229SOL    HW128586   6.909   5.445   0.553
 9229SOL    HW228587   6.953   5.288   0.570
 9230SOL     OW28588   4.458   0.581   5.294
 9230SOL    HW128589   4.557   0.593   5.287
 9230SOL    HW228590   4.435   0.484   5.280
 9231SOL     OW28591   6.242   5.950   1.529
 9231SOL    HW128592   6.273   5.895   1.451
 9231SOL    HW228593   6.145   5.933   1.545
 9232SOL     OW28594   1.164   5.383   2.001
 9232SOL    HW128595   1.248   5.433   1.982
 9232SOL    HW228596   1.186   5.291   2.034
 9233SOL     OW28597   1.208   6.776   5.826
 9233SOL    HW128598   1.230   6.840   5.899
 9233SOL    HW228599   1.280   6.708   5.818
 9234SOL     OW28600   2.721   4.015   5.927
 9234SOL    HW128601   2.762   3.933   5.886
 9234SOL    HW228602   2.764   4.033   6.015
 9235SOL     OW28603   2.276   1.773   2.819
 9235SOL    HW128604   2.259   1.741   2.726
 9235SOL    HW228605   2.196   1.824   2.852
 9236SOL     OW28606   1.527   3.307   5.771
 9236SOL    HW128607   1.609   3.254   5.748
 9236SOL    HW228608   1.450   3.274   5.716
 9237SOL     OW28609   6.326   5.323   2.910
 9237SOL    HW128610   6.345   5.246   2.849
 9237SOL    HW228611   6.263   5.386   2.864
 9238SOL     OW28612   1.816   2.559   4.786
 9238SOL    HW128613   1.845   2.463   4.782
 9238SOL    HW228614   1.766   2.581   4.702
 9239SOL     OW28615   1.003   4.823   6.157
 9239SOL    HW128616   1.061   4.745   6.136
 9239SOL    HW228617   1.059   4.896   6.197
 9240SOL     OW28618   4.114   1.918   3.825
 9240SOL    HW128619   4.148   1.851   3.891
 9240SOL    HW228620   4.173   1.917   3.744
 9241SOL     OW28621   5.847   6.450   0.006
 9241SOL    HW128622   5.802   6.520   0.062
 9241SOL    HW228623   5.826   6.466   6.928
 9242SOL     OW28624   1.859   2.190   0.895
 9242SOL    HW128625   1.793   2.201   0.820
 9242SOL    HW228626   1.899   2.279   0.917
 9243SOL     OW28627   1.502   0.085   0.129
 9243SOL    HW128628   1.586   0.092   0.183
 9243SOL    HW228629   1.512   0.138   0.045
 9244SOL     OW28630   2.439   6.344   6.328
 9244SOL    HW128631   2.438   6.299   6.417
 9244SOL    HW228632   2.371   6.416   6.327
 9245SOL     OW28633   0.935   4.911   3.107
 9245SOL    HW128634   0.854   4.933   3.160
 9245SOL    HW228635   1.012   4.893   3.168
 9246SOL     OW28636   5.095   6.580   6.577
 9246SOL    HW128637   5.124   6.498   6.626
 9246SOL    HW228638   5.061   6.555   6.487
 9247SOL     OW28639   3.823   6.609   2.943
 9247SOL    HW128640   3.869   6.586   3.029
 9247SOL    HW228641   3.743   6.665   2.962
 9248SOL     OW28642   2.462   0.823   6.573
 9248SOL    HW128643   2.548   0.782   6.543
 9248SOL    HW228644   2.468   0.845   6.670
 9249SOL     OW28645   2.600   6.905   6.950
 9249SOL    HW128646   2.655   6.855   6.883
 9249SOL    HW228647   2.527   6.954   6.903
 9250SOL     OW28648   0.530   3.490   3.320
 9250SOL    HW128649   0.452   3.507   3.259
 9250SOL    HW228650   0.546   3.571   3.377
 9251SOL     OW28651   3.163   1.712   1.339
 9251SOL    HW128652   3.179   1.721   1.241
 9251SOL    HW228653   3.211   1.631   1.373
 9252SOL     OW28654   5.864   1.655   4.675
 9252SOL    HW128655   5.835   1.616   4.762
 9252SOL    HW228656   5.929   1.593   4.631
 9253SOL     OW28657   1.686   5.684   4.772
 9253SOL    HW128658   1.782   5.710   4.766
 9253SOL    HW228659   1.641   5.700   4.684
 9254SOL     OW28660   0.514   5.289   2.366
 9254SOL    HW128661   0.437   5.342   2.331
 9254SOL    HW228662   0.582   5.351   2.404
 9255SOL     OW28663   6.365   4.166   1.102
 9255SOL    HW128664   6.413   4.247   1.134
 9255SOL    HW228665   6.408   4.133   1.018
 9256SOL     OW28666   2.728   6.882   0.649
 9256SOL    HW128667   2.773   6.832   0.723
 9256SOL    HW228668   2.789   6.955   0.617
 9257SOL     OW28669   5.995   5.618   4.567
 9257SOL    HW128670   5.907   5.633   4.522
 9257SOL    HW228671   6.068   5.653   4.508
 9258SOL     OW28672   4.166   5.484   1.914
 9258SOL    HW128673   4.118   5.411   1.963
 9258SOL    HW228674   4.104   5.561   1.898
 9259SOL     OW28675   0.584   2.461   6.665
 9259SOL    HW128676   0.637   2.534   6.622
 9259SOL    HW228677   0.561   2.391   6.597
 9260SOL     OW28678   4.856   3.959   4.864
 9260SOL    HW128679   4.808   3.984   4.948
 9260SOL    HW228680   4.883   3.862   4.869
 9261SOL     OW28681   1.792   2.363   1.847
 9261SOL    HW128682   1.746   2.361   1.758
 9261SOL    HW228683   1.763   2.444   1.898
 9262SOL     OW28684   6.646   6.379   6.260
 9262SOL    HW128685   6.651   6.313   6.185
 9262SOL    HW228686   6.559   6.427   6.256
 9263SOL     OW28687   2.246   4.733   3.143
 9263SOL    HW128688   2.252   4.794   3.064
 9263SOL    HW228689   2.185   4.772   3.212
 9264SOL     OW28690   5.464   3.681   6.387
 9264SOL    HW128691   5.457   3.677   6.288
 9264SOL    HW228692   5.382   3.724   6.425
 9265SOL     OW28693   5.088   0.999   1.205
 9265SOL    HW128694   4.996   0.996   1.244
 9265SOL    HW228695   5.151   1.040   1.271
 9266SOL     OW28696   2.156   4.306   0.763
 9266SOL    HW128697   2.094   4.297   0.842
 9266SOL    HW228698   2.103   4.334   0.683
 9267SOL     OW28699   0.956   1.246   4.104
 9267SOL    HW128700   0.926   1.313   4.172
 9267SOL    HW228701   0.951   1.286   4.013
 9268SOL     OW28702   0.910   1.040   1.785
 9268SOL    HW128703   0.813   1.052   1.807
 9268SOL    HW228704   0.943   1.121   1.737
 9269SOL     OW28705   4.386   1.065   0.403
 9269SOL    HW128706   4.398   1.118   0.319
 9269SOL    HW228707   4.310   1.001   0.391
 9270SOL     OW28708   2.798   0.922   5.993
 9270SOL    HW128709   2.861   0.867   5.936
 9270SOL    HW228710   2.771   1.004   5.943
 9271SOL     OW28711   1.109   4.569   5.574
 9271SOL    HW128712   1.078   4.661   5.595
 9271SOL    HW228713   1.140   4.565   5.479
 9272SOL     OW28714   6.394   6.341   5.717
 9272SOL    HW128715   6.411   6.256   5.667
 9272SOL    HW228716   6.378   6.319   5.814
 9273SOL     OW28717   5.724   3.463   3.830
 9273SOL    HW128718   5.821   3.444   3.817
 9273SOL    HW228719   5.672   3.378   3.825
 9274SOL     OW28720   0.654   3.333   0.712
 9274SOL    HW128721   0.721   3.264   0.684
 9274SOL    HW228722   0.594   3.294   0.782
 9275SOL     OW28723   5.777   0.818   0.801
 9275SOL    HW128724   5.707   0.880   0.837
 9275SOL    HW228725   5.841   0.796   0.874
 9276SOL     OW28726   2.610   4.865   6.826
 9276SOL    HW128727   2.696   4.813   6.821
 9276SOL    HW228728   2.595   4.912   6.739
 9277SOL     OW28729   4.626   5.122   2.165
 9277SOL    HW128730   4.700   5.062   2.196
 9277SOL    HW228731   4.538   5.076   2.175
 9278SOL     OW28732   0.185   0.284   5.957
 9278SOL    HW128733   0.172   0.194   5.999
 9278SOL    HW228734   0.110   0.344   5.984
 9279SOL     OW28735   2.815   6.022   1.844
 9279SOL    HW128736   2.762   6.106   1.827
 9279SOL    HW228737   2.896   6.044   1.897
 9280SOL     OW28738   1.281   5.770   2.758
 9280SOL    HW128739   1.278   5.795   2.661
 9280SOL    HW228740   1.361   5.712   2.775
 9281SOL     OW28741   1.787   5.008   0.714
 9281SOL    HW128742   1.699   4.961   0.708
 9281SOL    HW228743   1.787   5.071   0.792
 9282SOL     OW28744   2.688   6.639   4.839
 9282SOL    HW128745   2.756   6.662   4.908
 9282SOL    HW228746   2.633   6.720   4.818
 9283SOL     OW28747   4.690   6.466   0.893
 9283SOL    HW128748   4.606   6.415   0.913
 9283SOL    HW228749   4.767   6.419   0.936
 9284SOL     OW28750   3.981   5.114   6.841
 9284SOL    HW128751   3.941   5.151   6.925
 9284SOL    HW228752   3.987   5.015   6.848
 9285SOL     OW28753   0.114   6.475   3.565
 9285SOL    HW128754   0.117   6.383   3.526
 9285SOL    HW228755   0.156   6.540   3.502
 9286SOL     OW28756   4.521   0.047   1.767
 9286SOL    HW128757   4.517   6.974   1.808
 9286SOL    HW228758   4.460   0.052   1.688
 9287SOL     OW28759   4.313   3.600   6.250
 9287SOL    HW128760   4.353   3.572   6.163
 9287SOL    HW228761   4.213   3.602   6.241
 9288SOL     OW28762   3.851   1.729   2.051
 9288SOL    HW128763   3.819   1.824   2.048
 9288SOL    HW228764   3.935   1.724   2.105
 9289SOL     OW28765   4.741   6.448   1.334
 9289SOL    HW128766   4.695   6.364   1.361
 9289SOL    HW228767   4.811   6.428   1.265
 9290SOL     OW28768   6.418   1.287   3.819
 9290SOL    HW128769   6.339   1.333   3.777
 9290SOL    HW228770   6.494   1.287   3.754
 9291SOL     OW28771   0.355   3.895   5.846
 9291SOL    HW128772   0.360   3.797   5.828
 9291SOL    HW228773   0.447   3.931   5.865
 9292SOL     OW28774   0.210   1.683   6.673
 9292SOL    HW128775   0.286   1.666   6.735
 9292SOL    HW228776   0.220   1.624   6.592
 9293SOL     OW28777   4.479   1.753   5.078
 9293SOL    HW128778   4.456   1.656   5.070
 9293SOL    HW228779   4.399   1.803   5.110
 9294SOL     OW28780   4.713   6.839   6.564
 9294SOL    HW128781   4.732   6.809   6.657
 9294SOL    HW228782   4.628   6.892   6.563
 9295SOL     OW28783   5.878   1.418   4.109
 9295SOL    HW128784   5.821   1.470   4.173
 9295SOL    HW228785   5.880   1.322   4.136
 9296SOL     OW28786   2.274   4.851   5.914
 9296SOL    HW128787   2.283   4.756   5.943
 9296SOL    HW228788   2.179   4.881   5.927
 9297SOL     OW28789   6.851   5.106   2.266
 9297SOL    HW128790   6.761   5.064   2.253
 9297SOL    HW228791   6.840   5.201   2.296
 9298SOL     OW28792   1.237   4.120   6.472
 9298SOL    HW128793   1.233   4.020   6.467
 9298SOL    HW228794   1.332   4.150   6.461
 9299SOL     OW28795   2.788   2.189   4.648
 9299SOL    HW128796   2.821   2.200   4.742
 9299SOL    HW228797   2.770   2.092   4.630
 9300SOL     OW28798   2.124   6.427   4.476
 9300SOL    HW128799   2.108   6.328   4.473
 9300SOL    HW228800   2.179   6.455   4.397
 9301SOL     OW28801   0.712   4.297   4.293
 9301SOL    HW128802   0.781   4.236   4.255
 9301SOL    HW228803   0.747   4.391   4.293
 9302SOL     OW28804   2.306   4.983   4.388
 9302SOL    HW128805   2.334   5.079   4.400
 9302SOL    HW228806   2.324   4.933   4.472
 9303SOL     OW28807   2.493   4.059   0.118
 9303SOL    HW128808   2.506   3.970   0.160
 9303SOL    HW228809   2.546   4.064   0.033
 9304SOL     OW28810   5.225   5.574   6.518
 9304SOL    HW128811   5.173   5.533   6.593
 9304SOL    HW228812   5.173   5.650   6.479
 9305SOL     OW28813   1.502   1.605   1.273
 9305SOL    HW128814   1.454   1.613   1.185
 9305SOL    HW228815   1.575   1.673   1.277
 9306SOL     OW28816   6.934   6.420   4.758
 9306SOL    HW128817   0.006   6.377   4.759
 9306SOL    HW228818   6.864   6.349   4.767
 9307SOL     OW28819   1.887   4.036   1.446
 9307SOL    HW128820   1.978   4.061   1.412
 9307SOL    HW228821   1.846   4.115   1.492
 9308SOL     OW28822   2.117   3.318   1.746
 9308SOL    HW128823   2.158   3.323   1.838
 9308SOL    HW228824   2.156   3.390   1.688
 9309SOL     OW28825   4.838   5.359   6.450
 9309SOL    HW128826   4.794   5.437   6.493
 9309SOL    HW228827   4.785   5.331   6.370
 9310SOL     OW28828   5.896   5.832   5.720
 9310SOL    HW128829   5.965   5.788   5.778
 9310SOL    HW228830   5.805   5.808   5.753
 9311SOL     OW28831   4.916   4.018   0.840
 9311SOL    HW128832   4.980   3.960   0.792
 9311SOL    HW228833   4.845   3.962   0.883
 9312SOL     OW28834   0.211   2.961   3.602
 9312SOL    HW128835   0.111   2.955   3.613
 9312SOL    HW228836   0.236   2.927   3.512
 9313SOL     OW28837   0.939   0.649   2.381
 9313SOL    HW128838   0.961   0.552   2.372
 9313SOL    HW228839   0.853   0.660   2.432
 9314SOL     OW28840   5.453   5.053   1.137
 9314SOL    HW128841   5.374   5.032   1.081
 9314SOL    HW228842   5.424   5.105   1.217
 9315SOL     OW28843   5.549   6.241   5.788
 9315SOL    HW128844   5.609   6.234   5.868
 9315SOL    HW228845   5.498   6.156   5.777
 9316SOL     OW28846   4.984   0.086   0.870
 9316SOL    HW128847   5.013   0.141   0.948
 9316SOL    HW228848   4.927   0.010   0.902
 9317SOL     OW28849   2.566   5.902   3.465
 9317SOL    HW128850   2.592   5.884   3.560
 9317SOL    HW228851   2.572   5.817   3.412
 9318SOL     OW28852   3.773   6.884   2.085
 9318SOL    HW128853   3.674   6.876   2.075
 9318SOL    HW228854   3.799   6.868   2.180
 9319SOL     OW28855   4.274   2.243   0.046
 9319SOL    HW128856   4.223   2.165   0.083
 9319SOL    HW228857   4.318   2.218   6.979
 9320SOL     OW28858   6.863   6.679   0.015
 9320SOL    HW128859   6.821   6.604   6.982
 9320SOL    HW228860   6.802   6.758   0.017
 9321SOL     OW28861   0.857   3.559   4.380
 9321SOL    HW128862   0.833   3.489   4.447
 9321SOL    HW228863   0.956   3.569   4.376
 9322SOL     OW28864   5.191   3.162   6.998
 9322SOL    HW128865   5.176   3.073   6.956
 9322SOL    HW228866   5.266   3.155   0.046
 9323SOL     OW28867   0.688   2.504   6.059
 9323SOL    HW128868   0.590   2.505   6.076
 9323SOL    HW228869   0.728   2.420   6.095
 9324SOL     OW28870   0.410   4.410   1.502
 9324SOL    HW128871   0.488   4.349   1.519
 9324SOL    HW228872   0.429   4.500   1.541
 9325SOL     OW28873   0.816   4.705   3.448
 9325SOL    HW128874   0.821   4.605   3.450
 9325SOL    HW228875   0.822   4.740   3.541
 9326SOL     OW28876   4.595   4.547   0.690
 9326SOL    HW128877   4.522   4.498   0.738
 9326SOL    HW228878   4.567   4.642   0.676
 9327SOL     OW28879   3.118   1.526   3.217
 9327SOL    HW128880   3.031   1.574   3.223
 9327SOL    HW228881   3.102   1.427   3.226
 9328SOL     OW28882   1.890   0.579   3.515
 9328SOL    HW128883   1.967   0.586   3.452
 9328SOL    HW228884   1.912   0.628   3.600
 9329SOL     OW28885   1.146   5.154   6.713
 9329SOL    HW128886   1.237   5.195   6.715
 9329SOL    HW228887   1.079   5.222   6.680
 9330SOL     OW28888   1.104   6.614   0.131
 9330SOL    HW128889   1.163   6.535   0.111
 9330SOL    HW228890   1.009   6.590   0.112
 9331SOL     OW28891   2.201   4.022   4.101
 9331SOL    HW128892   2.209   4.117   4.073
 9331SOL    HW228893   2.195   3.963   4.020
 9332SOL     OW28894   6.345   5.233   0.424
 9332SOL    HW128895   6.311   5.321   0.391
 9332SOL    HW228896   6.291   5.159   0.384
 9333SOL     OW28897   2.946   4.008   1.580
 9333SOL    HW128898   2.984   3.948   1.650
 9333SOL    HW228899   3.011   4.080   1.557
 9334SOL     OW28900   6.729   5.865   6.075
 9334SOL    HW128901   6.734   5.961   6.045
 9334SOL    HW228902   6.701   5.808   5.998
 9335SOL     OW28903   0.411   3.744   1.638
 9335SOL    HW128904   0.376   3.672   1.579
 9335SOL    HW228905   0.411   3.712   1.733
 9336SOL     OW28906   5.375   6.838   6.219
 9336SOL    HW128907   5.296   6.888   6.254
 9336SOL    HW228908   5.392   6.757   6.275
 9337SOL     OW28909   2.480   1.246   5.644
 9337SOL    HW128910   2.466   1.150   5.621
 9337SOL    HW228911   2.475   1.302   5.561
 9338SOL     OW28912   5.640   6.295   0.654
 9338SOL    HW128913   5.680   6.374   0.607
 9338SOL    HW228914   5.682   6.211   0.620
 9339SOL     OW28915   0.250   4.276   5.149
 9339SOL    HW128916   0.237   4.375   5.145
 9339SOL    HW228917   0.164   4.232   5.172
 9340SOL     OW28918   2.457   4.915   1.932
 9340SOL    HW128919   2.397   4.955   2.003
 9340SOL    HW228920   2.548   4.901   1.970
 9341SOL     OW28921   5.911   5.397   6.636
 9341SOL    HW128922   5.820   5.373   6.668
 9341SOL    HW228923   5.915   5.495   6.616
 9342SOL     OW28924   3.403   0.167   5.067
 9342SOL    HW128925   3.381   0.077   5.103
 9342SOL    HW228926   3.346   0.186   4.987
 9343SOL     OW28927   4.767   3.565   0.582
 9343SOL    HW128928   4.755   3.626   0.504
 9343SOL    HW228929   4.726   3.607   0.663
 9344SOL     OW28930   5.604   0.824   5.333
 9344SOL    HW128931   5.644   0.915   5.319
 9344SOL    HW228932   5.560   0.793   5.249
 9345SOL     OW28933   0.537   4.738   0.129
 9345SOL    HW128934   0.457   4.799   0.124
 9345SOL    HW228935   0.620   4.793   0.123
 9346SOL     OW28936   5.244   0.013   2.114
 9346SOL    HW128937   5.326   6.983   2.084
 9346SOL    HW228938   5.261   0.111   2.113
 9347SOL     OW28939   4.075   6.412   0.984
 9347SOL    HW128940   3.975   6.407   0.987
 9347SOL    HW228941   4.104   6.450   0.897
 9348SOL     OW28942   2.201   5.387   1.530
 9348SOL    HW128943   2.244   5.297   1.533
 9348SOL    HW228944   2.271   5.458   1.522
 9349SOL     OW28945   6.873   6.313   1.262
 9349SOL    HW128946   6.817   6.240   1.300
 9349SOL    HW228947   6.962   6.276   1.236
 9350SOL     OW28948   6.767   0.850   0.259
 9350SOL    HW128949   6.776   0.901   0.344
 9350SOL    HW228950   6.670   0.848   0.233
 9351SOL     OW28951   4.190   3.255   5.925
 9351SOL    HW128952   4.180   3.157   5.942
 9351SOL    HW228953   4.206   3.270   5.827
 9352SOL     OW28954   2.715   2.454   6.699
 9352SOL    HW128955   2.761   2.366   6.712
 9352SOL    HW228956   2.777   2.528   6.723
 9353SOL     OW28957   0.477   3.157   1.538
 9353SOL    HW128958   0.465   3.185   1.443
 9353SOL    HW228959   0.414   3.208   1.596
 9354SOL     OW28960   5.215   1.590   1.881
 9354SOL    HW128961   5.189   1.624   1.790
 9354SOL    HW228962   5.179   1.651   1.951
 9355SOL     OW28963   6.840   1.498   2.108
 9355SOL    HW128964   6.859   1.507   2.010
 9355SOL    HW228965   6.861   1.584   2.153
 9356SOL     OW28966   5.403   3.420   2.487
 9356SOL    HW128967   5.400   3.468   2.575
 9356SOL    HW228968   5.365   3.480   2.416
 9357SOL     OW28969   3.132   3.743   0.832
 9357SOL    HW128970   3.201   3.780   0.769
 9357SOL    HW228971   3.093   3.660   0.794
 9358SOL     OW28972   5.142   4.140   2.032
 9358SOL    HW128973   5.047   4.124   2.058
 9358SOL    HW228974   5.149   4.144   1.932
 9359SOL     OW28975   5.443   4.565   6.314
 9359SOL    HW128976   5.539   4.583   6.289
 9359SOL    HW228977   5.414   4.478   6.274
 9360SOL     OW28978   1.257   0.679   5.240
 9360SOL    HW128979   1.355   0.658   5.233
 9360SOL    HW228980   1.211   0.655   5.155
 9361SOL     OW28981   2.200   1.304   2.081
 9361SOL    HW128982   2.239   1.397   2.074
 9361SOL    HW228983   2.204   1.274   2.176
 9362SOL     OW28984   1.424   1.559   2.922
 9362SOL    HW128985   1.446   1.588   3.015
 9362SOL    HW228986   1.489   1.489   2.892
 9363SOL     OW28987   1.890   6.512   1.763
 9363SOL    HW128988   1.910   6.480   1.670
 9363SOL    HW228989   1.796   6.488   1.787
 9364SOL     OW28990   5.919   4.893   1.181
 9364SOL    HW128991   5.964   4.961   1.238
 9364SOL    HW228992   5.950   4.904   1.086
 9365SOL     OW28993   2.269   1.311   5.083
 9365SOL    HW128994   2.187   1.254   5.081
 9365SOL    HW228995   2.258   1.383   5.152
 9366SOL     OW28996   3.524   1.173   1.868
 9366SOL    HW128997   3.436   1.132   1.893
 9366SOL    HW228998   3.598   1.114   1.899
 9367SOL     OW28999   6.587   6.193   4.218
 9367SOL    HW129000   6.521   6.167   4.289
 9367SOL    HW229001   6.671   6.226   4.261
 9368SOL     OW29002   4.784   2.661   1.390
 9368SOL    HW129003   4.763   2.570   1.425
 9368SOL    HW229004   4.699   2.710   1.369
 9369SOL     OW29005   6.442   2.230   5.704
 9369SOL    HW129006   6.536   2.208   5.730
 9369SOL    HW229007   6.442   2.286   5.621
 9370SOL     OW29008   6.264   6.678   3.450
 9370SOL    HW129009   6.206   6.749   3.491
 9370SOL    HW229010   6.360   6.696   3.474
 9371SOL     OW29011   1.272   6.635   0.376
 9371SOL    HW129012   1.216   6.558   0.343
 9371SOL    HW229013   1.226   6.721   0.353
 9372SOL     OW29014   6.155   6.176   6.711
 9372SOL    HW129015   6.182   6.216   6.798
 9372SOL    HW229016   6.131   6.249   6.647
 9373SOL     OW29017   4.459   2.313   4.082
 9373SOL    HW129018   4.488   2.402   4.116
 9373SOL    HW229019   4.481   2.305   3.985
 9374SOL     OW29020   5.285   4.198   0.356
 9374SOL    HW129021   5.369   4.155   0.390
 9374SOL    HW229022   5.283   4.192   0.257
 9375SOL     OW29023   0.970   1.371   4.388
 9375SOL    HW129024   0.916   1.288   4.401
 9375SOL    HW229025   0.910   1.449   4.373
 9376SOL     OW29026   1.913   2.979   2.339
 9376SOL    HW129027   1.905   3.073   2.306
 9376SOL    HW229028   1.825   2.933   2.329
 9377SOL     OW29029   6.054   5.170   2.917
 9377SOL    HW129030   6.120   5.149   2.990
 9377SOL    HW229031   5.990   5.239   2.950
 9378SOL     OW29032   3.523   6.319   1.333
 9378SOL    HW129033   3.424   6.329   1.335
 9378SOL    HW229034   3.560   6.333   1.425
 9379SOL     OW29035   5.490   4.851   5.631
 9379SOL    HW129036   5.497   4.951   5.630
 9379SOL    HW229037   5.478   4.817   5.538
 9380SOL     OW29038   6.191   5.978   6.288
 9380SOL    HW129039   6.142   5.988   6.201
 9380SOL    HW229040   6.129   5.941   6.357
 9381SOL     OW29041   2.310   0.991   6.971
 9381SOL    HW129042   2.336   1.083   6.941
 9381SOL    HW229043   2.364   0.924   6.920
 9382SOL     OW29044   5.700   2.240   2.608
 9382SOL    HW129045   5.658   2.329   2.622
 9382SOL    HW229046   5.787   2.251   2.559
 9383SOL     OW29047   5.601   5.772   5.773
 9383SOL    HW129048   5.621   5.835   5.849
 9383SOL    HW229049   5.546   5.696   5.807
 9384SOL     OW29050   4.112   6.119   2.107
 9384SOL    HW129051   4.119   6.197   2.046
 9384SOL    HW229052   4.018   6.085   2.107
 9385SOL     OW29053   3.835   1.072   4.089
 9385SOL    HW129054   3.914   1.052   4.147
 9385SOL    HW229055   3.762   1.007   4.109
 9386SOL     OW29056   4.074   0.135   4.900
 9386SOL    HW129057   4.142   0.075   4.856
 9386SOL    HW229058   4.062   0.217   4.844
 9387SOL     OW29059   3.745   6.490   0.523
 9387SOL    HW129060   3.836   6.453   0.541
 9387SOL    HW229061   3.688   6.476   0.604
 9388SOL     OW29062   6.763   6.719   2.575
 9388SOL    HW129063   6.746   6.679   2.485
 9388SOL    HW229064   6.780   6.817   2.566
 9389SOL     OW29065   3.335   1.267   6.879
 9389SOL    HW129066   3.425   1.266   6.836
 9389SOL    HW229067   3.344   1.249   6.977
 9390SOL     OW29068   2.636   6.941   2.020
 9390SOL    HW129069   2.704   6.969   2.088
 9390SOL    HW229070   2.596   6.854   2.046
 9391SOL     OW29071   0.519   1.157   5.561
 9391SOL    HW129072   0.609   1.198   5.543
 9391SOL    HW229073   0.520   1.061   5.533
 9392SOL     OW29074   1.639   6.505   3.933
 9392SOL    HW129075   1.628   6.556   3.847
 9392SOL    HW229076   1.718   6.541   3.983
 9393SOL     OW29077   3.908   2.194   5.493
 9393SOL    HW129078   3.865   2.209   5.404
 9393SOL    HW229079   3.995   2.243   5.497
 9394SOL     OW29080   5.815   2.530   2.240
 9394SOL    HW129081   5.789   2.457   2.303
 9394SOL    HW229082   5.887   2.586   2.282
 9395SOL     OW29083   1.823   2.423   6.389
 9395SOL    HW129084   1.812   2.479   6.471
 9395SOL    HW229085   1.738   2.425   6.335
 9396SOL     OW29086   6.374   0.294   6.902
 9396SOL    HW129087   6.444   0.229   6.874
 9396SOL    HW229088   6.384   0.316   6.999
 9397SOL     OW29089   2.677   1.167   0.875
 9397SOL    HW129090   2.632   1.256   0.878
 9397SOL    HW229091   2.744   1.161   0.948
 9398SOL     OW29092   2.047   1.720   0.331
 9398SOL    HW129093   2.052   1.728   0.430
 9398SOL    HW229094   1.956   1.747   0.299
 9399SOL     OW29095   6.741   0.748   5.286
 9399SOL    HW129096   6.828   0.797   5.280
 9399SOL    HW229097   6.758   0.654   5.315
 9400SOL     OW29098   4.413   1.789   3.837
 9400SOL    HW129099   4.367   1.828   3.917
 9400SOL    HW229100   4.424   1.859   3.767
 9401SOL     OW29101   4.100   0.314   2.921
 9401SOL    HW129102   4.151   0.229   2.911
 9401SOL    HW229103   4.003   0.293   2.933
 9402SOL     OW29104   1.930   5.066   0.084
 9402SOL    HW129105   1.838   5.032   0.065
 9402SOL    HW229106   1.992   5.035   0.012
 9403SOL     OW29107   5.592   1.399   4.358
 9403SOL    HW129108   5.585   1.339   4.438
 9403SOL    HW229109   5.505   1.448   4.346
 9404SOL     OW29110   0.659   3.911   5.619
 9404SOL    HW129111   0.602   3.976   5.568
 9404SOL    HW229112   0.755   3.936   5.609
 9405SOL     OW29113   6.361   6.972   1.042
 9405SOL    HW129114   6.290   0.025   1.036
 9405SOL    HW229115   6.332   6.901   1.106
 9406SOL     OW29116   0.072   1.121   5.973
 9406SOL    HW129117   0.142   1.188   5.946
 9406SOL    HW229118   7.016   1.121   5.907
 9407SOL     OW29119   3.395   5.727   2.779
 9407SOL    HW129120   3.410   5.649   2.839
 9407SOL    HW229121   3.464   5.797   2.798
 9408SOL     OW29122   3.827   1.820   6.659
 9408SOL    HW129123   3.767   1.873   6.719
 9408SOL    HW229124   3.823   1.723   6.685
 9409SOL     OW29125   5.592   3.792   3.311
 9409SOL    HW129126   5.542   3.730   3.373
 9409SOL    HW229127   5.565   3.886   3.330
 9410SOL     OW29128   4.999   6.375   2.000
 9410SOL    HW129129   4.972   6.279   1.992
 9410SOL    HW229130   5.093   6.380   2.035
 9411SOL     OW29131   4.622   5.567   1.124
 9411SOL    HW129132   4.554   5.511   1.075
 9411SOL    HW229133   4.696   5.591   1.062
 9412SOL     OW29134   6.394   3.108   1.391
 9412SOL    HW129135   6.462   3.178   1.412
 9412SOL    HW229136   6.349   3.130   1.304
 9413SOL     OW29137   3.416   5.540   4.857
 9413SOL    HW129138   3.372   5.624   4.887
 9413SOL    HW229139   3.378   5.512   4.769
 9414SOL     OW29140   2.546   1.474   2.122
 9414SOL    HW129141   2.531   1.419   2.040
 9414SOL    HW229142   2.614   1.545   2.102
 9415SOL     OW29143   2.931   0.678   1.999
 9415SOL    HW129144   2.992   0.708   1.926
 9415SOL    HW229145   2.950   0.731   2.082
 9416SOL     OW29146   0.739   2.086   1.303
 9416SOL    HW129147   0.738   2.043   1.393
 9416SOL    HW229148   0.816   2.051   1.250
 9417SOL     OW29149   2.525   6.782   4.548
 9417SOL    HW129150   2.531   6.684   4.526
 9417SOL    HW229151   2.596   6.831   4.498
 9418SOL     OW29152   4.040   4.308   0.963
 9418SOL    HW129153   3.995   4.225   0.929
 9418SOL    HW229154   3.979   4.355   1.026
 9419SOL     OW29155   3.978   5.844   5.332
 9419SOL    HW129156   4.067   5.807   5.359
 9419SOL    HW229157   3.929   5.877   5.413
 9420SOL     OW29158   0.942   1.469   4.779
 9420SOL    HW129159   0.943   1.400   4.707
 9420SOL    HW229160   0.850   1.477   4.816
 9421SOL     OW29161   1.844   5.203   4.897
 9421SOL    HW129162   1.766   5.261   4.874
 9421SOL    HW229163   1.916   5.216   4.828
 9422SOL     OW29164   3.855   1.313   1.950
 9422SOL    HW129165   3.840   1.326   2.048
 9422SOL    HW229166   3.791   1.370   1.898
 9423SOL     OW29167   4.684   0.702   4.846
 9423SOL    HW129168   4.753   0.737   4.909
 9423SOL    HW229169   4.617   0.773   4.827
 9424SOL     OW29170   3.203   6.349   4.455
 9424SOL    HW129171   3.242   6.258   4.468
 9424SOL    HW229172   3.253   6.415   4.511
 9425SOL     OW29173   1.305   4.368   3.797
 9425SOL    HW129174   1.351   4.324   3.874
 9425SOL    HW229175   1.358   4.353   3.713
 9426SOL     OW29176   3.747   6.477   0.248
 9426SOL    HW129177   3.661   6.453   0.202
 9426SOL    HW229178   3.738   6.460   0.346
 9427SOL     OW29179   2.951   5.009   4.263
 9427SOL    HW129180   2.951   5.007   4.362
 9427SOL    HW229181   2.872   4.959   4.227
 9428SOL     OW29182   4.271   6.227   2.643
 9428SOL    HW129183   4.259   6.234   2.544
 9428SOL    HW229184   4.351   6.170   2.662
 9429SOL     OW29185   0.041   3.661   2.517
 9429SOL    HW129186   7.018   3.721   2.585
 9429SOL    HW229187   0.103   3.597   2.562
 9430SOL     OW29188   6.435   6.799   2.201
 9430SOL    HW129189   6.471   6.762   2.115
 9430SOL    HW229190   6.344   6.838   2.185
 9431SOL     OW29191   6.428   4.633   2.098
 9431SOL    HW129192   6.443   4.538   2.068
 9431SOL    HW229193   6.499   4.658   2.164
 9432SOL     OW29194   6.757   6.816   4.479
 9432SOL    HW129195   6.771   6.718   4.473
 9432SOL    HW229196   6.845   6.863   4.473
 9433SOL     OW29197   2.548   4.721   4.777
 9433SOL    HW129198   2.482   4.651   4.804
 9433SOL    HW229199   2.503   4.810   4.773
 9434SOL     OW29200   5.347   5.282   2.885
 9434SOL    HW129201   5.257   5.286   2.929
 9434SOL    HW229202   5.369   5.372   2.846
 9435SOL     OW29203   1.366   1.155   4.614
 9435SOL    HW129204   1.423   1.085   4.571
 9435SOL    HW229205   1.414   1.242   4.614
 9436SOL     OW29206   1.789   2.582   5.970
 9436SOL    HW129207   1.851   2.544   6.039
 9436SOL    HW229208   1.815   2.677   5.951
 9437SOL     OW29209   0.580   5.320   3.900
 9437SOL    HW129210   0.620   5.263   3.973
 9437SOL    HW229211   0.481   5.319   3.908
 9438SOL     OW29212   1.065   6.354   2.161
 9438SOL    HW129213   0.983   6.367   2.218
 9438SOL    HW229214   1.139   6.411   2.196
 9439SOL     OW29215   0.918   2.634   1.583
 9439SOL    HW129216   0.857   2.600   1.655
 9439SOL    HW229217   0.863   2.662   1.504
 9440SOL     OW29218   4.366   5.950   5.470
 9440SOL    HW129219   4.390   5.855   5.489
 9440SOL    HW229220   4.442   5.994   5.422
 9441SOL     OW29221   1.764   4.954   4.633
 9441SOL    HW129222   1.816   4.974   4.716
 9441SOL    HW229223   1.824   4.909   4.566
 9442SOL     OW29224   0.860   3.729   1.047
 9442SOL    HW129225   0.911   3.783   1.115
 9442SOL    HW229226   0.910   3.645   1.027
 9443SOL     OW29227   1.778   3.451   1.429
 9443SOL    HW129228   1.685   3.462   1.464
 9443SOL    HW229229   1.843   3.495   1.492
 9444SOL     OW29230   0.051   3.669   5.946
 9444SOL    HW129231   7.002   3.707   5.883
 9444SOL    HW229232   0.066   3.734   6.021
 9445SOL     OW29233   5.865   3.644   1.486
 9445SOL    HW129234   5.836   3.582   1.558
 9445SOL    HW229235   5.902   3.728   1.527
 9446SOL     OW29236   6.010   5.151   1.271
 9446SOL    HW129237   6.074   5.145   1.348
 9446SOL    HW229238   6.006   5.245   1.238
 9447SOL     OW29239   6.079   2.854   1.488
 9447SOL    HW129240   6.033   2.799   1.557
 9447SOL    HW229241   6.173   2.874   1.518
 9448SOL     OW29242   5.976   6.182   0.321
 9448SOL    HW129243   5.940   6.168   0.229
 9448SOL    HW229244   6.072   6.208   0.315
 9449SOL     OW29245   7.007   5.261   5.153
 9449SOL    HW129246   0.064   5.229   5.096
 9449SOL    HW229247   6.927   5.201   5.141
 9450SOL     OW29248   2.656   5.174   4.535
 9450SOL    HW129249   2.572   5.139   4.495
 9450SOL    HW229250   2.703   5.233   4.469
 9451SOL     OW29251   4.108   4.188   5.996
 9451SOL    HW129252   4.048   4.186   6.076
 9451SOL    HW229253   4.078   4.262   5.935
 9452SOL     OW29254   3.193   4.274   1.192
 9452SOL    HW129255   3.108   4.271   1.139
 9452SOL    HW229256   3.171   4.275   1.289
 9453SOL     OW29257   3.364   4.874   2.076
 9453SOL    HW129258   3.278   4.829   2.051
 9453SOL    HW229259   3.437   4.844   2.015
 9454SOL     OW29260   2.515   2.555   5.145
 9454SOL    HW129261   2.596   2.554   5.204
 9454SOL    HW229262   2.541   2.537   5.051
 9455SOL     OW29263   3.243   1.397   2.205
 9455SOL    HW129264   3.196   1.351   2.130
 9455SOL    HW229265   3.341   1.376   2.201
 9456SOL     OW29266   1.928   3.223   1.397
 9456SOL    HW129267   1.864   3.298   1.410
 9456SOL    HW229268   1.881   3.136   1.417
 9457SOL     OW29269   6.819   3.265   0.499
 9457SOL    HW129270   6.720   3.267   0.486
 9457SOL    HW229271   6.863   3.323   0.431
 9458SOL     OW29272   0.248   5.773   4.466
 9458SOL    HW129273   0.321   5.838   4.445
 9458SOL    HW229274   0.236   5.767   4.565
 9459SOL     OW29275   4.401   5.981   1.854
 9459SOL    HW129276   4.469   5.938   1.794
 9459SOL    HW229277   4.437   6.069   1.886
 9460SOL     OW29278   0.817   2.208   5.016
 9460SOL    HW129279   0.723   2.233   5.038
 9460SOL    HW229280   0.878   2.240   5.088
 9461SOL     OW29281   1.552   0.564   3.230
 9461SOL    HW129282   1.504   0.635   3.282
 9461SOL    HW229283   1.485   0.500   3.192
 9462SOL     OW29284   0.585   3.624   2.660
 9462SOL    HW129285   0.632   3.711   2.676
 9462SOL    HW229286   0.631   3.575   2.585
 9463SOL     OW29287   5.241   1.317   0.314
 9463SOL    HW129288   5.332   1.279   0.301
 9463SOL    HW229289   5.173   1.244   0.311
 9464SOL     OW29290   4.590   0.014   6.101
 9464SOL    HW129291   4.570   6.992   6.190
 9464SOL    HW229292   4.506   0.051   6.062
 9465SOL     OW29293   5.825   0.382   4.398
 9465SOL    HW129294   5.775   0.423   4.475
 9465SOL    HW229295   5.809   0.437   4.316
 9466SOL     OW29296   2.382   2.141   6.655
 9466SOL    HW129297   2.377   2.240   6.638
 9466SOL    HW229298   2.464   2.121   6.708
 9467SOL     OW29299   1.895   3.402   2.020
 9467SOL    HW129300   1.995   3.396   2.020
 9467SOL    HW229301   1.868   3.485   2.070
 9468SOL     OW29302   6.775   2.430   6.141
 9468SOL    HW129303   6.711   2.408   6.068
 9468SOL    HW229304   6.840   2.356   6.152
 9469SOL     OW29305   6.310   4.308   2.310
 9469SOL    HW129306   6.233   4.351   2.263
 9469SOL    HW229307   6.312   4.210   2.288
 9470SOL     OW29308   5.058   3.721   1.041
 9470SOL    HW129309   5.054   3.680   0.949
 9470SOL    HW229310   4.992   3.675   1.100
 9471SOL     OW29311   6.919   2.204   6.158
 9471SOL    HW129312   6.964   2.148   6.088
 9471SOL    HW229313   6.986   2.230   6.228
 9472SOL     OW29314   6.759   3.447   4.470
 9472SOL    HW129315   6.718   3.498   4.545
 9472SOL    HW229316   6.702   3.456   4.388
 9473SOL     OW29317   3.814   5.286   4.830
 9473SOL    HW129318   3.797   5.385   4.830
 9473SOL    HW229319   3.754   5.242   4.764
 9474SOL     OW29320   3.932   5.298   2.574
 9474SOL    HW129321   4.007   5.352   2.535
 9474SOL    HW229322   3.968   5.213   2.611
 9475SOL     OW29323   1.420   3.916   1.293
 9475SOL    HW129324   1.418   4.005   1.338
 9475SOL    HW229325   1.497   3.863   1.328
 9476SOL     OW29326   3.901   3.645   5.427
 9476SOL    HW129327   3.904   3.637   5.526
 9476SOL    HW229328   3.908   3.741   5.401
 9477SOL     OW29329   1.302   3.375   0.884
 9477SOL    HW129330   1.357   3.445   0.928
 9477SOL    HW229331   1.334   3.362   0.790
 9478SOL     OW29332   5.471   4.745   5.401
 9478SOL    HW129333   5.531   4.687   5.347
 9478SOL    HW229334   5.434   4.819   5.344
 9479SOL     OW29335   6.767   5.884   5.696
 9479SOL    HW129336   6.804   5.886   5.604
 9479SOL    HW229337   6.842   5.877   5.762
 9480SOL     OW29338   6.108   4.720   0.211
 9480SOL    HW129339   6.053   4.771   0.276
 9480SOL    HW229340   6.141   4.781   0.139
 9481SOL     OW29341   6.457   3.741   2.219
 9481SOL    HW129342   6.380   3.692   2.260
 9481SOL    HW229343   6.529   3.753   2.288
 9482SOL     OW29344   3.847   0.483   2.652
 9482SOL    HW129345   3.807   0.431   2.728
 9482SOL    HW229346   3.792   0.565   2.635
 9483SOL     OW29347   1.742   1.706   0.231
 9483SOL    HW129348   1.662   1.752   0.270
 9483SOL    HW229349   1.714   1.621   0.188
 9484SOL     OW29350   6.523   1.308   2.601
 9484SOL    HW129351   6.600   1.273   2.654
 9484SOL    HW229352   6.444   1.247   2.612
 9485SOL     OW29353   1.163   0.631   3.163
 9485SOL    HW129354   1.158   0.545   3.113
 9485SOL    HW229355   1.236   0.688   3.124
 9486SOL     OW29356   3.091   6.161   1.833
 9486SOL    HW129357   3.168   6.114   1.789
 9486SOL    HW229358   3.073   6.119   1.922
 9487SOL     OW29359   3.066   3.152   3.705
 9487SOL    HW129360   3.142   3.180   3.645
 9487SOL    HW229361   3.071   3.053   3.720
 9488SOL     OW29362   1.594   0.310   1.285
 9488SOL    HW129363   1.578   0.229   1.229
 9488SOL    HW229364   1.690   0.337   1.279
 9489SOL     OW29365   3.437   4.116   0.144
 9489SOL    HW129366   3.459   4.059   0.065
 9489SOL    HW229367   3.512   4.180   0.161
 9490SOL     OW29368   5.459   0.778   0.166
 9490SOL    HW129369   5.504   0.831   0.237
 9490SOL    HW229370   5.444   0.684   0.199
 9491SOL     OW29371   6.471   5.450   6.402
 9491SOL    HW129372   6.372   5.462   6.396
 9491SOL    HW229373   6.517   5.521   6.348
 9492SOL     OW29374   3.071   4.037   2.044
 9492SOL    HW129375   3.133   4.005   2.115
 9492SOL    HW229376   3.031   4.124   2.073
 9493SOL     OW29377   5.167   6.528   3.166
 9493SOL    HW129378   5.153   6.435   3.200
 9493SOL    HW229379   5.212   6.525   3.077
 9494SOL     OW29380   4.269   3.305   5.664
 9494SOL    HW129381   4.342   3.352   5.714
 9494SOL    HW229382   4.309   3.243   5.597
 9495SOL     OW29383   5.745   2.900   5.311
 9495SOL    HW129384   5.823   2.918   5.370
 9495SOL    HW229385   5.771   2.913   5.216
 9496SOL     OW29386   5.716   4.060   0.527
 9496SOL    HW129387   5.672   4.149   0.516
 9496SOL    HW229388   5.647   3.991   0.549
 9497SOL     OW29389   0.143   6.379   5.643
 9497SOL    HW129390   0.241   6.370   5.661
 9497SOL    HW229391   0.113   6.471   5.666
 9498SOL     OW29392   4.279   0.219   5.863
 9498SOL    HW129393   4.345   0.218   5.788
 9498SOL    HW229394   4.257   0.314   5.886
 9499SOL     OW29395   4.386   4.474   5.806
 9499SOL    HW129396   4.343   4.389   5.776
 9499SOL    HW229397   4.483   4.473   5.783
 9500SOL     OW29398   4.952   5.730   1.607
 9500SOL    HW129399   4.975   5.657   1.672
 9500SOL    HW229400   4.911   5.807   1.656
 9501SOL     OW29401   3.286   1.813   4.884
 9501SOL    HW129402   3.233   1.729   4.868
 9501SOL    HW229403   3.354   1.796   4.955
 9502SOL     OW29404   5.557   3.362   5.403
 9502SOL    HW129405   5.574   3.341   5.500
 9502SOL    HW229406   5.471   3.319   5.375
 9503SOL     OW29407   1.721   6.277   1.101
 9503SOL    HW129408   1.660   6.307   1.174
 9503SOL    HW229409   1.815   6.273   1.135
 9504SOL     OW29410   0.744   3.021   6.591
 9504SOL    HW129411   0.677   3.031   6.517
 9504SOL    HW229412   0.836   3.021   6.553
 9505SOL     OW29413   5.700   3.365   2.821
 9505SOL    HW129414   5.708   3.461   2.848
 9505SOL    HW229415   5.619   3.325   2.863
 9506SOL     OW29416   6.246   3.419   0.408
 9506SOL    HW129417   6.287   3.474   0.481
 9506SOL    HW229418   6.261   3.463   0.320
 9507SOL     OW29419   1.033   2.305   4.067
 9507SOL    HW129420   0.973   2.380   4.040
 9507SOL    HW229421   0.984   2.218   4.058
 9508SOL     OW29422   5.104   2.008   0.540
 9508SOL    HW129423   5.054   2.038   0.458
 9508SOL    HW229424   5.172   2.077   0.564
 9509SOL     OW29425   2.564   6.653   5.173
 9509SOL    HW129426   2.571   6.688   5.266
 9509SOL    HW229427   2.648   6.675   5.123
 9510SOL     OW29428   6.151   4.562   3.169
 9510SOL    HW129429   6.085   4.493   3.140
 9510SOL    HW229430   6.236   4.518   3.196
 9511SOL     OW29431   1.088   1.528   0.708
 9511SOL    HW129432   1.068   1.626   0.712
 9511SOL    HW229433   1.019   1.478   0.760
 9512SOL     OW29434   1.389   2.454   4.187
 9512SOL    HW129435   1.352   2.540   4.224
 9512SOL    HW229436   1.451   2.475   4.111
 9513SOL     OW29437   2.358   4.275   3.622
 9513SOL    HW129438   2.441   4.219   3.616
 9513SOL    HW229439   2.287   4.225   3.671
 9514SOL     OW29440   2.139   2.983   6.267
 9514SOL    HW129441   2.099   3.073   6.285
 9514SOL    HW229442   2.232   2.981   6.305
 9515SOL     OW29443   2.400   5.934   5.954
 9515SOL    HW129444   2.476   5.915   5.892
 9515SOL    HW229445   2.424   6.013   6.011
 9516SOL     OW29446   5.369   3.516   4.607
 9516SOL    HW129447   5.387   3.610   4.581
 9516SOL    HW229448   5.284   3.485   4.563
 9517SOL     OW29449   0.435   5.858   1.961
 9517SOL    HW129450   0.529   5.828   1.980
 9517SOL    HW229451   0.427   5.884   1.865
 9518SOL     OW29452   0.710   2.572   5.422
 9518SOL    HW129453   0.655   2.489   5.406
 9518SOL    HW229454   0.696   2.603   5.516
 9519SOL     OW29455   3.689   3.293   3.231
 9519SOL    HW129456   3.661   3.228   3.160
 9519SOL    HW229457   3.739   3.244   3.303
 9520SOL     OW29458   5.212   0.234   6.407
 9520SOL    HW129459   5.263   0.286   6.339
 9520SOL    HW229460   5.180   0.295   6.480
 9521SOL     OW29461   3.309   0.728   0.897
 9521SOL    HW129462   3.242   0.662   0.932
 9521SOL    HW229463   3.321   0.714   0.799
 9522SOL     OW29464   3.363   6.532   2.338
 9522SOL    HW129465   3.443   6.556   2.283
 9522SOL    HW229466   3.392   6.478   2.418
 9523SOL     OW29467   2.991   4.846   3.979
 9523SOL    HW129468   3.083   4.855   3.941
 9523SOL    HW229469   2.993   4.871   4.076
 9524SOL     OW29470   2.674   3.911   0.975
 9524SOL    HW129471   2.645   3.902   1.070
 9524SOL    HW229472   2.774   3.920   0.971
 9525SOL     OW29473   2.214   3.080   5.289
 9525SOL    HW129474   2.297   3.070   5.235
 9525SOL    HW229475   2.238   3.111   5.381
 9526SOL     OW29476   5.293   5.312   0.126
 9526SOL    HW129477   5.214   5.355   0.170
 9526SOL    HW229478   5.330   5.241   0.186
 9527SOL     OW29479   4.123   0.200   3.505
 9527SOL    HW129480   4.119   0.250   3.418
 9527SOL    HW229481   4.139   0.103   3.486
 9528SOL     OW29482   5.637   2.072   1.039
 9528SOL    HW129483   5.648   1.974   1.057
 9528SOL    HW229484   5.610   2.086   0.944
 9529SOL     OW29485   6.276   0.950   1.335
 9529SOL    HW129486   6.375   0.938   1.342
 9529SOL    HW229487   6.232   0.909   1.415
 9530SOL     OW29488   1.461   5.324   4.021
 9530SOL    HW129489   1.422   5.372   3.943
 9530SOL    HW229490   1.536   5.265   3.991
 9531SOL     OW29491   3.478   5.227   2.405
 9531SOL    HW129492   3.501   5.235   2.502
 9531SOL    HW229493   3.411   5.154   2.392
 9532SOL     OW29494   6.628   5.003   2.971
 9532SOL    HW129495   6.602   5.040   3.060
 9532SOL    HW229496   6.546   4.983   2.918
 9533SOL     OW29497   1.863   4.067   3.328
 9533SOL    HW129498   1.958   4.099   3.330
 9533SOL    HW229499   1.834   4.057   3.233
 9534SOL     OW29500   5.583   4.800   4.464
 9534SOL    HW129501   5.628   4.834   4.547
 9534SOL    HW229502   5.602   4.863   4.389
 9535SOL     OW29503   0.628   1.509   5.764
 9535SOL    HW129504   0.611   1.530   5.668
 9535SOL    HW229505   0.541   1.509   5.814
 9536SOL     OW29506   3.757   4.171   5.083
 9536SOL    HW129507   3.825   4.105   5.050
 9536SOL    HW229508   3.669   4.125   5.096
 9537SOL     OW29509   0.515   1.663   3.599
 9537SOL    HW129510   0.518   1.668   3.699
 9537SOL    HW229511   0.602   1.696   3.561
 9538SOL     OW29512   4.387   0.704   5.545
 9538SOL    HW129513   4.391   0.665   5.453
 9538SOL    HW229514   4.444   0.650   5.607
 9539SOL     OW29515   3.451   3.718   2.048
 9539SOL    HW129516   3.518   3.751   2.115
 9539SOL    HW229517   3.487   3.637   2.003
 9540SOL     OW29518   4.332   4.628   3.564
 9540SOL    HW129519   4.383   4.699   3.612
 9540SOL    HW229520   4.264   4.589   3.626
 9541SOL     OW29521   2.154   5.428   5.848
 9541SOL    HW129522   2.237   5.417   5.904
 9541SOL    HW229523   2.076   5.447   5.908
 9542SOL     OW29524   6.219   3.865   4.038
 9542SOL    HW129525   6.178   3.813   4.113
 9542SOL    HW229526   6.153   3.931   4.003
 9543SOL     OW29527   2.506   0.032   5.662
 9543SOL    HW129528   2.495   0.011   5.565
 9543SOL    HW229529   2.602   0.019   5.688
 9544SOL     OW29530   5.755   3.457   4.158
 9544SOL    HW129531   5.755   3.453   4.058
 9544SOL    HW229532   5.849   3.456   4.192
 9545SOL     OW29533   0.884   4.408   1.772
 9545SOL    HW129534   0.863   4.374   1.680
 9545SOL    HW229535   0.965   4.361   1.807
 9546SOL     OW29536   2.556   2.734   6.921
 9546SOL    HW129537   2.538   2.638   6.899
 9546SOL    HW229538   2.601   2.739   7.010
 9547SOL     OW29539   4.247   6.368   4.228
 9547SOL    HW129540   4.173   6.419   4.270
 9547SOL    HW229541   4.324   6.429   4.209
 9548SOL     OW29542   1.540   4.389   6.923
 9548SOL    HW129543   1.484   4.433   6.852
 9548SOL    HW229544   1.617   4.449   6.945
 9549SOL     OW29545   4.958   2.442   1.133
 9549SOL    HW129546   4.987   2.398   1.218
 9549SOL    HW229547   4.858   2.450   1.132
 9550SOL     OW29548   5.259   3.007   1.451
 9550SOL    HW129549   5.166   3.035   1.476
 9550SOL    HW229550   5.321   3.025   1.528
 9551SOL     OW29551   6.416   3.308   6.396
 9551SOL    HW129552   6.498   3.331   6.447
 9551SOL    HW229553   6.439   3.296   6.299
 9552SOL     OW29554   2.969   1.946   6.982
 9552SOL    HW129555   2.889   1.895   7.015
 9552SOL    HW229556   2.970   1.947   6.882
 9553SOL     OW29557   5.336   1.384   6.524
 9553SOL    HW129558   5.433   1.387   6.501
 9553SOL    HW229559   5.283   1.368   6.440
 9554SOL     OW29560   2.853   6.913   4.107
 9554SOL    HW129561   2.812   6.997   4.072
 9554SOL    HW229562   2.948   6.930   4.134
 9555SOL     OW29563   6.453   0.306   3.508
 9555SOL    HW129564   6.383   0.330   3.440
 9555SOL    HW229565   6.421   0.228   3.562
 9556SOL     OW29566   2.089   4.352   6.712
 9556SOL    HW129567   2.029   4.426   6.681
 9556SOL    HW229568   2.035   4.283   6.759
 9557SOL     OW29569   5.053   0.815   1.832
 9557SOL    HW129570   5.131   0.757   1.809
 9557SOL    HW229571   5.086   0.898   1.878
 9558SOL     OW29572   4.811   6.720   6.349
 9558SOL    HW129573   4.781   6.746   6.441
 9558SOL    HW229574   4.761   6.638   6.320
 9559SOL     OW29575   1.551   4.039   0.114
 9559SOL    HW129576   1.524   3.960   0.169
 9559SOL    HW229577   1.470   4.086   0.081
 9560SOL     OW29578   3.212   6.734   2.170
 9560SOL    HW129579   3.261   6.700   2.250
 9560SOL    HW229580   3.251   6.823   2.142
 9561SOL     OW29581   0.683   0.177   0.883
 9561SOL    HW129582   0.688   0.230   0.968
 9561SOL    HW229583   0.762   0.199   0.826
 9562SOL     OW29584   3.113   5.938   3.232
 9562SOL    HW129585   3.177   5.871   3.270
 9562SOL    HW229586   3.163   6.019   3.202
 9563SOL     OW29587   0.507   6.379   1.297
 9563SOL    HW129588   0.584   6.375   1.360
 9563SOL    HW229589   0.474   6.473   1.290
 9564SOL     OW29590   1.117   0.639   0.006
 9564SOL    HW129591   1.146   0.553   6.982
 9564SOL    HW229592   1.126   0.714   6.959
 9565SOL     OW29593   3.229   1.664   3.557
 9565SOL    HW129594   3.316   1.614   3.562
 9565SOL    HW229595   3.224   1.713   3.471
 9566SOL     OW29596   3.454   0.762   0.262
 9566SOL    HW129597   3.487   0.842   0.212
 9566SOL    HW229598   3.357   0.774   0.283
 9567SOL     OW29599   6.623   3.664   1.251
 9567SOL    HW129600   6.636   3.681   1.349
 9567SOL    HW229601   6.570   3.580   1.239
 9568SOL     OW29602   4.872   1.185   6.922
 9568SOL    HW129603   4.873   1.090   6.890
 9568SOL    HW229604   4.801   1.196   6.991
 9569SOL     OW29605   5.802   0.859   1.883
 9569SOL    HW129606   5.902   0.865   1.881
 9569SOL    HW229607   5.771   0.792   1.815
 9570SOL     OW29608   0.428   3.266   1.274
 9570SOL    HW129609   0.458   3.349   1.321
 9570SOL    HW229610   0.356   3.289   1.209
 9571SOL     OW29611   2.361   2.362   6.468
 9571SOL    HW129612   2.325   2.437   6.522
 9571SOL    HW229613   2.325   2.368   6.375
 9572SOL     OW29614   2.208   4.103   3.777
 9572SOL    HW129615   2.231   4.011   3.809
 9572SOL    HW229616   2.114   4.124   3.802
 9573SOL     OW29617   6.293   1.018   4.611
 9573SOL    HW129618   6.360   1.092   4.619
 9573SOL    HW229619   6.340   0.930   4.618
 9574SOL     OW29620   3.587   3.112   1.058
 9574SOL    HW129621   3.621   3.028   1.100
 9574SOL    HW229622   3.536   3.165   1.127
 9575SOL     OW29623   6.061   6.494   1.521
 9575SOL    HW129624   6.157   6.502   1.493
 9575SOL    HW229625   6.035   6.575   1.574
 9576SOL     OW29626   0.797   6.569   0.085
 9576SOL    HW129627   0.721   6.607   0.033
 9576SOL    HW229628   0.781   6.472   0.100
 9577SOL     OW29629   6.179   5.241   2.210
 9577SOL    HW129630   6.127   5.310   2.260
 9577SOL    HW229631   6.207   5.168   2.273
 9578SOL     OW29632   2.155   3.016   3.157
 9578SOL    HW129633   2.129   3.093   3.216
 9578SOL    HW229634   2.136   3.040   3.062
 9579SOL     OW29635   5.768   6.034   1.889
 9579SOL    HW129636   5.707   5.995   1.957
 9579SOL    HW229637   5.861   6.003   1.906
 9580SOL     OW29638   5.309   4.843   2.834
 9580SOL    HW129639   5.249   4.869   2.759
 9580SOL    HW229640   5.402   4.829   2.799
 9581SOL     OW29641   6.349   1.111   0.043
 9581SOL    HW129642   6.391   1.087   0.131
 9581SOL    HW229643   6.328   1.027   7.010
 9582SOL     OW29644   4.884   6.046   4.378
 9582SOL    HW129645   4.786   6.066   4.374
 9582SOL    HW229646   4.934   6.116   4.327
 9583SOL     OW29647   3.681   4.445   1.649
 9583SOL    HW129648   3.637   4.529   1.678
 9583SOL    HW229649   3.655   4.370   1.710
 9584SOL     OW29650   2.173   5.663   4.918
 9584SOL    HW129651   2.118   5.580   4.924
 9584SOL    HW229652   2.230   5.671   5.001
 9585SOL     OW29653   4.005   5.828   0.988
 9585SOL    HW129654   4.054   5.741   0.999
 9585SOL    HW229655   4.038   5.875   0.906
 9586SOL     OW29656   4.375   5.010   2.146
 9586SOL    HW129657   4.280   5.037   2.131
 9586SOL    HW229658   4.384   4.911   2.134
 9587SOL     OW29659   3.034   5.865   1.681
 9587SOL    HW129660   2.943   5.903   1.698
 9587SOL    HW229661   3.091   5.935   1.639
 9588SOL     OW29662   6.201   5.440   0.305
 9588SOL    HW129663   6.216   5.382   0.225
 9588SOL    HW229664   6.103   5.442   0.326
 9589SOL     OW29665   1.585   3.990   6.242
 9589SOL    HW129666   1.552   4.001   6.149
 9589SOL    HW229667   1.544   4.060   6.301
 9590SOL     OW29668   5.646   1.693   1.323
 9590SOL    HW129669   5.730   1.693   1.377
 9590SOL    HW229670   5.574   1.648   1.375
 9591SOL     OW29671   3.687   0.725   6.910
 9591SOL    HW129672   3.730   0.644   6.950
 9591SOL    HW229673   3.614   0.697   6.848
 9592SOL     OW29674   2.295   5.661   5.663
 9592SOL    HW129675   2.231   5.737   5.674
 9592SOL    HW229676   2.281   5.595   5.737
 9593SOL     OW29677   1.988   1.688   4.809
 9593SOL    HW129678   2.057   1.757   4.786
 9593SOL    HW229679   1.911   1.697   4.746
 9594SOL     OW29680   0.431   6.624   3.905
 9594SOL    HW129681   0.376   6.644   3.824
 9594SOL    HW229682   0.449   6.526   3.910
 9595SOL     OW29683   0.578   3.759   3.424
 9595SOL    HW129684   0.485   3.782   3.453
 9595SOL    HW229685   0.631   3.731   3.504
 9596SOL     OW29686   0.408   6.962   1.400
 9596SOL    HW129687   0.474   0.018   1.406
 9596SOL    HW229688   0.438   6.895   1.332
 9597SOL     OW29689   0.751   3.529   2.292
 9597SOL    HW129690   0.671   3.469   2.300
 9597SOL    HW229691   0.834   3.473   2.297
 9598SOL     OW29692   1.294   3.937   3.541
 9598SOL    HW129693   1.258   3.873   3.473
 9598SOL    HW229694   1.225   3.952   3.612
 9599SOL     OW29695   4.288   6.717   4.027
 9599SOL    HW129696   4.304   6.803   4.074
 9599SOL    HW229697   4.190   6.697   4.024
 9600SOL     OW29698   2.956   0.645   1.261
 9600SOL    HW129699   2.945   0.674   1.355
 9600SOL    HW229700   3.054   0.643   1.238
 9601SOL     OW29701   6.983   4.287   1.249
 9601SOL    HW129702   6.959   4.255   1.340
 9601SOL    HW229703   6.901   4.321   1.203
 9602SOL     OW29704   4.536   4.804   5.980
 9602SOL    HW129705   4.587   4.864   5.918
 9602SOL    HW229706   4.566   4.710   5.966
 9603SOL     OW29707   5.447   5.752   5.436
 9603SOL    HW129708   5.494   5.671   5.470
 9603SOL    HW229709   5.378   5.781   5.503
 9604SOL     OW29710   5.233   6.837   0.422
 9604SOL    HW129711   5.279   6.842   0.510
 9604SOL    HW229712   5.137   6.865   0.433
 9605SOL     OW29713   6.437   6.163   3.306
 9605SOL    HW129714   6.339   6.183   3.310
 9605SOL    HW229715   6.487   6.248   3.287
 9606SOL     OW29716   1.334   1.888   6.511
 9606SOL    HW129717   1.406   1.957   6.500
 9606SOL    HW229718   1.302   1.859   6.421
 9607SOL     OW29719   3.243   2.793   6.139
 9607SOL    HW129720   3.214   2.879   6.181
 9607SOL    HW229721   3.330   2.764   6.178
 9608SOL     OW29722   6.690   3.685   3.555
 9608SOL    HW129723   6.656   3.775   3.582
 9608SOL    HW229724   6.778   3.667   3.600
 9609SOL     OW29725   4.132   2.507   6.117
 9609SOL    HW129726   4.156   2.443   6.190
 9609SOL    HW229727   4.146   2.463   6.028
 9610SOL     OW29728   1.371   4.262   2.865
 9610SOL    HW129729   1.283   4.307   2.846
 9610SOL    HW229730   1.367   4.221   2.957
 9611SOL     OW29731   1.156   0.442   0.494
 9611SOL    HW129732   1.218   0.377   0.448
 9611SOL    HW229733   1.171   0.534   0.456
 9612SOL     OW29734   0.473   3.196   3.330
 9612SOL    HW129735   0.378   3.181   3.300
 9612SOL    HW229736   0.488   3.293   3.347
 9613SOL     OW29737   5.857   5.723   3.509
 9613SOL    HW129738   5.836   5.745   3.604
 9613SOL    HW229739   5.778   5.742   3.452
 9614SOL     OW29740   4.942   2.185   3.351
 9614SOL    HW129741   4.876   2.110   3.344
 9614SOL    HW229742   4.936   2.224   3.443
 9615SOL     OW29743   2.357   2.756   1.103
 9615SOL    HW129744   2.456   2.754   1.090
 9615SOL    HW229745   2.334   2.715   1.192
 9616SOL     OW29746   3.891   2.581   0.127
 9616SOL    HW129747   3.888   2.482   0.138
 9616SOL    HW229748   3.888   2.624   0.217
 9617SOL     OW29749   2.226   2.276   4.057
 9617SOL    HW129750   2.281   2.246   4.136
 9617SOL    HW229751   2.265   2.237   3.973
 9618SOL     OW29752   2.626   0.946   0.736
 9618SOL    HW129753   2.638   1.023   0.799
 9618SOL    HW229754   2.649   0.975   0.643
 9619SOL     OW29755   2.565   1.248   4.675
 9619SOL    HW129756   2.503   1.176   4.707
 9619SOL    HW229757   2.577   1.240   4.576
 9620SOL     OW29758   5.737   0.183   5.481
 9620SOL    HW129759   5.704   0.278   5.485
 9620SOL    HW229760   5.661   0.121   5.497
 9621SOL     OW29761   1.761   2.930   3.396
 9621SOL    HW129762   1.833   2.862   3.403
 9621SOL    HW229763   1.692   2.899   3.331
 9622SOL     OW29764   5.820   0.219   1.465
 9622SOL    HW129765   5.920   0.211   1.475
 9622SOL    HW229766   5.797   0.237   1.370
 9623SOL     OW29767   3.260   3.720   6.374
 9623SOL    HW129768   3.224   3.636   6.415
 9623SOL    HW229769   3.319   3.697   6.296
 9624SOL     OW29770   5.953   3.209   3.266
 9624SOL    HW129771   5.979   3.219   3.362
 9624SOL    HW229772   5.887   3.135   3.256
 9625SOL     OW29773   5.998   5.920   0.081
 9625SOL    HW129774   5.993   5.856   0.004
 9625SOL    HW229775   5.957   6.007   0.055
 9626SOL     OW29776   3.546   6.570   6.674
 9626SOL    HW129777   3.455   6.592   6.638
 9626SOL    HW229778   3.563   6.471   6.664
 9627SOL     OW29779   1.331   6.576   6.907
 9627SOL    HW129780   1.283   6.535   6.829
 9627SOL    HW229781   1.289   6.665   6.928
 9628SOL     OW29782   3.859   6.043   2.141
 9628SOL    HW129783   3.768   6.014   2.112
 9628SOL    HW229784   3.853   6.127   2.194
 9629SOL     OW29785   2.622   6.798   1.002
 9629SOL    HW129786   2.567   6.866   0.953
 9629SOL    HW229787   2.561   6.729   1.043
 9630SOL     OW29788   6.006   0.972   5.878
 9630SOL    HW129789   5.991   1.021   5.792
 9630SOL    HW229790   6.064   0.892   5.862
 9631SOL     OW29791   5.856   5.812   6.853
 9631SOL    HW129792   5.767   5.814   6.807
 9631SOL    HW229793   5.926   5.789   6.786
 9632SOL     OW29794   1.534   6.221   1.882
 9632SOL    HW129795   1.480   6.184   1.958
 9632SOL    HW229796   1.616   6.164   1.870
 9633SOL     OW29797   6.814   5.331   6.673
 9633SOL    HW129798   6.729   5.382   6.684
 9633SOL    HW229799   6.795   5.241   6.634
 9634SOL     OW29800   1.092   6.302   4.756
 9634SOL    HW129801   1.123   6.226   4.699
 9634SOL    HW229802   1.169   6.360   4.780
 9635SOL     OW29803   1.834   5.294   5.389
 9635SOL    HW129804   1.876   5.340   5.468
 9635SOL    HW229805   1.888   5.213   5.365
 9636SOL     OW29806   4.323   1.485   6.367
 9636SOL    HW129807   4.340   1.440   6.279
 9636SOL    HW229808   4.371   1.572   6.370
 9637SOL     OW29809   2.142   1.566   6.985
 9637SOL    HW129810   2.154   1.473   0.000
 9637SOL    HW229811   2.045   1.585   6.970
 9638SOL     OW29812   6.488   2.389   5.423
 9638SOL    HW129813   6.438   2.303   5.435
 9638SOL    HW229814   6.448   2.441   5.348
 9639SOL     OW29815   4.280   1.174   2.466
 9639SOL    HW129816   4.245   1.082   2.449
 9639SOL    HW229817   4.343   1.172   2.543
 9640SOL     OW29818   2.071   2.158   1.977
 9640SOL    HW129819   2.132   2.231   2.008
 9640SOL    HW229820   2.004   2.195   1.912
 9641SOL     OW29821   6.278   5.723   0.127
 9641SOL    HW129822   6.179   5.734   0.143
 9641SOL    HW229823   6.305   5.630   0.152
 9642SOL     OW29824   3.386   0.191   4.127
 9642SOL    HW129825   3.364   0.286   4.106
 9642SOL    HW229826   3.439   0.151   4.052
 9643SOL     OW29827   4.545   4.474   3.428
 9643SOL    HW129828   4.585   4.529   3.354
 9643SOL    HW229829   4.480   4.529   3.479
 9644SOL     OW29830   2.048   1.744   6.330
 9644SOL    HW129831   2.100   1.769   6.412
 9644SOL    HW229832   1.986   1.818   6.306
 9645SOL     OW29833   2.993   5.290   5.095
 9645SOL    HW129834   2.898   5.317   5.114
 9645SOL    HW229835   3.010   5.200   5.135
 9646SOL     OW29836   4.277   4.604   3.210
 9646SOL    HW129837   4.253   4.534   3.277
 9646SOL    HW229838   4.194   4.648   3.176
 9647SOL     OW29839   6.406   3.084   0.268
 9647SOL    HW129840   6.326   3.068   0.211
 9647SOL    HW229841   6.421   3.005   0.327
 9648SOL     OW29842   4.545   3.067   1.064
 9648SOL    HW129843   4.487   3.146   1.084
 9648SOL    HW229844   4.487   2.987   1.047
 9649SOL     OW29845   2.119   5.930   0.605
 9649SOL    HW129846   2.027   5.898   0.580
 9649SOL    HW229847   2.141   6.011   0.550
 9650SOL     OW29848   6.857   6.656   1.965
 9650SOL    HW129849   6.768   6.701   1.972
 9650SOL    HW229850   6.845   6.566   1.924
 9651SOL     OW29851   0.325   1.831   5.550
 9651SOL    HW129852   0.365   1.743   5.575
 9651SOL    HW229853   0.287   1.875   5.632
 9652SOL     OW29854   0.695   5.875   2.864
 9652SOL    HW129855   0.755   5.952   2.887
 9652SOL    HW229856   0.717   5.797   2.921
 9653SOL     OW29857   6.238   4.799   4.461
 9653SOL    HW129858   6.237   4.724   4.527
 9653SOL    HW229859   6.169   4.782   4.390
 9654SOL     OW29860   2.215   2.772   2.181
 9654SOL    HW129861   2.287   2.725   2.130
 9654SOL    HW229862   2.128   2.725   2.166
 9655SOL     OW29863   6.086   2.840   6.522
 9655SOL    HW129864   6.122   2.900   6.451
 9655SOL    HW229865   6.149   2.763   6.536
 9656SOL     OW29866   3.407   0.871   2.682
 9656SOL    HW129867   3.410   0.793   2.744
 9656SOL    HW229868   3.329   0.929   2.706
 9657SOL     OW29869   0.275   0.279   4.796
 9657SOL    HW129870   0.318   0.313   4.880
 9657SOL    HW229871   0.178   0.303   4.796
 9658SOL     OW29872   6.429   2.200   2.767
 9658SOL    HW129873   6.480   2.285   2.763
 9658SOL    HW229874   6.351   2.210   2.829
 9659SOL     OW29875   0.725   5.288   6.822
 9659SOL    HW129876   0.679   5.199   6.835
 9659SOL    HW229877   0.798   5.278   6.755
 9660SOL     OW29878   0.561   5.491   0.240
 9660SOL    HW129879   0.551   5.508   0.142
 9660SOL    HW229880   0.470   5.493   0.283
 9661SOL     OW29881   4.134   6.588   1.180
 9661SOL    HW129882   4.197   6.547   1.246
 9661SOL    HW229883   4.092   6.516   1.125
 9662SOL     OW29884   5.189   0.728   4.171
 9662SOL    HW129885   5.234   0.653   4.219
 9662SOL    HW229886   5.127   0.775   4.234
 9663SOL     OW29887   2.428   5.341   2.690
 9663SOL    HW129888   2.373   5.295   2.760
 9663SOL    HW229889   2.497   5.278   2.655
 9664SOL     OW29890   2.839   5.966   1.435
 9664SOL    HW129891   2.904   6.041   1.449
 9664SOL    HW229892   2.871   5.908   1.360
 9665SOL     OW29893   4.983   4.117   4.684
 9665SOL    HW129894   5.049   4.191   4.691
 9665SOL    HW229895   4.944   4.098   4.774
 9666SOL     OW29896   5.896   4.673   4.096
 9666SOL    HW129897   5.796   4.676   4.096
 9666SOL    HW229898   5.928   4.658   4.002
 9667SOL     OW29899   4.051   3.637   3.673
 9667SOL    HW129900   4.094   3.710   3.620
 9667SOL    HW229901   4.057   3.551   3.623
 9668SOL     OW29902   0.358   1.320   5.242
 9668SOL    HW129903   0.373   1.386   5.169
 9668SOL    HW229904   0.326   1.367   5.324
 9669SOL     OW29905   1.893   5.804   0.533
 9669SOL    HW129906   1.906   5.711   0.500
 9669SOL    HW229907   1.835   5.803   0.615
 9670SOL     OW29908   5.762   4.824   0.535
 9670SOL    HW129909   5.694   4.764   0.577
 9670SOL    HW229910   5.782   4.793   0.443
 9671SOL     OW29911   0.000   0.183   6.421
 9671SOL    HW129912   6.982   0.090   6.417
 9671SOL    HW229913   0.099   0.180   6.432
 9672SOL     OW29914   1.054   6.724   4.880
 9672SOL    HW129915   1.068   6.822   4.865
 9672SOL    HW229916   1.079   6.674   4.797
 9673SOL     OW29917   2.651   3.001   6.317
 9673SOL    HW129918   2.703   2.916   6.331
 9673SOL    HW229919   2.645   3.022   6.220
 9674SOL     OW29920   2.825   6.976   2.252
 9674SOL    HW129921   2.888   0.022   2.209
 9674SOL    HW229922   2.828   6.988   2.352
 9675SOL     OW29923   6.988   2.620   2.267
 9675SOL    HW129924   0.061   2.650   2.241
 9675SOL    HW229925   6.992   2.573   2.355
 9676SOL     OW29926   0.404   3.806   4.622
 9676SOL    HW129927   0.334   3.753   4.671
 9676SOL    HW229928   0.491   3.801   4.672
 9677SOL     OW29929   2.117   3.571   5.087
 9677SOL    HW129930   2.125   3.486   5.140
 9677SOL    HW229931   2.140   3.553   4.992
 9678SOL     OW29932   3.047   3.173   3.069
 9678SOL    HW129933   2.970   3.127   3.025
 9678SOL    HW229934   3.059   3.136   3.161
 9679SOL     OW29935   0.864   3.294   1.712
 9679SOL    HW129936   0.932   3.270   1.642
 9679SOL    HW229937   0.909   3.298   1.801
 9680SOL     OW29938   5.931   5.056   3.854
 9680SOL    HW129939   5.847   5.056   3.800
 9680SOL    HW229940   6.004   5.009   3.803
 9681SOL     OW29941   1.531   1.176   3.360
 9681SOL    HW129942   1.466   1.163   3.435
 9681SOL    HW229943   1.592   1.097   3.354
 9682SOL     OW29944   6.488   4.484   2.892
 9682SOL    HW129945   6.423   4.549   2.931
 9682SOL    HW229946   6.445   4.394   2.885
 9683SOL     OW29947   4.369   6.404   6.409
 9683SOL    HW129948   4.352   6.384   6.506
 9683SOL    HW229949   4.409   6.325   6.365
 9684SOL     OW29950   1.450   4.248   3.988
 9684SOL    HW129951   1.446   4.287   4.080
 9684SOL    HW229952   1.499   4.161   3.991
 9685SOL     OW29953   1.977   2.117   0.210
 9685SOL    HW129954   1.984   2.118   0.310
 9685SOL    HW229955   2.062   2.152   0.170
 9686SOL     OW29956   5.680   0.711   1.695
 9686SOL    HW129957   5.584   0.684   1.692
 9686SOL    HW229958   5.731   0.661   1.624
 9687SOL     OW29959   3.629   6.935   3.725
 9687SOL    HW129960   3.587   6.850   3.757
 9687SOL    HW229961   3.637   6.933   3.625
 9688SOL     OW29962   0.287   1.854   3.116
 9688SOL    HW129963   0.229   1.774   3.131
 9688SOL    HW229964   0.287   1.911   3.199
 9689SOL     OW29965   1.954   6.182   6.194
 9689SOL    HW129966   1.960   6.258   6.130
 9689SOL    HW229967   1.984   6.212   6.284
 9690SOL     OW29968   6.327   4.310   1.405
 9690SOL    HW129969   6.346   4.212   1.404
 9690SOL    HW229970   6.379   4.354   1.331
 9691SOL     OW29971   1.473   4.336   1.586
 9691SOL    HW129972   1.449   4.372   1.496
 9691SOL    HW229973   1.448   4.402   1.657
 9692SOL     OW29974   2.835   5.598   1.100
 9692SOL    HW129975   2.861   5.563   1.191
 9692SOL    HW229976   2.853   5.696   1.096
 9693SOL     OW29977   5.340   5.807   1.621
 9693SOL    HW129978   5.424   5.754   1.609
 9693SOL    HW229979   5.284   5.799   1.539
 9694SOL     OW29980   2.251   2.223   0.160
 9694SOL    HW129981   2.260   2.276   0.075
 9694SOL    HW229982   2.304   2.266   0.232
 9695SOL     OW29983   6.261   4.005   1.313
 9695SOL    HW129984   6.274   3.906   1.302
 9695SOL    HW229985   6.307   4.053   1.238
 9696SOL     OW29986   4.157   3.448   1.348
 9696SOL    HW129987   4.084   3.395   1.393
 9696SOL    HW229988   4.156   3.541   1.383
 9697SOL     OW29989   0.681   6.070   0.157
 9697SOL    HW129990   0.690   5.988   0.214
 9697SOL    HW229991   0.704   6.048   0.063
 9698SOL     OW29992   5.509   1.889   5.213
 9698SOL    HW129993   5.579   1.865   5.279
 9698SOL    HW229994   5.419   1.864   5.248
 9699SOL     OW29995   1.710   3.273   0.527
 9699SOL    HW129996   1.628   3.216   0.520
 9699SOL    HW229997   1.784   3.231   0.476
 9700SOL     OW29998   3.539   4.147   4.151
 9700SOL    HW129999   3.609   4.100   4.096
 9700SOL    HW230000   3.552   4.246   4.143
 9701SOL     OW30001   5.456   4.553   4.735
 9701SOL    HW130002   5.547   4.512   4.746
 9701SOL    HW230003   5.394   4.488   4.693
 9702SOL     OW30004   4.246   0.831   1.031
 9702SOL    HW130005   4.322   0.877   1.078
 9702SOL    HW230006   4.283   0.760   0.971
 9703SOL     OW30007   2.746   6.386   3.955
 9703SOL    HW130008   2.807   6.453   3.998
 9703SOL    HW230009   2.720   6.419   3.864
 9704SOL     OW30010   2.996   0.449   3.132
 9704SOL    HW130011   2.952   0.499   3.206
 9704SOL    HW230012   3.017   0.356   3.162
 9705SOL     OW30013   3.570   3.907   0.594
 9705SOL    HW130014   3.540   3.875   0.505
 9705SOL    HW230015   3.570   3.831   0.659
 9706SOL     OW30016   5.604   2.571   3.016
 9706SOL    HW130017   5.657   2.486   3.016
 9706SOL    HW230018   5.512   2.553   3.052
 9707SOL     OW30019   2.576   4.918   2.879
 9707SOL    HW130020   2.645   4.853   2.846
 9707SOL    HW230021   2.496   4.915   2.819
 9708SOL     OW30022   2.798   1.401   2.696
 9708SOL    HW130023   2.832   1.491   2.725
 9708SOL    HW230024   2.843   1.330   2.749
 9709SOL     OW30025   1.857   5.101   2.733
 9709SOL    HW130026   1.931   5.068   2.674
 9709SOL    HW230027   1.817   5.024   2.782
 9710SOL     OW30028   0.261   0.456   3.403
 9710SOL    HW130029   0.253   0.367   3.359
 9710SOL    HW230030   0.262   0.444   3.503
 9711SOL     OW30031   0.669   4.218   5.191
 9711SOL    HW130032   0.617   4.241   5.109
 9711SOL    HW230033   0.760   4.186   5.165
 9712SOL     OW30034   4.429   2.259   4.500
 9712SOL    HW130035   4.400   2.273   4.405
 9712SOL    HW230036   4.396   2.170   4.531
 9713SOL     OW30037   6.795   4.887   2.661
 9713SOL    HW130038   6.708   4.864   2.704
 9713SOL    HW230039   6.826   4.809   2.606
 9714SOL     OW30040   1.934   2.038   1.633
 9714SOL    HW130041   1.856   1.978   1.612
 9714SOL    HW230042   1.952   2.036   1.731
 9715SOL     OW30043   5.449   5.248   5.067
 9715SOL    HW130044   5.506   5.169   5.046
 9715SOL    HW230045   5.403   5.279   4.984
 9716SOL     OW30046   4.400   1.438   6.665
 9716SOL    HW130047   4.393   1.452   6.566
 9716SOL    HW230048   4.441   1.350   6.684
 9717SOL     OW30049   5.700   4.649   3.739
 9717SOL    HW130050   5.688   4.738   3.783
 9717SOL    HW230051   5.648   4.646   3.654
 9718SOL     OW30052   4.624   3.339   1.639
 9718SOL    HW130053   4.700   3.320   1.701
 9718SOL    HW230054   4.617   3.266   1.571
 9719SOL     OW30055   0.369   2.015   0.235
 9719SOL    HW130056   0.455   2.047   0.275
 9719SOL    HW230057   0.349   1.923   0.268
 9720SOL     OW30058   0.096   0.253   2.019
 9720SOL    HW130059   0.117   0.192   2.095
 9720SOL    HW230060   0.174   0.314   2.003
 9721SOL     OW30061   6.815   3.791   2.629
 9721SOL    HW130062   6.835   3.860   2.560
 9721SOL    HW230063   6.769   3.714   2.587
 9722SOL     OW30064   0.227   0.228   4.125
 9722SOL    HW130065   0.298   0.285   4.167
 9722SOL    HW230066   0.269   0.168   4.057
 9723SOL     OW30067   0.141   1.423   3.919
 9723SOL    HW130068   0.238   1.397   3.929
 9723SOL    HW230069   0.091   1.397   4.002
 9724SOL     OW30070   3.902   2.739   1.325
 9724SOL    HW130071   3.974   2.678   1.290
 9724SOL    HW230072   3.940   2.829   1.343
 9725SOL     OW30073   4.330   2.968   5.676
 9725SOL    HW130074   4.262   2.980   5.748
 9725SOL    HW230075   4.386   2.887   5.697
 9726SOL     OW30076   5.839   6.599   5.124
 9726SOL    HW130077   5.776   6.665   5.165
 9726SOL    HW230078   5.787   6.530   5.073
 9727SOL     OW30079   1.756   2.116   6.152
 9727SOL    HW130080   1.734   2.197   6.206
 9727SOL    HW230081   1.712   2.122   6.063
 9728SOL     OW30082   3.295   5.156   6.852
 9728SOL    HW130083   3.204   5.130   6.882
 9728SOL    HW230084   3.324   5.238   6.901
 9729SOL     OW30085   3.103   5.384   2.489
 9729SOL    HW130086   3.194   5.415   2.461
 9729SOL    HW230087   3.093   5.287   2.469
 9730SOL     OW30088   6.528   3.241   3.294
 9730SOL    HW130089   6.546   3.323   3.349
 9730SOL    HW230090   6.431   3.219   3.297
 9731SOL     OW30091   4.574   5.208   0.731
 9731SOL    HW130092   4.653   5.256   0.693
 9731SOL    HW230093   4.494   5.225   0.674
 9732SOL     OW30094   6.659   5.733   3.139
 9732SOL    HW130095   6.580   5.681   3.105
 9732SOL    HW230096   6.632   5.828   3.152
 9733SOL     OW30097   5.474   4.490   6.707
 9733SOL    HW130098   5.561   4.525   6.674
 9733SOL    HW230099   5.422   4.451   6.631
 9734SOL     OW30100   5.178   2.631   5.077
 9734SOL    HW130101   5.190   2.570   5.156
 9734SOL    HW230102   5.183   2.577   4.993
 9735SOL     OW30103   1.361   4.004   0.633
 9735SOL    HW130104   1.401   4.090   0.601
 9735SOL    HW230105   1.429   3.954   0.686
 9736SOL     OW30106   3.317   1.371   0.890
 9736SOL    HW130107   3.234   1.372   0.834
 9736SOL    HW230108   3.331   1.279   0.927
 9737SOL     OW30109   3.990   2.266   5.186
 9737SOL    HW130110   4.034   2.184   5.224
 9737SOL    HW230111   4.052   2.344   5.197
 9738SOL     OW30112   1.861   0.407   2.260
 9738SOL    HW130113   1.898   0.316   2.274
 9738SOL    HW230114   1.839   0.447   2.349
 9739SOL     OW30115   5.380   5.080   1.957
 9739SOL    HW130116   5.293   5.044   1.924
 9739SOL    HW230117   5.403   5.164   1.908
 9740SOL     OW30118   6.780   3.990   3.033
 9740SOL    HW130119   6.688   3.950   3.036
 9740SOL    HW230120   6.796   4.042   3.117
 9741SOL     OW30121   4.270   2.244   1.632
 9741SOL    HW130122   4.299   2.317   1.693
 9741SOL    HW230123   4.234   2.168   1.686
 9742SOL     OW30124   4.809   1.952   4.561
 9742SOL    HW130125   4.892   2.005   4.543
 9742SOL    HW230126   4.747   2.006   4.619
 9743SOL     OW30127   1.809   2.454   5.528
 9743SOL    HW130128   1.748   2.481   5.454
 9743SOL    HW230129   1.893   2.509   5.525
 9744SOL     OW30130   1.684   0.403   1.846
 9744SOL    HW130131   1.693   0.368   1.939
 9744SOL    HW230132   1.609   0.469   1.843
 9745SOL     OW30133   0.299   2.007   4.720
 9745SOL    HW130134   0.381   2.024   4.666
 9745SOL    HW230135   0.235   1.951   4.667
 9746SOL     OW30136   5.751   1.825   4.487
 9746SOL    HW130137   5.718   1.768   4.412
 9746SOL    HW230138   5.802   1.769   4.553
 9747SOL     OW30139   0.682   0.084   6.921
 9747SOL    HW130140   0.658   0.051   6.830
 9747SOL    HW230141   0.614   0.151   6.951
 9748SOL     OW30142   0.018   5.934   4.028
 9748SOL    HW130143   6.953   5.928   3.973
 9748SOL    HW230144   0.008   6.008   4.095
 9749SOL     OW30145   0.823   4.004   4.497
 9749SOL    HW130146   0.763   4.083   4.483
 9749SOL    HW230147   0.771   3.920   4.480
 9750SOL     OW30148   4.026   4.891   3.496
 9750SOL    HW130149   3.939   4.889   3.447
 9750SOL    HW230150   4.091   4.831   3.451
 9751SOL     OW30151   1.999   2.460   0.405
 9751SOL    HW130152   1.933   2.387   0.387
 9751SOL    HW230153   1.997   2.482   0.503
 9752SOL     OW30154   3.484   1.661   6.074
 9752SOL    HW130155   3.457   1.728   6.005
 9752SOL    HW230156   3.492   1.571   6.032
 9753SOL     OW30157   6.758   6.020   5.225
 9753SOL    HW130158   6.670   6.065   5.238
 9753SOL    HW230159   6.743   5.929   5.186
 9754SOL     OW30160   0.065   2.239   6.427
 9754SOL    HW130161   0.130   2.193   6.367
 9754SOL    HW230162   0.021   2.171   6.487
 9755SOL     OW30163   4.086   4.935   5.167
 9755SOL    HW130164   4.099   4.974   5.076
 9755SOL    HW230165   4.140   4.852   5.175
 9756SOL     OW30166   6.080   2.417   5.903
 9756SOL    HW130167   6.179   2.401   5.905
 9756SOL    HW230168   6.061   2.512   5.928
 9757SOL     OW30169   6.046   2.291   3.788
 9757SOL    HW130170   5.988   2.367   3.757
 9757SOL    HW230171   6.076   2.309   3.882
 9758SOL     OW30172   2.523   0.601   0.177
 9758SOL    HW130173   2.533   0.567   0.083
 9758SOL    HW230174   2.449   0.669   0.180
 9759SOL     OW30175   3.255   6.315   1.328
 9759SOL    HW130176   3.158   6.293   1.337
 9759SOL    HW230177   3.277   6.332   1.232
 9760SOL     OW30178   5.324   4.354   6.523
 9760SOL    HW130179   5.227   4.376   6.535
 9760SOL    HW230180   5.342   4.334   6.426
 9761SOL     OW30181   5.626   6.090   2.600
 9761SOL    HW130182   5.652   6.011   2.655
 9761SOL    HW230183   5.700   6.157   2.602
 9762SOL     OW30184   2.399   1.769   3.652
 9762SOL    HW130185   2.444   1.808   3.572
 9762SOL    HW230186   2.356   1.843   3.705
 9763SOL     OW30187   2.176   1.518   1.431
 9763SOL    HW130188   2.230   1.602   1.434
 9763SOL    HW230189   2.095   1.527   1.489
 9764SOL     OW30190   1.371   2.536   1.915
 9764SOL    HW130191   1.410   2.600   1.849
 9764SOL    HW230192   1.291   2.491   1.874
 9765SOL     OW30193   6.986   1.539   5.560
 9765SOL    HW130194   6.907   1.488   5.595
 9765SOL    HW230195   6.955   1.605   5.491
 9766SOL     OW30196   2.908   0.427   2.121
 9766SOL    HW130197   2.852   0.407   2.201
 9766SOL    HW230198   2.902   0.524   2.099
 9767SOL     OW30199   4.739   0.331   5.291
 9767SOL    HW130200   4.821   0.318   5.235
 9767SOL    HW230201   4.730   0.427   5.316
 9768SOL     OW30202   4.604   2.485   2.919
 9768SOL    HW130203   4.679   2.420   2.908
 9768SOL    HW230204   4.607   2.551   2.844
 9769SOL     OW30205   0.449   2.078   1.946
 9769SOL    HW130206   0.407   1.989   1.966
 9769SOL    HW230207   0.427   2.143   2.019
 9770SOL     OW30208   6.129   4.417   6.222
 9770SOL    HW130209   6.142   4.336   6.165
 9770SOL    HW230210   6.165   4.400   6.314
 9771SOL     OW30211   3.622   5.565   5.162
 9771SOL    HW130212   3.638   5.598   5.255
 9771SOL    HW230213   3.539   5.509   5.160
 9772SOL     OW30214   6.665   0.312   2.058
 9772SOL    HW130215   6.702   0.384   1.999
 9772SOL    HW230216   6.685   0.222   2.018
 9773SOL     OW30217   5.567   5.634   3.473
 9773SOL    HW130218   5.506   5.558   3.497
 9773SOL    HW230219   5.537   5.717   3.519
 9774SOL     OW30220   6.934   4.987   3.243
 9774SOL    HW130221   0.012   5.002   3.266
 9774SOL    HW230222   6.917   5.018   3.150
 9775SOL     OW30223   2.893   2.192   4.903
 9775SOL    HW130224   2.903   2.098   4.870
 9775SOL    HW230225   2.975   2.218   4.955
 9776SOL     OW30226   0.298   4.943   4.919
 9776SOL    HW130227   0.302   4.859   4.974
 9776SOL    HW230228   0.384   4.954   4.870
 9777SOL     OW30229   5.417   5.054   0.020
 9777SOL    HW130230   5.493   5.008   0.066
 9777SOL    HW230231   5.450   5.134   6.990
 9778SOL     OW30232   4.436   0.727   3.304
 9778SOL    HW130233   4.345   0.768   3.311
 9778SOL    HW230234   4.432   0.648   3.243
 9779SOL     OW30235   2.961   1.922   6.102
 9779SOL    HW130236   2.943   2.018   6.079
 9779SOL    HW230237   2.998   1.917   6.195
 9780SOL     OW30238   3.700   4.440   0.390
 9780SOL    HW130239   3.671   4.384   0.313
 9780SOL    HW230240   3.741   4.382   0.461
 9781SOL     OW30241   1.967   5.979   3.933
 9781SOL    HW130242   2.059   5.939   3.942
 9781SOL    HW230243   1.932   6.004   4.023
 9782SOL     OW30244   6.632   0.703   1.232
 9782SOL    HW130245   6.730   0.719   1.246
 9782SOL    HW230246   6.599   0.638   1.300
 9783SOL     OW30247   5.423   1.441   2.491
 9783SOL    HW130248   5.475   1.522   2.521
 9783SOL    HW230249   5.455   1.361   2.542
 9784SOL     OW30250   5.384   1.053   4.273
 9784SOL    HW130251   5.362   1.134   4.219
 9784SOL    HW230252   5.483   1.044   4.280
 9785SOL     OW30253   1.286   3.065   1.042
 9785SOL    HW130254   1.264   3.096   0.950
 9785SOL    HW230255   1.202   3.060   1.097
 9786SOL     OW30256   2.398   0.105   5.007
 9786SOL    HW130257   2.371   0.015   4.972
 9786SOL    HW230258   2.491   0.099   5.045
 9787SOL     OW30259   5.579   4.893   2.036
 9787SOL    HW130260   5.515   4.952   1.985
 9787SOL    HW230261   5.662   4.944   2.056
 9788SOL     OW30262   0.211   1.159   5.543
 9788SOL    HW130263   0.178   1.211   5.464
 9788SOL    HW230264   0.311   1.152   5.538
 9789SOL     OW30265   1.485   6.082   4.557
 9789SOL    HW130266   1.481   6.178   4.530
 9789SOL    HW230267   1.443   6.072   4.648
 9790SOL     OW30268   6.485   1.662   4.167
 9790SOL    HW130269   6.511   1.637   4.074
 9790SOL    HW230270   6.559   1.638   4.230
 9791SOL     OW30271   1.143   2.485   1.561
 9791SOL    HW130272   1.222   2.545   1.548
 9791SOL    HW230273   1.062   2.541   1.581
 9792SOL     OW30274   3.983   5.680   1.910
 9792SOL    HW130275   3.884   5.674   1.920
 9792SOL    HW230276   4.011   5.776   1.906
 9793SOL     OW30277   4.989   5.919   2.516
 9793SOL    HW130278   5.060   5.860   2.477
 9793SOL    HW230279   4.925   5.864   2.568
 9794SOL     OW30280   3.552   3.180   6.647
 9794SOL    HW130281   3.503   3.179   6.560
 9794SOL    HW230282   3.624   3.110   6.646
 9795SOL     OW30283   2.404   4.463   4.015
 9795SOL    HW130284   2.474   4.478   4.085
 9795SOL    HW230285   2.354   4.548   3.999
 9796SOL     OW30286   3.666   4.836   0.291
 9796SOL    HW130287   3.692   4.903   0.361
 9796SOL    HW230288   3.625   4.756   0.336
 9797SOL     OW30289   4.762   2.786   4.704
 9797SOL    HW130290   4.736   2.707   4.648
 9797SOL    HW230291   4.858   2.779   4.731
 9798SOL     OW30292   2.474   1.680   1.465
 9798SOL    HW130293   2.457   1.620   1.543
 9798SOL    HW230294   2.566   1.720   1.473
 9799SOL     OW30295   3.408   3.992   2.005
 9799SOL    HW130296   3.350   3.997   1.924
 9799SOL    HW230297   3.405   3.899   2.042
 9800SOL     OW30298   3.461   4.883   0.123
 9800SOL    HW130299   3.394   4.955   0.139
 9800SOL    HW230300   3.553   4.917   0.144
 9801SOL     OW30301   4.556   5.436   6.845
 9801SOL    HW130302   4.609   5.370   6.899
 9801SOL    HW230303   4.474   5.462   6.897
 9802SOL     OW30304   0.749   4.740   1.524
 9802SOL    HW130305   0.829   4.701   1.480
 9802SOL    HW230306   0.725   4.685   1.604
 9803SOL     OW30307   5.544   0.654   6.666
 9803SOL    HW130308   5.506   0.747   6.671
 9803SOL    HW230309   5.518   0.604   6.748
 9804SOL     OW30310   5.945   5.063   4.357
 9804SOL    HW130311   5.904   5.064   4.448
 9804SOL    HW230312   5.986   5.152   4.338
 9805SOL     OW30313   3.398   4.386   1.054
 9805SOL    HW130314   3.347   4.384   0.968
 9805SOL    HW230315   3.341   4.347   1.127
 9806SOL     OW30316   6.629   2.419   2.771
 9806SOL    HW130317   6.643   2.495   2.835
 9806SOL    HW230318   6.701   2.351   2.784
 9807SOL     OW30319   3.526   2.381   1.064
 9807SOL    HW130320   3.572   2.364   0.977
 9807SOL    HW230321   3.437   2.422   1.047
 9808SOL     OW30322   1.314   2.030   4.991
 9808SOL    HW130323   1.301   2.000   4.896
 9808SOL    HW230324   1.251   1.981   5.051
 9809SOL     OW30325   0.964   0.665   4.457
 9809SOL    HW130326   0.992   0.693   4.365
 9809SOL    HW230327   0.911   0.738   4.499
 9810SOL     OW30328   3.784   1.343   3.341
 9810SOL    HW130329   3.743   1.330   3.251
 9810SOL    HW230330   3.766   1.262   3.398
 9811SOL     OW30331   1.466   6.966   2.521
 9811SOL    HW130332   1.393   6.983   2.456
 9811SOL    HW230333   1.508   0.034   2.548
 9812SOL     OW30334   4.984   2.899   5.012
 9812SOL    HW130335   4.892   2.909   4.974
 9812SOL    HW230336   4.999   2.804   5.041
 9813SOL     OW30337   6.719   4.874   0.958
 9813SOL    HW130338   6.724   4.961   1.007
 9813SOL    HW230339   6.643   4.877   0.892
 9814SOL     OW30340   6.628   0.999   5.329
 9814SOL    HW130341   6.534   1.000   5.297
 9814SOL    HW230342   6.664   0.905   5.325
 9815SOL     OW30343   6.777   4.065   2.778
 9815SOL    HW130344   6.812   4.056   2.872
 9815SOL    HW230345   6.701   4.003   2.765
 9816SOL     OW30346   6.594   0.870   6.122
 9816SOL    HW130347   6.690   0.844   6.116
 9816SOL    HW230348   6.546   0.840   6.040
 9817SOL     OW30349   1.944   0.499   0.220
 9817SOL    HW130350   1.933   0.493   0.120
 9817SOL    HW230351   1.888   0.428   0.263
 9818SOL     OW30352   0.867   6.926   3.253
 9818SOL    HW130353   0.913   6.848   3.296
 9818SOL    HW230354   0.932   7.002   3.244
 9819SOL     OW30355   7.012   2.691   4.377
 9819SOL    HW130356   6.973   2.635   4.449
 9819SOL    HW230357   0.064   2.639   4.328
 9820SOL     OW30358   3.690   2.472   6.008
 9820SOL    HW130359   3.601   2.496   5.969
 9820SOL    HW230360   3.756   2.456   5.935
 9821SOL     OW30361   3.757   2.700   1.554
 9821SOL    HW130362   3.693   2.623   1.550
 9821SOL    HW230363   3.800   2.713   1.465
 9822SOL     OW30364   3.418   6.215   4.828
 9822SOL    HW130365   3.337   6.244   4.880
 9822SOL    HW230366   3.500   6.237   4.881
 9823SOL     OW30367   3.901   6.797   3.166
 9823SOL    HW130368   3.829   6.811   3.098
 9823SOL    HW230369   3.972   6.867   3.154
 9824SOL     OW30370   1.116   6.166   5.833
 9824SOL    HW130371   1.058   6.161   5.914
 9824SOL    HW230372   1.069   6.215   5.760
 9825SOL     OW30373   6.890   6.757   5.328
 9825SOL    HW130374   6.883   6.798   5.237
 9825SOL    HW230375   6.834   6.674   5.331
 9826SOL     OW30376   2.098   5.541   5.353
 9826SOL    HW130377   2.085   5.640   5.345
 9826SOL    HW230378   2.085   5.513   5.447
 9827SOL     OW30379   1.855   4.631   1.628
 9827SOL    HW130380   1.950   4.619   1.598
 9827SOL    HW230381   1.833   4.729   1.629
 9828SOL     OW30382   4.084   1.707   5.076
 9828SOL    HW130383   4.025   1.701   5.157
 9828SOL    HW230384   4.034   1.751   5.002
 9829SOL     OW30385   5.110   4.852   5.464
 9829SOL    HW130386   5.148   4.938   5.499
 9829SOL    HW230387   5.138   4.840   5.368
 9830SOL     OW30388   5.464   1.687   3.480
 9830SOL    HW130389   5.449   1.722   3.387
 9830SOL    HW230390   5.400   1.732   3.543
 9831SOL     OW30391   0.689   4.154   2.311
 9831SOL    HW130392   0.630   4.226   2.275
 9831SOL    HW230393   0.634   4.077   2.342
 9832SOL     OW30394   4.441   5.850   4.514
 9832SOL    HW130395   4.425   5.894   4.603
 9832SOL    HW230396   4.393   5.762   4.511
 9833SOL     OW30397   3.786   3.571   3.676
 9833SOL    HW130398   3.753   3.599   3.586
 9833SOL    HW230399   3.884   3.591   3.683
 9834SOL     OW30400   2.535   6.087   5.690
 9834SOL    HW130401   2.510   6.182   5.708
 9834SOL    HW230402   2.627   6.070   5.726
 9835SOL     OW30403   3.989   3.808   4.030
 9835SOL    HW130404   3.975   3.884   4.094
 9835SOL    HW230405   3.902   3.765   4.009
 9836SOL     OW30406   6.749   3.549   5.809
 9836SOL    HW130407   6.774   3.487   5.733
 9836SOL    HW230408   6.787   3.640   5.791
 9837SOL     OW30409   5.873   1.624   3.512
 9837SOL    HW130410   5.881   1.666   3.602
 9837SOL    HW230411   5.792   1.565   3.510
 9838SOL     OW30412   1.103   6.278   1.206
 9838SOL    HW130413   1.137   6.301   1.297
 9838SOL    HW230414   1.145   6.338   1.139
 9839SOL     OW30415   5.033   6.565   4.067
 9839SOL    HW130416   5.011   6.608   3.979
 9839SOL    HW230417   5.123   6.523   4.061
 9840SOL     OW30418   6.331   1.735   6.417
 9840SOL    HW130419   6.344   1.830   6.389
 9840SOL    HW230420   6.406   1.708   6.478
 9841SOL     OW30421   6.771   6.104   3.226
 9841SOL    HW130422   6.695   6.080   3.166
 9841SOL    HW230423   6.736   6.145   3.310
 9842SOL     OW30424   3.316   0.432   0.263
 9842SOL    HW130425   3.374   0.512   0.253
 9842SOL    HW230426   3.354   0.356   0.210
 9843SOL     OW30427   7.018   0.702   1.628
 9843SOL    HW130428   0.091   0.697   1.588
 9843SOL    HW230429   6.976   0.611   1.626
 9844SOL     OW30430   4.346   0.400   4.771
 9844SOL    HW130431   4.412   0.388   4.697
 9844SOL    HW230432   4.285   0.320   4.775
 9845SOL     OW30433   1.405   3.950   2.108
 9845SOL    HW130434   1.388   3.894   2.189
 9845SOL    HW230435   1.452   3.895   2.039
 9846SOL     OW30436   5.987   2.195   1.278
 9846SOL    HW130437   5.944   2.107   1.300
 9846SOL    HW230438   6.083   2.193   1.307
 9847SOL     OW30439   4.214   3.896   6.807
 9847SOL    HW130440   4.119   3.895   6.774
 9847SOL    HW230441   4.221   3.841   6.890
 9848SOL     OW30442   3.146   3.477   5.495
 9848SOL    HW130443   3.096   3.504   5.412
 9848SOL    HW230444   3.083   3.477   5.572
 9849SOL     OW30445   1.340   2.392   4.778
 9849SOL    HW130446   1.316   2.454   4.853
 9849SOL    HW230447   1.376   2.445   4.701
 9850SOL     OW30448   1.939   6.842   3.922
 9850SOL    HW130449   1.949   6.744   3.940
 9850SOL    HW230450   1.844   6.863   3.901
 9851SOL     OW30451   3.477   5.357   3.693
 9851SOL    HW130452   3.428   5.429   3.742
 9851SOL    HW230453   3.537   5.308   3.757
 9852SOL     OW30454   1.516   6.631   0.266
 9852SOL    HW130455   1.524   6.708   0.203
 9852SOL    HW230456   1.422   6.625   0.299
 9853SOL     OW30457   0.037   4.179   3.482
 9853SOL    HW130458   0.056   4.265   3.435
 9853SOL    HW230459   0.120   4.148   3.529
 9854SOL     OW30460   0.579   3.387   6.625
 9854SOL    HW130461   0.623   3.308   6.669
 9854SOL    HW230462   0.509   3.424   6.686
 9855SOL     OW30463   0.735   5.510   0.458
 9855SOL    HW130464   0.671   5.476   0.389
 9855SOL    HW230465   0.816   5.546   0.413
 9856SOL     OW30466   5.483   3.240   2.986
 9856SOL    HW130467   5.562   3.181   2.972
 9856SOL    HW230468   5.401   3.195   2.952
 9857SOL     OW30469   4.594   0.110   5.396
 9857SOL    HW130470   4.656   0.183   5.365
 9857SOL    HW230471   4.501   0.147   5.402
 9858SOL     OW30472   6.276   6.162   1.962
 9858SOL    HW130473   6.178   6.179   1.957
 9858SOL    HW230474   6.294   6.070   1.995
 9859SOL     OW30475   0.294   5.363   3.009
 9859SOL    HW130476   0.326   5.458   3.001
 9859SOL    HW230477   0.277   5.326   2.918
 9860SOL     OW30478   1.726   3.370   4.067
 9860SOL    HW130479   1.696   3.410   4.154
 9860SOL    HW230480   1.810   3.318   4.082
 9861SOL     OW30481   3.681   2.062   2.978
 9861SOL    HW130482   3.764   2.061   3.034
 9861SOL    HW230483   3.657   1.968   2.952
 9862SOL     OW30484   1.394   3.745   6.504
 9862SOL    HW130485   1.481   3.703   6.481
 9862SOL    HW230486   1.327   3.727   6.432
 9863SOL     OW30487   4.341   6.949   2.146
 9863SOL    HW130488   4.259   6.991   2.108
 9863SOL    HW230489   4.409   0.002   2.167
 9864SOL     OW30490   2.137   6.002   5.858
 9864SOL    HW130491   2.054   5.956   5.888
 9864SOL    HW230492   2.216   5.963   5.904
 9865SOL     OW30493   1.390   5.116   5.668
 9865SOL    HW130494   1.378   5.171   5.585
 9865SOL    HW230495   1.485   5.083   5.672
 9866SOL     OW30496   6.770   5.392   5.797
 9866SOL    HW130497   6.850   5.332   5.801
 9866SOL    HW230498   6.688   5.341   5.825
 9867SOL     OW30499   4.143   1.291   1.933
 9867SOL    HW130500   4.058   1.283   1.985
 9867SOL    HW230501   4.131   1.356   1.858
 9868SOL     OW30502   2.315   4.615   3.575
 9868SOL    HW130503   2.297   4.704   3.616
 9868SOL    HW230504   2.355   4.628   3.484
 9869SOL     OW30505   0.333   2.265   1.427
 9869SOL    HW130506   0.278   2.235   1.504
 9869SOL    HW230507   0.304   2.217   1.344
 9870SOL     OW30508   2.077   2.545   2.465
 9870SOL    HW130509   2.145   2.619   2.460
 9870SOL    HW230510   2.065   2.518   2.560
 9871SOL     OW30511   5.690   5.585   3.183
 9871SOL    HW130512   5.673   5.657   3.250
 9871SOL    HW230513   5.781   5.546   3.199
 9872SOL     OW30514   0.938   4.925   5.896
 9872SOL    HW130515   0.950   4.878   5.984
 9872SOL    HW230516   0.871   4.875   5.841
 9873SOL     OW30517   0.910   1.234   5.365
 9873SOL    HW130518   0.900   1.267   5.271
 9873SOL    HW230519   1.004   1.249   5.396
 9874SOL     OW30520   0.687   1.944   4.319
 9874SOL    HW130521   0.653   2.038   4.331
 9874SOL    HW230522   0.696   1.924   4.222
 9875SOL     OW30523   6.491   6.092   0.362
 9875SOL    HW130524   6.554   6.145   0.419
 9875SOL    HW230525   6.475   6.003   0.405
 9876SOL     OW30526   0.111   6.848   3.600
 9876SOL    HW130527   0.119   6.947   3.607
 9876SOL    HW230528   0.087   6.822   3.507
 9877SOL     OW30529   1.029   6.508   5.497
 9877SOL    HW130530   0.936   6.486   5.466
 9877SOL    HW230531   1.064   6.586   5.444
 9878SOL     OW30532   3.165   2.544   6.841
 9878SOL    HW130533   3.204   2.523   6.751
 9878SOL    HW230534   3.091   2.610   6.830
 9879SOL     OW30535   6.881   5.579   5.650
 9879SOL    HW130536   6.872   5.658   5.711
 9879SOL    HW230537   6.826   5.503   5.685
 9880SOL     OW30538   2.602   0.886   1.009
 9880SOL    HW130539   2.613   0.965   1.068
 9880SOL    HW230540   2.505   0.873   0.988
 9881SOL     OW30541   6.110   1.245   3.488
 9881SOL    HW130542   6.077   1.336   3.463
 9881SOL    HW230543   6.168   1.209   3.415
 9882SOL     OW30544   3.645   3.215   4.499
 9882SOL    HW130545   3.727   3.170   4.466
 9882SOL    HW230546   3.642   3.211   4.599
 9883SOL     OW30547   1.947   6.540   2.514
 9883SOL    HW130548   1.932   6.441   2.516
 9883SOL    HW230549   1.979   6.566   2.423
 9884SOL     OW30550   3.160   2.714   5.688
 9884SOL    HW130551   3.206   2.766   5.617
 9884SOL    HW230552   3.071   2.755   5.707
 9885SOL     OW30553   4.715   2.558   5.298
 9885SOL    HW130554   4.797   2.501   5.308
 9885SOL    HW230555   4.639   2.501   5.265
 9886SOL     OW30556   3.299   6.052   1.122
 9886SOL    HW130557   3.389   6.096   1.127
 9886SOL    HW230558   3.278   6.009   1.210
 9887SOL     OW30559   3.103   1.844   0.211
 9887SOL    HW130560   3.048   1.763   0.192
 9887SOL    HW230561   3.127   1.889   0.125
 9888SOL     OW30562   6.492   6.473   3.732
 9888SOL    HW130563   6.428   6.397   3.730
 9888SOL    HW230564   6.580   6.442   3.767
 9889SOL     OW30565   6.866   5.613   2.580
 9889SOL    HW130566   6.825   5.533   2.623
 9889SOL    HW230567   6.883   5.683   2.650
 9890SOL     OW30568   0.941   3.327   2.319
 9890SOL    HW130569   0.901   3.266   2.387
 9890SOL    HW230570   1.008   3.276   2.264
 9891SOL     OW30571   4.525   6.574   2.000
 9891SOL    HW130572   4.557   6.640   2.067
 9891SOL    HW230573   4.561   6.598   1.910
 9892SOL     OW30574   1.732   5.653   3.939
 9892SOL    HW130575   1.684   5.737   3.915
 9892SOL    HW230576   1.751   5.653   4.037
 9893SOL     OW30577   5.710   4.451   4.799
 9893SOL    HW130578   5.788   4.497   4.757
 9893SOL    HW230579   5.743   4.386   4.868
 9894SOL     OW30580   4.473   3.661   5.310
 9894SOL    HW130581   4.424   3.574   5.304
 9894SOL    HW230582   4.539   3.666   5.235
 9895SOL     OW30583   5.444   1.948   6.585
 9895SOL    HW130584   5.417   1.867   6.636
 9895SOL    HW230585   5.387   2.026   6.615
 9896SOL     OW30586   3.950   3.452   6.813
 9896SOL    HW130587   3.904   3.477   6.898
 9896SOL    HW230588   3.887   3.468   6.736
 9897SOL     OW30589   0.008   1.076   3.270
 9897SOL    HW130590   0.078   1.122   3.215
 9897SOL    HW230591   6.986   1.141   3.334
 9898SOL     OW30592   1.937   4.578   6.688
 9898SOL    HW130593   1.975   4.620   6.770
 9898SOL    HW230594   1.896   4.648   6.630
 9899SOL     OW30595   4.872   5.116   2.571
 9899SOL    HW130596   4.876   5.057   2.651
 9899SOL    HW230597   4.889   5.211   2.599
 9900SOL     OW30598   1.847   4.180   4.073
 9900SOL    HW130599   1.793   4.133   4.143
 9900SOL    HW230600   1.874   4.270   4.107
 9901SOL     OW30601   2.459   1.751   6.296
 9901SOL    HW130602   2.441   1.695   6.215
 9901SOL    HW230603   2.507   1.834   6.270
 9902SOL     OW30604   4.668   3.979   6.505
 9902SOL    HW130605   4.746   3.940   6.457
 9902SOL    HW230606   4.617   4.037   6.442
 9903SOL     OW30607   3.501   1.329   1.570
 9903SOL    HW130608   3.417   1.276   1.573
 9903SOL    HW230609   3.484   1.415   1.522
 9904SOL     OW30610   0.599   0.233   1.928
 9904SOL    HW130611   0.500   0.242   1.928
 9904SOL    HW230612   0.630   0.203   1.837
 9905SOL     OW30613   1.697   6.631   6.108
 9905SOL    HW130614   1.715   6.662   6.015
 9905SOL    HW230615   1.598   6.628   6.124
 9906SOL     OW30616   3.760   3.753   5.862
 9906SOL    HW130617   3.827   3.827   5.857
 9906SOL    HW230618   3.798   3.671   5.820
 9907SOL     OW30619   1.152   6.992   2.829
 9907SOL    HW130620   1.088   0.034   2.781
 9907SOL    HW230621   1.229   6.972   2.769
 9908SOL     OW30622   6.576   3.558   5.018
 9908SOL    HW130623   6.550   3.505   5.098
 9908SOL    HW230624   6.535   3.650   5.024
 9909SOL     OW30625   3.489   6.974   2.359
 9909SOL    HW130626   3.425   7.001   2.431
 9909SOL    HW230627   3.556   0.028   2.344
 9910SOL     OW30628   0.993   4.542   1.018
 9910SOL    HW130629   1.059   4.519   0.946
 9910SOL    HW230630   0.907   4.493   1.000
 9911SOL     OW30631   4.061   5.101   2.692
 9911SOL    HW130632   4.106   5.012   2.705
 9911SOL    HW230633   4.080   5.160   2.770
 9912SOL     OW30634   3.954   6.966   0.916
 9912SOL    HW130635   4.048   6.952   0.886
 9912SOL    HW230636   3.921   0.036   0.884
 9913SOL     OW30637   4.357   2.376   2.722
 9913SOL    HW130638   4.326   2.470   2.737
 9913SOL    HW230639   4.350   2.325   2.808
 9914SOL     OW30640   1.970   5.083   5.282
 9914SOL    HW130641   1.991   5.072   5.184
 9914SOL    HW230642   2.051   5.061   5.336
 9915SOL     OW30643   6.156   3.609   3.726
 9915SOL    HW130644   6.084   3.673   3.701
 9915SOL    HW230645   6.244   3.656   3.728
 9916SOL     OW30646   2.743   2.986   0.690
 9916SOL    HW130647   2.827   2.934   0.677
 9916SOL    HW230648   2.665   2.925   0.686
 9917SOL     OW30649   2.284   2.860   4.815
 9917SOL    HW130650   2.308   2.934   4.878
 9917SOL    HW230651   2.203   2.812   4.849
 9918SOL     OW30652   2.543   0.636   4.924
 9918SOL    HW130653   2.500   0.546   4.922
 9918SOL    HW230654   2.526   0.683   4.838
 9919SOL     OW30655   0.781   5.378   2.046
 9919SOL    HW130656   0.737   5.293   2.075
 9919SOL    HW230657   0.819   5.425   2.126
 9920SOL     OW30658   3.997   6.616   2.732
 9920SOL    HW130659   3.957   6.544   2.674
 9920SOL    HW230660   3.940   6.627   2.814
 9921SOL     OW30661   5.110   6.851   3.052
 9921SOL    HW130662   5.037   6.800   3.097
 9921SOL    HW230663   5.178   6.879   3.120
 9922SOL     OW30664   5.148   2.927   1.973
 9922SOL    HW130665   5.074   2.922   1.905
 9922SOL    HW230666   5.166   3.023   1.994
 9923SOL     OW30667   6.420   0.895   6.341
 9923SOL    HW130668   6.370   0.809   6.351
 9923SOL    HW230669   6.494   0.883   6.275
 9924SOL     OW30670   4.664   0.995   3.498
 9924SOL    HW130671   4.713   1.006   3.585
 9924SOL    HW230672   4.666   0.899   3.471
 9925SOL     OW30673   3.543   1.996   4.562
 9925SOL    HW130674   3.627   1.983   4.614
 9925SOL    HW230675   3.468   2.018   4.625
 9926SOL     OW30676   1.402   0.544   5.975
 9926SOL    HW130677   1.323   0.605   5.964
 9926SOL    HW230678   1.433   0.547   6.070
 9927SOL     OW30679   1.256   2.947   2.245
 9927SOL    HW130680   1.283   2.919   2.337
 9927SOL    HW230681   1.216   2.869   2.196
 9928SOL     OW30682   0.137   3.159   2.471
 9928SOL    HW130683   0.138   3.110   2.558
 9928SOL    HW230684   0.043   3.167   2.439
 9929SOL     OW30685   0.970   4.320   5.540
 9929SOL    HW130686   1.003   4.403   5.586
 9929SOL    HW230687   0.970   4.335   5.441
 9930SOL     OW30688   0.004   5.231   6.865
 9930SOL    HW130689   6.978   5.282   6.791
 9930SOL    HW230690   0.101   5.252   6.868
 9931SOL     OW30691   2.614   5.151   6.430
 9931SOL    HW130692   2.620   5.194   6.520
 9931SOL    HW230693   2.667   5.066   6.430
 9932SOL     OW30694   2.385   2.351   1.073
 9932SOL    HW130695   2.450   2.276   1.081
 9932SOL    HW230696   2.434   2.436   1.050
 9933SOL     OW30697   0.454   1.722   2.390
 9933SOL    HW130698   0.504   1.801   2.426
 9933SOL    HW230699   0.472   1.642   2.447
 9934SOL     OW30700   5.103   0.641   6.499
 9934SOL    HW130701   5.030   0.706   6.523
 9934SOL    HW230702   5.180   0.691   6.459
 9935SOL     OW30703   2.714   2.401   0.850
 9935SOL    HW130704   2.747   2.444   0.934
 9935SOL    HW230705   2.615   2.417   0.841
 9936SOL     OW30706   5.300   6.393   6.334
 9936SOL    HW130707   5.281   6.330   6.410
 9936SOL    HW230708   5.214   6.430   6.300
 9937SOL     OW30709   1.770   6.513   3.461
 9937SOL    HW130710   1.697   6.576   3.433
 9937SOL    HW230711   1.752   6.422   3.423
 9938SOL     OW30712   0.080   0.850   3.388
 9938SOL    HW130713   0.063   0.927   3.325
 9938SOL    HW230714   0.016   0.856   3.465
 9939SOL     OW30715   2.684   4.065   1.663
 9939SOL    HW130716   2.781   4.044   1.664
 9939SOL    HW230717   2.671   4.164   1.663
 9940SOL     OW30718   6.908   1.286   3.452
 9940SOL    HW130719   6.935   1.240   3.536
 9940SOL    HW230720   6.923   1.384   3.460
 9941SOL     OW30721   5.797   3.859   0.804
 9941SOL    HW130722   5.792   3.947   0.851
 9941SOL    HW230723   5.885   3.815   0.825
 9942SOL     OW30724   6.398   5.721   3.009
 9942SOL    HW130725   6.403   5.809   2.963
 9942SOL    HW230726   6.313   5.716   3.062
 9943SOL     OW30727   1.797   3.815   5.360
 9943SOL    HW130728   1.793   3.903   5.406
 9943SOL    HW230729   1.772   3.742   5.424
 9944SOL     OW30730   1.851   5.817   6.405
 9944SOL    HW130731   1.789   5.883   6.363
 9944SOL    HW230732   1.798   5.740   6.441
 9945SOL     OW30733   6.874   3.739   6.989
 9945SOL    HW130734   6.808   3.743   6.914
 9945SOL    HW230735   6.849   3.667   0.035
 9946SOL     OW30736   4.727   2.177   1.829
 9946SOL    HW130737   4.748   2.222   1.916
 9946SOL    HW230738   4.780   2.219   1.756
 9947SOL     OW30739   0.944   1.324   2.763
 9947SOL    HW130740   0.998   1.248   2.727
 9947SOL    HW230741   1.000   1.407   2.765
 9948SOL     OW30742   6.209   0.707   4.949
 9948SOL    HW130743   6.238   0.761   5.028
 9948SOL    HW230744   6.254   0.618   4.951
 9949SOL     OW30745   6.758   3.721   3.276
 9949SOL    HW130746   6.752   3.688   3.182
 9949SOL    HW230747   6.717   3.653   3.337
 9950SOL     OW30748   4.215   4.123   5.496
 9950SOL    HW130749   4.282   4.050   5.478
 9950SOL    HW230750   4.210   4.183   5.416
 9951SOL     OW30751   0.036   2.136   3.037
 9951SOL    HW130752   0.049   2.193   2.956
 9951SOL    HW230753   6.965   2.093   3.033
 9952SOL     OW30754   1.441   4.466   1.341
 9952SOL    HW130755   1.465   4.424   1.254
 9952SOL    HW230756   1.404   4.557   1.325
 9953SOL     OW30757   6.383   3.776   3.779
 9953SOL    HW130758   6.401   3.833   3.699
 9953SOL    HW230759   6.345   3.832   3.852
 9954SOL     OW30760   3.233   1.171   1.309
 9954SOL    HW130761   3.272   1.144   1.398
 9954SOL    HW230762   3.137   1.144   1.307
 9955SOL     OW30763   5.535   5.601   1.534
 9955SOL    HW130764   5.566   5.505   1.530
 9955SOL    HW230765   5.548   5.644   1.445
 9956SOL     OW30766   1.901   3.385   3.391
 9956SOL    HW130767   1.851   3.471   3.392
 9956SOL    HW230768   1.841   3.311   3.424
 9957SOL     OW30769   5.613   0.376   0.446
 9957SOL    HW130770   5.649   0.400   0.536
 9957SOL    HW230771   5.514   0.392   0.444
 9958SOL     OW30772   6.097   5.466   6.842
 9958SOL    HW130773   6.030   5.407   6.797
 9958SOL    HW230774   6.073   5.475   6.939
 9959SOL     OW30775   6.031   4.887   0.483
 9959SOL    HW130776   5.959   4.898   0.551
 9959SOL    HW230777   6.085   4.806   0.504
 9960SOL     OW30778   6.478   0.302   0.148
 9960SOL    HW130779   6.442   0.278   0.238
 9960SOL    HW230780   6.547   0.234   0.120
 9961SOL     OW30781   3.267   5.572   0.671
 9961SOL    HW130782   3.188   5.632   0.686
 9961SOL    HW230783   3.298   5.536   0.759
 9962SOL     OW30784   3.318   0.407   1.167
 9962SOL    HW130785   3.271   0.484   1.212
 9962SOL    HW230786   3.268   0.384   1.083
 9963SOL     OW30787   0.775   0.183   6.389
 9963SOL    HW130788   0.748   0.194   6.293
 9963SOL    HW230789   0.712   0.233   6.447
 9964SOL     OW30790   4.682   4.960   5.833
 9964SOL    HW130791   4.635   4.990   5.750
 9964SOL    HW230792   4.773   5.001   5.836
 9965SOL     OW30793   2.977   5.263   4.162
 9965SOL    HW130794   3.031   5.270   4.078
 9965SOL    HW230795   3.003   5.180   4.212
 9966SOL     OW30796   3.631   5.572   3.084
 9966SOL    HW130797   3.575   5.535   3.010
 9966SOL    HW230798   3.593   5.659   3.114
 9967SOL     OW30799   0.245   0.442   3.047
 9967SOL    HW130800   0.263   0.517   3.110
 9967SOL    HW230801   0.193   0.371   3.094
 9968SOL     OW30802   4.571   6.796   0.445
 9968SOL    HW130803   4.661   6.783   0.405
 9968SOL    HW230804   4.573   6.875   0.506
 9969SOL     OW30805   0.196   6.049   3.712
 9969SOL    HW130806   0.257   6.124   3.687
 9969SOL    HW230807   0.226   6.009   3.799
 9970SOL     OW30808   6.643   3.178   2.117
 9970SOL    HW130809   6.666   3.204   2.211
 9970SOL    HW230810   6.552   3.213   2.094
 9971SOL     OW30811   0.108   5.401   4.509
 9971SOL    HW130812   0.144   5.441   4.425
 9971SOL    HW230813   0.104   5.302   4.500
 9972SOL     OW30814   2.705   4.429   5.876
 9972SOL    HW130815   2.652   4.449   5.794
 9972SOL    HW230816   2.643   4.419   5.954
 9973SOL     OW30817   2.540   1.877   3.425
 9973SOL    HW130818   2.528   1.886   3.326
 9973SOL    HW230819   2.588   1.957   3.461
 9974SOL     OW30820   1.803   2.433   3.265
 9974SOL    HW130821   1.772   2.511   3.318
 9974SOL    HW230822   1.843   2.465   3.179
 9975SOL     OW30823   2.661   4.358   6.417
 9975SOL    HW130824   2.750   4.400   6.405
 9975SOL    HW230825   2.671   4.272   6.467
 9976SOL     OW30826   4.465   5.738   5.635
 9976SOL    HW130827   4.449   5.728   5.733
 9976SOL    HW230828   4.439   5.653   5.589
 9977SOL     OW30829   4.181   0.400   5.593
 9977SOL    HW130830   4.133   0.333   5.650
 9977SOL    HW230831   4.168   0.491   5.631
 9978SOL     OW30832   0.841   2.523   6.960
 9978SOL    HW130833   0.887   2.512   0.030
 9978SOL    HW230834   0.813   2.434   6.925
 9979SOL     OW30835   3.159   4.176   5.094
 9979SOL    HW130836   3.095   4.099   5.102
 9979SOL    HW230837   3.159   4.210   5.000
 9980SOL     OW30838   1.360   1.460   0.594
 9980SOL    HW130839   1.414   1.534   0.555
 9980SOL    HW230840   1.291   1.498   0.655
 9981SOL     OW30841   5.710   1.333   0.387
 9981SOL    HW130842   5.729   1.296   0.478
 9981SOL    HW230843   5.784   1.310   0.325
 9982SOL     OW30844   2.124   2.128   4.757
 9982SOL    HW130845   2.085   2.150   4.846
 9982SOL    HW230846   2.123   2.029   4.744
 9983SOL     OW30847   1.167   3.978   2.380
 9983SOL    HW130848   1.133   3.902   2.324
 9983SOL    HW230849   1.093   4.043   2.396
 9984SOL     OW30850   0.214   5.195   0.991
 9984SOL    HW130851   0.167   5.107   0.988
 9984SOL    HW230852   0.307   5.182   1.026
 9985SOL     OW30853   4.786   4.484   6.944
 9985SOL    HW130854   4.740   4.542   7.012
 9985SOL    HW230855   4.805   4.537   6.862
 9986SOL     OW30856   5.678   5.186   0.158
 9986SOL    HW130857   5.635   5.228   0.238
 9986SOL    HW230858   5.767   5.149   0.184
 9987SOL     OW30859   5.848   1.963   1.312
 9987SOL    HW130860   5.789   1.992   1.387
 9987SOL    HW230861   5.792   1.940   1.232
 9988SOL     OW30862   6.159   0.140   3.559
 9988SOL    HW130863   6.081   0.180   3.513
 9988SOL    HW230864   6.143   0.043   3.575
 9989SOL     OW30865   6.801   5.944   2.515
 9989SOL    HW130866   6.809   5.963   2.417
 9989SOL    HW230867   6.726   5.881   2.532
 9990SOL     OW30868   6.798   0.465   3.354
 9990SOL    HW130869   6.771   0.470   3.258
 9990SOL    HW230870   6.889   0.505   3.365
 9991SOL     OW30871   1.980   4.177   2.559
 9991SOL    HW130872   1.942   4.179   2.467
 9991SOL    HW230873   1.921   4.121   2.618
 9992SOL     OW30874   2.686   4.966   0.359
 9992SOL    HW130875   2.718   5.049   0.405
 9992SOL    HW230876   2.694   4.888   0.422
 9993SOL     OW30877   3.814   0.412   5.151
 9993SOL    HW130878   3.757   0.491   5.130
 9993SOL    HW230879   3.906   0.444   5.176
 9994SOL     OW30880   6.076   4.903   5.326
 9994SOL    HW130881   6.154   4.919   5.265
 9994SOL    HW230882   5.993   4.940   5.285
 9995SOL     OW30883   3.805   1.687   6.405
 9995SOL    HW130884   3.759   1.723   6.324
 9995SOL    HW230885   3.774   1.736   6.486
 9996SOL     OW30886   3.244   4.296   0.821
 9996SOL    HW130887   3.212   4.226   0.885
 9996SOL    HW230888   3.214   4.273   0.728
 9997SOL     OW30889   6.599   2.178   3.375
 9997SOL    HW130890   6.555   2.096   3.340
 9997SOL    HW230891   6.571   2.257   3.321
 9998SOL     OW30892   5.056   3.994   2.515
 9998SOL    HW130893   4.958   4.000   2.492
 9998SOL    HW230894   5.080   3.899   2.533
 9999SOL     OW30895   0.822   6.709   4.356
 9999SOL    HW130896   0.907   6.658   4.340
 9999SOL    HW230897   0.744   6.646   4.355
10000SOL     OW30898   4.365   2.308   1.324
10000SOL    HW130899   4.335   2.307   1.420
10000SOL    HW230900   4.285   2.297   1.265
10001SOL     OW30901   3.812   6.408   1.297
10001SOL    HW130902   3.740   6.338   1.301
10001SOL    HW230903   3.847   6.414   1.203
10002SOL     OW30904   2.573   0.188   1.917
10002SOL    HW130905   2.672   0.183   1.903
10002SOL    HW230906   2.544   0.111   1.974
10003SOL     OW30907   1.144   0.863   2.879
10003SOL    HW130908   1.123   0.880   2.783
10003SOL    HW230909   1.236   0.824   2.887
10004SOL     OW30910   0.357   4.754   4.487
10004SOL    HW130911   0.297   4.699   4.429
10004SOL    HW230912   0.415   4.812   4.430
10005SOL     OW30913   2.594   5.230   3.488
10005SOL    HW130914   2.684   5.199   3.458
10005SOL    HW230915   2.542   5.152   3.523
10006SOL     OW30916   5.374   0.990   5.225
10006SOL    HW130917   5.277   1.011   5.212
10006SOL    HW230918   5.390   0.893   5.204
10007SOL     OW30919   0.802   5.301   3.746
10007SOL    HW130920   0.731   5.312   3.816
10007SOL    HW230921   0.855   5.218   3.764
10008SOL     OW30922   3.552   1.474   5.861
10008SOL    HW130923   3.635   1.506   5.814
10008SOL    HW230924   3.474   1.528   5.831
10009SOL     OW30925   0.855   4.361   2.147
10009SOL    HW130926   0.787   4.353   2.075
10009SOL    HW230927   0.916   4.283   2.144
10010SOL     OW30928   2.438   4.198   1.272
10010SOL    HW130929   2.468   4.103   1.280
10010SOL    HW230930   2.488   4.255   1.337
10011SOL     OW30931   2.149   3.161   6.612
10011SOL    HW130932   2.217   3.155   6.684
10011SOL    HW230933   2.059   3.178   6.651
10012SOL     OW30934   5.540   2.044   2.961
10012SOL    HW130935   5.451   2.026   2.918
10012SOL    HW230936   5.546   1.996   3.048
10013SOL     OW30937   0.659   6.207   4.517
10013SOL    HW130938   0.750   6.224   4.554
10013SOL    HW230939   0.666   6.185   4.420
10014SOL     OW30940   0.819   0.962   2.548
10014SOL    HW130941   0.889   0.920   2.606
10014SOL    HW230942   0.805   0.905   2.467
10015SOL     OW30943   4.003   6.181   5.931
10015SOL    HW130944   4.041   6.124   5.859
10015SOL    HW230945   3.990   6.274   5.896
10016SOL     OW30946   2.597   1.057   4.056
10016SOL    HW130947   2.628   1.152   4.042
10016SOL    HW230948   2.591   1.011   3.968
10017SOL     OW30949   2.817   2.255   2.707
10017SOL    HW130950   2.852   2.258   2.614
10017SOL    HW230951   2.834   2.164   2.746
10018SOL     OW30952   6.726   4.029   4.914
10018SOL    HW130953   6.687   4.110   4.957
10018SOL    HW230954   6.823   4.021   4.938
10019SOL     OW30955   0.571   2.287   1.674
10019SOL    HW130956   0.509   2.212   1.652
10019SOL    HW230957   0.518   2.368   1.700
10020SOL     OW30958   6.490   1.311   1.898
10020SOL    HW130959   6.514   1.236   1.960
10020SOL    HW230960   6.396   1.300   1.867
10021SOL     OW30961   0.860   3.094   2.142
10021SOL    HW130962   0.826   3.187   2.157
10021SOL    HW230963   0.798   3.046   2.079
10022SOL     OW30964   1.670   5.266   5.936
10022SOL    HW130965   1.718   5.188   5.897
10022SOL    HW230966   1.611   5.308   5.867
10023SOL     OW30967   0.934   0.745   5.915
10023SOL    HW130968   0.879   0.802   5.853
10023SOL    HW230969   0.962   0.662   5.867
10024SOL     OW30970   1.375   4.758   2.807
10024SOL    HW130971   1.410   4.672   2.768
10024SOL    HW230972   1.362   4.825   2.734
10025SOL     OW30973   1.295   3.661   0.635
10025SOL    HW130974   1.276   3.676   0.732
10025SOL    HW230975   1.392   3.678   0.617
10026SOL     OW30976   5.463   1.479   5.068
10026SOL    HW130977   5.508   1.568   5.061
10026SOL    HW230978   5.446   1.443   4.977
10027SOL     OW30979   2.942   2.070   5.445
10027SOL    HW130980   2.930   2.018   5.530
10027SOL    HW230981   3.037   2.100   5.437
10028SOL     OW30982   4.304   0.074   1.543
10028SOL    HW130983   4.225   0.039   1.593
10028SOL    HW230984   4.273   0.133   1.468
10029SOL     OW30985   0.173   4.578   4.677
10029SOL    HW130986   0.128   4.578   4.767
10029SOL    HW230987   0.203   4.670   4.655
10030SOL     OW30988   2.506   0.348   4.623
10030SOL    HW130989   2.476   0.357   4.718
10030SOL    HW230990   2.481   0.431   4.572
10031SOL     OW30991   2.687   5.714   2.860
10031SOL    HW130992   2.647   5.750   2.944
10031SOL    HW230993   2.787   5.718   2.866
10032SOL     OW30994   3.191   6.343   4.887
10032SOL    HW130995   3.136   6.370   4.808
10032SOL    HW230996   3.132   6.334   4.967
10033SOL     OW30997   3.251   1.370   4.467
10033SOL    HW130998   3.215   1.289   4.515
10033SOL    HW230999   3.182   1.407   4.406
10034SOL     OW31000   2.632   1.068   3.089
10034SOL    HW131001   2.578   1.080   3.172
10034SOL    HW231002   2.662   1.158   3.055
10035SOL     OW31003   6.648   2.600   2.985
10035SOL    HW131004   6.691   2.663   2.921
10035SOL    HW231005   6.632   2.647   3.072
10036SOL     OW31006   0.797   1.047   0.007
10036SOL    HW131007   0.811   0.959   0.052
10036SOL    HW231008   0.871   1.063   6.960
10037SOL     OW31009   5.778   6.642   6.436
10037SOL    HW131010   5.726   6.558   6.447
10037SOL    HW231011   5.718   6.721   6.448
10038SOL     OW31012   4.103   6.565   6.217
10038SOL    HW131013   4.169   6.510   6.166
10038SOL    HW231014   4.147   6.602   6.300
10039SOL     OW31015   0.198   5.757   2.754
10039SOL    HW131016   0.172   5.685   2.689
10039SOL    HW231017   0.239   5.833   2.704
10040SOL     OW31018   3.097   6.949   1.329
10040SOL    HW131019   3.096   0.020   1.375
10040SOL    HW231020   3.114   6.962   1.231
10041SOL     OW31021   6.277   5.628   4.762
10041SOL    HW131022   6.302   5.590   4.851
10041SOL    HW231023   6.297   5.561   4.690
10042SOL     OW31024   0.110   0.535   5.174
10042SOL    HW131025   0.064   0.613   5.130
10042SOL    HW231026   0.190   0.509   5.120
10043SOL     OW31027   0.633   0.819   3.810
10043SOL    HW131028   0.613   0.723   3.828
10043SOL    HW231029   0.654   0.831   3.713
10044SOL     OW31030   2.917   1.733   6.463
10044SOL    HW131031   2.966   1.778   6.537
10044SOL    HW231032   2.983   1.695   6.397
10045SOL     OW31033   4.080   6.793   5.210
10045SOL    HW131034   4.080   6.727   5.135
10045SOL    HW231035   4.016   6.867   5.189
10046SOL     OW31036   0.060   2.624   1.466
10046SOL    HW131037   6.981   2.647   1.463
10046SOL    HW231038   0.070   2.524   1.459
10047SOL     OW31039   0.498   1.508   3.360
10047SOL    HW131040   0.587   1.468   3.337
10047SOL    HW231041   0.509   1.572   3.436
10048SOL     OW31042   3.619   2.475   1.602
10048SOL    HW131043   3.534   2.512   1.640
10048SOL    HW231044   3.669   2.426   1.673
10049SOL     OW31045   1.785   0.024   4.168
10049SOL    HW131046   1.735   6.977   4.112
10049SOL    HW231047   1.875   0.041   4.128
10050SOL     OW31048   5.223   1.997   3.974
10050SOL    HW131049   5.273   2.021   4.057
10050SOL    HW231050   5.259   1.911   3.938
10051SOL     OW31051   5.884   2.660   5.996
10051SOL    HW131052   5.873   2.718   5.915
10051SOL    HW231053   5.860   2.713   6.078
10052SOL     OW31054   1.136   4.138   1.241
10052SOL    HW131055   1.219   4.193   1.233
10052SOL    HW231056   1.151   4.066   1.308
10053SOL     OW31057   3.213   6.432   3.704
10053SOL    HW131058   3.218   6.347   3.757
10053SOL    HW231059   3.270   6.424   3.623
10054SOL     OW31060   3.524   5.404   4.127
10054SOL    HW131061   3.483   5.482   4.079
10054SOL    HW231062   3.458   5.329   4.131
10055SOL     OW31063   6.601   3.300   6.103
10055SOL    HW131064   6.669   3.353   6.155
10055SOL    HW231065   6.598   3.207   6.139
10056SOL     OW31066   6.725   5.188   1.781
10056SOL    HW131067   6.742   5.124   1.706
10056SOL    HW231068   6.782   5.164   1.859
10057SOL     OW31069   2.715   2.310   3.684
10057SOL    HW131070   2.673   2.375   3.621
10057SOL    HW231071   2.815   2.319   3.680
10058SOL     OW31072   0.470   5.359   3.471
10058SOL    HW131073   0.565   5.383   3.449
10058SOL    HW231074   0.408   5.412   3.414
10059SOL     OW31075   5.245   6.999   1.098
10059SOL    HW131076   5.318   6.942   1.061
10059SOL    HW231077   5.170   6.941   1.130
10060SOL     OW31078   1.994   2.830   1.743
10060SOL    HW131079   2.019   2.809   1.838
10060SOL    HW231080   2.074   2.817   1.684
10061SOL     OW31081   6.276   1.994   5.086
10061SOL    HW131082   6.206   2.061   5.063
10061SOL    HW231083   6.291   1.932   5.009
10062SOL     OW31084   6.299   5.992   2.845
10062SOL    HW131085   6.318   6.051   2.924
10062SOL    HW231086   6.356   6.020   2.768
10063SOL     OW31087   0.874   3.184   2.551
10063SOL    HW131088   0.970   3.155   2.554
10063SOL    HW231089   0.817   3.117   2.598
10064SOL     OW31090   5.942   6.261   4.823
10064SOL    HW131091   5.990   6.188   4.775
10064SOL    HW231092   5.881   6.221   4.892
10065SOL     OW31093   1.187   6.412   3.183
10065SOL    HW131094   1.096   6.375   3.203
10065SOL    HW231095   1.251   6.384   3.255
10066SOL     OW31096   0.820   0.382   3.899
10066SOL    HW131097   0.730   0.424   3.903
10066SOL    HW231098   0.866   0.408   3.814
10067SOL     OW31099   3.692   5.122   3.392
10067SOL    HW131100   3.709   5.194   3.324
10067SOL    HW231101   3.595   5.099   3.392
10068SOL     OW31102   4.954   3.671   5.454
10068SOL    HW131103   5.013   3.745   5.484
10068SOL    HW231104   4.949   3.601   5.525
10069SOL     OW31105   3.891   0.751   3.800
10069SOL    HW131106   3.799   0.710   3.805
10069SOL    HW231107   3.932   0.728   3.711
10070SOL     OW31108   1.097   6.625   4.589
10070SOL    HW131109   1.092   6.722   4.566
10070SOL    HW231110   1.004   6.586   4.590
10071SOL     OW31111   5.507   5.616   4.993
10071SOL    HW131112   5.449   5.671   5.054
10071SOL    HW231113   5.455   5.592   4.911
10072SOL     OW31114   1.031   0.123   3.258
10072SOL    HW131115   1.034   0.177   3.342
10072SOL    HW231116   1.123   0.088   3.238
10073SOL     OW31117   0.334   5.660   6.531
10073SOL    HW131118   0.377   5.586   6.583
10073SOL    HW231119   0.403   5.726   6.504
10074SOL     OW31120   1.999   6.733   5.491
10074SOL    HW131121   1.914   6.782   5.471
10074SOL    HW231122   2.068   6.797   5.526
10075SOL     OW31123   1.306   2.187   4.019
10075SOL    HW131124   1.241   2.255   4.052
10075SOL    HW231125   1.377   2.172   4.089
10076SOL     OW31126   5.591   0.495   4.759
10076SOL    HW131127   5.554   0.562   4.823
10076SOL    HW231128   5.617   0.541   4.674
10077SOL     OW31129   3.738   1.405   6.356
10077SOL    HW131130   3.781   1.488   6.321
10077SOL    HW231131   3.642   1.423   6.377
10078SOL     OW31132   5.809   6.634   5.722
10078SOL    HW131133   5.777   6.696   5.793
10078SOL    HW231134   5.908   6.644   5.712
10079SOL     OW31135   0.075   4.214   0.275
10079SOL    HW131136   0.041   4.220   0.369
10079SOL    HW231137   0.173   4.233   0.274
10080SOL     OW31138   1.719   3.112   6.054
10080SOL    HW131139   1.663   3.194   6.045
10080SOL    HW231140   1.816   3.138   6.060
10081SOL     OW31141   0.081   0.679   6.653
10081SOL    HW131142   0.180   0.680   6.669
10081SOL    HW231143   0.038   0.750   6.709
10082SOL     OW31144   6.556   0.922   1.387
10082SOL    HW131145   6.578   0.879   1.300
10082SOL    HW231146   6.629   0.905   1.453
10083SOL     OW31147   4.981   0.803   4.381
10083SOL    HW131148   4.929   0.887   4.396
10083SOL    HW231149   5.060   0.801   4.443
10084SOL     OW31150   2.445   1.206   6.233
10084SOL    HW131151   2.535   1.247   6.241
10084SOL    HW231152   2.440   1.152   6.149
10085SOL     OW31153   0.681   5.207   2.868
10085SOL    HW131154   0.780   5.202   2.851
10085SOL    HW231155   0.650   5.302   2.855
10086SOL     OW31156   6.230   3.640   2.343
10086SOL    HW131157   6.221   3.691   2.428
10086SOL    HW231158   6.145   3.648   2.291
10087SOL     OW31159   1.401   6.962   4.061
10087SOL    HW131160   1.375   6.882   4.008
10087SOL    HW231161   1.439   6.933   4.149
10088SOL     OW31162   0.477   0.040   4.380
10088SOL    HW131163   0.393   0.018   4.331
10088SOL    HW231164   0.555   0.001   4.331
10089SOL     OW31165   1.271   3.504   2.086
10089SOL    HW131166   1.266   3.477   1.990
10089SOL    HW231167   1.366   3.523   2.111
10090SOL     OW31168   0.476   5.070   0.654
10090SOL    HW131169   0.540   5.135   0.694
10090SOL    HW231170   0.523   5.015   0.584
10091SOL     OW31171   0.719   2.565   4.248
10091SOL    HW131172   0.769   2.552   4.162
10091SOL    HW231173   0.763   2.511   4.320
10092SOL     OW31174   1.987   4.241   5.341
10092SOL    HW131175   2.014   4.187   5.261
10092SOL    HW231176   2.068   4.265   5.394
10093SOL     OW31177   6.808   4.734   6.572
10093SOL    HW131178   6.855   4.820   6.556
10093SOL    HW231179   6.726   4.729   6.515
10094SOL     OW31180   1.611   0.980   1.824
10094SOL    HW131181   1.542   0.968   1.753
10094SOL    HW231182   1.697   0.937   1.796
10095SOL     OW31183   6.863   0.764   6.084
10095SOL    HW131184   6.903   0.740   5.995
10095SOL    HW231185   6.900   0.851   6.115
10096SOL     OW31186   0.509   5.041   2.498
10096SOL    HW131187   0.591   5.073   2.544
10096SOL    HW231188   0.474   5.114   2.438
10097SOL     OW31189   1.058   1.687   6.620
10097SOL    HW131190   1.001   1.747   6.564
10097SOL    HW231191   1.033   1.697   6.717
10098SOL     OW31192   2.920   5.104   6.590
10098SOL    HW131193   2.823   5.128   6.598
10098SOL    HW231194   2.967   5.176   6.538
10099SOL     OW31195   6.829   4.675   4.658
10099SOL    HW131196   6.880   4.627   4.587
10099SOL    HW231197   6.892   4.729   4.714
10100SOL     OW31198   5.405   1.159   5.463
10100SOL    HW131199   5.490   1.128   5.506
10100SOL    HW231200   5.377   1.092   5.394
10101SOL     OW31201   0.350   4.527   1.993
10101SOL    HW131202   0.333   4.539   2.091
10101SOL    HW231203   0.346   4.616   1.948
10102SOL     OW31204   2.992   1.214   2.848
10102SOL    HW131205   2.997   1.214   2.948
10102SOL    HW231206   3.066   1.270   2.811
10103SOL     OW31207   2.625   2.113   6.784
10103SOL    HW131208   2.708   2.106   6.729
10103SOL    HW231209   2.634   2.188   6.849
10104SOL     OW31210   1.479   6.312   5.080
10104SOL    HW131211   1.520   6.284   5.167
10104SOL    HW231212   1.384   6.340   5.095
10105SOL     OW31213   2.256   0.670   6.452
10105SOL    HW131214   2.312   0.632   6.379
10105SOL    HW231215   2.315   0.719   6.517
10106SOL     OW31216   5.159   5.615   0.402
10106SOL    HW131217   5.137   5.612   0.499
10106SOL    HW231218   5.253   5.645   0.389
10107SOL     OW31219   5.689   1.229   5.690
10107SOL    HW131220   5.686   1.258   5.786
10107SOL    HW231221   5.645   1.298   5.633
10108SOL     OW31222   6.266   6.498   0.440
10108SOL    HW131223   6.319   6.583   0.438
10108SOL    HW231224   6.299   6.439   0.513
10109SOL     OW31225   5.163   5.101   3.171
10109SOL    HW131226   5.217   5.020   3.148
10109SOL    HW231227   5.205   5.149   3.249
10110SOL     OW31228   2.977   0.883   5.673
10110SOL    HW131229   2.953   0.788   5.659
10110SOL    HW231230   3.030   0.892   5.757
10111SOL     OW31231   0.445   2.141   2.979
10111SOL    HW131232   0.467   2.069   3.044
10111SOL    HW231233   0.517   2.146   2.909
10112SOL     OW31234   4.419   3.926   5.713
10112SOL    HW131235   4.416   3.829   5.737
10112SOL    HW231236   4.472   3.937   5.629
10113SOL     OW31237   3.919   6.630   6.727
10113SOL    HW131238   3.943   6.539   6.695
10113SOL    HW231239   3.863   6.676   6.658
10114SOL     OW31240   4.368   1.234   1.370
10114SOL    HW131241   4.277   1.193   1.378
10114SOL    HW231242   4.403   1.218   1.278
10115SOL     OW31243   1.351   2.022   3.805
10115SOL    HW131244   1.352   2.026   3.905
10115SOL    HW231245   1.292   2.095   3.770
10116SOL     OW31246   1.239   1.084   1.011
10116SOL    HW131247   1.176   1.077   1.088
10116SOL    HW231248   1.330   1.052   1.039
10117SOL     OW31249   4.744   0.771   5.554
10117SOL    HW131250   4.714   0.689   5.602
10117SOL    HW231251   4.715   0.852   5.604
10118SOL     OW31252   6.773   5.453   1.933
10118SOL    HW131253   6.844   5.483   1.996
10118SOL    HW231254   6.752   5.356   1.950
10119SOL     OW31255   2.254   0.911   5.871
10119SOL    HW131256   2.346   0.944   5.887
10119SOL    HW231257   2.219   0.866   5.953
10120SOL     OW31258   6.962   2.967   3.573
10120SOL    HW131259   6.913   2.963   3.660
10120SOL    HW231260   6.919   3.034   3.513
10121SOL     OW31261   6.727   4.842   4.862
10121SOL    HW131262   6.826   4.855   4.865
10121SOL    HW231263   6.694   4.820   4.954
10122SOL     OW31264   5.291   3.119   0.348
10122SOL    HW131265   5.354   3.056   0.303
10122SOL    HW231266   5.333   3.210   0.354
10123SOL     OW31267   0.310   6.776   0.205
10123SOL    HW131268   0.223   6.822   0.224
10123SOL    HW231269   0.317   6.693   0.261
10124SOL     OW31270   3.472   4.408   0.713
10124SOL    HW131271   3.382   4.388   0.751
10124SOL    HW231272   3.503   4.329   0.659
10125SOL     OW31273   1.469   0.077   1.564
10125SOL    HW131274   1.455   0.031   1.652
10125SOL    HW231275   1.510   0.167   1.579
10126SOL     OW31276   6.328   5.434   0.809
10126SOL    HW131277   6.367   5.374   0.739
10126SOL    HW231278   6.269   5.380   0.869
10127SOL     OW31279   3.721   4.967   4.944
10127SOL    HW131280   3.700   5.051   4.895
10127SOL    HW231281   3.649   4.948   5.011
10128SOL     OW31282   0.231   2.037   0.949
10128SOL    HW131283   0.169   2.107   0.913
10128SOL    HW231284   0.289   2.003   0.875
10129SOL     OW31285   5.774   2.224   3.279
10129SOL    HW131286   5.681   2.186   3.284
10129SOL    HW231287   5.827   2.192   3.358
10130SOL     OW31288   6.417   5.205   1.726
10130SOL    HW131289   6.379   5.279   1.670
10130SOL    HW231290   6.513   5.224   1.746
10131SOL     OW31291   0.573   1.073   0.735
10131SOL    HW131292   0.631   1.059   0.654
10131SOL    HW231293   0.477   1.059   0.710
10132SOL     OW31294   3.270   0.043   2.516
10132SOL    HW131295   3.205   7.001   2.562
10132SOL    HW231296   3.244   0.138   2.531
10133SOL     OW31297   5.125   5.555   3.362
10133SOL    HW131298   5.058   5.482   3.348
10133SOL    HW231299   5.077   5.642   3.377
10134SOL     OW31300   0.059   1.533   2.801
10134SOL    HW131301   0.154   1.509   2.818
10134SOL    HW231302   0.025   1.589   2.877
10135SOL     OW31303   4.309   4.845   3.395
10135SOL    HW131304   4.317   4.756   3.440
10135SOL    HW231305   4.393   4.865   3.345
10136SOL     OW31306   5.816   6.859   2.787
10136SOL    HW131307   5.755   6.923   2.741
10136SOL    HW231308   5.905   6.902   2.801
10137SOL     OW31309   6.101   4.890   4.193
10137SOL    HW131310   6.043   4.939   4.257
10137SOL    HW231311   6.045   4.830   4.136
10138SOL     OW31312   5.313   2.468   6.261
10138SOL    HW131313   5.403   2.429   6.278
10138SOL    HW231314   5.292   2.466   6.164
10139SOL     OW31315   4.006   3.416   3.261
10139SOL    HW131316   4.009   3.336   3.201
10139SOL    HW231317   3.912   3.449   3.267
10140SOL     OW31318   0.493   4.730   6.201
10140SOL    HW131319   0.427   4.678   6.255
10140SOL    HW231320   0.572   4.753   6.258
10141SOL     OW31321   1.637   0.753   3.579
10141SOL    HW131322   1.627   0.822   3.508
10141SOL    HW231323   1.696   0.679   3.546
10142SOL     OW31324   4.571   5.958   4.924
10142SOL    HW131325   4.639   5.884   4.924
10142SOL    HW231326   4.550   5.984   5.018
10143SOL     OW31327   4.467   6.971   1.188
10143SOL    HW131328   4.399   6.909   1.228
10143SOL    HW231329   4.438   6.999   1.097
10144SOL     OW31330   3.004   5.534   3.794
10144SOL    HW131331   3.013   5.535   3.694
10144SOL    HW231332   3.055   5.457   3.831
10145SOL     OW31333   2.841   6.515   5.881
10145SOL    HW131334   2.807   6.421   5.876
10145SOL    HW231335   2.919   6.525   5.820
10146SOL     OW31336   4.885   5.108   4.171
10146SOL    HW131337   4.910   5.171   4.097
10146SOL    HW231338   4.848   5.023   4.131
10147SOL     OW31339   4.713   5.018   4.846
10147SOL    HW131340   4.776   5.066   4.907
10147SOL    HW231341   4.728   4.919   4.854
10148SOL     OW31342   5.264   5.743   0.981
10148SOL    HW131343   5.282   5.645   0.991
10148SOL    HW231344   5.341   5.786   0.932
10149SOL     OW31345   4.236   2.736   0.876
10149SOL    HW131346   4.232   2.777   0.968
10149SOL    HW231347   4.272   2.803   0.812
10150SOL     OW31348   4.797   4.584   1.445
10150SOL    HW131349   4.835   4.540   1.526
10150SOL    HW231350   4.716   4.534   1.414
10151SOL     OW31351   1.829   0.430   5.682
10151SOL    HW131352   1.884   0.471   5.610
10151SOL    HW231353   1.743   0.481   5.692
10152SOL     OW31354   0.074   5.601   3.646
10152SOL    HW131355   0.126   5.515   3.648
10152SOL    HW231356   7.002   5.585   3.686
10153SOL     OW31357   5.699   6.333   4.523
10153SOL    HW131358   5.752   6.249   4.537
10153SOL    HW231359   5.729   6.403   4.588
10154SOL     OW31360   6.946   5.057   6.124
10154SOL    HW131361   6.901   4.981   6.171
10154SOL    HW231362   6.884   5.136   6.124
10155SOL     OW31363   3.513   1.046   6.088
10155SOL    HW131364   3.608   1.047   6.055
10155SOL    HW231365   3.510   1.085   6.180
10156SOL     OW31366   5.737   0.444   2.193
10156SOL    HW131367   5.693   0.484   2.273
10156SOL    HW231368   5.746   0.514   2.122
10157SOL     OW31369   5.446   0.533   6.137
10157SOL    HW131370   5.521   0.524   6.072
10157SOL    HW231371   5.482   0.555   6.227
10158SOL     OW31372   4.241   3.526   6.914
10158SOL    HW131373   4.240   3.598   6.983
10158SOL    HW231374   4.152   3.522   6.868
10159SOL     OW31375   1.195   1.553   5.964
10159SOL    HW131376   1.199   1.652   5.952
10159SOL    HW231377   1.265   1.510   5.906
10160SOL     OW31378   0.342   6.270   3.701
10160SOL    HW131379   0.295   6.331   3.764
10160SOL    HW231380   0.355   6.316   3.613
10161SOL     OW31381   2.994   5.606   5.944
10161SOL    HW131382   3.069   5.542   5.961
10161SOL    HW231383   3.025   5.678   5.882
10162SOL     OW31384   3.172   1.989   6.696
10162SOL    HW131385   3.102   1.992   6.624
10162SOL    HW231386   3.232   2.068   6.687
10163SOL     OW31387   5.853   3.663   5.748
10163SOL    HW131388   5.797   3.633   5.825
10163SOL    HW231389   5.891   3.753   5.767
10164SOL     OW31390   0.063   2.672   4.937
10164SOL    HW131391   0.022   2.763   4.943
10164SOL    HW231392   0.021   2.613   5.006
10165SOL     OW31393   0.371   1.885   3.667
10165SOL    HW131394   0.367   1.786   3.650
10165SOL    HW231395   0.283   1.916   3.704
10166SOL     OW31396   1.977   0.942   2.139
10166SOL    HW131397   1.979   0.974   2.044
10166SOL    HW231398   1.949   0.846   2.141
10167SOL     OW31399   4.885   0.245   0.165
10167SOL    HW131400   4.803   0.300   0.149
10167SOL    HW231401   4.966   0.295   0.132
10168SOL     OW31402   7.007   4.392   3.815
10168SOL    HW131403   6.940   4.321   3.838
10168SOL    HW231404   0.066   4.351   3.766
10169SOL     OW31405   6.363   4.032   4.300
10169SOL    HW131406   6.368   4.108   4.234
10169SOL    HW231407   6.282   3.977   4.282
10170SOL     OW31408   1.885   4.138   4.850
10170SOL    HW131409   1.978   4.103   4.835
10170SOL    HW231410   1.826   4.063   4.879
10171SOL     OW31411   6.443   4.116   6.212
10171SOL    HW131412   6.487   4.205   6.221
10171SOL    HW231413   6.365   4.124   6.150
10172SOL     OW31414   5.258   0.679   2.730
10172SOL    HW131415   5.252   0.587   2.767
10172SOL    HW231416   5.168   0.706   2.694
10173SOL     OW31417   2.303   1.682   1.868
10173SOL    HW131418   2.232   1.750   1.848
10173SOL    HW231419   2.289   1.645   1.960
10174SOL     OW31420   6.942   4.718   2.506
10174SOL    HW131421   6.902   4.627   2.516
10174SOL    HW231422   0.011   4.722   2.556
10175SOL     OW31423   6.077   2.700   5.538
10175SOL    HW131424   6.032   2.789   5.544
10175SOL    HW231425   6.122   2.691   5.450
10176SOL     OW31426   1.915   3.856   0.006
10176SOL    HW131427   1.998   3.895   0.045
10176SOL    HW231428   1.918   3.864   6.924
10177SOL     OW31429   2.341   6.647   6.787
10177SOL    HW131430   2.381   6.605   6.868
10177SOL    HW231431   2.243   6.660   6.801
10178SOL     OW31432   5.627   2.488   4.562
10178SOL    HW131433   5.687   2.492   4.642
10178SOL    HW231434   5.675   2.446   4.485
10179SOL     OW31435   1.316   2.967   6.303
10179SOL    HW131436   1.410   2.963   6.271
10179SOL    HW231437   1.256   2.989   6.226
10180SOL     OW31438   2.772   5.915   5.685
10180SOL    HW131439   2.707   5.843   5.713
10180SOL    HW231440   2.842   5.875   5.625
10181SOL     OW31441   5.534   3.483   1.558
10181SOL    HW131442   5.494   3.572   1.577
10181SOL    HW231443   5.519   3.460   1.462
10182SOL     OW31444   5.891   1.187   1.163
10182SOL    HW131445   5.819   1.220   1.223
10182SOL    HW231446   5.935   1.107   1.203
10183SOL     OW31447   1.743   1.820   6.526
10183SOL    HW131448   1.827   1.803   6.576
10183SOL    HW231449   1.669   1.839   6.590
10184SOL     OW31450   4.047   1.011   5.769
10184SOL    HW131451   4.005   0.930   5.727
10184SOL    HW231452   4.139   0.989   5.799
10185SOL     OW31453   4.843   6.900   1.017
10185SOL    HW131454   4.764   6.859   0.972
10185SOL    HW231455   4.813   6.977   1.074
10186SOL     OW31456   4.323   1.971   2.912
10186SOL    HW131457   4.354   1.882   2.879
10186SOL    HW231458   4.378   1.998   2.991
10187SOL     OW31459   0.833   2.208   1.783
10187SOL    HW131460   0.750   2.210   1.727
10187SOL    HW231461   0.829   2.131   1.846
10188SOL     OW31462   4.086   5.987   0.789
10188SOL    HW131463   4.002   6.005   0.738
10188SOL    HW231464   4.150   5.938   0.731
10189SOL     OW31465   1.537   6.665   5.202
10189SOL    HW131466   1.613   6.604   5.178
10189SOL    HW231467   1.473   6.616   5.260
10190SOL     OW31468   5.019   2.492   0.033
10190SOL    HW131469   4.919   2.489   0.034
10190SOL    HW231470   5.052   2.548   0.109
10191SOL     OW31471   6.456   4.403   0.459
10191SOL    HW131472   6.420   4.385   0.551
10191SOL    HW231473   6.384   4.439   0.401
10192SOL     OW31474   3.150   0.948   5.883
10192SOL    HW131475   3.150   1.046   5.862
10192SOL    HW231476   3.244   0.912   5.875
10193SOL     OW31477   4.967   3.931   0.388
10193SOL    HW131478   4.910   3.853   0.362
10193SOL    HW231479   4.988   3.925   0.485
10194SOL     OW31480   5.398   3.650   5.402
10194SOL    HW131481   5.320   3.664   5.341
10194SOL    HW231482   5.411   3.552   5.418
10195SOL     OW31483   6.899   4.331   1.873
10195SOL    HW131484   6.887   4.306   1.777
10195SOL    HW231485   6.963   4.407   1.880
10196SOL     OW31486   0.478   1.819   4.434
10196SOL    HW131487   0.563   1.863   4.405
10196SOL    HW231488   0.401   1.866   4.392
10197SOL     OW31489   5.627   0.527   5.923
10197SOL    HW131490   5.703   0.591   5.933
10197SOL    HW231491   5.660   0.442   5.882
10198SOL     OW31492   4.238   6.804   2.996
10198SOL    HW131493   4.160   6.770   3.048
10198SOL    HW231494   4.225   6.788   2.899
10199SOL     OW31495   1.372   2.500   5.484
10199SOL    HW131496   1.428   2.572   5.525
10199SOL    HW231497   1.316   2.539   5.411
10200SOL     OW31498   5.780   3.403   1.631
10200SOL    HW131499   5.687   3.430   1.608
10200SOL    HW231500   5.799   3.313   1.591
10201SOL     OW31501   1.378   3.321   0.623
10201SOL    HW131502   1.393   3.406   0.572
10201SOL    HW231503   1.409   3.244   0.568
10202SOL     OW31504   3.255   0.613   5.524
10202SOL    HW131505   3.248   0.545   5.597
10202SOL    HW231506   3.218   0.576   5.439
10203SOL     OW31507   6.509   2.554   4.487
10203SOL    HW131508   6.504   2.482   4.419
10203SOL    HW231509   6.495   2.643   4.443
10204SOL     OW31510   5.166   6.339   6.686
10204SOL    HW131511   5.228   6.293   6.623
10204SOL    HW231512   5.149   6.280   6.765
10205SOL     OW31513   0.782   0.834   6.196
10205SOL    HW131514   0.882   0.838   6.201
10205SOL    HW231515   0.751   0.875   6.110
10206SOL     OW31516   1.193   0.902   5.416
10206SOL    HW131517   1.202   0.816   5.367
10206SOL    HW231518   1.245   0.973   5.369
10207SOL     OW31519   1.262   1.688   5.274
10207SOL    HW131520   1.233   1.763   5.216
10207SOL    HW231521   1.217   1.694   5.363
10208SOL     OW31522   6.756   4.989   5.594
10208SOL    HW131523   6.851   4.957   5.597
10208SOL    HW231524   6.747   5.071   5.651
10209SOL     OW31525   6.838   6.580   6.330
10209SOL    HW131526   6.775   6.505   6.308
10209SOL    HW231527   6.786   6.665   6.340
10210SOL     OW31528   3.777   6.347   2.194
10210SOL    HW131529   3.863   6.379   2.233
10210SOL    HW231530   3.771   6.374   2.098
10211SOL     OW31531   4.661   5.860   5.307
10211SOL    HW131532   4.670   5.940   5.248
10211SOL    HW231533   4.715   5.784   5.269
10212SOL     OW31534   0.503   0.433   6.197
10212SOL    HW131535   0.428   0.371   6.223
10212SOL    HW231536   0.513   0.504   6.266
10213SOL     OW31537   6.021   1.424   0.791
10213SOL    HW131538   6.014   1.479   0.708
10213SOL    HW231539   6.099   1.454   0.845
10214SOL     OW31540   0.699   2.701   1.006
10214SOL    HW131541   0.784   2.651   1.020
10214SOL    HW231542   0.621   2.642   1.026
10215SOL     OW31543   3.212   3.479   1.947
10215SOL    HW131544   3.262   3.399   1.982
10215SOL    HW231545   3.219   3.554   2.013
10216SOL     OW31546   6.422   6.921   2.961
10216SOL    HW131547   6.440   6.957   2.869
10216SOL    HW231548   6.508   6.910   3.010
10217SOL     OW31549   3.611   0.922   4.017
10217SOL    HW131550   3.522   0.941   4.059
10217SOL    HW231551   3.622   0.978   3.935
10218SOL     OW31552   1.291   2.609   2.287
10218SOL    HW131553   1.257   2.652   2.204
10218SOL    HW231554   1.284   2.674   2.363
10219SOL     OW31555   6.937   0.298   2.601
10219SOL    HW131556   6.979   0.222   2.552
10219SOL    HW231557   6.999   0.331   2.672
10220SOL     OW31558   3.416   2.726   1.368
10220SOL    HW131559   3.331   2.686   1.333
10220SOL    HW231560   3.492   2.701   1.308
10221SOL     OW31561   0.691   5.779   3.907
10221SOL    HW131562   0.671   5.740   3.817
10221SOL    HW231563   0.772   5.837   3.901
10222SOL     OW31564   2.960   3.629   4.291
10222SOL    HW131565   3.048   3.584   4.310
10222SOL    HW231566   2.910   3.641   4.377
10223SOL     OW31567   0.230   5.773   1.776
10223SOL    HW131568   0.131   5.770   1.763
10223SOL    HW231569   0.265   5.863   1.750
10224SOL     OW31570   5.665   4.038   3.447
10224SOL    HW131571   5.604   4.066   3.372
10224SOL    HW231572   5.733   4.109   3.462
10225SOL     OW31573   2.162   3.835   5.832
10225SOL    HW131574   2.177   3.933   5.848
10225SOL    HW231575   2.198   3.783   5.909
10226SOL     OW31576   4.753   2.545   6.980
10226SOL    HW131577   4.751   2.645   6.975
10226SOL    HW231578   4.666   2.512   7.016
10227SOL     OW31579   5.440   3.882   1.198
10227SOL    HW131580   5.351   3.892   1.243
10227SOL    HW231581   5.502   3.833   1.259
10228SOL     OW31582   5.536   0.568   1.338
10228SOL    HW131583   5.447   0.597   1.371
10228SOL    HW231584   5.578   0.643   1.286
10229SOL     OW31585   6.521   3.238   4.550
10229SOL    HW131586   6.503   3.269   4.643
10229SOL    HW231587   6.619   3.232   4.534
10230SOL     OW31588   0.270   6.098   2.562
10230SOL    HW131589   0.181   6.062   2.591
10230SOL    HW231590   0.342   6.037   2.593
10231SOL     OW31591   1.241   5.226   3.023
10231SOL    HW131592   1.149   5.258   3.000
10231SOL    HW231593   1.273   5.273   3.105
10232SOL     OW31594   4.991   4.741   3.760
10232SOL    HW131595   5.060   4.809   3.737
10232SOL    HW231596   4.907   4.787   3.791
10233SOL     OW31597   3.672   4.053   5.981
10233SOL    HW131598   3.613   4.018   6.054
10233SOL    HW231599   3.650   4.149   5.964
10234SOL     OW31600   0.589   1.400   1.773
10234SOL    HW131601   0.603   1.450   1.687
10234SOL    HW231602   0.670   1.410   1.831
10235SOL     OW31603   1.761   0.940   2.749
10235SOL    HW131604   1.820   1.002   2.800
10235SOL    HW231605   1.750   0.973   2.656
10236SOL     OW31606   2.668   6.621   1.713
10236SOL    HW131607   2.649   6.632   1.616
10236SOL    HW231608   2.681   6.711   1.755
10237SOL     OW31609   0.351   3.164   5.663
10237SOL    HW131610   0.392   3.093   5.720
10237SOL    HW231611   0.409   3.245   5.663
10238SOL     OW31612   3.455   6.910   1.642
10238SOL    HW131613   3.475   6.960   1.558
10238SOL    HW231614   3.526   6.841   1.657
10239SOL     OW31615   1.099   2.402   4.355
10239SOL    HW131616   1.069   2.405   4.259
10239SOL    HW231617   1.187   2.355   4.361
10240SOL     OW31618   2.426   6.572   0.822
10240SOL    HW131619   2.519   6.582   0.788
10240SOL    HW231620   2.426   6.568   0.922
10241SOL     OW31621   4.024   2.473   1.622
10241SOL    HW131622   3.943   2.532   1.615
10241SOL    HW231623   4.005   2.397   1.684
10242SOL     OW31624   6.390   2.871   6.665
10242SOL    HW131625   6.455   2.872   6.588
10242SOL    HW231626   6.432   2.825   6.743
10243SOL     OW31627   2.755   5.181   1.296
10243SOL    HW131628   2.849   5.205   1.319
10243SOL    HW231629   2.725   5.235   1.218
10244SOL     OW31630   3.059   4.485   1.391
10244SOL    HW131631   3.084   4.522   1.481
10244SOL    HW231632   3.071   4.555   1.322
10245SOL     OW31633   4.750   3.837   0.960
10245SOL    HW131634   4.808   3.782   1.020
10245SOL    HW231635   4.713   3.780   0.887
10246SOL     OW31636   3.201   2.984   3.956
10246SOL    HW131637   3.151   2.980   4.042
10246SOL    HW231638   3.199   3.078   3.921
10247SOL     OW31639   0.509   2.804   4.494
10247SOL    HW131640   0.592   2.841   4.537
10247SOL    HW231641   0.437   2.795   4.564
10248SOL     OW31642   1.312   0.604   3.597
10248SOL    HW131643   1.322   0.644   3.506
10248SOL    HW231644   1.390   0.546   3.616
10249SOL     OW31645   2.838   5.578   6.438
10249SOL    HW131646   2.851   5.610   6.344
10249SOL    HW231647   2.912   5.515   6.461
10250SOL     OW31648   4.115   2.232   1.117
10250SOL    HW131649   4.109   2.325   1.080
10250SOL    HW231650   4.067   2.228   1.204
10251SOL     OW31651   1.747   0.493   4.406
10251SOL    HW131652   1.662   0.450   4.436
10251SOL    HW231653   1.824   0.447   4.449
10252SOL     OW31654   5.663   4.269   6.482
10252SOL    HW131655   5.670   4.307   6.390
10252SOL    HW231656   5.575   4.293   6.522
10253SOL     OW31657   3.406   6.445   6.403
10253SOL    HW131658   3.442   6.442   6.497
10253SOL    HW231659   3.420   6.356   6.360
10254SOL     OW31660   5.868   0.904   5.567
10254SOL    HW131661   5.934   0.862   5.506
10254SOL    HW231662   5.831   0.834   5.630
10255SOL     OW31663   4.014   4.590   1.700
10255SOL    HW131664   4.065   4.590   1.786
10255SOL    HW231665   4.072   4.626   1.627
10256SOL     OW31666   3.668   1.612   3.105
10256SOL    HW131667   3.633   1.522   3.079
10256SOL    HW231668   3.624   1.642   3.190
10257SOL     OW31669   4.194   5.377   3.086
10257SOL    HW131670   4.159   5.463   3.122
10257SOL    HW231671   4.202   5.310   3.160
10258SOL     OW31672   1.991   1.035   1.889
10258SOL    HW131673   2.020   0.954   1.838
10258SOL    HW231674   2.055   1.109   1.873
10259SOL     OW31675   1.784   4.426   3.862
10259SOL    HW131676   1.779   4.437   3.961
10259SOL    HW231677   1.751   4.335   3.837
10260SOL     OW31678   1.164   0.497   3.816
10260SOL    HW131679   1.223   0.544   3.751
10260SOL    HW231680   1.108   0.564   3.865
10261SOL     OW31681   6.734   3.628   1.006
10261SOL    HW131682   6.690   3.635   1.095
10261SOL    HW231683   6.832   3.608   1.019
10262SOL     OW31684   4.409   1.440   0.760
10262SOL    HW131685   4.334   1.482   0.709
10262SOL    HW231686   4.495   1.459   0.713
10263SOL     OW31687   6.017   0.649   2.047
10263SOL    HW131688   6.024   0.708   2.127
10263SOL    HW231689   6.083   0.574   2.056
10264SOL     OW31690   0.047   6.140   6.563
10264SOL    HW131691   6.968   6.138   6.538
10264SOL    HW231692   0.055   6.158   6.661
10265SOL     OW31693   2.119   1.499   0.759
10265SOL    HW131694   2.108   1.403   0.783
10265SOL    HW231695   2.186   1.541   0.820
10266SOL     OW31696   2.643   3.539   1.748
10266SOL    HW131697   2.549   3.534   1.781
10266SOL    HW231698   2.660   3.630   1.711
10267SOL     OW31699   5.778   0.995   1.528
10267SOL    HW131700   5.749   1.086   1.500
10267SOL    HW231701   5.735   0.927   1.468
10268SOL     OW31702   3.806   0.151   1.339
10268SOL    HW131703   3.793   0.216   1.415
10268SOL    HW231704   3.803   0.201   1.252
10269SOL     OW31705   3.081   2.213   0.609
10269SOL    HW131706   3.056   2.165   0.525
10269SOL    HW231707   2.999   2.232   0.663
10270SOL     OW31708   2.874   7.003   2.517
10270SOL    HW131709   2.907   0.079   2.505
10270SOL    HW231710   2.797   7.002   2.581
10271SOL     OW31711   1.334   1.967   6.771
10271SOL    HW131712   1.325   1.921   6.683
10271SOL    HW231713   1.428   1.957   6.805
10272SOL     OW31714   6.360   0.339   4.487
10272SOL    HW131715   6.433   0.280   4.521
10272SOL    HW231716   6.274   0.287   4.483
10273SOL     OW31717   2.304   5.470   3.118
10273SOL    HW131718   2.208   5.492   3.105
10273SOL    HW231719   2.354   5.554   3.142
10274SOL     OW31720   0.876   5.240   5.450
10274SOL    HW131721   0.899   5.180   5.525
10274SOL    HW231722   0.957   5.258   5.394
10275SOL     OW31723   6.999   0.097   2.451
10275SOL    HW131724   6.991   0.128   2.356
10275SOL    HW231725   0.011   0.002   2.453
10276SOL     OW31726   3.457   5.318   5.357
10276SOL    HW131727   3.464   5.230   5.310
10276SOL    HW231728   3.540   5.335   5.409
10277SOL     OW31729   0.248   6.459   4.320
10277SOL    HW131730   0.299   6.473   4.405
10277SOL    HW231731   0.236   6.361   4.304
10278SOL     OW31732   6.952   0.675   4.928
10278SOL    HW131733   7.017   0.732   4.978
10278SOL    HW231734   6.867   0.726   4.913
10279SOL     OW31735   2.209   6.061   4.248
10279SOL    HW131736   2.239   5.976   4.291
10279SOL    HW231737   2.289   6.118   4.227
10280SOL     OW31738   6.393   4.114   0.842
10280SOL    HW131739   6.413   4.050   0.767
10280SOL    HW231740   6.371   4.204   0.805
10281SOL     OW31741   6.930   1.992   3.329
10281SOL    HW131742   6.853   1.933   3.304
10281SOL    HW231743   6.900   2.088   3.329
10282SOL     OW31744   4.855   3.324   3.336
10282SOL    HW131745   4.905   3.406   3.307
10282SOL    HW231746   4.867   3.312   3.435
10283SOL     OW31747   0.714   3.148   1.261
10283SOL    HW131748   0.619   3.156   1.229
10283SOL    HW231749   0.749   3.058   1.236
10284SOL     OW31750   0.279   3.170   3.786
10284SOL    HW131751   0.265   3.129   3.877
10284SOL    HW231752   0.260   3.102   3.716
10285SOL     OW31753   5.687   5.514   5.157
10285SOL    HW131754   5.743   5.444   5.114
10285SOL    HW231755   5.620   5.548   5.091
10286SOL     OW31756   2.922   1.367   3.421
10286SOL    HW131757   2.824   1.356   3.438
10286SOL    HW231758   2.958   1.442   3.476
10287SOL     OW31759   2.452   5.579   2.791
10287SOL    HW131760   2.451   5.486   2.755
10287SOL    HW231761   2.547   5.611   2.799
10288SOL     OW31762   3.409   6.876   5.595
10288SOL    HW131763   3.363   6.848   5.511
10288SOL    HW231764   3.502   6.840   5.595
10289SOL     OW31765   3.078   5.342   6.604
10289SOL    HW131766   3.165   5.295   6.615
10289SOL    HW231767   3.056   5.392   6.688
10290SOL     OW31768   3.326   2.953   1.946
10290SOL    HW131769   3.252   2.949   1.879
10290SOL    HW231770   3.318   3.038   1.998
10291SOL     OW31771   1.888   1.536   2.510
10291SOL    HW131772   1.812   1.589   2.473
10291SOL    HW231773   1.887   1.444   2.471
10292SOL     OW31774   6.025   6.769   6.716
10292SOL    HW131775   6.109   6.814   6.688
10292SOL    HW231776   5.987   6.815   6.796
10293SOL     OW31777   1.025   3.930   4.308
10293SOL    HW131778   0.957   3.956   4.377
10293SOL    HW231779   1.095   3.873   4.350
10294SOL     OW31780   3.490   1.336   2.127
10294SOL    HW131781   3.584   1.365   2.109
10294SOL    HW231782   3.435   1.347   2.044
10295SOL     OW31783   0.755   2.302   6.848
10295SOL    HW131784   0.697   2.367   6.799
10295SOL    HW231785   0.810   2.251   6.782
10296SOL     OW31786   5.560   0.985   5.746
10296SOL    HW131787   5.574   0.969   5.843
10296SOL    HW231788   5.621   1.057   5.714
10297SOL     OW31789   3.706   1.423   0.139
10297SOL    HW131790   3.688   1.521   0.128
10297SOL    HW231791   3.638   1.383   0.200
10298SOL     OW31792   0.722   2.437   2.748
10298SOL    HW131793   0.722   2.481   2.658
10298SOL    HW231794   0.816   2.422   2.778
10299SOL     OW31795   4.224   6.091   3.153
10299SOL    HW131796   4.230   6.113   3.055
10299SOL    HW231797   4.280   6.155   3.205
10300SOL     OW31798   0.810   3.780   1.519
10300SOL    HW131799   0.721   3.826   1.514
10300SOL    HW231800   0.824   3.727   1.436
10301SOL     OW31801   4.048   0.459   6.205
10301SOL    HW131802   4.081   0.437   6.113
10301SOL    HW231803   4.125   0.480   6.265
10302SOL     OW31804   2.737   6.162   4.949
10302SOL    HW131805   2.672   6.238   4.945
10302SOL    HW231806   2.757   6.140   5.044
10303SOL     OW31807   0.590   5.934   4.700
10303SOL    HW131808   0.515   5.887   4.746
10303SOL    HW231809   0.597   6.028   4.734
10304SOL     OW31810   6.010   6.433   0.520
10304SOL    HW131811   6.005   6.343   0.477
10304SOL    HW231812   6.096   6.478   0.494
10305SOL     OW31813   2.589   4.387   6.139
10305SOL    HW131814   2.640   4.378   6.224
10305SOL    HW231815   2.499   4.344   6.150
10306SOL     OW31816   4.518   0.577   1.356
10306SOL    HW131817   4.492   0.481   1.343
10306SOL    HW231818   4.437   0.635   1.346
10307SOL     OW31819   2.213   0.246   4.634
10307SOL    HW131820   2.298   0.225   4.682
10307SOL    HW231821   2.228   0.245   4.535
10308SOL     OW31822   2.792   5.306   2.348
10308SOL    HW131823   2.714   5.347   2.394
10308SOL    HW231824   2.876   5.351   2.379
10309SOL     OW31825   6.864   1.577   4.583
10309SOL    HW131826   6.826   1.505   4.641
10309SOL    HW231827   6.962   1.562   4.571
10310SOL     OW31828   2.177   4.102   5.868
10310SOL    HW131829   2.114   4.126   5.794
10310SOL    HW231830   2.271   4.106   5.834
10311SOL     OW31831   4.977   5.633   0.612
10311SOL    HW131832   4.970   5.716   0.667
10311SOL    HW231833   5.000   5.555   0.671
10312SOL     OW31834   4.425   0.561   1.981
10312SOL    HW131835   4.487   0.603   2.048
10312SOL    HW231836   4.476   0.495   1.926
10313SOL     OW31837   4.468   6.894   3.147
10313SOL    HW131838   4.527   6.831   3.199
10313SOL    HW231839   4.390   6.844   3.110
10314SOL     OW31840   0.401   0.492   1.238
10314SOL    HW131841   0.411   0.586   1.204
10314SOL    HW231842   0.451   0.482   1.324
10315SOL     OW31843   5.619   5.384   3.732
10315SOL    HW131844   5.670   5.318   3.676
10315SOL    HW231845   5.684   5.447   3.775
10316SOL     OW31846   0.507   1.829   6.837
10316SOL    HW131847   0.477   1.925   6.844
10316SOL    HW231848   0.491   1.784   6.925
10317SOL     OW31849   3.916   5.647   5.702
10317SOL    HW131850   3.934   5.549   5.708
10317SOL    HW231851   3.817   5.662   5.691
10318SOL     OW31852   6.253   6.890   0.288
10318SOL    HW131853   6.347   6.911   0.259
10318SOL    HW231854   6.251   6.877   0.387
10319SOL     OW31855   0.640   4.672   4.127
10319SOL    HW131856   0.660   4.647   4.222
10319SOL    HW231857   0.584   4.600   4.085
10320SOL     OW31858   0.734   6.912   3.890
10320SOL    HW131859   0.724   6.825   3.938
10320SOL    HW231860   0.727   6.987   3.955
10321SOL     OW31861   5.212   2.408   2.349
10321SOL    HW131862   5.310   2.422   2.360
10321SOL    HW231863   5.194   2.310   2.334
10322SOL     OW31864   4.557   4.463   4.867
10322SOL    HW131865   4.493   4.506   4.931
10322SOL    HW231866   4.519   4.465   4.774
10323SOL     OW31867   0.507   4.233   5.406
10323SOL    HW131868   0.538   4.244   5.500
10323SOL    HW231869   0.585   4.228   5.345
10324SOL     OW31870   3.295   3.238   2.053
10324SOL    HW131871   3.273   3.190   2.139
10324SOL    HW231872   3.392   3.227   2.033
10325SOL     OW31873   6.829   5.758   3.322
10325SOL    HW131874   6.753   5.761   3.258
10325SOL    HW231875   6.902   5.819   3.291
10326SOL     OW31876   5.594   3.457   6.954
10326SOL    HW131877   5.500   3.423   6.954
10326SOL    HW231878   5.592   3.557   6.950
10327SOL     OW31879   2.630   4.338   1.419
10327SOL    HW131880   2.647   4.362   1.515
10327SOL    HW231881   2.679   4.401   1.359
10328SOL     OW31882   6.019   2.688   1.705
10328SOL    HW131883   5.989   2.651   1.793
10328SOL    HW231884   6.069   2.618   1.654
10329SOL     OW31885   3.965   1.685   2.792
10329SOL    HW131886   3.984   1.593   2.758
10329SOL    HW231887   4.014   1.752   2.735
10330SOL     OW31888   4.143   1.078   1.404
10330SOL    HW131889   4.132   0.992   1.453
10330SOL    HW231890   4.091   1.150   1.450
10331SOL     OW31891   6.352   5.511   6.741
10331SOL    HW131892   6.257   5.494   6.768
10331SOL    HW231893   6.405   5.427   6.754
10332SOL     OW31894   1.050   1.105   6.871
10332SOL    HW131895   1.060   1.127   6.774
10332SOL    HW231896   1.075   1.185   6.926
10333SOL     OW31897   0.733   5.233   4.642
10333SOL    HW131898   0.749   5.321   4.598
10333SOL    HW231899   0.680   5.174   4.580
10334SOL     OW31900   3.267   6.872   3.683
10334SOL    HW131901   3.288   6.894   3.778
10334SOL    HW231902   3.222   6.783   3.679
10335SOL     OW31903   0.542   2.344   5.380
10335SOL    HW131904   0.560   2.266   5.441
10335SOL    HW231905   0.453   2.384   5.402
10336SOL     OW31906   5.285   0.034   3.556
10336SOL    HW131907   5.231   0.112   3.525
10336SOL    HW231908   5.259   6.971   3.503
10337SOL     OW31909   6.574   5.223   6.508
10337SOL    HW131910   6.564   5.244   6.605
10337SOL    HW231911   6.535   5.297   6.453
10338SOL     OW31912   1.275   6.238   1.732
10338SOL    HW131913   1.219   6.304   1.783
10338SOL    HW231914   1.360   6.222   1.781
10339SOL     OW31915   6.010   2.093   5.620
10339SOL    HW131916   5.992   2.164   5.553
10339SOL    HW231917   6.107   2.069   5.619
10340SOL     OW31918   2.400   3.313   6.319
10340SOL    HW131919   2.498   3.326   6.306
10340SOL    HW231920   2.355   3.402   6.325
10341SOL     OW31921   2.338   2.775   2.816
10341SOL    HW131922   2.360   2.722   2.899
10341SOL    HW231923   2.410   2.843   2.801
10342SOL     OW31924   1.102   1.293   3.543
10342SOL    HW131925   1.134   1.245   3.461
10342SOL    HW231926   1.179   1.315   3.602
10343SOL     OW31927   2.639   5.235   1.556
10343SOL    HW131928   2.670   5.329   1.567
10343SOL    HW231929   2.666   5.201   1.466
10344SOL     OW31930   4.355   5.601   5.874
10344SOL    HW131931   4.256   5.602   5.886
10344SOL    HW231932   4.397   5.656   5.946
10345SOL     OW31933   1.656   3.495   4.294
10345SOL    HW131934   1.561   3.512   4.265
10345SOL    HW231935   1.692   3.578   4.336
10346SOL     OW31936   6.925   5.733   1.210
10346SOL    HW131937   6.851   5.701   1.270
10346SOL    HW231938   6.895   5.730   1.115
10347SOL     OW31939   4.983   1.629   3.657
10347SOL    HW131940   4.960   1.673   3.744
10347SOL    HW231941   4.902   1.586   3.619
10348SOL     OW31942   6.693   4.039   0.815
10348SOL    HW131943   6.600   4.004   0.828
10348SOL    HW231944   6.750   3.969   0.772
10349SOL     OW31945   0.801   6.590   6.728
10349SOL    HW131946   0.705   6.591   6.698
10349SOL    HW231947   0.858   6.552   6.655
10350SOL     OW31948   3.324   6.980   6.143
10350SOL    HW131949   3.341   6.906   6.078
10350SOL    HW231950   3.252   0.021   6.107
10351SOL     OW31951   4.577   5.073   6.104
10351SOL    HW131952   4.485   5.051   6.138
10351SOL    HW231953   4.601   5.011   6.030
10352SOL     OW31954   3.730   3.433   6.157
10352SOL    HW131955   3.718   3.400   6.250
10352SOL    HW231956   3.692   3.525   6.149
10353SOL     OW31957   6.959   1.977   4.675
10353SOL    HW131958   6.917   1.984   4.585
10353SOL    HW231959   6.958   2.067   4.720
10354SOL     OW31960   5.751   1.705   1.764
10354SOL    HW131961   5.670   1.657   1.797
10354SOL    HW231962   5.821   1.704   1.835
10355SOL     OW31963   2.031   5.544   2.181
10355SOL    HW131964   1.977   5.579   2.258
10355SOL    HW231965   1.982   5.561   2.096
10356SOL     OW31966   0.173   3.595   4.610
10356SOL    HW131967   0.103   3.664   4.591
10356SOL    HW231968   0.132   3.504   4.604
10357SOL     OW31969   2.421   1.641   0.353
10357SOL    HW131970   2.490   1.600   0.294
10357SOL    HW231971   2.371   1.711   0.302
10358SOL     OW31972   0.493   1.663   1.902
10358SOL    HW131973   0.549   1.683   1.983
10358SOL    HW231974   0.482   1.565   1.892
10359SOL     OW31975   0.558   1.299   1.158
10359SOL    HW131976   0.613   1.269   1.080
10359SOL    HW231977   0.531   1.395   1.146
10360SOL     OW31978   6.056   5.972   3.743
10360SOL    HW131979   6.043   6.058   3.791
10360SOL    HW231980   5.971   5.945   3.697
10361SOL     OW31981   1.915   4.738   1.242
10361SOL    HW131982   1.912   4.805   1.167
10361SOL    HW231983   1.988   4.671   1.225
10362SOL     OW31984   1.672   5.050   4.351
10362SOL    HW131985   1.720   5.122   4.300
10362SOL    HW231986   1.660   5.079   4.446
10363SOL     OW31987   5.474   0.822   4.099
10363SOL    HW131988   5.418   0.877   4.037
10363SOL    HW231989   5.415   0.776   4.166
10364SOL     OW31990   1.047   4.407   1.302
10364SOL    HW131991   1.075   4.311   1.304
10364SOL    HW231992   0.959   4.415   1.256
10365SOL     OW31993   4.268   6.068   6.799
10365SOL    HW131994   4.216   6.042   6.880
10365SOL    HW231995   4.325   6.148   6.820
10366SOL     OW31996   3.505   6.270   3.736
10366SOL    HW131997   3.537   6.181   3.704
10366SOL    HW231998   3.417   6.259   3.782
10367SOL     OW31999   6.882   2.253   3.372
10367SOL    HW132000   6.784   2.254   3.391
10367SOL    HW232001   6.932   2.268   3.457
10368SOL     OW32002   2.227   0.317   1.020
10368SOL    HW132003   2.154   0.342   0.957
10368SOL    HW232004   2.315   0.352   0.986
10369SOL     OW32005   3.893   2.667   0.396
10369SOL    HW132006   3.862   2.595   0.458
10369SOL    HW232007   3.903   2.752   0.448
10370SOL     OW32008   3.388   0.551   4.866
10370SOL    HW132009   3.295   0.586   4.876
10370SOL    HW232010   3.432   0.596   4.789
10371SOL     OW32011   4.929   6.601   5.997
10371SOL    HW132012   4.892   6.694   6.003
10371SOL    HW232013   4.854   6.538   5.976
10372SOL     OW32014   0.832   0.488   3.037
10372SOL    HW132015   0.790   0.413   2.986
10372SOL    HW232016   0.812   0.477   3.135
10373SOL     OW32017   1.160   5.949   5.000
10373SOL    HW132018   1.235   5.991   5.050
10373SOL    HW232019   1.083   5.934   5.063
10374SOL     OW32020   2.940   2.206   3.995
10374SOL    HW132021   2.855   2.242   4.034
10374SOL    HW232022   3.008   2.196   4.068
10375SOL     OW32023   6.088   2.297   0.118
10375SOL    HW132024   6.111   2.393   0.100
10375SOL    HW232025   6.165   2.252   0.162
10376SOL     OW32026   0.227   1.687   3.476
10376SOL    HW132027   0.221   1.610   3.540
10376SOL    HW232028   0.319   1.692   3.439
10377SOL     OW32029   1.137   6.862   4.294
10377SOL    HW132030   1.096   6.777   4.261
10377SOL    HW232031   1.225   6.875   4.250
10378SOL     OW32032   6.814   6.827   6.708
10378SOL    HW132033   6.823   6.764   6.631
10378SOL    HW232034   6.903   6.868   6.728
10379SOL     OW32035   5.228   1.507   4.612
10379SOL    HW132036   5.214   1.482   4.707
10379SOL    HW232037   5.282   1.592   4.608
10380SOL     OW32038   4.690   0.506   2.903
10380SOL    HW132039   4.657   0.413   2.922
10380SOL    HW232040   4.785   0.513   2.931
10381SOL     OW32041   4.521   5.191   4.784
10381SOL    HW132042   4.608   5.149   4.809
10381SOL    HW232043   4.449   5.121   4.786
10382SOL     OW32044   2.310   5.573   0.879
10382SOL    HW132045   2.222   5.530   0.900
10382SOL    HW232046   2.365   5.579   0.962
10383SOL     OW32047   6.614   3.063   6.227
10383SOL    HW132048   6.694   3.014   6.193
10383SOL    HW232049   6.614   3.061   6.327
10384SOL     OW32050   6.071   0.183   0.166
10384SOL    HW132051   5.987   0.202   0.218
10384SOL    HW232052   6.077   0.245   0.088
10385SOL     OW32053   5.547   2.351   6.774
10385SOL    HW132054   5.550   2.356   6.874
10385SOL    HW232055   5.452   2.353   6.743
10386SOL     OW32056   6.137   2.686   6.244
10386SOL    HW132057   6.042   2.709   6.263
10386SOL    HW232058   6.160   2.714   6.150
10387SOL     OW32059   2.106   3.237   3.292
10387SOL    HW132060   2.130   3.197   3.381
10387SOL    HW232061   2.031   3.302   3.304
10388SOL     OW32062   1.523   4.471   2.753
10388SOL    HW132063   1.527   4.419   2.838
10388SOL    HW232064   1.473   4.420   2.684
10389SOL     OW32065   0.259   5.980   3.050
10389SOL    HW132066   0.330   5.922   3.091
10389SOL    HW232067   0.230   6.048   3.117
10390SOL     OW32068   1.732   3.198   3.475
10390SOL    HW132069   1.764   3.104   3.482
10390SOL    HW232070   1.714   3.235   3.566
10391SOL     OW32071   3.494   6.290   5.210
10391SOL    HW132072   3.479   6.204   5.258
10391SOL    HW232073   3.542   6.272   5.124
10392SOL     OW32074   6.650   4.852   6.973
10392SOL    HW132075   6.648   4.752   6.980
10392SOL    HW232076   6.604   4.892   0.034
10393SOL     OW32077   1.648   0.921   3.925
10393SOL    HW132078   1.632   0.963   3.836
10393SOL    HW232079   1.570   0.863   3.949
10394SOL     OW32080   2.835   6.774   6.800
10394SOL    HW132081   2.910   6.840   6.793
10394SOL    HW232082   2.834   6.716   6.718
10395SOL     OW32083   1.350   1.357   5.133
10395SOL    HW132084   1.283   1.389   5.066
10395SOL    HW232085   1.420   1.427   5.147
10396SOL     OW32086   0.392   0.399   5.045
10396SOL    HW132087   0.484   0.363   5.030
10396SOL    HW232088   0.354   0.358   5.128
10397SOL     OW32089   4.062   1.887   2.613
10397SOL    HW132090   4.060   1.935   2.701
10397SOL    HW232091   4.148   1.906   2.567
10398SOL     OW32092   6.815   2.976   2.675
10398SOL    HW132093   6.785   2.892   2.719
10398SOL    HW232094   6.830   2.959   2.577
10399SOL     OW32095   6.403   2.124   5.436
10399SOL    HW132096   6.498   2.095   5.443
10399SOL    HW232097   6.347   2.048   5.401
10400SOL     OW32098   2.517   4.654   1.418
10400SOL    HW132099   2.606   4.630   1.456
10400SOL    HW232100   2.473   4.723   1.475
10401SOL     OW32101   1.293   5.763   1.453
10401SOL    HW132102   1.307   5.731   1.547
10401SOL    HW232103   1.230   5.702   1.405
10402SOL     OW32104   0.473   2.570   4.347
10402SOL    HW132105   0.568   2.578   4.317
10402SOL    HW232106   0.447   2.653   4.396
10403SOL     OW32107   4.947   1.492   2.284
10403SOL    HW132108   5.029   1.549   2.286
10403SOL    HW232109   4.967   1.403   2.325
10404SOL     OW32110   0.228   6.642   3.736
10404SOL    HW132111   0.199   6.730   3.697
10404SOL    HW232112   0.195   6.568   3.677
10405SOL     OW32113   1.702   6.846   6.885
10405SOL    HW132114   1.621   6.857   6.827
10405SOL    HW232115   1.717   6.748   6.902
10406SOL     OW32116   2.181   5.205   5.698
10406SOL    HW132117   2.200   5.289   5.748
10406SOL    HW232118   2.235   5.130   5.735
10407SOL     OW32119   1.141   1.112   6.061
10407SOL    HW132120   1.230   1.066   6.057
10407SOL    HW232121   1.083   1.081   5.986
10408SOL     OW32122   4.157   5.257   3.335
10408SOL    HW132123   4.234   5.298   3.385
10408SOL    HW232124   4.072   5.277   3.383
10409SOL     OW32125   5.953   4.761   2.100
10409SOL    HW132126   5.878   4.747   2.166
10409SOL    HW232127   5.928   4.836   2.038
10410SOL     OW32128   5.995   6.808   0.548
10410SOL    HW132129   6.086   6.769   0.535
10410SOL    HW232130   5.928   6.756   0.495
10411SOL     OW32131   1.701   4.198   2.527
10411SOL    HW132132   1.742   4.288   2.514
10411SOL    HW232133   1.678   4.186   2.624
10412SOL     OW32134   0.335   2.539   6.746
10412SOL    HW132135   0.425   2.504   6.718
10412SOL    HW232136   0.265   2.471   6.724
10413SOL     OW32137   0.149   1.915   6.041
10413SOL    HW132138   0.121   1.829   6.082
10413SOL    HW232139   0.245   1.910   6.015
10414SOL     OW32140   5.842   0.496   4.909
10414SOL    HW132141   5.752   0.500   4.866
10414SOL    HW232142   5.887   0.585   4.902
10415SOL     OW32143   0.608   5.497   3.263
10415SOL    HW132144   0.647   5.418   3.214
10415SOL    HW232145   0.509   5.490   3.265
10416SOL     OW32146   5.042   0.024   0.094
10416SOL    HW132147   5.000   0.111   0.123
10416SOL    HW232148   5.053   6.983   0.173
10417SOL     OW32149   4.362   4.679   4.542
10417SOL    HW132150   4.381   4.726   4.627
10417SOL    HW232151   4.279   4.716   4.500
10418SOL     OW32152   6.935   3.774   6.576
10418SOL    HW132153   6.880   3.694   6.550
10418SOL    HW232154   0.011   3.745   6.595
10419SOL     OW32155   2.032   1.673   4.030
10419SOL    HW132156   1.965   1.604   4.001
10419SOL    HW232157   2.046   1.665   4.128
10420SOL     OW32158   5.487   3.303   3.828
10420SOL    HW132159   5.457   3.235   3.761
10420SOL    HW232160   5.414   3.368   3.845
10421SOL     OW32161   1.480   4.636   3.492
10421SOL    HW132162   1.509   4.655   3.585
10421SOL    HW232163   1.492   4.718   3.436
10422SOL     OW32164   5.905   3.597   5.503
10422SOL    HW132165   5.950   3.683   5.481
10422SOL    HW232166   5.868   3.601   5.595
10423SOL     OW32167   2.149   5.182   3.481
10423SOL    HW132168   2.098   5.258   3.520
10423SOL    HW232169   2.162   5.198   3.383
10424SOL     OW32170   3.211   1.602   0.571
10424SOL    HW132171   3.134   1.604   0.635
10424SOL    HW232172   3.175   1.598   0.477
10425SOL     OW32173   2.435   3.250   0.621
10425SOL    HW132174   2.364   3.180   0.612
10425SOL    HW232175   2.508   3.233   0.555
10426SOL     OW32176   5.821   2.311   6.178
10426SOL    HW132177   5.738   2.353   6.216
10426SOL    HW232178   5.886   2.382   6.153
10427SOL     OW32179   5.501   1.165   3.858
10427SOL    HW132180   5.464   1.072   3.865
10427SOL    HW232181   5.473   1.218   3.937
10428SOL     OW32182   1.968   6.786   4.989
10428SOL    HW132183   1.999   6.881   4.976
10428SOL    HW232184   2.046   6.728   5.011
10429SOL     OW32185   1.528   3.052   1.199
10429SOL    HW132186   1.529   3.121   1.271
10429SOL    HW232187   1.448   3.064   1.142
10430SOL     OW32188   3.463   0.653   4.294
10430SOL    HW132189   3.394   0.584   4.312
10430SOL    HW232190   3.512   0.630   4.210
10431SOL     OW32191   3.992   0.863   3.301
10431SOL    HW132192   4.085   0.894   3.321
10431SOL    HW232193   3.938   0.864   3.385
10432SOL     OW32194   1.297   5.297   7.012
10432SOL    HW132195   1.356   5.321   0.070
10432SOL    HW232196   1.338   5.329   6.926
10433SOL     OW32197   3.960   6.247   3.853
10433SOL    HW132198   3.946   6.335   3.900
10433SOL    HW232199   4.048   6.209   3.880
10434SOL     OW32200   4.554   0.681   6.288
10434SOL    HW132201   4.571   0.588   6.321
10434SOL    HW232202   4.560   0.745   6.364
10435SOL     OW32203   2.633   1.430   0.903
10435SOL    HW132204   2.681   1.515   0.882
10435SOL    HW232205   2.619   1.423   1.002
10436SOL     OW32206   0.639   3.296   5.040
10436SOL    HW132207   0.685   3.329   5.123
10436SOL    HW232208   0.546   3.268   5.063
10437SOL     OW32209   6.318   6.618   5.219
10437SOL    HW132210   6.309   6.527   5.258
10437SOL    HW232211   6.230   6.648   5.183
10438SOL     OW32212   6.544   6.022   0.078
10438SOL    HW132213   6.548   6.097   0.012
10438SOL    HW232214   6.523   6.058   0.169
10439SOL     OW32215   6.553   5.437   5.214
10439SOL    HW132216   6.636   5.440   5.271
10439SOL    HW232217   6.570   5.380   5.134
10440SOL     OW32218   6.263   2.605   0.625
10440SOL    HW132219   6.358   2.573   0.626
10440SOL    HW232220   6.221   2.585   0.714
10441SOL     OW32221   4.561   2.038   6.663
10441SOL    HW132222   4.635   2.048   6.730
10441SOL    HW232223   4.599   2.003   6.577
10442SOL     OW32224   1.941   1.331   4.748
10442SOL    HW132225   2.005   1.295   4.817
10442SOL    HW232226   1.880   1.397   4.792
10443SOL     OW32227   1.249   0.650   0.907
10443SOL    HW132228   1.178   0.690   0.965
10443SOL    HW232229   1.337   0.657   0.954
10444SOL     OW32230   4.084   4.988   4.289
10444SOL    HW132231   4.157   4.966   4.224
10444SOL    HW232232   4.096   4.934   4.372
10445SOL     OW32233   1.302   2.968   3.987
10445SOL    HW132234   1.289   3.062   3.955
10445SOL    HW232235   1.259   2.905   3.922
10446SOL     OW32236   2.193   4.883   5.354
10446SOL    HW132237   2.169   4.839   5.441
10446SOL    HW232238   2.293   4.895   5.349
10447SOL     OW32239   0.730   1.636   2.736
10447SOL    HW132240   0.662   1.582   2.785
10447SOL    HW232241   0.701   1.732   2.733
10448SOL     OW32242   2.393   6.184   2.264
10448SOL    HW132243   2.436   6.188   2.174
10448SOL    HW232244   2.449   6.128   2.326
10449SOL     OW32245   4.242   5.303   4.558
10449SOL    HW132246   4.192   5.216   4.558
10449SOL    HW232247   4.314   5.299   4.487
10450SOL     OW32248   6.999   1.006   4.195
10450SOL    HW132249   6.986   0.946   4.117
10450SOL    HW232250   0.057   0.972   4.251
10451SOL     OW32251   3.319   1.864   4.053
10451SOL    HW132252   3.410   1.898   4.075
10451SOL    HW232253   3.317   1.833   3.958
10452SOL     OW32254   6.130   2.932   4.640
10452SOL    HW132255   6.221   2.967   4.659
10452SOL    HW232256   6.062   2.994   4.679
10453SOL     OW32257   4.018   5.843   4.011
10453SOL    HW132258   3.957   5.888   4.076
10453SOL    HW232259   4.112   5.845   4.045
10454SOL     OW32260   6.418   1.391   6.722
10454SOL    HW132261   6.431   1.365   6.818
10454SOL    HW232262   6.447   1.485   6.709
10455SOL     OW32263   0.530   6.139   3.315
10455SOL    HW132264   0.507   6.049   3.353
10455SOL    HW232265   0.468   6.208   3.353
10456SOL     OW32266   0.850   5.757   6.460
10456SOL    HW132267   0.898   5.743   6.374
10456SOL    HW232268   0.878   5.844   6.500
10457SOL     OW32269   4.165   1.875   6.166
10457SOL    HW132270   4.230   1.919   6.229
10457SOL    HW232271   4.073   1.909   6.184
10458SOL     OW32272   1.022   5.996   0.123
10458SOL    HW132273   0.945   5.975   0.062
10458SOL    HW232274   1.011   6.088   0.160
10459SOL     OW32275   5.878   5.620   1.652
10459SOL    HW132276   5.938   5.698   1.636
10459SOL    HW232277   5.799   5.649   1.707
10460SOL     OW32278   6.374   0.497   0.693
10460SOL    HW132279   6.444   0.497   0.765
10460SOL    HW232280   6.405   0.439   0.617
10461SOL     OW32281   6.882   4.510   6.722
10461SOL    HW132282   6.858   4.590   6.666
10461SOL    HW232283   6.913   4.540   6.812
10462SOL     OW32284   3.400   3.674   6.140
10462SOL    HW132285   3.342   3.711   6.067
10462SOL    HW232286   3.492   3.712   6.133
10463SOL     OW32287   4.743   2.832   6.637
10463SOL    HW132288   4.792   2.909   6.678
10463SOL    HW232289   4.645   2.850   6.638
10464SOL     OW32290   6.573   4.566   2.573
10464SOL    HW132291   6.496   4.502   2.579
10464SOL    HW232292   6.567   4.633   2.646
10465SOL     OW32293   5.650   4.884   1.284
10465SOL    HW132294   5.732   4.890   1.227
10465SOL    HW232295   5.590   4.961   1.264
10466SOL     OW32296   6.256   4.272   6.034
10466SOL    HW132297   6.290   4.358   5.995
10466SOL    HW232298   6.211   4.219   5.962
10467SOL     OW32299   0.435   2.784   6.830
10467SOL    HW132300   0.379   2.812   6.908
10467SOL    HW232301   0.406   2.692   6.801
10468SOL     OW32302   1.215   4.588   4.048
10468SOL    HW132303   1.250   4.630   3.965
10468SOL    HW232304   1.115   4.585   4.044
10469SOL     OW32305   1.356   1.666   4.295
10469SOL    HW132306   1.303   1.586   4.321
10469SOL    HW232307   1.361   1.672   4.195
10470SOL     OW32308   1.995   3.525   2.842
10470SOL    HW132309   2.049   3.463   2.899
10470SOL    HW232310   1.948   3.591   2.900
10471SOL     OW32311   2.593   5.981   6.700
10471SOL    HW132312   2.655   6.037   6.645
10471SOL    HW232313   2.503   6.025   6.705
10472SOL     OW32314   3.566   4.947   6.463
10472SOL    HW132315   3.576   4.848   6.452
10472SOL    HW232316   3.634   4.994   6.407
10473SOL     OW32317   6.116   4.629   0.923
10473SOL    HW132318   6.081   4.722   0.931
10473SOL    HW232319   6.106   4.583   1.011
10474SOL     OW32320   6.005   0.241   4.858
10474SOL    HW132321   6.052   0.323   4.825
10474SOL    HW232322   6.052   0.160   4.825
10475SOL     OW32323   1.098   5.224   1.204
10475SOL    HW132324   1.006   5.264   1.197
10475SOL    HW232325   1.133   5.239   1.296
10476SOL     OW32326   5.088   6.708   1.502
10476SOL    HW132327   4.989   6.708   1.487
10476SOL    HW232328   5.110   6.649   1.580
10477SOL     OW32329   6.881   5.790   3.584
10477SOL    HW132330   6.952   5.722   3.566
10477SOL    HW232331   6.832   5.811   3.499
10478SOL     OW32332   6.491   1.071   6.591
10478SOL    HW132333   6.520   1.058   6.496
10478SOL    HW232334   6.437   1.154   6.598
10479SOL     OW32335   0.894   2.815   1.900
10479SOL    HW132336   0.862   2.749   1.968
10479SOL    HW232337   0.857   2.905   1.920
10480SOL     OW32338   2.791   1.001   3.764
10480SOL    HW132339   2.747   1.007   3.674
10480SOL    HW232340   2.871   1.061   3.765
10481SOL     OW32341   6.973   1.099   1.109
10481SOL    HW132342   6.928   1.137   1.028
10481SOL    HW232343   0.013   1.022   1.081
10482SOL     OW32344   5.289   2.762   3.734
10482SOL    HW132345   5.247   2.784   3.821
10482SOL    HW232346   5.328   2.670   3.738
10483SOL     OW32347   6.822   6.358   0.093
10483SOL    HW132348   6.790   6.424   0.162
10483SOL    HW232349   6.779   6.379   0.005
10484SOL     OW32350   6.556   1.093   2.044
10484SOL    HW132351   6.557   1.134   2.135
10484SOL    HW232352   6.487   1.021   2.040
10485SOL     OW32353   5.134   3.178   5.547
10485SOL    HW132354   5.042   3.166   5.584
10485SOL    HW232355   5.140   3.132   5.458
10486SOL     OW32356   5.320   2.980   2.245
10486SOL    HW132357   5.391   3.040   2.208
10486SOL    HW232358   5.352   2.886   2.243
10487SOL     OW32359   5.799   6.797   1.936
10487SOL    HW132360   5.754   6.885   1.945
10487SOL    HW232361   5.867   6.786   2.009
10488SOL     OW32362   3.053   3.378   0.147
10488SOL    HW132363   3.060   3.476   0.165
10488SOL    HW232364   3.142   3.335   0.165
10489SOL     OW32365   1.425   6.052   5.063
10489SOL    HW132366   1.503   6.039   5.124
10489SOL    HW232367   1.420   6.148   5.036
10490SOL     OW32368   6.745   0.369   4.308
10490SOL    HW132369   6.751   0.270   4.318
10490SOL    HW232370   6.833   0.411   4.328
10491SOL     OW32371   0.588   5.026   5.691
10491SOL    HW132372   0.505   4.970   5.687
10491SOL    HW232373   0.572   5.105   5.749
10492SOL     OW32374   4.065   4.409   5.564
10492SOL    HW132375   4.048   4.485   5.501
10492SOL    HW232376   4.132   4.347   5.523
10493SOL     OW32377   3.096   1.074   0.594
10493SOL    HW132378   3.016   1.013   0.592
10493SOL    HW232379   3.149   1.056   0.677
10494SOL     OW32380   5.403   2.372   4.754
10494SOL    HW132381   5.449   2.410   4.674
10494SOL    HW232382   5.470   2.361   4.828
10495SOL     OW32383   1.675   6.328   0.245
10495SOL    HW132384   1.584   6.292   0.270
10495SOL    HW232385   1.721   6.361   0.327
10496SOL     OW32386   6.560   0.658   5.103
10496SOL    HW132387   6.595   0.566   5.083
10496SOL    HW232388   6.626   0.707   5.160
10497SOL     OW32389   0.819   1.693   0.103
10497SOL    HW132390   0.898   1.683   0.164
10497SOL    HW232391   0.844   1.662   0.011
10498SOL     OW32392   2.965   4.910   5.886
10498SOL    HW132393   2.924   4.851   5.817
10498SOL    HW232394   2.967   5.005   5.852
10499SOL     OW32395   3.071   5.455   2.976
10499SOL    HW132396   3.041   5.411   3.060
10499SOL    HW232397   3.133   5.394   2.926
10500SOL     OW32398   1.622   2.337   6.776
10500SOL    HW132399   1.594   2.241   6.779
10500SOL    HW232400   1.541   2.394   6.758
10501SOL     OW32401   1.457   2.163   3.035
10501SOL    HW132402   1.384   2.129   2.976
10501SOL    HW232403   1.427   2.248   3.080
10502SOL     OW32404   3.239   6.079   5.210
10502SOL    HW132405   3.335   6.075   5.238
10502SOL    HW232406   3.210   5.989   5.178
10503SOL     OW32407   2.744   3.659   5.820
10503SOL    HW132408   2.721   3.563   5.803
10503SOL    HW232409   2.738   3.677   5.918
10504SOL     OW32410   2.638   3.241   1.062
10504SOL    HW132411   2.554   3.204   1.102
10504SOL    HW232412   2.714   3.228   1.126
10505SOL     OW32413   0.280   0.163   1.168
10505SOL    HW132414   0.376   0.133   1.166
10505SOL    HW232415   0.273   0.246   1.224
10506SOL     OW32416   0.253   4.142   5.444
10506SOL    HW132417   0.205   4.166   5.360
10506SOL    HW232418   0.347   4.177   5.440
10507SOL     OW32419   1.164   0.251   4.619
10507SOL    HW132420   1.140   0.154   4.623
10507SOL    HW232421   1.113   0.295   4.545
10508SOL     OW32422   5.355   4.281   2.796
10508SOL    HW132423   5.357   4.352   2.725
10508SOL    HW232424   5.272   4.226   2.785
10509SOL     OW32425   1.469   0.303   5.183
10509SOL    HW132426   1.559   0.264   5.167
10509SOL    HW232427   1.460   0.328   5.279
10510SOL     OW32428   6.212   6.203   6.984
10510SOL    HW132429   6.288   6.257   0.003
10510SOL    HW232430   6.242   6.109   6.972
10511SOL     OW32431   6.397   1.991   0.398
10511SOL    HW132432   6.371   1.910   0.451
10511SOL    HW232433   6.463   1.964   0.328
10512SOL     OW32434   3.291   5.975   6.485
10512SOL    HW132435   3.356   5.918   6.436
10512SOL    HW232436   3.289   5.948   6.582
10513SOL     OW32437   6.666   2.371   6.973
10513SOL    HW132438   6.623   2.405   6.890
10513SOL    HW232439   6.596   2.336   0.017
10514SOL     OW32440   6.558   3.642   1.524
10514SOL    HW132441   6.488   3.575   1.502
10514SOL    HW232442   6.526   3.701   1.598
10515SOL     OW32443   6.256   2.235   4.299
10515SOL    HW132444   6.317   2.215   4.376
10515SOL    HW232445   6.246   2.154   4.242
10516SOL     OW32446   3.663   0.125   7.016
10516SOL    HW132447   3.718   0.085   0.071
10516SOL    HW232448   3.658   0.062   6.939
10517SOL     OW32449   0.208   2.498   2.922
10517SOL    HW132450   0.138   2.437   2.886
10517SOL    HW232451   0.263   2.449   2.990
10518SOL     OW32452   0.486   6.464   2.375
10518SOL    HW132453   0.492   6.477   2.474
10518SOL    HW232454   0.559   6.517   2.331
10519SOL     OW32455   3.308   3.819   5.274
10519SOL    HW132456   3.228   3.871   5.302
10519SOL    HW232457   3.309   3.810   5.175
10520SOL     OW32458   3.949   4.060   6.271
10520SOL    HW132459   3.886   4.027   6.341
10520SOL    HW232460   3.920   4.149   6.238
10521SOL     OW32461   6.350   5.025   2.095
10521SOL    HW132462   6.285   4.949   2.107
10521SOL    HW232463   6.300   5.111   2.092
10522SOL     OW32464   6.370   0.142   1.829
10522SOL    HW132465   6.462   0.164   1.799
10522SOL    HW232466   6.371   0.115   1.925
10523SOL     OW32467   6.745   5.730   6.846
10523SOL    HW132468   6.838   5.736   6.882
10523SOL    HW232469   6.729   5.806   6.783
10524SOL     OW32470   4.365   0.717   4.258
10524SOL    HW132471   4.350   0.804   4.305
10524SOL    HW232472   4.399   0.649   4.323
10525SOL     OW32473   2.985   6.343   4.682
10525SOL    HW132474   2.889   6.364   4.662
10525SOL    HW232475   3.039   6.349   4.599
10526SOL     OW32476   5.932   6.767   2.205
10526SOL    HW132477   5.935   6.863   2.230
10526SOL    HW232478   5.886   6.715   2.277
10527SOL     OW32479   1.656   2.701   4.593
10527SOL    HW132480   1.648   2.700   4.494
10527SOL    HW232481   1.694   2.789   4.623
10528SOL     OW32482   6.338   4.715   5.696
10528SOL    HW132483   6.429   4.752   5.678
10528SOL    HW232484   6.319   4.641   5.632
10529SOL     OW32485   6.155   6.122   3.965
10529SOL    HW132486   6.076   6.176   3.936
10529SOL    HW232487   6.231   6.183   3.986
10530SOL     OW32488   1.852   1.713   5.548
10530SOL    HW132489   1.822   1.778   5.618
10530SOL    HW232490   1.775   1.655   5.521
10531SOL     OW32491   2.305   2.301   5.777
10531SOL    HW132492   2.388   2.248   5.760
10531SOL    HW232493   2.225   2.243   5.765
10532SOL     OW32494   3.361   3.156   5.157
10532SOL    HW132495   3.437   3.090   5.155
10532SOL    HW232496   3.301   3.140   5.078
10533SOL     OW32497   2.204   0.715   6.099
10533SOL    HW132498   2.302   0.717   6.122
10533SOL    HW232499   2.151   0.747   6.177
10534SOL     OW32500   5.819   5.885   1.302
10534SOL    HW132501   5.851   5.811   1.361
10534SOL    HW232502   5.865   5.970   1.329
10535SOL     OW32503   0.720   1.376   2.555
10535SOL    HW132504   0.759   1.307   2.493
10535SOL    HW232505   0.792   1.412   2.613
10536SOL     OW32506   4.701   6.694   4.087
10536SOL    HW132507   4.612   6.653   4.068
10536SOL    HW232508   4.765   6.672   4.013
10537SOL     OW32509   0.566   5.211   1.251
10537SOL    HW132510   0.534   5.298   1.288
10537SOL    HW232511   0.545   5.207   1.153
10538SOL     OW32512   4.754   3.994   6.783
10538SOL    HW132513   4.752   3.916   6.846
10538SOL    HW232514   4.711   3.969   6.696
10539SOL     OW32515   0.708   3.559   5.680
10539SOL    HW132516   0.801   3.551   5.643
10539SOL    HW232517   0.650   3.607   5.614
10540SOL     OW32518   2.901   1.011   6.908
10540SOL    HW132519   2.924   0.952   6.831
10540SOL    HW232520   2.955   0.985   6.988
10541SOL     OW32521   4.532   2.487   0.857
10541SOL    HW132522   4.504   2.566   0.911
10541SOL    HW232523   4.484   2.406   0.889
10542SOL     OW32524   1.429   2.569   0.118
10542SOL    HW132525   1.520   2.576   0.076
10542SOL    HW232526   1.380   2.655   0.106
10543SOL     OW32527   2.325   0.905   5.608
10543SOL    HW132528   2.273   0.908   5.693
10543SOL    HW232529   2.420   0.931   5.626
10544SOL     OW32530   0.178   2.431   2.237
10544SOL    HW132531   0.205   2.452   2.331
10544SOL    HW232532   0.078   2.436   2.229
10545SOL     OW32533   5.464   0.902   2.926
10545SOL    HW132534   5.505   0.875   3.013
10545SOL    HW232535   5.415   0.988   2.938
10546SOL     OW32536   3.590   0.581   5.041
10546SOL    HW132537   3.501   0.581   4.995
10546SOL    HW232538   3.663   0.576   4.972
10547SOL     OW32539   4.401   1.165   0.800
10547SOL    HW132540   4.311   1.152   0.759
10547SOL    HW232541   4.427   1.261   0.792
10548SOL     OW32542   4.744   4.358   5.398
10548SOL    HW132543   4.757   4.341   5.300
10548SOL    HW232544   4.815   4.420   5.431
10549SOL     OW32545   1.523   1.077   1.372
10549SOL    HW132546   1.546   1.017   1.449
10549SOL    HW232547   1.567   1.166   1.385
10550SOL     OW32548   4.944   6.940   5.490
10550SOL    HW132549   4.949   6.880   5.571
10550SOL    HW232550   4.997   0.005   5.507
10551SOL     OW32551   1.814   2.863   5.947
10551SOL    HW132552   1.762   2.936   5.991
10551SOL    HW232553   1.904   2.855   5.990
10552SOL     OW32554   3.141   1.997   5.062
10552SOL    HW132555   3.162   1.949   4.977
10552SOL    HW232556   3.157   2.095   5.051
10553SOL     OW32557   2.898   4.388   6.079
10553SOL    HW132558   2.820   4.390   6.016
10553SOL    HW232559   2.982   4.399   6.026
10554SOL     OW32560   6.468   4.479   5.289
10554SOL    HW132561   6.417   4.558   5.254
10554SOL    HW232562   6.424   4.395   5.258
10555SOL     OW32563   3.362   2.385   1.291
10555SOL    HW132564   3.429   2.380   1.217
10555SOL    HW232565   3.399   2.440   1.366
10556SOL     OW32566   2.130   3.310   4.333
10556SOL    HW132567   2.167   3.218   4.345
10556SOL    HW232568   2.068   3.332   4.408
10557SOL     OW32569   6.343   1.980   3.813
10557SOL    HW132570   6.398   2.030   3.745
10557SOL    HW232571   6.393   1.977   3.900
10558SOL     OW32572   5.244   5.803   4.947
10558SOL    HW132573   5.298   5.807   4.863
10558SOL    HW232574   5.300   5.761   5.020
10559SOL     OW32575   4.691   2.434   1.138
10559SOL    HW132576   4.617   2.501   1.144
10559SOL    HW232577   4.654   2.342   1.150
10560SOL     OW32578   0.041   2.930   4.256
10560SOL    HW132579   0.131   2.959   4.289
10560SOL    HW232580   0.023   2.837   4.286
10561SOL     OW32581   2.801   4.718   5.767
10561SOL    HW132582   2.802   4.622   5.798
10561SOL    HW232583   2.721   4.764   5.804
10562SOL     OW32584   3.283   1.295   0.571
10562SOL    HW132585   3.236   1.295   0.483
10562SOL    HW232586   3.348   1.219   0.574
10563SOL     OW32587   1.914   1.413   4.126
10563SOL    HW132588   1.938   1.316   4.136
10563SOL    HW232589   1.887   1.450   4.215
10564SOL     OW32590   0.245   2.319   1.848
10564SOL    HW132591   0.308   2.392   1.820
10564SOL    HW232592   0.289   2.262   1.917
10565SOL     OW32593   5.128   1.514   5.139
10565SOL    HW132594   5.135   1.614   5.147
10565SOL    HW232595   5.181   1.472   5.213
10566SOL     OW32596   4.054   4.773   6.700
10566SOL    HW132597   4.046   4.799   6.604
10566SOL    HW232598   4.148   4.748   6.720
10567SOL     OW32599   1.922   5.110   3.810
10567SOL    HW132600   1.903   5.039   3.878
10567SOL    HW232601   1.941   5.068   3.722
10568SOL     OW32602   4.023   1.651   3.383
10568SOL    HW132603   3.979   1.657   3.293
10568SOL    HW232604   3.956   1.676   3.453
10569SOL     OW32605   6.162   3.035   3.004
10569SOL    HW132606   6.072   3.061   2.971
10569SOL    HW232607   6.153   2.965   3.074
10570SOL     OW32608   1.173   4.278   1.688
10570SOL    HW132609   1.230   4.230   1.755
10570SOL    HW232610   1.214   4.366   1.666
10571SOL     OW32611   5.968   6.986   4.798
10571SOL    HW132612   6.005   7.008   4.707
10571SOL    HW232613   5.930   6.893   4.796
10572SOL     OW32614   6.465   3.022   1.828
10572SOL    HW132615   6.426   3.073   1.905
10572SOL    HW232616   6.520   2.946   1.864
10573SOL     OW32617   6.394   4.495   5.854
10573SOL    HW132618   6.347   4.572   5.810
10573SOL    HW232619   6.460   4.456   5.790
10574SOL     OW32620   1.055   2.067   3.239
10574SOL    HW132621   1.143   2.101   3.273
10574SOL    HW232622   0.984   2.135   3.258
10575SOL     OW32623   0.727   6.770   5.811
10575SOL    HW132624   0.653   6.740   5.871
10575SOL    HW232625   0.708   6.743   5.717
10576SOL     OW32626   1.592   4.871   3.358
10576SOL    HW132627   1.670   4.885   3.297
10576SOL    HW232628   1.508   4.899   3.311
10577SOL     OW32629   0.722   3.029   5.625
10577SOL    HW132630   0.719   3.056   5.722
10577SOL    HW232631   0.721   2.929   5.619
10578SOL     OW32632   5.829   0.526   5.683
10578SOL    HW132633   5.752   0.526   5.619
10578SOL    HW232634   5.804   0.578   5.765
10579SOL     OW32635   4.839   0.581   0.577
10579SOL    HW132636   4.862   0.488   0.549
10579SOL    HW232637   4.820   0.581   0.676
10580SOL     OW32638   6.243   6.251   0.288
10580SOL    HW132639   6.326   6.199   0.305
10580SOL    HW232640   6.254   6.345   0.321
10581SOL     OW32641   4.348   1.236   3.870
10581SOL    HW132642   4.318   1.186   3.789
10581SOL    HW232643   4.281   1.308   3.892
10582SOL     OW32644   3.402   4.394   7.011
10582SOL    HW132645   3.401   4.354   0.084
10582SOL    HW232646   3.396   4.493   7.017
10583SOL     OW32647   4.608   1.497   0.587
10583SOL    HW132648   4.663   1.468   0.509
10583SOL    HW232649   4.658   1.569   0.637
10584SOL     OW32650   6.498   0.231   1.557
10584SOL    HW132651   6.415   0.277   1.586
10584SOL    HW232652   6.486   0.193   1.465
10585SOL     OW32653   1.955   4.684   6.269
10585SOL    HW132654   2.008   4.696   6.185
10585SOL    HW232655   1.970   4.763   6.330
10586SOL     OW32656   4.315   1.334   0.495
10586SOL    HW132657   4.383   1.397   0.457
10586SOL    HW232658   4.327   1.243   0.454
10587SOL     OW32659   6.038   3.605   0.628
10587SOL    HW132660   6.002   3.518   0.595
10587SOL    HW232661   6.137   3.607   0.616
10588SOL     OW32662   0.940   5.304   3.261
10588SOL    HW132663   0.880   5.283   3.184
10588SOL    HW232664   0.961   5.220   3.311
10589SOL     OW32665   6.306   1.451   4.145
10589SOL    HW132666   6.378   1.520   4.147
10589SOL    HW232667   6.347   1.362   4.122
10590SOL     OW32668   1.938   0.915   4.445
10590SOL    HW132669   1.893   1.004   4.450
10590SOL    HW232670   1.874   0.848   4.407
10591SOL     OW32671   1.171   2.651   0.771
10591SOL    HW132672   1.200   2.680   0.679
10591SOL    HW232673   1.235   2.688   0.839
10592SOL     OW32674   6.384   1.888   6.835
10592SOL    HW132675   6.319   1.958   6.806
10592SOL    HW232676   6.466   1.931   6.872
10593SOL     OW32677   2.112   4.545   1.182
10593SOL    HW132678   2.160   4.558   1.095
10593SOL    HW232679   2.178   4.517   1.252
10594SOL     OW32680   0.908   2.042   4.541
10594SOL    HW132681   0.817   2.022   4.578
10594SOL    HW232682   0.957   2.104   4.602
10595SOL     OW32683   1.932   6.347   5.755
10595SOL    HW132684   1.950   6.347   5.853
10595SOL    HW232685   1.922   6.442   5.723
10596SOL     OW32686   3.504   0.505   2.041
10596SOL    HW132687   3.510   0.597   2.001
10596SOL    HW232688   3.512   0.511   2.140
10597SOL     OW32689   2.033   0.324   3.745
10597SOL    HW132690   2.005   0.412   3.782
10597SOL    HW232691   2.132   0.311   3.759
10598SOL     OW32692   1.804   1.952   0.088
10598SOL    HW132693   1.857   2.016   0.144
10598SOL    HW232694   1.785   1.869   0.141
10599SOL     OW32695   4.801   0.955   6.799
10599SOL    HW132696   4.789   0.887   6.872
10599SOL    HW232697   4.716   0.963   6.746
10600SOL     OW32698   1.661   2.441   5.788
10600SOL    HW132699   1.709   2.492   5.717
10600SOL    HW232700   1.699   2.464   5.878
10601SOL     OW32701   3.287   6.505   5.925
10601SOL    HW132702   3.259   6.470   6.015
10601SOL    HW232703   3.291   6.429   5.860
10602SOL     OW32704   4.355   1.119   1.909
10602SOL    HW132705   4.358   1.118   1.809
10602SOL    HW232706   4.285   1.183   1.940
10603SOL     OW32707   0.985   5.496   4.352
10603SOL    HW132708   0.899   5.490   4.402
10603SOL    HW232709   0.968   5.482   4.254
10604SOL     OW32710   6.780   4.283   5.234
10604SOL    HW132711   6.764   4.381   5.247
10604SOL    HW232712   6.725   4.251   5.156
10605SOL     OW32713   2.029   4.927   6.352
10605SOL    HW132714   2.017   4.998   6.282
10605SOL    HW232715   2.126   4.919   6.374
10606SOL     OW32716   0.604   0.911   3.142
10606SOL    HW132717   0.597   0.849   3.065
10606SOL    HW232718   0.698   0.945   3.150
10607SOL     OW32719   5.804   4.868   0.052
10607SOL    HW132720   5.860   4.951   0.062
10607SOL    HW232721   5.827   4.824   6.983
10608SOL     OW32722   5.946   0.861   2.729
10608SOL    HW132723   6.040   0.828   2.727
10608SOL    HW232724   5.884   0.786   2.710
10609SOL     OW32725   4.064   6.784   2.310
10609SOL    HW132726   3.994   6.813   2.375
10609SOL    HW232727   4.123   6.862   2.289
10610SOL     OW32728   1.878   3.548   4.863
10610SOL    HW132729   1.860   3.527   4.959
10610SOL    HW232730   1.793   3.544   4.811
10611SOL     OW32731   5.077   2.337   6.122
10611SOL    HW132732   5.127   2.258   6.158
10611SOL    HW232733   5.014   2.371   6.192
10612SOL     OW32734   1.169   6.945   1.020
10612SOL    HW132735   1.133   6.859   0.982
10612SOL    HW232736   1.269   6.941   1.023
10613SOL     OW32737   0.534   6.634   6.649
10613SOL    HW132738   0.473   6.555   6.656
10613SOL    HW232739   0.505   6.692   6.573
10614SOL     OW32740   6.782   0.726   4.166
10614SOL    HW132741   6.867   0.737   4.115
10614SOL    HW232742   6.800   0.733   4.264
10615SOL     OW32743   6.716   5.768   5.124
10615SOL    HW132744   6.759   5.679   5.139
10615SOL    HW232745   6.617   5.760   5.137
10616SOL     OW32746   2.985   6.339   0.233
10616SOL    HW132747   2.973   6.294   0.321
10616SOL    HW232748   3.029   6.428   0.247
10617SOL     OW32749   0.513   2.238   6.538
10617SOL    HW132750   0.586   2.199   6.593
10617SOL    HW232751   0.542   2.242   6.442
10618SOL     OW32752   6.069   3.913   1.485
10618SOL    HW132753   6.099   3.939   1.577
10618SOL    HW232754   6.147   3.916   1.422
10619SOL     OW32755   0.486   4.259   3.786
10619SOL    HW132756   0.548   4.328   3.750
10619SOL    HW232757   0.520   4.168   3.762
10620SOL     OW32758   1.222   6.049   4.421
10620SOL    HW132759   1.176   5.997   4.492
10620SOL    HW232760   1.320   6.054   4.442
10621SOL     OW32761   2.721   6.330   0.801
10621SOL    HW132762   2.696   6.347   0.897
10621SOL    HW232763   2.658   6.264   0.762
10622SOL     OW32764   4.586   1.758   1.524
10622SOL    HW132765   4.588   1.664   1.490
10622SOL    HW232766   4.503   1.772   1.577
10623SOL     OW32767   6.751   0.998   3.979
10623SOL    HW132768   6.686   0.946   3.924
10623SOL    HW232769   6.724   0.995   4.075
10624SOL     OW32770   2.785   1.461   4.341
10624SOL    HW132771   2.796   1.484   4.244
10624SOL    HW232772   2.716   1.389   4.351
10625SOL     OW32773   0.020   3.274   0.134
10625SOL    HW132774   6.938   3.284   0.130
10625SOL    HW232775   0.045   3.185   0.095
10626SOL     OW32776   6.655   1.871   1.466
10626SOL    HW132777   6.570   1.913   1.496
10626SOL    HW232778   6.688   1.916   1.383
10627SOL     OW32779   6.356   5.040   4.484
10627SOL    HW132780   6.363   5.087   4.395
10627SOL    HW232781   6.329   4.945   4.469
10628SOL     OW32782   6.969   6.289   6.201
10628SOL    HW132783   6.950   6.191   6.207
10628SOL    HW232784   6.884   6.340   6.217
10629SOL     OW32785   2.826   5.705   6.168
10629SOL    HW132786   2.856   5.625   6.114
10629SOL    HW232787   2.864   5.788   6.127
10630SOL     OW32788   6.832   1.305   2.793
10630SOL    HW132789   6.885   1.370   2.848
10630SOL    HW232790   6.880   1.287   2.707
10631SOL     OW32791   1.060   0.284   5.051
10631SOL    HW132792   1.003   0.249   5.125
10631SOL    HW232793   1.036   0.237   4.966
10632SOL     OW32794   0.383   3.053   4.791
10632SOL    HW132795   0.320   3.130   4.776
10632SOL    HW232796   0.335   2.967   4.774
10633SOL     OW32797   0.898   5.221   0.381
10633SOL    HW132798   0.911   5.264   0.470
10633SOL    HW232799   0.898   5.290   0.309
10634SOL     OW32800   3.902   6.951   1.487
10634SOL    HW132801   3.870   6.858   1.471
10634SOL    HW232802   3.887   7.007   1.405
10635SOL     OW32803   1.665   0.738   0.820
10635SOL    HW132804   1.589   0.737   0.885
10635SOL    HW232805   1.638   0.784   0.736
10636SOL     OW32806   6.560   1.139   1.068
10636SOL    HW132807   6.619   1.058   1.072
10636SOL    HW232808   6.600   1.205   1.004
10637SOL     OW32809   3.835   4.627   5.634
10637SOL    HW132810   3.783   4.633   5.549
10637SOL    HW232811   3.818   4.538   5.677
10638SOL     OW32812   6.728   0.475   5.350
10638SOL    HW132813   6.677   0.462   5.435
10638SOL    HW232814   6.690   0.417   5.278
10639SOL     OW32815   2.936   1.901   5.217
10639SOL    HW132816   2.952   1.952   5.301
10639SOL    HW232817   2.995   1.937   5.145
10640SOL     OW32818   3.611   6.442   0.748
10640SOL    HW132819   3.669   6.449   0.829
10640SOL    HW232820   3.574   6.532   0.726
10641SOL     OW32821   4.238   0.884   6.335
10641SOL    HW132822   4.323   0.931   6.361
10641SOL    HW232823   4.162   0.948   6.341
10642SOL     OW32824   0.080   3.752   0.637
10642SOL    HW132825   0.112   3.750   0.542
10642SOL    HW232826   7.001   3.776   0.639
10643SOL     OW32827   3.845   3.391   5.336
10643SOL    HW132828   3.865   3.488   5.350
10643SOL    HW232829   3.893   3.337   5.404
10644SOL     OW32830   3.479   1.773   5.063
10644SOL    HW132831   3.494   1.686   5.110
10644SOL    HW232832   3.460   1.844   5.131
10645SOL     OW32833   2.238   6.836   5.255
10645SOL    HW132834   2.267   6.801   5.344
10645SOL    HW232835   2.216   6.933   5.263
10646SOL     OW32836   0.988   4.307   6.483
10646SOL    HW132837   0.914   4.269   6.539
10646SOL    HW232838   1.057   4.237   6.468
10647SOL     OW32839   0.238   5.010   0.529
10647SOL    HW132840   0.228   5.050   0.438
10647SOL    HW232841   0.334   5.013   0.557
10648SOL     OW32842   5.049   4.825   6.502
10648SOL    HW132843   5.025   4.735   6.539
10648SOL    HW232844   5.098   4.878   6.572
10649SOL     OW32845   0.761   4.455   6.130
10649SOL    HW132846   0.718   4.434   6.218
10649SOL    HW232847   0.703   4.518   6.078
10650SOL     OW32848   2.851   0.965   4.239
10650SOL    HW132849   2.864   0.897   4.167
10650SOL    HW232850   2.787   1.035   4.209
10651SOL     OW32851   2.952   0.070   5.633
10651SOL    HW132852   2.870   0.014   5.624
10651SOL    HW232853   2.997   0.049   5.720
10652SOL     OW32854   3.976   0.892   0.259
10652SOL    HW132855   3.935   0.808   0.224
10652SOL    HW232856   3.931   0.971   0.217
10653SOL     OW32857   5.525   2.677   4.029
10653SOL    HW132858   5.445   2.722   4.068
10653SOL    HW232859   5.572   2.624   4.100
10654SOL     OW32860   4.461   0.947   1.169
10654SOL    HW132861   4.539   0.925   1.228
10654SOL    HW232862   4.461   1.045   1.148
10655SOL     OW32863   3.441   5.889   1.520
10655SOL    HW132864   3.357   5.941   1.538
10655SOL    HW232865   3.498   5.939   1.454
10656SOL     OW32866   6.301   2.742   6.033
10656SOL    HW132867   6.337   2.833   6.054
10656SOL    HW232868   6.282   2.735   5.935
10657SOL     OW32869   6.232   0.326   1.701
10657SOL    HW132870   6.271   0.256   1.760
10657SOL    HW232871   6.245   0.416   1.743
10658SOL     OW32872   0.545   6.447   4.862
10658SOL    HW132873   0.609   6.416   4.933
10658SOL    HW232874   0.592   6.512   4.802
10659SOL     OW32875   5.246   0.880   1.019
10659SOL    HW132876   5.320   0.944   1.000
10659SOL    HW232877   5.188   0.917   1.092
10660SOL     OW32878   5.236   5.063   5.623
10660SOL    HW132879   5.313   5.106   5.576
10660SOL    HW232880   5.235   5.091   5.719
10661SOL     OW32881   0.980   0.382   2.359
10661SOL    HW132882   0.965   0.366   2.261
10661SOL    HW232883   0.974   0.296   2.409
10662SOL     OW32884   5.951   1.185   0.899
10662SOL    HW132885   5.975   1.270   0.853
10662SOL    HW232886   5.931   1.203   0.996
10663SOL     OW32887   0.671   1.141   0.264
10663SOL    HW132888   0.728   1.109   0.189
10663SOL    HW232889   0.575   1.117   0.247
10664SOL     OW32890   2.409   4.902   6.589
10664SOL    HW132891   2.421   4.960   6.509
10664SOL    HW232892   2.440   4.809   6.568
10665SOL     OW32893   6.035   1.061   6.926
10665SOL    HW132894   5.995   1.048   7.016
10665SOL    HW232895   6.126   1.020   6.924
10666SOL     OW32896   0.788   0.300   0.015
10666SOL    HW132897   0.720   0.369   0.040
10666SOL    HW232898   0.744   0.231   6.975
10667SOL     OW32899   3.434   2.196   5.219
10667SOL    HW132900   3.353   2.252   5.229
10667SOL    HW232901   3.443   2.164   5.125
10668SOL     OW32902   2.040   1.016   6.688
10668SOL    HW132903   1.958   0.977   6.646
10668SOL    HW232904   2.046   0.987   6.783
10669SOL     OW32905   0.937   6.402   6.902
10669SOL    HW132906   0.882   6.476   6.863
10669SOL    HW232907   0.885   6.357   6.975
10670SOL     OW32908   0.036   4.912   5.341
10670SOL    HW132909   0.087   4.826   5.339
10670SOL    HW232910   7.006   4.920   5.428
10671SOL     OW32911   1.873   2.015   3.397
10671SOL    HW132912   1.936   1.990   3.470
10671SOL    HW232913   1.819   1.935   3.371
10672SOL     OW32914   0.480   2.501   1.060
10672SOL    HW132915   0.503   2.405   1.041
10672SOL    HW232916   0.414   2.504   1.136
10673SOL     OW32917   3.295   3.345   4.620
10673SOL    HW132918   3.345   3.406   4.558
10673SOL    HW232919   3.275   3.393   4.705
10674SOL     OW32920   4.425   1.657   2.289
10674SOL    HW132921   4.485   1.677   2.212
10674SOL    HW232922   4.397   1.561   2.286
10675SOL     OW32923   0.396   1.346   6.664
10675SOL    HW132924   0.485   1.302   6.655
10675SOL    HW232925   0.351   1.314   6.747
10676SOL     OW32926   6.679   0.132   0.089
10676SOL    HW132927   6.697   0.122   7.009
10676SOL    HW232928   6.762   0.166   0.134
10677SOL     OW32929   6.548   1.157   0.277
10677SOL    HW132930   6.559   1.162   0.376
10677SOL    HW232931   6.630   1.193   0.233
10678SOL     OW32932   1.969   5.365   2.585
10678SOL    HW132933   2.057   5.334   2.548
10678SOL    HW232934   1.969   5.354   2.684
10679SOL     OW32935   5.267   5.280   3.378
10679SOL    HW132936   5.337   5.292   3.449
10679SOL    HW232937   5.238   5.369   3.344
10680SOL     OW32938   1.442   2.337   3.517
10680SOL    HW132939   1.456   2.317   3.614
10680SOL    HW232940   1.513   2.291   3.463
10681SOL     OW32941   0.688   1.974   6.622
10681SOL    HW132942   0.734   1.911   6.684
10681SOL    HW232943   0.755   2.035   6.580
10682SOL     OW32944   6.370   1.825   2.829
10682SOL    HW132945   6.369   1.762   2.907
10682SOL    HW232946   6.284   1.818   2.779
10683SOL     OW32947   2.096   0.647   4.026
10683SOL    HW132948   2.052   0.712   4.088
10683SOL    HW232949   2.097   0.556   4.066
10684SOL     OW32950   5.829   6.113   0.531
10684SOL    HW132951   5.891   6.130   0.454
10684SOL    HW232952   5.857   6.029   0.577
10685SOL     OW32953   6.821   2.452   2.100
10685SOL    HW132954   6.738   2.421   2.146
10685SOL    HW232955   6.858   2.532   2.147
10686SOL     OW32956   4.335   4.221   0.653
10686SOL    HW132957   4.304   4.204   0.559
10686SOL    HW232958   4.288   4.301   0.690
10687SOL     OW32959   0.029   5.127   1.422
10687SOL    HW132960   0.052   5.223   1.409
10687SOL    HW232961   0.072   5.093   1.506
10688SOL     OW32962   6.673   5.613   1.333
10688SOL    HW132963   6.720   5.525   1.334
10688SOL    HW232964   6.589   5.607   1.387
10689SOL     OW32965   0.959   0.825   1.592
10689SOL    HW132966   0.938   0.875   1.677
10689SOL    HW232967   0.897   0.747   1.583
10690SOL     OW32968   4.649   5.981   2.579
10690SOL    HW132969   4.659   5.900   2.521
10690SOL    HW232970   4.720   6.048   2.555
10691SOL     OW32971   6.555   1.621   1.339
10691SOL    HW132972   6.618   1.693   1.369
10691SOL    HW232973   6.467   1.633   1.386
10692SOL     OW32974   5.783   6.043   4.554
10692SOL    HW132975   5.872   6.008   4.583
10692SOL    HW232976   5.711   5.999   4.607
10693SOL     OW32977   4.667   2.666   3.258
10693SOL    HW132978   4.686   2.719   3.175
10693SOL    HW232979   4.670   2.726   3.338
10694SOL     OW32980   3.234   6.531   0.742
10694SOL    HW132981   3.296   6.603   0.710
10694SOL    HW232982   3.142   6.569   0.751
10695SOL     OW32983   6.025   2.670   5.261
10695SOL    HW132984   6.044   2.758   5.220
10695SOL    HW232985   5.938   2.635   5.227
10696SOL     OW32986   6.857   6.603   2.242
10696SOL    HW132987   6.882   6.512   2.277
10696SOL    HW232988   6.892   6.614   2.149
10697SOL     OW32989   2.675   6.479   3.002
10697SOL    HW132990   2.673   6.562   2.947
10697SOL    HW232991   2.744   6.487   3.073
10698SOL     OW32992   3.011   0.662   3.352
10698SOL    HW132993   3.102   0.661   3.311
10698SOL    HW232994   2.995   0.749   3.398
10699SOL     OW32995   1.892   2.540   3.024
10699SOL    HW132996   1.866   2.635   3.009
10699SOL    HW232997   1.991   2.531   3.017
10700SOL     OW32998   0.393   1.169   1.596
10700SOL    HW132999   0.488   1.159   1.568
10700SOL    HW233000   0.348   1.236   1.537
10701SOL     OW33001   3.587   6.856   0.878
10701SOL    HW133002   3.635   6.856   0.790
10701SOL    HW233003   3.618   6.778   0.933
10702SOL     OW33004   5.003   2.760   1.132
10702SOL    HW133005   4.999   2.860   1.131
10702SOL    HW233006   4.933   2.725   1.194
10703SOL     OW33007   3.780   3.239   3.943
10703SOL    HW133008   3.710   3.185   3.989
10703SOL    HW233009   3.868   3.193   3.950
10704SOL     OW33010   5.766   6.361   2.344
10704SOL    HW133011   5.776   6.312   2.430
10704SOL    HW233012   5.703   6.310   2.284
10705SOL     OW33013   1.552   3.367   6.018
10705SOL    HW133014   1.601   3.454   6.027
10705SOL    HW233015   1.523   3.356   5.923
10706SOL     OW33016   3.436   2.088   1.372
10706SOL    HW133017   3.485   2.175   1.362
10706SOL    HW233018   3.382   2.090   1.456
10707SOL     OW33019   6.207   7.005   6.341
10707SOL    HW133020   6.107   6.999   6.345
10707SOL    HW233021   6.241   6.944   6.269
10708SOL     OW33022   4.649   1.014   1.400
10708SOL    HW133023   4.659   1.003   1.499
10708SOL    HW233024   4.653   1.111   1.377
10709SOL     OW33025   0.644   6.934   6.124
10709SOL    HW133026   0.708   7.005   6.096
10709SOL    HW233027   0.552   6.973   6.131
10710SOL     OW33028   6.631   5.697   4.313
10710SOL    HW133029   6.658   5.780   4.265
10710SOL    HW233030   6.650   5.617   4.256
10711SOL     OW33031   2.329   5.452   5.208
10711SOL    HW133032   2.321   5.397   5.125
10711SOL    HW233033   2.238   5.479   5.240
10712SOL     OW33034   4.003   1.290   5.757
10712SOL    HW133035   3.996   1.326   5.850
10712SOL    HW233036   4.034   1.195   5.760
10713SOL     OW33037   2.224   5.899   0.842
10713SOL    HW133038   2.192   5.812   0.877
10713SOL    HW233039   2.174   5.922   0.758
10714SOL     OW33040   6.732   5.612   5.432
10714SOL    HW133041   6.795   5.630   5.356
10714SOL    HW233042   6.785   5.589   5.514
10715SOL     OW33043   6.102   0.858   3.382
10715SOL    HW133044   6.186   0.825   3.341
10715SOL    HW233045   6.113   0.863   3.481
10716SOL     OW33046   6.875   0.935   2.165
10716SOL    HW133047   6.899   0.897   2.254
10716SOL    HW233048   6.937   1.011   2.143
10717SOL     OW33049   0.056   6.358   2.175
10717SOL    HW133050   7.011   6.317   2.241
10717SOL    HW233051   0.111   6.428   2.221
10718SOL     OW33052   0.688   3.883   5.880
10718SOL    HW133053   0.774   3.932   5.892
10718SOL    HW233054   0.662   3.884   5.783
10719SOL     OW33055   3.751   6.615   2.478
10719SOL    HW133056   3.790   6.524   2.461
10719SOL    HW233057   3.677   6.607   2.546
10720SOL     OW33058   0.410   3.158   6.440
10720SOL    HW133059   0.412   3.104   6.525
10720SOL    HW233060   0.316   3.186   6.421
10721SOL     OW33061   5.063   1.955   4.790
10721SOL    HW133062   5.159   1.968   4.814
10721SOL    HW233063   5.015   2.043   4.796
10722SOL     OW33064   0.002   4.807   0.807
10722SOL    HW133065   6.924   4.799   0.830
10722SOL    HW233066   0.022   4.752   0.726
10723SOL     OW33067   6.235   5.008   0.307
10723SOL    HW133068   6.177   4.985   0.385
10723SOL    HW233069   6.310   4.942   0.301
10724SOL     OW33070   3.052   0.306   5.525
10724SOL    HW133071   3.089   0.347   5.608
10724SOL    HW233072   2.988   0.234   5.549
10725SOL     OW33073   6.968   0.318   5.359
10725SOL    HW133074   6.964   0.418   5.367
10725SOL    HW233075   6.877   0.284   5.335
10726SOL     OW33076   6.013   1.156   3.907
10726SOL    HW133077   6.069   1.107   3.974
10726SOL    HW233078   5.918   1.127   3.916
10727SOL     OW33079   3.118   6.798   7.002
10727SOL    HW133080   3.103   6.838   6.912
10727SOL    HW233081   3.093   6.701   7.000
10728SOL     OW33082   5.835   5.544   3.876
10728SOL    HW133083   5.885   5.470   3.832
10728SOL    HW233084   5.842   5.535   3.975
10729SOL     OW33085   5.756   2.898   4.098
10729SOL    HW133086   5.705   2.813   4.094
10729SOL    HW233087   5.693   2.976   4.091
10730SOL     OW33088   1.333   5.812   3.721
10730SOL    HW133089   1.414   5.859   3.685
10730SOL    HW233090   1.251   5.847   3.676
10731SOL     OW33091   4.986   5.803   6.739
10731SOL    HW133092   4.924   5.857   6.796
10731SOL    HW233093   4.968   5.822   6.642
10732SOL     OW33094   6.459   6.048   2.609
10732SOL    HW133095   6.511   5.974   2.567
10732SOL    HW233096   6.473   6.132   2.556
10733SOL     OW33097   0.615   1.646   6.126
10733SOL    HW133098   0.694   1.585   6.124
10733SOL    HW233099   0.607   1.686   6.218
10734SOL     OW33100   1.125   0.565   5.019
10734SOL    HW133101   1.140   0.525   4.928
10734SOL    HW233102   1.100   0.492   5.083
10735SOL     OW33103   0.316   0.242   2.325
10735SOL    HW133104   0.304   0.143   2.338
10735SOL    HW233105   0.414   0.262   2.315
10736SOL     OW33106   5.434   5.810   3.245
10736SOL    HW133107   5.438   5.716   3.277
10736SOL    HW233108   5.358   5.857   3.289
10737SOL     OW33109   6.558   0.833   1.698
10737SOL    HW133110   6.614   0.916   1.691
10737SOL    HW233111   6.590   0.778   1.775
10738SOL     OW33112   2.657   6.749   1.477
10738SOL    HW133113   2.732   6.787   1.423
10738SOL    HW233114   2.592   6.822   1.499
10739SOL     OW33115   5.316   3.254   4.345
10739SOL    HW133116   5.405   3.273   4.302
10739SOL    HW233117   5.265   3.339   4.354
10740SOL     OW33118   2.945   0.383   6.053
10740SOL    HW133119   2.878   0.425   5.993
10740SOL    HW233120   2.982   0.452   6.115
10741SOL     OW33121   1.149   2.197   3.701
10741SOL    HW133122   1.069   2.139   3.716
10741SOL    HW233123   1.136   2.250   3.617
10742SOL     OW33124   6.577   6.722   1.981
10742SOL    HW133125   6.571   6.644   1.920
10742SOL    HW233126   6.568   6.807   1.929
10743SOL     OW33127   3.709   2.006   6.012
10743SOL    HW133128   3.705   2.022   5.913
10743SOL    HW233129   3.693   2.093   6.059
10744SOL     OW33130   2.703   1.679   0.842
10744SOL    HW133131   2.640   1.654   0.769
10744SOL    HW233132   2.752   1.763   0.817
10745SOL     OW33133   2.781   4.923   1.322
10745SOL    HW133134   2.764   4.885   1.413
10745SOL    HW233135   2.755   5.020   1.322
10746SOL     OW33136   2.429   5.383   6.553
10746SOL    HW133137   2.508   5.441   6.574
10746SOL    HW233138   2.423   5.371   6.454
10747SOL     OW33139   6.739   1.272   4.507
10747SOL    HW133140   6.820   1.292   4.562
10747SOL    HW233141   6.700   1.358   4.474
10748SOL     OW33142   3.353   6.340   2.561
10748SOL    HW133143   3.263   6.307   2.532
10748SOL    HW233144   3.342   6.411   2.631
10749SOL     OW33145   6.031   4.459   1.712
10749SOL    HW133146   6.040   4.499   1.804
10749SOL    HW233147   5.997   4.365   1.720
10750SOL     OW33148   4.023   2.128   4.451
10750SOL    HW133149   4.038   2.061   4.524
10750SOL    HW233150   4.108   2.143   4.401
10751SOL     OW33151   6.414   6.089   4.382
10751SOL    HW133152   6.406   5.991   4.364
10751SOL    HW233153   6.397   6.107   4.479
10752SOL     OW33154   6.749   6.528   0.287
10752SOL    HW133155   6.668   6.582   0.307
10752SOL    HW233156   6.830   6.576   0.321
10753SOL     OW33157   5.135   6.855   5.295
10753SOL    HW133158   5.058   6.874   5.357
10753SOL    HW233159   5.180   6.770   5.323
10754SOL     OW33160   1.257   5.142   2.039
10754SOL    HW133161   1.189   5.070   2.051
10754SOL    HW233162   1.321   5.116   1.967
10755SOL     OW33163   0.411   2.069   1.677
10755SOL    HW133164   0.418   2.084   1.776
10755SOL    HW233165   0.460   1.985   1.653
10756SOL     OW33166   1.216   0.318   0.222
10756SOL    HW133167   1.136   0.303   0.164
10756SOL    HW233168   1.277   0.239   0.215
10757SOL     OW33169   0.300   2.913   2.351
10757SOL    HW133170   0.352   2.891   2.433
10757SOL    HW233171   0.277   3.011   2.352
10758SOL     OW33172   0.948   0.831   0.132
10758SOL    HW133173   1.019   0.766   0.106
10758SOL    HW233174   0.991   0.915   0.166
10759SOL     OW33175   3.093   3.120   5.050
10759SOL    HW133176   3.120   3.088   4.960
10759SOL    HW233177   3.055   3.044   5.103
10760SOL     OW33178   0.661   5.039   6.877
10760SOL    HW133179   0.569   5.017   6.846
10760SOL    HW233180   0.704   4.958   6.918
10761SOL     OW33181   1.256   1.820   5.871
10761SOL    HW133182   1.175   1.854   5.920
10761SOL    HW233183   1.336   1.875   5.897
10762SOL     OW33184   2.085   5.618   6.883
10762SOL    HW133185   2.117   5.523   6.879
10762SOL    HW233186   2.159   5.678   6.854
10763SOL     OW33187   4.543   0.736   2.891
10763SOL    HW133188   4.504   0.757   2.981
10763SOL    HW233189   4.606   0.659   2.900
10764SOL     OW33190   5.021   6.166   4.598
10764SOL    HW133191   5.081   6.089   4.577
10764SOL    HW233192   4.930   6.149   4.562
10765SOL     OW33193   1.092   2.187   1.086
10765SOL    HW133194   1.177   2.171   1.037
10765SOL    HW233195   1.108   2.249   1.163
10766SOL     OW33196   2.608   5.311   6.209
10766SOL    HW133197   2.597   5.252   6.289
10766SOL    HW233198   2.601   5.407   6.236
10767SOL     OW33199   1.773   4.521   6.936
10767SOL    HW133200   1.852   4.565   6.893
10767SOL    HW233201   1.803   4.442   6.989
10768SOL     OW33202   5.493   6.329   6.659
10768SOL    HW133203   5.573   6.350   6.602
10768SOL    HW233204   5.477   6.404   6.722
10769SOL     OW33205   2.965   3.263   4.445
10769SOL    HW133206   3.017   3.191   4.490
10769SOL    HW233207   2.993   3.270   4.349
10770SOL     OW33208   5.787   0.207   3.133
10770SOL    HW133209   5.698   0.179   3.170
10770SOL    HW233210   5.774   0.286   3.073
10771SOL     OW33211   4.923   5.950   5.695
10771SOL    HW133212   4.990   6.024   5.687
10771SOL    HW233213   4.839   5.976   5.647
10772SOL     OW33214   5.604   5.352   2.551
10772SOL    HW133215   5.527   5.362   2.614
10772SOL    HW233216   5.611   5.257   2.521
10773SOL     OW33217   0.699   3.610   0.651
10773SOL    HW133218   0.750   3.648   0.729
10773SOL    HW233219   0.655   3.525   0.680
10774SOL     OW33220   1.042   3.036   0.840
10774SOL    HW133221   1.030   3.136   0.838
10774SOL    HW233222   0.952   2.992   0.838
10775SOL     OW33223   2.211   3.805   0.428
10775SOL    HW133224   2.150   3.726   0.438
10775SOL    HW233225   2.184   3.859   0.348
10776SOL     OW33226   0.832   3.351   3.345
10776SOL    HW133227   0.835   3.280   3.416
10776SOL    HW233228   0.745   3.399   3.349
10777SOL     OW33229   1.455   6.925   0.951
10777SOL    HW133230   1.499   7.013   0.971
10777SOL    HW233231   1.496   6.886   0.868
10778SOL     OW33232   4.659   0.085   3.120
10778SOL    HW133233   4.692   0.135   3.200
10778SOL    HW233234   4.598   0.011   3.149
10779SOL     OW33235   5.873   3.104   5.923
10779SOL    HW133236   5.790   3.151   5.894
10779SOL    HW233237   5.889   3.121   6.020
10780SOL     OW33238   2.064   5.304   4.727
10780SOL    HW133239   2.036   5.307   4.631
10780SOL    HW233240   2.162   5.322   4.734
10781SOL     OW33241   5.548   2.173   5.282
10781SOL    HW133242   5.614   2.221   5.340
10781SOL    HW233243   5.544   2.077   5.307
10782SOL     OW33244   0.929   2.637   5.289
10782SOL    HW133245   0.914   2.642   5.190
10782SOL    HW233246   0.848   2.598   5.334
10783SOL     OW33247   1.499   3.172   3.883
10783SOL    HW133248   1.556   3.150   3.962
10783SOL    HW233249   1.504   3.098   3.816
10784SOL     OW33250   4.284   5.395   3.788
10784SOL    HW133251   4.256   5.424   3.879
10784SOL    HW233252   4.302   5.475   3.731
10785SOL     OW33253   1.941   5.408   1.577
10785SOL    HW133254   2.034   5.423   1.546
10785SOL    HW233255   1.935   5.319   1.623
10786SOL     OW33256   4.861   1.720   2.141
10786SOL    HW133257   4.861   1.630   2.184
10786SOL    HW233258   4.936   1.727   2.076
10787SOL     OW33259   3.725   2.035   3.856
10787SOL    HW133260   3.680   2.009   3.771
10787SOL    HW233261   3.817   2.067   3.836
10788SOL     OW33262   2.138   3.541   0.348
10788SOL    HW133263   2.075   3.545   0.425
10788SOL    HW233264   2.120   3.619   0.287
10789SOL     OW33265   0.020   1.139   2.101
10789SOL    HW133266   0.024   1.235   2.073
10789SOL    HW233267   0.109   1.095   2.084
10790SOL     OW33268   6.812   2.087   5.572
10790SOL    HW133269   6.792   2.118   5.478
10790SOL    HW233270   6.842   1.992   5.570
10791SOL     OW33271   1.644   2.055   3.781
10791SOL    HW133272   1.547   2.053   3.803
10791SOL    HW233273   1.682   2.145   3.805
10792SOL     OW33274   3.744   1.437   2.158
10792SOL    HW133275   3.737   1.408   2.254
10792SOL    HW233276   3.819   1.503   2.149
10793SOL     OW33277   3.358   2.045   4.740
10793SOL    HW133278   3.287   2.113   4.726
10793SOL    HW233279   3.317   1.958   4.768
10794SOL     OW33280   5.335   1.914   0.279
10794SOL    HW133281   5.272   1.992   0.284
10794SOL    HW233282   5.358   1.896   0.183
10795SOL     OW33283   6.807   3.547   3.066
10795SOL    HW133284   6.863   3.605   3.007
10795SOL    HW233285   6.857   3.463   3.088
10796SOL     OW33286   0.158   1.353   6.206
10796SOL    HW133287   0.068   1.310   6.205
10796SOL    HW233288   0.209   1.322   6.287
10797SOL     OW33289   4.560   4.373   0.176
10797SOL    HW133290   4.650   4.353   0.138
10797SOL    HW233291   4.568   4.450   0.240
10798SOL     OW33292   2.323   6.316   6.928
10798SOL    HW133293   2.259   6.388   6.955
10798SOL    HW233294   2.417   6.347   6.946
10799SOL     OW33295   3.293   0.825   3.018
10799SOL    HW133296   3.294   0.924   3.030
10799SOL    HW233297   3.209   0.798   2.971
10800SOL     OW33298   1.869   6.879   5.241
10800SOL    HW133299   1.880   6.977   5.221
10800SOL    HW233300   1.897   6.826   5.162
10801SOL     OW33301   2.642   6.367   6.678
10801SOL    HW133302   2.591   6.365   6.764
10801SOL    HW233303   2.620   6.452   6.629
10802SOL     OW33304   0.419   4.993   4.310
10802SOL    HW133305   0.365   5.064   4.264
10802SOL    HW233306   0.510   4.989   4.271
10803SOL     OW33307   0.214   4.703   3.931
10803SOL    HW133308   0.268   4.661   3.857
10803SOL    HW233309   0.234   4.656   4.017
10804SOL     OW33310   4.903   4.598   1.163
10804SOL    HW133311   4.958   4.515   1.176
10804SOL    HW233312   4.842   4.608   1.241
10805SOL     OW33313   3.881   6.046   0.611
10805SOL    HW133314   3.929   6.050   0.524
10805SOL    HW233315   3.798   5.991   0.601
10806SOL     OW33316   5.559   3.916   6.535
10806SOL    HW133317   5.542   3.832   6.484
10806SOL    HW233318   5.591   3.987   6.472
10807SOL     OW33319   4.280   1.827   4.448
10807SOL    HW133320   4.206   1.811   4.382
10807SOL    HW233321   4.367   1.804   4.406
10808SOL     OW33322   0.602   2.086   0.399
10808SOL    HW133323   0.563   2.166   0.443
10808SOL    HW233324   0.596   2.007   0.460
10809SOL     OW33325   2.589   1.170   2.575
10809SOL    HW133326   2.656   1.110   2.619
10809SOL    HW233327   2.601   1.263   2.608
10810SOL     OW33328   1.804   1.031   6.496
10810SOL    HW133329   1.868   1.060   6.425
10810SOL    HW233330   1.737   0.968   6.457
10811SOL     OW33331   4.532   5.144   6.594
10811SOL    HW133332   4.567   5.099   6.512
10811SOL    HW233333   4.513   5.075   6.664
10812SOL     OW33334   6.388   2.751   2.159
10812SOL    HW133335   6.430   2.756   2.249
10812SOL    HW233336   6.396   2.658   2.122
10813SOL     OW33337   3.436   5.497   2.909
10813SOL    HW133338   3.395   5.468   2.995
10813SOL    HW233339   3.417   5.429   2.838
10814SOL     OW33340   1.772   5.465   4.482
10814SOL    HW133341   1.722   5.456   4.396
10814SOL    HW233342   1.714   5.508   4.551
10815SOL     OW33343   4.672   1.819   4.903
10815SOL    HW133344   4.613   1.779   4.973
10815SOL    HW233345   4.645   1.914   4.887
10816SOL     OW33346   2.390   2.186   1.645
10816SOL    HW133347   2.416   2.282   1.636
10816SOL    HW233348   2.416   2.153   1.736
10817SOL     OW33349   4.286   0.684   1.794
10817SOL    HW133350   4.332   0.662   1.880
10817SOL    HW233351   4.263   0.600   1.746
10818SOL     OW33352   4.110   2.697   7.017
10818SOL    HW133353   4.136   2.649   6.934
10818SOL    HW233354   4.032   2.650   0.042
10819SOL     OW33355   0.969   3.591   5.315
10819SOL    HW133356   0.970   3.548   5.406
10819SOL    HW233357   0.918   3.676   5.319
10820SOL     OW33358   0.331   6.740   4.748
10820SOL    HW133359   0.312   6.838   4.752
10820SOL    HW233360   0.392   6.715   4.824
10821SOL     OW33361   0.367   0.510   0.717
10821SOL    HW133362   0.414   0.430   0.679
10821SOL    HW233363   0.430   0.588   0.721
10822SOL     OW33364   0.435   4.094   6.849
10822SOL    HW133365   0.404   4.165   6.912
10822SOL    HW233366   0.482   4.136   6.772
10823SOL     OW33367   2.042   2.174   1.301
10823SOL    HW133368   2.099   2.217   1.231
10823SOL    HW233369   2.073   2.079   1.315
10824SOL     OW33370   5.112   0.699   3.687
10824SOL    HW133371   5.151   0.645   3.761
10824SOL    HW233372   5.023   0.660   3.661
10825SOL     OW33373   3.464   0.823   2.252
10825SOL    HW133374   3.421   0.833   2.341
10825SOL    HW233375   3.512   0.735   2.247
10826SOL     OW33376   6.698   3.042   1.257
10826SOL    HW133377   6.690   3.126   1.203
10826SOL    HW233378   6.790   3.036   1.296
10827SOL     OW33379   1.165   3.032   4.234
10827SOL    HW133380   1.155   2.990   4.144
10827SOL    HW233381   1.076   3.065   4.264
10828SOL     OW33382   2.021   5.564   0.378
10828SOL    HW133383   1.962   5.484   0.372
10828SOL    HW233384   2.102   5.551   0.320
10829SOL     OW33385   1.925   3.590   1.634
10829SOL    HW133386   1.986   3.583   1.713
10829SOL    HW233387   1.884   3.681   1.631
10830SOL     OW33388   5.626   0.756   3.646
10830SOL    HW133389   5.623   0.662   3.611
10830SOL    HW233390   5.536   0.798   3.638
10831SOL     OW33391   5.601   3.040   2.468
10831SOL    HW133392   5.518   2.984   2.473
10831SOL    HW233393   5.575   3.137   2.468
10832SOL     OW33394   0.602   3.746   3.017
10832SOL    HW133395   0.667   3.696   2.959
10832SOL    HW233396   0.515   3.757   2.969
10833SOL     OW33397   2.878   6.645   3.976
10833SOL    HW133398   2.882   6.715   4.047
10833SOL    HW233399   2.957   6.654   3.916
10834SOL     OW33400   6.772   1.170   5.455
10834SOL    HW133401   6.859   1.122   5.469
10834SOL    HW233402   6.714   1.116   5.393
10835SOL     OW33403   0.254   2.740   1.604
10835SOL    HW133404   0.183   2.681   1.566
10835SOL    HW233405   0.309   2.777   1.529
10836SOL     OW33406   1.695   2.730   0.659
10836SOL    HW133407   1.693   2.648   0.601
10836SOL    HW233408   1.623   2.723   0.728
10837SOL     OW33409   0.911   5.895   1.192
10837SOL    HW133410   0.881   5.947   1.272
10837SOL    HW233411   1.009   5.908   1.179
10838SOL     OW33412   6.351   6.578   0.128
10838SOL    HW133413   6.424   6.614   0.187
10838SOL    HW233414   6.273   6.552   0.184
10839SOL     OW33415   1.387   1.437   6.824
10839SOL    HW133416   1.301   1.473   6.860
10839SOL    HW233417   1.429   1.505   6.763
10840SOL     OW33418   2.909   6.700   2.603
10840SOL    HW133419   2.918   6.788   2.556
10840SOL    HW233420   2.908   6.627   2.536
10841SOL     OW33421   5.060   2.959   0.231
10841SOL    HW133422   5.146   3.009   0.239
10841SOL    HW233423   4.993   2.998   0.293
10842SOL     OW33424   6.026   2.703   1.239
10842SOL    HW133425   6.025   2.613   1.282
10842SOL    HW233426   6.035   2.774   1.309
10843SOL     OW33427   0.424   1.603   1.474
10843SOL    HW133428   0.456   1.641   1.560
10843SOL    HW233429   0.427   1.674   1.403
10844SOL     OW33430   4.119   0.539   3.107
10844SOL    HW133431   4.097   0.488   3.024
10844SOL    HW233432   4.062   0.622   3.111
10845SOL     OW33433   2.239   3.023   0.624
10845SOL    HW133434   2.155   3.037   0.676
10845SOL    HW233435   2.239   2.931   0.585
10846SOL     OW33436   3.363   1.750   1.108
10846SOL    HW133437   3.413   1.736   1.193
10846SOL    HW233438   3.314   1.837   1.112
10847SOL     OW33439   4.876   2.808   5.416
10847SOL    HW133440   4.818   2.743   5.367
10847SOL    HW233441   4.946   2.758   5.468
10848SOL     OW33442   1.338   0.545   6.682
10848SOL    HW133443   1.304   0.619   6.624
10848SOL    HW233444   1.436   0.531   6.666
10849SOL     OW33445   2.160   5.208   3.931
10849SOL    HW133446   2.163   5.122   3.982
10849SOL    HW233447   2.094   5.200   3.856
10850SOL     OW33448   5.870   0.474   1.807
10850SOL    HW133449   5.891   0.562   1.849
10850SOL    HW233450   5.867   0.484   1.708
10851SOL     OW33451   4.768   2.139   6.912
10851SOL    HW133452   4.692   2.093   6.958
10851SOL    HW233453   4.819   2.073   6.858
10852SOL     OW33454   6.738   0.522   6.191
10852SOL    HW133455   6.771   0.612   6.162
10852SOL    HW233456   6.783   0.451   6.138
10853SOL     OW33457   2.406   0.634   4.503
10853SOL    HW133458   2.440   0.708   4.561
10853SOL    HW233459   2.441   0.646   4.410
10854SOL     OW33460   0.034   0.626   0.878
10854SOL    HW133461   6.972   0.569   0.860
10854SOL    HW233462   0.112   0.567   0.900
10855SOL     OW33463   6.823   5.399   1.350
10855SOL    HW133464   6.863   5.415   1.440
10855SOL    HW233465   6.823   5.301   1.331
10856SOL     OW33466   5.313   6.941   6.592
10856SOL    HW133467   5.274   6.941   6.500
10856SOL    HW233468   5.307   0.016   6.630
10857SOL     OW33469   6.565   0.194   4.632
10857SOL    HW133470   6.602   0.287   4.628
10857SOL    HW233471   6.600   0.147   4.713
10858SOL     OW33472   1.917   2.092   0.472
10858SOL    HW133473   1.831   2.141   0.476
10858SOL    HW233474   1.941   2.059   0.563
10859SOL     OW33475   1.522   5.136   2.478
10859SOL    HW133476   1.552   5.181   2.562
10859SOL    HW233477   1.601   5.116   2.421
10860SOL     OW33478   6.130   2.494   1.557
10860SOL    HW133479   6.221   2.454   1.548
10860SOL    HW233480   6.080   2.485   1.471
10861SOL     OW33481   1.794   3.822   1.605
10861SOL    HW133482   1.749   3.867   1.682
10861SOL    HW233483   1.837   3.891   1.546
10862SOL     OW33484   3.529   4.471   5.440
10862SOL    HW133485   3.476   4.426   5.367
10862SOL    HW233486   3.606   4.412   5.465
10863SOL     OW33487   2.031   0.527   3.237
10863SOL    HW133488   2.125   0.545   3.208
10863SOL    HW233489   1.978   0.493   3.159
10864SOL     OW33490   3.009   3.761   1.961
10864SOL    HW133491   3.013   3.859   1.984
10864SOL    HW233492   3.085   3.714   2.004
10865SOL     OW33493   3.346   1.651   2.643
10865SOL    HW133494   3.288   1.730   2.623
10865SOL    HW233495   3.297   1.567   2.621
10866SOL     OW33496   1.102   3.557   3.894
10866SOL    HW133497   1.077   3.652   3.876
10866SOL    HW233498   1.039   3.497   3.844
10867SOL     OW33499   4.352   2.815   0.071
10867SOL    HW133500   4.358   2.897   0.015
10867SOL    HW233501   4.276   2.758   0.039
10868SOL     OW33502   1.300   6.581   5.070
10868SOL    HW133503   1.395   6.611   5.068
10868SOL    HW233504   1.240   6.661   5.077
10869NA      NA33505   6.834   1.254   6.400
10870NA      NA33506   4.391   4.719   5.394
10871NA      NA33507   0.941   4.855   2.858
10872NA      NA33508   5.671   3.670   3.130
10873NA      NA33509   3.718   2.817   5.605
10874NA      NA33510   2.473   4.801   6.997
10875NA      NA33511   1.741   5.447   6.873
10876NA      NA33512   4.190   4.920   1.476
10877NA      NA33513   4.953   4.405   0.669
10878NA      NA33514   3.400   1.486   0.655
10879NA      NA33515   5.566   6.941   1.567
10880NA      NA33516   2.299   6.631   5.144
10881NA      NA33517   4.377   4.826   2.804
10882NA      NA33518   4.361   3.938   6.624
   7.01822   7.01822   7.01822
