Generated by trjconv : CNT in water t= 372.00000
33518
    1C        C    1   2.836   2.764   4.741
    1C        C    2   2.890   2.713   4.861
    1C        C    3   2.834   2.763   4.980
    1C        C    4   2.842   2.772   4.253
    1C        C    5   2.892   2.722   4.376
    1C        C    6   2.837   2.767   4.498
    1C        C    7   3.003   2.634   4.620
    1C        C    8   2.886   2.714   4.619
    1C        C    9   3.071   2.600   4.739
    1C        C   10   3.001   2.626   4.859
    1C        C   11   3.177   2.498   4.972
    1C        C   12   3.051   2.560   4.972
    1C        C   13   2.841   2.764   3.767
    1C        C   14   2.892   2.715   3.889
    1C        C   15   2.843   2.767   4.011
    1C        C   16   3.012   2.639   4.134
    1C        C   17   2.899   2.723   4.133
    1C        C   18   3.073   2.604   4.257
    1C        C   19   3.012   2.648   4.377
    1C        C   20   3.202   2.554   4.499
    1C        C   21   3.070   2.604   4.499
    1C        C   22   3.270   2.527   4.620
    1C        C   23   3.204   2.551   4.742
    1C        C   24   3.407   2.480   4.858
    1C        C   25   3.266   2.501   4.860
    1C        C   26   3.484   2.480   4.976
    1C        C   27   2.849   2.768   3.274
    1C        C   28   2.901   2.723   3.398
    1C        C   29   2.849   2.771   3.520
    1C        C   30   3.016   2.646   3.645
    1C        C   31   2.899   2.724   3.644
    1C        C   32   3.073   2.605   3.767
    1C        C   33   3.009   2.636   3.889
    1C        C   34   3.201   2.546   4.013
    1C        C   35   3.071   2.602   4.011
    1C        C   36   3.271   2.530   4.135
    1C        C   37   3.205   2.553   4.257
    1C        C   38   3.412   2.503   4.376
    1C        C   39   3.273   2.533   4.379
    1C        C   40   3.482   2.492   4.498
    1C        C   41   3.407   2.494   4.618
    1C        C   42   3.625   2.482   4.739
    1C        C   43   3.482   2.483   4.738
    1C        C   44   3.700   2.491   4.859
    1C        C   45   3.623   2.482   4.976
    1C        C   46   2.838   2.752   2.787
    1C        C   47   2.893   2.708   2.910
    1C        C   48   2.844   2.762   3.031
    1C        C   49   3.012   2.633   3.156
    1C        C   50   2.896   2.713   3.153
    1C        C   51   3.075   2.600   3.278
    1C        C   52   3.015   2.641   3.400
    1C        C   53   3.204   2.546   3.524
    1C        C   54   3.077   2.609   3.523
    1C        C   55   3.271   2.525   3.647
    1C        C   56   3.203   2.548   3.768
    1C        C   57   3.409   2.504   3.890
    1C        C   58   3.270   2.527   3.891
    1C        C   59   3.481   2.499   4.012
    1C        C   60   3.410   2.504   4.134
    1C        C   61   3.624   2.504   4.258
    1C        C   62   3.483   2.503   4.254
    1C        C   63   3.697   2.511   4.379
    1C        C   64   3.623   2.497   4.498
    1C        C   65   3.831   2.542   4.617
    1C        C   66   3.696   2.500   4.619
    1C        C   67   3.900   2.562   4.738
    1C        C   68   3.837   2.525   4.859
    1C        C   69   4.045   2.582   4.974
    1C        C   70   3.916   2.527   4.974
    1C        C   71   2.816   2.730   2.302
    1C        C   72   2.879   2.690   2.423
    1C        C   73   2.825   2.738   2.544
    1C        C   74   3.006   2.626   2.668
    1C        C   75   2.885   2.699   2.665
    1C        C   76   3.072   2.594   2.789
    1C        C   77   3.009   2.628   2.911
    1C        C   78   3.204   2.543   3.033
    1C        C   79   3.072   2.595   3.034
    1C        C   80   3.272   2.528   3.156
    1C        C   81   3.205   2.545   3.279
    1C        C   82   3.409   2.495   3.397
    1C        C   83   3.271   2.522   3.402
    1C        C   84   3.479   2.492   3.520
    1C        C   85   3.411   2.503   3.643
    1C        C   86   3.620   2.497   3.768
    1C        C   87   3.479   2.497   3.767
    1C        C   88   3.693   2.502   3.888
    1C        C   89   3.622   2.500   4.011
    1C        C   90   3.829   2.543   4.132
    1C        C   91   3.691   2.510   4.133
    1C        C   92   3.898   2.566   4.253
    1C        C   93   3.833   2.547   4.377
    1C        C   94   4.025   2.638   4.496
    1C        C   95   3.902   2.569   4.498
    1C        C   96   4.087   2.671   4.618
    1C        C   97   4.025   2.629   4.738
    1C        C   98   4.189   2.762   4.856
    1C        C   99   4.093   2.656   4.860
    1C        C  100   4.204   2.841   4.971
    1C        C  101   2.820   2.730   2.065
    1C        C  102   2.984   2.587   2.189
    1C        C  103   2.869   2.672   2.183
    1C        C  104   3.060   2.570   2.308
    1C        C  105   2.999   2.615   2.427
    1C        C  106   3.198   2.535   2.546
    1C        C  107   3.069   2.592   2.547
    1C        C  108   3.268   2.513   2.667
    1C        C  109   3.200   2.535   2.788
    1C        C  110   3.407   2.493   2.913
    1C        C  111   3.268   2.515   2.910
    1C        C  112   3.482   2.486   3.033
    1C        C  113   3.409   2.494   3.154
    1C        C  114   3.622   2.490   3.277
    1C        C  115   3.481   2.484   3.276
    1C        C  116   3.692   2.499   3.400
    1C        C  117   3.620   2.495   3.521
    1C        C  118   3.826   2.537   3.644
    1C        C  119   3.689   2.503   3.645
    1C        C  120   3.894   2.562   3.765
    1C        C  121   3.829   2.540   3.889
    1C        C  122   4.023   2.628   4.010
    1C        C  123   3.896   2.566   4.010
    1C        C  124   4.086   2.665   4.131
    1C        C  125   4.025   2.629   4.252
    1C        C  126   4.194   2.764   4.372
    1C        C  127   4.082   2.677   4.372
    1C        C  128   4.243   2.814   4.495
    1C        C  129   4.194   2.764   4.617
    1C        C  130   4.332   2.930   4.737
    1C        C  131   4.243   2.818   4.737
    1C        C  132   4.359   2.997   4.858
    1C        C  133   4.288   2.952   4.969
    1C        C  134   3.169   2.465   2.080
    1C        C  135   3.036   2.509   2.080
    1C        C  136   3.259   2.480   2.187
    1C        C  137   3.193   2.518   2.306
    1C        C  138   3.403   2.471   2.422
    1C        C  139   3.265   2.500   2.426
    1C        C  140   3.475   2.471   2.544
    1C        C  141   3.407   2.487   2.667
    1C        C  142   3.617   2.485   2.787
    1C        C  143   3.476   2.484   2.790
    1C        C  144   3.690   2.488   2.907
    1C        C  145   3.623   2.486   3.032
    1C        C  146   3.830   2.525   3.154
    1C        C  147   3.691   2.500   3.155
    1C        C  148   3.896   2.553   3.276
    1C        C  149   3.829   2.531   3.399
    1C        C  150   4.019   2.622   3.519
    1C        C  151   3.895   2.556   3.521
    1C        C  152   4.074   2.667   3.642
    1C        C  153   4.017   2.632   3.766
    1C        C  154   4.187   2.760   3.884
    1C        C  155   4.078   2.671   3.887
    1C        C  156   4.240   2.810   4.006
    1C        C  157   4.194   2.757   4.128
    1C        C  158   4.340   2.914   4.247
    1C        C  159   4.247   2.807   4.249
    1C        C  160   4.374   2.979   4.368
    1C        C  161   4.327   2.928   4.491
    1C        C  162   4.435   3.110   4.611
    1C        C  163   4.369   2.985   4.613
    1C        C  164   4.459   3.181   4.730
    1C        C  165   4.432   3.119   4.854
    1C        C  166   4.512   3.316   4.967
    1C        C  167   4.477   3.182   4.970
    1C        C  168   3.475   2.429   2.066
    1C        C  169   3.396   2.447   2.181
    1C        C  170   3.613   2.460   2.303
    1C        C  171   3.471   2.455   2.300
    1C        C  172   3.688   2.476   2.422
    1C        C  173   3.616   2.477   2.543
    1C        C  174   3.824   2.527   2.662
    1C        C  175   3.687   2.494   2.664
    1C        C  176   3.891   2.550   2.785
    1C        C  177   3.827   2.523   2.908
    1C        C  178   4.016   2.619   3.028
    1C        C  179   3.894   2.547   3.030
    1C        C  180   4.078   2.655   3.149
    1C        C  181   4.022   2.618   3.273
    1C        C  182   4.186   2.750   3.394
    1C        C  183   4.080   2.657   3.396
    1C        C  184   4.235   2.804   3.515
    1C        C  185   4.186   2.753   3.638
    1C        C  186   4.332   2.908   3.757
    1C        C  187   4.239   2.802   3.759
    1C        C  188   4.372   2.970   3.877
    1C        C  189   4.331   2.917   4.002
    1C        C  190   4.439   3.100   4.122
    1C        C  191   4.374   2.975   4.124
    1C        C  192   4.465   3.167   4.244
    1C        C  193   4.441   3.103   4.367
    1C        C  194   4.507   3.307   4.488
    1C        C  195   4.466   3.172   4.488
    1C        C  196   4.517   3.383   4.607
    1C        C  197   4.504   3.316   4.731
    1C        C  198   4.553   3.531   4.846
    1C        C  199   4.526   3.391   4.850
    1C        C  200   4.581   3.617   4.957
    1C        C  201   3.614   2.414   2.069
    1C        C  202   3.823   2.509   2.175
    1C        C  203   3.689   2.458   2.183
    1C        C  204   3.893   2.534   2.296
    1C        C  205   3.824   2.513   2.418
    1C        C  206   4.014   2.613   2.539
    1C        C  207   3.889   2.547   2.538
    1C        C  208   4.074   2.655   2.659
    1C        C  209   4.014   2.620   2.782
    1C        C  210   4.182   2.747   2.902
    1C        C  211   4.071   2.660   2.904
    1C        C  212   4.233   2.796   3.024
    1C        C  213   4.189   2.743   3.148
    1C        C  214   4.326   2.904   3.268
    1C        C  215   4.238   2.794   3.270
    1C        C  216   4.363   2.968   3.389
    1C        C  217   4.324   2.913   3.513
    1C        C  218   4.426   3.099   3.633
    1C        C  219   4.367   2.970   3.635
    1C        C  220   4.453   3.165   3.755
    1C        C  221   4.430   3.099   3.877
    1C        C  222   4.494   3.302   4.000
    1C        C  223   4.461   3.165   3.999
    1C        C  224   4.507   3.374   4.121
    1C        C  225   4.499   3.304   4.243
    1C        C  226   4.504   3.517   4.363
    1C        C  227   4.509   3.376   4.365
    1C        C  228   4.510   3.591   4.483
    1C        C  229   4.526   3.524   4.606
    1C        C  230   4.497   3.738   4.723
    1C        C  231   4.537   3.602   4.723
    1C        C  232   4.489   3.817   4.840
    1C        C  233   4.539   3.750   4.953
    1C        C  234   4.014   2.601   2.061
    1C        C  235   3.890   2.539   2.056
    1C        C  236   4.084   2.639   2.177
    1C        C  237   4.017   2.603   2.296
    1C        C  238   4.193   2.728   2.416
    1C        C  239   4.079   2.642   2.417
    1C        C  240   4.242   2.783   2.536
    1C        C  241   4.187   2.740   2.659
    1C        C  242   4.331   2.899   2.778
    1C        C  243   4.239   2.791   2.780
    1C        C  244   4.369   2.959   2.900
    1C        C  245   4.323   2.905   3.023
    1C        C  246   4.432   3.086   3.142
    1C        C  247   4.365   2.961   3.145
    1C        C  248   4.454   3.155   3.263
    1C        C  249   4.424   3.096   3.388
    1C        C  250   4.493   3.297   3.508
    1C        C  251   4.447   3.164   3.510
    1C        C  252   4.506   3.368   3.630
    1C        C  253   4.492   3.301   3.754
    1C        C  254   4.515   3.510   3.873
    1C        C  255   4.506   3.369   3.876
    1C        C  256   4.510   3.584   3.994
    1C        C  257   4.505   3.515   4.117
    1C        C  258   4.485   3.726   4.236
    1C        C  259   4.504   3.586   4.240
    1C        C  260   4.467   3.796   4.358
    1C        C  261   4.484   3.730   4.482
    1C        C  262   4.418   3.935   4.598
    1C        C  263   4.468   3.804   4.601
    1C        C  264   4.397   4.007   4.718
    1C        C  265   4.432   3.946   4.841
    1C        C  266   4.313   4.124   4.957
    1C        C  267   4.390   4.009   4.959
    1C        C  268   4.254   2.774   2.057
    1C        C  269   4.194   2.727   2.174
    1C        C  270   4.338   2.887   2.297
    1C        C  271   4.245   2.779   2.295
    1C        C  272   4.377   2.952   2.416
    1C        C  273   4.330   2.893   2.536
    1C        C  274   4.441   3.079   2.656
    1C        C  275   4.372   2.956   2.655
    1C        C  276   4.466   3.149   2.776
    1C        C  277   4.433   3.084   2.897
    1C        C  278   4.491   3.287   3.019
    1C        C  279   4.461   3.149   3.020
    1C        C  280   4.499   3.359   3.141
    1C        C  281   4.487   3.292   3.265
    1C        C  282   4.512   3.506   3.383
    1C        C  283   4.506   3.365   3.385
    1C        C  284   4.509   3.578   3.504
    1C        C  285   4.510   3.509   3.628
    1C        C  286   4.486   3.719   3.748
    1C        C  287   4.509   3.579   3.750
    1C        C  288   4.473   3.790   3.869
    1C        C  289   4.489   3.724   3.993
    1C        C  290   4.424   3.928   4.114
    1C        C  291   4.472   3.795   4.114
    1C        C  292   4.391   3.992   4.235
    1C        C  293   4.418   3.928   4.358
    1C        C  294   4.316   4.121   4.475
    1C        C  295   4.387   3.999   4.476
    1C        C  296   4.276   4.180   4.597
    1C        C  297   4.317   4.124   4.720
    1C        C  298   4.194   4.307   4.837
    1C        C  299   4.276   4.190   4.839
    1C        C  300   4.162   4.395   4.945
    1C        C  301   4.346   2.878   2.056
    1C        C  302   4.460   3.062   2.171
    1C        C  303   4.391   2.937   2.175
    1C        C  304   4.476   3.139   2.290
    1C        C  305   4.446   3.075   2.413
    1C        C  306   4.501   3.282   2.532
    1C        C  307   4.468   3.144   2.534
    1C        C  308   4.511   3.358   2.651
    1C        C  309   4.496   3.287   2.772
    1C        C  310   4.521   3.495   2.895
    1C        C  311   4.506   3.354   2.896
    1C        C  312   4.515   3.569   3.016
    1C        C  313   4.510   3.499   3.138
    1C        C  314   4.485   3.713   3.261
    1C        C  315   4.508   3.574   3.259
    1C        C  316   4.465   3.784   3.382
    1C        C  317   4.486   3.718   3.505
    1C        C  318   4.424   3.922   3.624
    1C        C  319   4.467   3.787   3.626
    1C        C  320   4.395   3.986   3.746
    1C        C  321   4.422   3.922   3.869
    1C        C  322   4.317   4.107   3.987
    1C        C  323   4.395   3.989   3.990
    1C        C  324   4.276   4.165   4.109
    1C        C  325   4.321   4.115   4.233
    1C        C  326   4.179   4.280   4.351
    1C        C  327   4.278   4.179   4.352
    1C        C  328   4.133   4.338   4.472
    1C        C  329   4.186   4.289   4.594
    1C        C  330   4.024   4.434   4.710
    1C        C  331   4.137   4.346   4.713
    1C        C  332   3.969   4.492   4.827
    1C        C  333   4.052   4.481   4.939
    1C        C  334   4.540   3.265   2.058
    1C        C  335   4.523   3.126   2.060
    1C        C  336   4.534   3.347   2.172
    1C        C  337   4.508   3.277   2.291
    1C        C  338   4.515   3.494   2.408
    1C        C  339   4.510   3.353   2.411
    1C        C  340   4.511   3.569   2.528
    1C        C  341   4.512   3.499   2.650
    1C        C  342   4.494   3.707   2.771
    1C        C  343   4.516   3.567   2.774
    1C        C  344   4.472   3.776   2.892
    1C        C  345   4.493   3.708   3.014
    1C        C  346   4.421   3.909   3.135
    1C        C  347   4.472   3.777   3.136
    1C        C  348   4.387   3.975   3.254
    1C        C  349   4.422   3.918   3.378
    1C        C  350   4.319   4.103   3.500
    1C        C  351   4.397   3.985   3.500
    1C        C  352   4.272   4.161   3.621
    1C        C  353   4.317   4.104   3.742
    1C        C  354   4.174   4.261   3.863
    1C        C  355   4.274   4.161   3.864
    1C        C  356   4.119   4.309   3.984
    1C        C  357   4.173   4.262   4.106
    1C        C  358   4.004   4.392   4.226
    1C        C  359   4.122   4.314   4.227
    1C        C  360   3.949   4.439   4.347
    1C        C  361   4.015   4.414   4.469
    1C        C  362   3.826   4.515   4.589
    1C        C  363   3.957   4.462   4.589
    1C        C  364   3.759   4.543   4.710
    1C        C  365   3.838   4.544   4.826
    1C        C  366   3.626   4.596   4.945
    1C        C  367   3.762   4.569   4.941
    1C        C  368   4.503   3.563   2.052
    1C        C  369   4.520   3.487   2.169
    1C        C  370   4.505   3.706   2.281
    1C        C  371   4.519   3.565   2.286
    1C        C  372   4.486   3.776   2.402
    1C        C  373   4.501   3.710   2.525
    1C        C  374   4.423   3.905   2.645
    1C        C  375   4.478   3.776   2.648
    1C        C  376   4.390   3.970   2.766
    1C        C  377   4.423   3.908   2.889
    1C        C  378   4.319   4.092   3.010
    1C        C  379   4.393   3.972   3.012
    1C        C  380   4.274   4.150   3.131
    1C        C  381   4.312   4.095   3.256
    1C        C  382   4.174   4.255   3.372
    1C        C  383   4.273   4.155   3.378
    1C        C  384   4.119   4.302   3.494
    1C        C  385   4.171   4.259   3.618
    1C        C  386   4.005   4.389   3.737
    1C        C  387   4.119   4.306   3.741
    1C        C  388   3.939   4.424   3.857
    1C        C  389   4.001   4.386   3.979
    1C        C  390   3.814   4.481   4.105
    1C        C  391   3.943   4.422   4.102
    1C        C  392   3.747   4.511   4.226
    1C        C  393   3.822   4.501   4.346
    1C        C  394   3.615   4.545   4.471
    1C        C  395   3.754   4.525   4.468
    1C        C  396   3.544   4.563   4.592
    1C        C  397   3.619   4.561   4.712
    1C        C  398   3.407   4.554   4.835
    1C        C  399   3.545   4.580   4.831
    1C        C  400   3.340   4.504   4.948
    1C        C  401   4.497   3.701   2.044
    1C        C  402   4.461   3.916   2.162
    1C        C  403   4.495   3.779   2.161
    1C        C  404   4.415   3.976   2.282
    1C        C  405   4.441   3.910   2.403
    1C        C  406   4.324   4.092   2.522
    1C        C  407   4.397   3.971   2.523
    1C        C  408   4.271   4.143   2.643
    1C        C  409   4.312   4.088   2.766
    1C        C  410   4.172   4.246   2.885
    1C        C  411   4.271   4.145   2.888
    1C        C  412   4.117   4.292   3.007
    1C        C  413   4.171   4.247   3.130
    1C        C  414   3.999   4.377   3.251
    1C        C  415   4.116   4.298   3.250
    1C        C  416   3.936   4.410   3.373
    1C        C  417   4.002   4.381   3.495
    1C        C  418   3.809   4.473   3.616
    1C        C  419   3.940   4.419   3.616
    1C        C  420   3.741   4.498   3.737
    1C        C  421   3.807   4.475   3.860
    1C        C  422   3.607   4.529   3.981
    1C        C  423   3.745   4.502   3.984
    1C        C  424   3.539   4.538   4.105
    1C        C  425   3.608   4.537   4.228
    1C        C  426   3.398   4.542   4.352
    1C        C  427   3.540   4.547   4.351
    1C        C  428   3.330   4.539   4.476
    1C        C  429   3.403   4.558   4.595
    1C        C  430   3.191   4.522   4.719
    1C        C  431   3.330   4.551   4.716
    1C        C  432   3.120   4.496   4.839
    1C        C  433   3.202   4.493   4.953
    1C        C  434   4.383   4.121   2.051
    1C        C  435   4.444   3.995   2.048
    1C        C  436   4.300   4.160   2.161
    1C        C  437   4.331   4.091   2.282
    1C        C  438   4.179   4.247   2.397
    1C        C  439   4.282   4.150   2.401
    1C        C  440   4.121   4.291   2.518
    1C        C  441   4.171   4.243   2.642
    1C        C  442   3.996   4.364   2.763
    1C        C  443   4.117   4.291   2.763
    1C        C  444   3.935   4.399   2.885
    1C        C  445   4.001   4.373   3.007
    1C        C  446   3.808   4.467   3.127
    1C        C  447   3.937   4.409   3.128
    1C        C  448   3.740   4.488   3.249
    1C        C  449   3.805   4.463   3.371
    1C        C  450   3.602   4.521   3.493
    1C        C  451   3.740   4.491   3.494
    1C        C  452   3.533   4.531   3.615
    1C        C  453   3.603   4.527   3.738
    1C        C  454   3.392   4.546   3.861
    1C        C  455   3.534   4.539   3.861
    1C        C  456   3.328   4.534   3.986
    1C        C  457   3.398   4.542   4.108
    1C        C  458   3.189   4.506   4.232
    1C        C  459   3.327   4.536   4.230
    1C        C  460   3.126   4.483   4.356
    1C        C  461   3.192   4.510   4.478
    1C        C  462   2.997   4.426   4.600
    1C        C  463   3.123   4.491   4.599
    1C        C  464   2.931   4.394   4.720
    1C        C  465   2.985   4.448   4.840
    1C        C  466   2.801   4.331   4.956
    1C        C  467   2.899   4.430   4.953
    1C        C  468   4.117   4.276   2.035
    1C        C  469   4.181   4.238   2.154
    1C        C  470   4.001   4.362   2.276
    1C        C  471   4.122   4.286   2.275
    1C        C  472   3.933   4.391   2.396
    1C        C  473   3.999   4.362   2.518
    1C        C  474   3.809   4.457   2.641
    1C        C  475   3.936   4.396   2.639
    1C        C  476   3.739   4.486   2.761
    1C        C  477   3.806   4.458   2.881
    1C        C  478   3.601   4.509   3.007
    1C        C  479   3.740   4.483   3.004
    1C        C  480   3.530   4.526   3.128
    1C        C  481   3.602   4.519   3.249
    1C        C  482   3.390   4.534   3.372
    1C        C  483   3.531   4.532   3.371
    1C        C  484   3.322   4.533   3.495
    1C        C  485   3.392   4.536   3.618
    1C        C  486   3.183   4.503   3.741
    1C        C  487   3.320   4.537   3.740
    1C        C  488   3.121   4.480   3.866
    1C        C  489   3.190   4.503   3.987
    1C        C  490   2.996   4.419   4.109
    1C        C  491   3.123   4.483   4.110
    1C        C  492   2.937   4.386   4.233
    1C        C  493   2.997   4.424   4.355
    1C        C  494   2.829   4.298   4.478
    1C        C  495   2.937   4.389   4.478
    1C        C  496   2.775   4.250   4.600
    1C        C  497   2.822   4.303   4.722
    1C        C  498   2.664   4.159   4.841
    1C        C  499   2.753   4.268   4.840
    1C        C  500   2.600   4.112   4.957
    1C        C  501   3.998   4.348   2.037
    1C        C  502   3.814   4.460   2.155
    1C        C  503   3.941   4.399   2.154
    1C        C  504   3.741   4.476   2.274
    1C        C  505   3.804   4.447   2.397
    1C        C  506   3.600   4.499   2.518
    1C        C  507   3.739   4.475   2.520
    1C        C  508   3.528   4.511   2.639
    1C        C  509   3.599   4.509   2.761
    1C        C  510   3.390   4.520   2.884
    1C        C  511   3.531   4.518   2.885
    1C        C  512   3.317   4.516   3.006
    1C        C  513   3.389   4.532   3.126
    1C        C  514   3.183   4.494   3.252
    1C        C  515   3.320   4.528   3.249
    1C        C  516   3.116   4.474   3.375
    1C        C  517   3.185   4.497   3.496
    1C        C  518   2.995   4.407   3.622
    1C        C  519   3.118   4.477   3.618
    1C        C  520   2.935   4.372   3.745
    1C        C  521   2.997   4.414   3.866
    1C        C  522   2.833   4.281   3.992
    1C        C  523   2.939   4.374   3.988
    1C        C  524   2.787   4.232   4.116
    1C        C  525   2.831   4.293   4.235
    1C        C  526   2.695   4.130   4.360
    1C        C  527   2.781   4.242   4.358
    1C        C  528   2.658   4.071   4.483
    1C        C  529   2.691   4.136   4.604
    1C        C  530   2.575   3.956   4.727
    1C        C  531   2.638   4.084   4.724
    1C        C  532   2.540   3.896   4.850
    1C        C  533   2.534   3.989   4.959
    1C        C  534   3.616   4.548   2.037
    1C        C  535   3.751   4.509   2.039
    1C        C  536   3.533   4.536   2.153
    1C        C  537   3.601   4.502   2.273
    1C        C  538   3.389   4.510   2.397
    1C        C  539   3.531   4.509   2.396
    1C        C  540   3.318   4.501   2.518
    1C        C  541   3.387   4.505   2.641
    1C        C  542   3.177   4.487   2.760
    1C        C  543   3.317   4.509   2.764
    1C        C  544   3.114   4.460   2.884
    1C        C  545   3.181   4.480   3.007
    1C        C  546   2.990   4.400   3.131
    1C        C  547   3.115   4.467   3.131
    1C        C  548   2.934   4.364   3.256
    1C        C  549   2.992   4.406   3.378
    1C        C  550   2.827   4.275   3.502
    1C        C  551   2.936   4.365   3.501
    1C        C  552   2.775   4.227   3.625
    1C        C  553   2.829   4.279   3.745
    1C        C  554   2.701   4.115   3.871
    1C        C  555   2.785   4.229   3.869
    1C        C  556   2.666   4.056   3.995
    1C        C  557   2.703   4.118   4.116
    1C        C  558   2.596   3.940   4.242
    1C        C  559   2.666   4.062   4.240
    1C        C  560   2.565   3.876   4.364
    1C        C  561   2.589   3.948   4.484
    1C        C  562   2.523   3.748   4.610
    1C        C  563   2.555   3.886   4.606
    1C        C  564   2.508   3.677   4.732
    1C        C  565   2.517   3.755   4.850
    1C        C  566   2.534   3.542   4.971
    1C        C  567   2.529   3.681   4.969
    1C        C  568   3.323   4.468   2.040
    1C        C  569   3.393   4.511   2.154
    1C        C  570   3.181   4.470   2.278
    1C        C  571   3.319   4.507   2.275
    1C        C  572   3.108   4.452   2.398
    1C        C  573   3.179   4.476   2.518
    1C        C  574   2.981   4.400   2.643
    1C        C  575   3.109   4.460   2.640
    1C        C  576   2.925   4.359   2.766
    1C        C  577   2.990   4.393   2.887
    1C        C  578   2.825   4.264   3.013
    1C        C  579   2.931   4.358   3.010
    1C        C  580   2.776   4.215   3.137
    1C        C  581   2.828   4.271   3.256
    1C        C  582   2.699   4.107   3.382
    1C        C  583   2.782   4.222   3.380
    1C        C  584   2.660   4.048   3.505
    1C        C  585   2.691   4.114   3.626
    1C        C  586   2.594   3.930   3.753
    1C        C  587   2.657   4.056   3.751
    1C        C  588   2.568   3.864   3.876
    1C        C  589   2.604   3.929   3.996
    1C        C  590   2.531   3.735   4.124
    1C        C  591   2.575   3.870   4.121
    1C        C  592   2.520   3.666   4.246
    1C        C  593   2.532   3.739   4.367
    1C        C  594   2.512   3.531   4.493
    1C        C  595   2.520   3.672   4.491
    1C        C  596   2.517   3.460   4.615
    1C        C  597   2.514   3.535   4.735
    1C        C  598   2.531   3.322   4.856
    1C        C  599   2.521   3.463   4.856
    1C        C  600   2.527   3.246   4.974
    1C        C  601   3.188   4.441   2.041
    1C        C  602   2.978   4.388   2.154
    1C        C  603   3.112   4.437   2.159
    1C        C  604   2.921   4.353   2.280
    1C        C  605   2.982   4.390   2.402
    1C        C  606   2.810   4.267   2.526
    1C        C  607   2.918   4.358   2.524
    1C        C  608   2.761   4.219   2.649
    1C        C  609   2.815   4.270   2.769
    1C        C  610   2.683   4.105   2.892
    1C        C  611   2.772   4.215   2.892
    1C        C  612   2.647   4.049   3.016
    1C        C  613   2.687   4.106   3.139
    1C        C  614   2.589   3.921   3.262
    1C        C  615   2.657   4.045   3.262
    1C        C  616   2.562   3.861   3.387
    1C        C  617   2.589   3.926   3.509
    1C        C  618   2.528   3.726   3.631
    1C        C  619   2.564   3.862   3.633
    1C        C  620   2.518   3.659   3.756
    1C        C  621   2.531   3.728   3.878
    1C        C  622   2.503   3.522   4.009
    1C        C  623   2.517   3.663   4.003
    1C        C  624   2.501   3.451   4.132
    1C        C  625   2.509   3.526   4.252
    1C        C  626   2.521   3.314   4.375
    1C        C  627   2.510   3.455   4.374
    1C        C  628   2.545   3.246   4.496
    1C        C  629   2.532   3.319   4.616
    1C        C  630   2.585   3.111   4.738
    1C        C  631   2.545   3.248   4.737
    1C        C  632   2.611   3.043   4.859
    1C        C  633   2.555   3.109   4.973
    1C        C  634   2.773   4.305   2.052
    1C        C  635   2.890   4.382   2.042
    1C        C  636   2.742   4.226   2.164
    1C        C  637   2.807   4.269   2.282
    1C        C  638   2.676   4.103   2.405
    1C        C  639   2.759   4.218   2.404
    1C        C  640   2.638   4.042   2.527
    1C        C  641   2.674   4.107   2.647
    1C        C  642   2.586   3.917   2.774
    1C        C  643   2.642   4.046   2.770
    1C        C  644   2.565   3.851   2.897
    1C        C  645   2.587   3.921   3.018
    1C        C  646   2.524   3.718   3.142
    1C        C  647   2.564   3.854   3.140
    1C        C  648   2.512   3.651   3.266
    1C        C  649   2.529   3.724   3.386
    1C        C  650   2.513   3.514   3.516
    1C        C  651   2.517   3.655   3.509
    1C        C  652   2.509   3.447   3.640
    1C        C  653   2.511   3.518   3.762
    1C        C  654   2.531   3.312   3.887
    1C        C  655   2.511   3.452   3.887
    1C        C  656   2.545   3.243   4.010
    1C        C  657   2.525   3.312   4.132
    1C        C  658   2.597   3.114   4.254
    1C        C  659   2.536   3.241   4.254
    1C        C  660   2.617   3.045   4.376
    1C        C  661   2.573   3.107   4.495
    1C        C  662   2.697   2.932   4.619
    1C        C  663   2.614   3.046   4.616
    1C        C  664   2.744   2.873   4.738
    1C        C  665   2.697   2.929   4.860
    1C        C  666   2.740   2.865   4.978
    1C        C  667   2.675   4.021   2.046
    1C        C  668   2.683   4.098   2.163
    1C        C  669   2.590   3.906   2.284
    1C        C  670   2.644   4.037   2.284
    1C        C  671   2.558   3.844   2.407
    1C        C  672   2.584   3.912   2.528
    1C        C  673   2.513   3.716   2.656
    1C        C  674   2.558   3.850   2.652
    1C        C  675   2.501   3.646   2.778
    1C        C  676   2.520   3.717   2.899
    1C        C  677   2.501   3.506   3.024
    1C        C  678   2.507   3.647   3.021
    1C        C  679   2.501   3.437   3.147
    1C        C  680   2.502   3.510   3.269
    1C        C  681   2.533   3.304   3.397
    1C        C  682   2.513   3.444   3.393
    1C        C  683   2.552   3.238   3.521
    1C        C  684   2.531   3.307   3.643
    1C        C  685   2.597   3.108   3.768
    1C        C  686   2.550   3.241   3.766
    1C        C  687   2.633   3.047   3.890
    1C        C  688   2.596   3.112   4.010
    1C        C  689   2.702   2.928   4.133
    1C        C  690   2.630   3.049   4.132
    1C        C  691   2.749   2.878   4.257
    1C        C  692   2.699   2.930   4.378
    1C        C  693   2.747   2.875   4.499
    1C        C  694   2.627   3.889   2.049
    1C        C  695   2.532   3.697   2.169
    1C        C  696   2.577   3.830   2.166
    1C        C  697   2.508   3.634   2.294
    1C        C  698   2.517   3.709   2.413
    1C        C  699   2.488   3.501   2.538
    1C        C  700   2.499   3.642   2.536
    1C        C  701   2.494   3.430   2.660
    1C        C  702   2.499   3.505   2.780
    1C        C  703   2.522   3.295   2.906
    1C        C  704   2.498   3.434   2.902
    1C        C  705   2.531   3.227   3.029
    1C        C  706   2.521   3.298   3.151
    1C        C  707   2.593   3.102   3.275
    1C        C  708   2.542   3.234   3.275
    1C        C  709   2.627   3.041   3.398
    1C        C  710   2.599   3.105   3.520
    1C        C  711   2.705   2.927   3.643
    1C        C  712   2.625   3.044   3.645
    1C        C  713   2.751   2.873   3.765
    1C        C  714   2.715   2.933   3.888
    1C        C  715   2.751   2.874   4.012
    1C        C  716   2.445   3.495   2.059
    1C        C  717   2.492   3.627   2.055
    1C        C  718   2.463   3.418   2.178
    1C        C  719   2.482   3.494   2.297
    1C        C  720   2.513   3.286   2.421
    1C        C  721   2.486   3.425   2.420
    1C        C  722   2.533   3.220   2.544
    1C        C  723   2.513   3.290   2.665
    1C        C  724   2.587   3.090   2.785
    1C        C  725   2.535   3.221   2.786
    1C        C  726   2.618   3.030   2.910
    1C        C  727   2.587   3.097   3.031
    1C        C  728   2.701   2.919   3.153
    1C        C  729   2.624   3.037   3.153
    1C        C  730   2.747   2.866   3.276
    1C        C  731   2.703   2.922   3.398
    1C        C  732   2.747   2.869   3.521
    1C        C  733   2.485   3.194   2.067
    1C        C  734   2.484   3.276   2.180
    1C        C  735   2.576   3.080   2.302
    1C        C  736   2.518   3.210   2.302
    1C        C  737   2.602   3.014   2.424
    1C        C  738   2.585   3.088   2.542
    1C        C  739   2.690   2.903   2.664
    1C        C  740   2.619   3.025   2.664
    1C        C  741   2.742   2.856   2.786
    1C        C  742   2.704   2.919   2.907
    1C        C  743   2.750   2.868   3.031
    1C        C  744   2.542   3.068   2.066
    1C        C  745   2.677   2.893   2.180
    1C        C  746   2.603   3.014   2.181
    1C        C  747   2.727   2.841   2.301
    1C        C  748   2.681   2.897   2.422
    1C        C  749   2.728   2.841   2.543
    1C        C  750   2.731   2.837   2.064
    1C        C  751   3.667   2.308   1.979
    1C        O  752   3.664   2.189   2.019
    1C        O  753   3.674   2.326   1.841
    1C        C  754   4.621   3.053   1.976
    1C        O  755   4.620   3.061   1.850
    1C        O  756   4.729   2.997   2.045
    1C        C  757   4.449   4.215   1.958
    1C        O  758   4.512   4.317   1.996
    1C        O  759   4.405   4.223   1.825
    1C        C  760   3.598   4.647   1.928
    1C        O  761   3.605   4.770   1.953
    1C        O  762   3.537   4.608   1.809
    1C        C  763   2.872   4.506   1.962
    1C        O  764   2.889   4.509   1.837
    1C        O  765   2.875   4.635   2.014
    1C        C  766   2.332   3.471   1.966
    1C        O  767   2.353   3.457   1.843
    1C        O  768   2.195   3.481   1.996
    1C        C  769   4.704   3.610   5.039
    1C        O  770   4.697   3.600   5.164
    1C        O  771   4.831   3.602   4.979
    1C        C  772   4.264   4.437   5.044
    1C        O  773   4.261   4.397   5.163
    1C        O  774   4.380   4.513   5.025
    1C        C  775   4.136   2.547   5.085
    1C        O  776   4.232   2.466   5.091
    1C        O  777   4.109   2.583   5.218
    1C        C  778   2.878   4.542   5.048
    1C        O  779   2.831   4.646   4.997
    1C        O  780   2.894   4.517   5.185
    1C        C  781   2.465   3.030   5.060
    1C        O  782   2.358   2.981   5.015
    1C        O  783   2.454   3.051   5.197
    1C        C  784   2.451   3.972   5.081
    1C        O  785   2.345   4.040   5.084
    1C        O  786   2.511   3.956   5.207
    1C        C  787   2.949   2.443   1.981
    1C        O  788   2.936   2.499   1.869
    1C        O  789   2.838   2.371   2.025
    1C        C  790   3.176   2.383   5.065
    1C        O  791   3.105   2.281   5.043
    1C        O  792   3.249   2.381   5.185
    1C        H  793   4.268   3.020   5.050
    1C        H  794   4.207   2.788   5.064
    1C        H  795   4.519   3.130   5.054
    1C        H  796   4.559   3.351   5.057
    1C        H  797   4.490   3.778   5.043
    1C        H  798   4.436   3.986   5.054
    1C        H  799   4.299   4.170   5.053
    1C        H  800   4.053   4.565   5.006
    1C        H  801   3.798   4.538   5.038
    1C        H  802   3.578   4.604   5.040
    1C        H  803   3.394   4.449   5.022
    1C        H  804   3.155   4.538   5.039
    1C        H  805   3.882   2.495   5.070
    1C        H  806   3.658   2.406   5.042
    1C        H  807   2.998   2.564   5.064
    1C        H  808   3.445   2.428   5.060
    1C        H  809   2.891   2.746   5.069
    1C        H  810   2.707   2.907   5.071
    1C        H  811   2.549   3.302   5.063
    1C        H  812   2.502   3.496   5.062
    1C        H  813   2.519   3.726   5.065
    1C        H  814   2.596   4.170   5.047
    1C        H  815   2.748   4.318   5.048
    1C        H  816   2.680   2.858   1.972
    1C        H  817   2.887   2.718   1.983
    1C        H  818   3.195   2.392   2.007
    1C        H  819   3.434   2.449   1.969
    1C        H  820   3.859   2.482   1.971
    1C        H  821   4.076   2.591   1.974
    1C        H  822   4.230   2.739   1.958
    1C        H  823   4.354   2.931   1.963
    1C        H  824   4.529   3.309   1.961
    1C        H  825   4.486   3.513   1.958
    1C        H  826   4.460   3.737   1.950
    1C        H  827   3.814   4.537   1.958
    1C        H  828   3.935   4.333   1.952
    1C        H  829   4.185   4.296   1.955
    1C        H  830   4.468   3.964   1.948
    1C        H  831   2.635   3.841   1.954
    1C        H  832   2.751   4.041   1.973
    1C        H  833   2.716   4.285   1.964
    1C        H  834   3.384   4.415   1.970
    1C        H  835   3.130   4.457   1.952
    1C        H  836   2.563   3.026   1.970
    1C        H  837   2.410   3.217   1.993
    1C        H  838   2.530   3.654   1.958
    2V3OU   H29  839   2.806   3.545   4.001
    2V3OU   C27  840   2.789   3.500   4.102
    2V3OU   H27  841   2.737   3.568   4.174
    2V3OU   H28  842   2.734   3.407   4.075
    2V3OU   O11  843   2.912   3.465   4.167
    2V3OU   C15  844   2.921   3.393   4.284
    2V3OU   C13  845   3.051   3.369   4.335
    2V3OU   C14  846   3.076   3.268   4.428
    2V3OU   C16  847   2.976   3.185   4.477
    2V3OU    H6  848   2.993   3.094   4.537
    2V3OU   C12  849   3.214   3.229   4.463
    2V3OU    O2  850   3.240   3.126   4.529
    2V3OU   C10  851   3.325   3.308   4.408
    2V3OU    C8  852   3.455   3.263   4.425
    2V3OU   O10  853   3.482   3.148   4.493
    2V3OU   H26  854   3.398   3.107   4.519
    2V3OU    C6  855   3.564   3.347   4.387
    2V3OU    C5  856   3.534   3.464   4.318
    2V3OU    C4  857   3.703   3.294   4.396
    2V3OU    H4  858   3.722   3.227   4.485
    2V3OU    H5  859   3.710   3.223   4.308
    2V3OU    C2  860   3.813   3.399   4.386
    2V3OU    O6  861   3.802   3.479   4.504
    2V3OU   H21  862   3.765   3.558   4.461
    2V3OU    C3  863   3.782   3.492   4.269
    2V3OU    H2  864   3.861   3.570   4.264
    2V3OU    H3  865   3.785   3.434   4.173
    2V3OU   C25  866   3.946   3.326   4.365
    2V3OU    O7  867   3.996   3.292   4.258
    2V3OU   C26  868   4.023   3.284   4.489
    2V3OU   H22  869   4.061   3.378   4.538
    2V3OU   H23  870   4.114   3.226   4.459
    2V3OU    O8  871   3.958   3.201   4.583
    2V3OU   H24  872   3.929   3.253   4.660
    2V3OU    C1  873   3.645   3.557   4.280
    2V3OU    H1  874   3.622   3.608   4.181
    2V3OU    O3  875   3.656   3.651   4.386
    2V3OU   C19  876   3.614   3.787   4.371
    2V3OU    H9  877   3.516   3.801   4.317
    2V3OU    O4  878   3.707   3.846   4.282
    2V3OU   C20  879   3.839   3.871   4.330
    2V3OU   H10  880   3.895   3.775   4.344
    2V3OU   C24  881   3.603   3.851   4.509
    2V3OU   H16  882   3.539   3.788   4.576
    2V3OU   H17  883   3.555   3.951   4.490
    2V3OU   C23  884   3.747   3.868   4.556
    2V3OU   H15  885   3.790   3.765   4.582
    2V3OU    N1  886   3.731   3.947   4.676
    2V3OU   H19  887   3.800   3.912   4.740
    2V3OU   H20  888   3.639   3.922   4.705
    2V3OU   C21  889   3.844   3.947   4.463
    2V3OU   H11  890   3.946   3.922   4.504
    2V3OU    O5  891   3.828   4.088   4.468
    2V3OU   H18  892   3.778   4.101   4.550
    2V3OU   C22  893   3.908   3.947   4.217
    2V3OU   H12  894   3.859   4.046   4.201
    2V3OU   H13  895   3.906   3.886   4.123
    2V3OU   H14  896   4.018   3.958   4.238
    2V3OU   C11  897   3.155   3.470   4.314
    2V3OU    O1  898   3.124   3.586   4.278
    2V3OU    C9  899   3.295   3.427   4.336
    2V3OU    C7  900   3.400   3.505   4.288
    2V3OU    O9  901   3.386   3.604   4.193
    2V3OU   H25  902   3.291   3.621   4.178
    2V3OU   C17  903   2.825   3.316   4.354
    2V3OU    H7  904   2.734   3.343   4.301
    2V3OU   C18  905   2.844   3.213   4.445
    2V3OU    H8  906   2.783   3.163   4.522
    3SOL     OW  907   3.070   4.341   5.268
    3SOL    HW1  908   3.020   4.418   5.228
    3SOL    HW2  909   3.036   4.255   5.230
    4SOL     OW  910   6.728   0.197   0.439
    4SOL    HW1  911   6.761   0.290   0.452
    4SOL    HW2  912   6.733   0.147   0.525
    5SOL     OW  913   4.768   1.059   1.935
    5SOL    HW1  914   4.784   0.970   1.892
    5SOL    HW2  915   4.688   1.052   1.995
    6SOL     OW  916   5.611   1.999   3.203
    6SOL    HW1  917   5.707   2.024   3.208
    6SOL    HW2  918   5.566   2.053   3.132
    7SOL     OW  919   1.021   4.319   4.935
    7SOL    HW1  920   0.956   4.255   4.974
    7SOL    HW2  921   0.997   4.337   4.839
    8SOL     OW  922   2.444   2.418   5.558
    8SOL    HW1  923   2.440   2.461   5.468
    8SOL    HW2  924   2.507   2.469   5.616
    9SOL     OW  925   6.808   1.676   6.170
    9SOL    HW1  926   6.871   1.753   6.159
    9SOL    HW2  927   6.828   1.628   6.255
   10SOL     OW  928   3.611   5.136   3.672
   10SOL    HW1  929   3.668   5.129   3.754
   10SOL    HW2  930   3.594   5.044   3.636
   11SOL     OW  931   2.161   0.295   7.004
   11SOL    HW1  932   2.117   0.348   0.061
   11SOL    HW2  933   2.140   0.198   0.002
   12SOL     OW  934   2.644   4.728   3.620
   12SOL    HW1  935   2.730   4.776   3.603
   12SOL    HW2  936   2.590   4.780   3.687
   13SOL     OW  937   3.526   6.030   3.103
   13SOL    HW1  938   3.436   6.033   3.145
   13SOL    HW2  939   3.592   6.076   3.163
   14SOL     OW  940   4.658   4.753   5.778
   14SOL    HW1  941   4.684   4.772   5.873
   14SOL    HW2  942   4.562   4.726   5.774
   15SOL     OW  943   0.066   5.856   6.501
   15SOL    HW1  944   0.086   5.935   6.443
   15SOL    HW2  945   0.055   5.885   6.596
   16SOL     OW  946   5.689   2.726   6.199
   16SOL    HW1  947   5.735   2.740   6.287
   16SOL    HW2  948   5.594   2.757   6.206
   17SOL     OW  949   6.357   0.196   5.969
   17SOL    HW1  950   6.362   0.139   6.050
   17SOL    HW2  951   6.262   0.211   5.943
   18SOL     OW  952   2.993   1.360   5.116
   18SOL    HW1  953   3.054   1.316   5.051
   18SOL    HW2  954   2.967   1.451   5.082
   19SOL     OW  955   0.891   2.525   2.669
   19SOL    HW1  956   0.967   2.586   2.691
   19SOL    HW2  957   0.923   2.451   2.609
   20SOL     OW  958   5.847   1.917   5.957
   20SOL    HW1  959   5.791   1.960   5.886
   20SOL    HW2  960   5.943   1.926   5.934
   21SOL     OW  961   3.325   6.503   2.733
   21SOL    HW1  962   3.342   6.500   2.634
   21SOL    HW2  963   3.274   6.586   2.755
   22SOL     OW  964   1.505   5.844   5.404
   22SOL    HW1  965   1.417   5.890   5.392
   22SOL    HW2  966   1.574   5.890   5.348
   23SOL     OW  967   4.963   4.634   2.482
   23SOL    HW1  968   4.905   4.692   2.539
   23SOL    HW2  969   4.946   4.538   2.504
   24SOL     OW  970   3.657   0.184   1.182
   24SOL    HW1  971   3.689   0.089   1.174
   24SOL    HW2  972   3.563   0.191   1.149
   25SOL     OW  973   3.066   6.835   3.676
   25SOL    HW1  974   3.084   6.924   3.718
   25SOL    HW2  975   3.037   6.848   3.581
   26SOL     OW  976   1.337   2.221   6.660
   26SOL    HW1  977   1.242   2.189   6.663
   26SOL    HW2  978   1.397   2.148   6.693
   27SOL     OW  979   0.211   1.114   2.779
   27SOL    HW1  980   0.233   1.080   2.871
   27SOL    HW2  981   0.225   1.042   2.712
   28SOL     OW  982   1.477   0.880   4.349
   28SOL    HW1  983   1.400   0.900   4.409
   28SOL    HW2  984   1.559   0.926   4.383
   29SOL     OW  985   6.293   1.015   0.904
   29SOL    HW1  986   6.303   1.072   0.985
   29SOL    HW2  987   6.370   0.951   0.898
   30SOL     OW  988   3.733   0.161   4.866
   30SOL    HW1  989   3.801   0.088   4.877
   30SOL    HW2  990   3.721   0.181   4.768
   31SOL     OW  991   0.140   2.053   5.286
   31SOL    HW1  992   0.172   2.086   5.375
   31SOL    HW2  993   0.200   2.087   5.214
   32SOL     OW  994   1.543   1.936   1.622
   32SOL    HW1  995   1.600   2.014   1.648
   32SOL    HW2  996   1.596   1.873   1.566
   33SOL     OW  997   0.331   3.800   5.117
   33SOL    HW1  998   0.252   3.837   5.166
   33SOL    HW2  999   0.403   3.869   5.112
   34SOL     OW 1000   1.723   4.828   4.912
   34SOL    HW1 1001   1.790   4.781   4.855
   34SOL    HW2 1002   1.728   4.926   4.895
   35SOL     OW 1003   3.656   2.395   6.078
   35SOL    HW1 1004   3.582   2.410   6.144
   35SOL    HW2 1005   3.717   2.323   6.113
   36SOL     OW 1006   5.190   1.337   4.050
   36SOL    HW1 1007   5.156   1.379   4.133
   36SOL    HW2 1008   5.201   1.238   4.064
   37SOL     OW 1009   2.452   1.320   3.224
   37SOL    HW1 1010   2.408   1.300   3.137
   37SOL    HW2 1011   2.460   1.236   3.277
   38SOL     OW 1012   2.259   4.976   1.844
   38SOL    HW1 1013   2.237   5.070   1.867
   38SOL    HW2 1014   2.343   4.949   1.892
   39SOL     OW 1015   6.365   4.432   6.574
   39SOL    HW1 1016   6.369   4.386   6.486
   39SOL    HW2 1017   6.370   4.531   6.560
   40SOL     OW 1018   3.399   0.481   5.847
   40SOL    HW1 1019   3.332   0.547   5.883
   40SOL    HW2 1020   3.414   0.499   5.750
   41SOL     OW 1021   5.803   3.802   2.575
   41SOL    HW1 1022   5.762   3.718   2.610
   41SOL    HW2 1023   5.876   3.831   2.637
   42SOL     OW 1024   3.125   5.995   4.903
   42SOL    HW1 1025   3.164   6.040   4.823
   42SOL    HW2 1026   3.030   5.972   4.886
   43SOL     OW 1027   4.012   6.579   4.490
   43SOL    HW1 1028   4.079   6.572   4.417
   43SOL    HW2 1029   3.924   6.608   4.452
   44SOL     OW 1030   5.902   2.925   4.914
   44SOL    HW1 1031   5.968   3.000   4.904
   44SOL    HW2 1032   5.920   2.877   4.999
   45SOL     OW 1033   4.494   5.704   1.557
   45SOL    HW1 1034   4.534   5.614   1.573
   45SOL    HW2 1035   4.395   5.696   1.551
   46SOL     OW 1036   0.465   3.171   4.351
   46SOL    HW1 1037   0.465   3.270   4.364
   46SOL    HW2 1038   0.459   3.149   4.254
   47SOL     OW 1039   5.146   3.794   1.988
   47SOL    HW1 1040   5.114   3.847   1.910
   47SOL    HW2 1041   5.192   3.711   1.955
   48SOL     OW 1042   0.538   3.169   6.608
   48SOL    HW1 1043   0.589   3.124   6.681
   48SOL    HW2 1044   0.440   3.154   6.620
   49SOL     OW 1045   5.016   2.681   0.474
   49SOL    HW1 1046   5.074   2.603   0.450
   49SOL    HW2 1047   4.922   2.661   0.448
   50SOL     OW 1048   6.155   1.708   5.830
   50SOL    HW1 1049   6.137   1.792   5.881
   50SOL    HW2 1050   6.253   1.690   5.829
   51SOL     OW 1051   2.272   4.958   2.242
   51SOL    HW1 1052   2.196   4.906   2.203
   51SOL    HW2 1053   2.264   4.960   2.342
   52SOL     OW 1054   5.684   3.000   1.595
   52SOL    HW1 1055   5.633   3.064   1.538
   52SOL    HW2 1056   5.626   2.921   1.615
   53SOL     OW 1057   5.309   0.096   3.431
   53SOL    HW1 1058   5.270   0.180   3.393
   53SOL    HW2 1059   5.284   0.088   3.528
   54SOL     OW 1060   5.497   6.289   0.458
   54SOL    HW1 1061   5.514   6.330   0.368
   54SOL    HW2 1062   5.554   6.335   0.527
   55SOL     OW 1063   2.489   2.530   6.332
   55SOL    HW1 1064   2.531   2.509   6.420
   55SOL    HW2 1065   2.526   2.616   6.297
   56SOL     OW 1066   1.234   1.776   0.823
   56SOL    HW1 1067   1.135   1.765   0.815
   56SOL    HW2 1068   1.264   1.744   0.913
   57SOL     OW 1069   3.543   0.615   6.664
   57SOL    HW1 1070   3.462   0.562   6.691
   57SOL    HW2 1071   3.604   0.626   6.742
   58SOL     OW 1072   0.657   1.023   6.241
   58SOL    HW1 1073   0.719   1.038   6.318
   58SOL    HW2 1074   0.562   1.028   6.273
   59SOL     OW 1075   6.308   3.649   6.348
   59SOL    HW1 1076   6.331   3.612   6.438
   59SOL    HW2 1077   6.222   3.609   6.316
   60SOL     OW 1078   6.118   0.884   3.823
   60SOL    HW1 1079   6.166   0.867   3.737
   60SOL    HW2 1080   6.092   0.797   3.865
   61SOL     OW 1081   0.761   1.393   4.272
   61SOL    HW1 1082   0.699   1.377   4.195
   61SOL    HW2 1083   0.835   1.454   4.242
   62SOL     OW 1084   1.386   1.426   1.746
   62SOL    HW1 1085   1.328   1.506   1.733
   62SOL    HW2 1086   1.362   1.356   1.678
   63SOL     OW 1087   4.017   6.798   4.184
   63SOL    HW1 1088   3.953   6.730   4.222
   63SOL    HW2 1089   3.998   6.888   4.224
   64SOL     OW 1090   0.935   3.395   6.594
   64SOL    HW1 1091   0.974   3.421   6.506
   64SOL    HW2 1092   0.889   3.307   6.586
   65SOL     OW 1093   0.165   0.329   5.410
   65SOL    HW1 1094   0.084   0.311   5.354
   65SOL    HW2 1095   0.237   0.264   5.388
   66SOL     OW 1096   3.444   0.113   2.929
   66SOL    HW1 1097   3.509   0.181   2.894
   66SOL    HW2 1098   3.355   0.157   2.945
   67SOL     OW 1099   0.347   2.402   0.446
   67SOL    HW1 1100   0.392   2.316   0.469
   67SOL    HW2 1101   0.292   2.433   0.523
   68SOL     OW 1102   0.108   1.375   5.708
   68SOL    HW1 1103   0.176   1.332   5.649
   68SOL    HW2 1104   0.074   1.459   5.666
   69SOL     OW 1105   1.233   4.861   6.067
   69SOL    HW1 1106   1.237   4.952   6.109
   69SOL    HW2 1107   1.210   4.871   5.970
   70SOL     OW 1108   5.255   4.005   5.036
   70SOL    HW1 1109   5.279   4.097   5.064
   70SOL    HW2 1110   5.337   3.955   5.008
   71SOL     OW 1111   4.727   2.054   4.431
   71SOL    HW1 1112   4.798   2.030   4.497
   71SOL    HW2 1113   4.763   2.121   4.367
   72SOL     OW 1114   0.492   0.838   2.803
   72SOL    HW1 1115   0.464   0.827   2.898
   72SOL    HW2 1116   0.587   0.808   2.793
   73SOL     OW 1117   3.093   0.917   0.176
   73SOL    HW1 1118   3.042   0.860   0.240
   73SOL    HW2 1119   3.134   0.994   0.224
   74SOL     OW 1120   2.071   1.854   6.139
   74SOL    HW1 1121   1.974   1.877   6.151
   74SOL    HW2 1122   2.094   1.776   6.196
   75SOL     OW 1123   4.493   1.418   1.155
   75SOL    HW1 1124   4.495   1.328   1.111
   75SOL    HW2 1125   4.529   1.410   1.248
   76SOL     OW 1126   2.624   4.446   6.192
   76SOL    HW1 1127   2.694   4.395   6.240
   76SOL    HW2 1128   2.656   4.539   6.174
   77SOL     OW 1129   1.921   5.397   4.381
   77SOL    HW1 1130   1.937   5.494   4.363
   77SOL    HW2 1131   1.873   5.386   4.467
   78SOL     OW 1132   4.140   1.394   1.304
   78SOL    HW1 1133   4.220   1.432   1.350
   78SOL    HW2 1134   4.067   1.378   1.371
   79SOL     OW 1135   2.513   5.369   1.399
   79SOL    HW1 1136   2.558   5.344   1.485
   79SOL    HW2 1137   2.460   5.291   1.366
   80SOL     OW 1138   4.495   2.157   5.125
   80SOL    HW1 1139   4.522   2.065   5.151
   80SOL    HW2 1140   4.500   2.217   5.204
   81SOL     OW 1141   1.428   0.329   0.874
   81SOL    HW1 1142   1.514   0.324   0.925
   81SOL    HW2 1143   1.356   0.282   0.926
   82SOL     OW 1144   0.419   5.986   2.650
   82SOL    HW1 1145   0.473   5.951   2.573
   82SOL    HW2 1146   0.467   6.064   2.690
   83SOL     OW 1147   6.772   1.779   5.586
   83SOL    HW1 1148   6.805   1.728   5.665
   83SOL    HW2 1149   6.849   1.798   5.525
   84SOL     OW 1150   6.040   2.988   3.804
   84SOL    HW1 1151   6.025   3.029   3.894
   84SOL    HW2 1152   6.138   2.973   3.791
   85SOL     OW 1153   1.826   0.085   3.877
   85SOL    HW1 1154   1.800   0.178   3.854
   85SOL    HW2 1155   1.745   0.030   3.895
   86SOL     OW 1156   5.760   1.048   6.852
   86SOL    HW1 1157   5.700   1.045   6.772
   86SOL    HW2 1158   5.731   1.123   6.912
   87SOL     OW 1159   4.404   4.325   6.891
   87SOL    HW1 1160   4.316   4.279   6.874
   87SOL    HW2 1161   4.412   4.403   6.829
   88SOL     OW 1162   2.996   2.165   5.500
   88SOL    HW1 1163   2.946   2.203   5.577
   88SOL    HW2 1164   2.949   2.188   5.414
   89SOL     OW 1165   3.078   3.568   2.089
   89SOL    HW1 1166   3.003   3.550   2.027
   89SOL    HW2 1167   3.152   3.614   2.040
   90SOL     OW 1168   4.741   4.292   3.199
   90SOL    HW1 1169   4.710   4.235   3.122
   90SOL    HW2 1170   4.830   4.260   3.230
   91SOL     OW 1171   6.286   5.865   5.951
   91SOL    HW1 1172   6.229   5.944   5.976
   91SOL    HW2 1173   6.324   5.879   5.860
   92SOL     OW 1174   4.529   4.106   0.299
   92SOL    HW1 1175   4.612   4.050   0.298
   92SOL    HW2 1176   4.517   4.147   0.389
   93SOL     OW 1177   3.300   3.054   0.935
   93SOL    HW1 1178   3.210   3.075   0.974
   93SOL    HW2 1179   3.333   2.967   0.971
   94SOL     OW 1180   2.548   0.259   6.446
   94SOL    HW1 1181   2.640   0.262   6.407
   94SOL    HW2 1182   2.492   0.330   6.404
   95SOL     OW 1183   0.655   0.241   4.224
   95SOL    HW1 1184   0.710   0.178   4.171
   95SOL    HW2 1185   0.583   0.191   4.272
   96SOL     OW 1186   4.764   5.270   0.140
   96SOL    HW1 1187   4.823   5.291   0.217
   96SOL    HW2 1188   4.816   5.274   0.055
   97SOL     OW 1189   1.932   4.572   5.465
   97SOL    HW1 1190   1.877   4.535   5.540
   97SOL    HW2 1191   1.989   4.646   5.499
   98SOL     OW 1192   0.589   2.661   2.148
   98SOL    HW1 1193   0.513   2.647   2.212
   98SOL    HW2 1194   0.644   2.577   2.142
   99SOL     OW 1195   3.657   3.766   3.198
   99SOL    HW1 1196   3.674   3.820   3.115
   99SOL    HW2 1197   3.721   3.689   3.201
  100SOL     OW 1198   0.143   6.784   3.805
  100SOL    HW1 1199   0.118   6.862   3.748
  100SOL    HW2 1200   0.126   6.699   3.756
  101SOL     OW 1201   0.654   5.018   2.392
  101SOL    HW1 1202   0.592   5.034   2.469
  101SOL    HW2 1203   0.601   5.009   2.308
  102SOL     OW 1204   2.759   6.228   2.052
  102SOL    HW1 1205   2.800   6.139   2.036
  102SOL    HW2 1206   2.660   6.223   2.035
  103SOL     OW 1207   2.304   1.155   2.559
  103SOL    HW1 1208   2.339   1.194   2.474
  103SOL    HW2 1209   2.239   1.219   2.600
  104SOL     OW 1210   0.962   4.771   2.281
  104SOL    HW1 1211   1.058   4.782   2.308
  104SOL    HW2 1212   0.909   4.738   2.358
  105SOL     OW 1213   5.515   1.369   6.606
  105SOL    HW1 1214   5.421   1.339   6.590
  105SOL    HW2 1215   5.569   1.356   6.522
  106SOL     OW 1216   4.922   4.966   1.551
  106SOL    HW1 1217   4.954   5.040   1.610
  106SOL    HW2 1218   4.990   4.893   1.550
  107SOL     OW 1219   6.631   0.926   0.133
  107SOL    HW1 1220   6.630   0.892   0.039
  107SOL    HW2 1221   6.650   0.851   0.196
  108SOL     OW 1222   2.744   0.533   4.756
  108SOL    HW1 1223   2.824   0.505   4.703
  108SOL    HW2 1224   2.662   0.494   4.714
  109SOL     OW 1225   3.342   0.777   2.707
  109SOL    HW1 1226   3.334   0.836   2.626
  109SOL    HW2 1227   3.295   0.690   2.690
  110SOL     OW 1228   2.541   4.605   5.326
  110SOL    HW1 1229   2.510   4.530   5.385
  110SOL    HW2 1230   2.462   4.651   5.286
  111SOL     OW 1231   6.621   1.602   2.613
  111SOL    HW1 1232   6.620   1.676   2.681
  111SOL    HW2 1233   6.632   1.514   2.660
  112SOL     OW 1234   4.215   6.322   6.628
  112SOL    HW1 1235   4.181   6.311   6.722
  112SOL    HW2 1236   4.151   6.377   6.576
  113SOL     OW 1237   6.625   5.387   2.677
  113SOL    HW1 1238   6.585   5.342   2.757
  113SOL    HW2 1239   6.585   5.479   2.667
  114SOL     OW 1240   1.468   4.687   3.257
  114SOL    HW1 1241   1.372   4.678   3.232
  114SOL    HW2 1242   1.477   4.743   3.339
  115SOL     OW 1243   5.985   1.175   3.467
  115SOL    HW1 1244   5.910   1.188   3.402
  115SOL    HW2 1245   6.063   1.133   3.420
  116SOL     OW 1246   0.380   5.960   1.264
  116SOL    HW1 1247   0.454   6.016   1.302
  116SOL    HW2 1248   0.311   5.944   1.335
  117SOL     OW 1249   2.958   1.450   6.821
  117SOL    HW1 1250   2.990   1.544   6.806
  117SOL    HW2 1251   2.894   1.425   6.750
  118SOL     OW 1252   1.511   1.417   3.301
  118SOL    HW1 1253   1.501   1.487   3.230
  118SOL    HW2 1254   1.484   1.328   3.264
  119SOL     OW 1255   6.899   6.873   0.324
  119SOL    HW1 1256   6.800   6.883   0.336
  119SOL    HW2 1257   6.917   6.804   0.254
  120SOL     OW 1258   4.722   0.560   5.258
  120SOL    HW1 1259   4.706   0.461   5.265
  120SOL    HW2 1260   4.819   0.578   5.242
  121SOL     OW 1261   1.398   3.893   6.851
  121SOL    HW1 1262   1.335   3.916   6.926
  121SOL    HW2 1263   1.457   3.972   6.832
  122SOL     OW 1264   0.961   4.629   7.012
  122SOL    HW1 1265   1.039   4.608   6.953
  122SOL    HW2 1266   0.903   4.548   0.007
  123SOL     OW 1267   1.394   1.005   1.808
  123SOL    HW1 1268   1.447   0.963   1.734
  123SOL    HW2 1269   1.313   1.049   1.770
  124SOL     OW 1270   3.005   2.557   0.619
  124SOL    HW1 1271   3.081   2.539   0.556
  124SOL    HW2 1272   2.970   2.650   0.603
  125SOL     OW 1273   3.399   2.532   6.796
  125SOL    HW1 1274   3.432   2.439   6.812
  125SOL    HW2 1275   3.422   2.560   6.703
  126SOL     OW 1276   3.050   3.280   3.269
  126SOL    HW1 1277   3.149   3.276   3.277
  126SOL    HW2 1278   3.025   3.285   3.172
  127SOL     OW 1279   6.830   6.136   5.561
  127SOL    HW1 1280   6.807   6.059   5.620
  127SOL    HW2 1281   6.789   6.220   5.598
  128SOL     OW 1282   4.900   3.566   2.270
  128SOL    HW1 1283   4.820   3.508   2.289
  128SOL    HW2 1284   4.939   3.540   2.182
  129SOL     OW 1285   2.021   5.487   0.655
  129SOL    HW1 1286   2.059   5.429   0.727
  129SOL    HW2 1287   2.035   5.443   0.566
  130SOL     OW 1288   6.037   1.603   4.256
  130SOL    HW1 1289   6.041   1.543   4.336
  130SOL    HW2 1290   6.014   1.696   4.287
  131SOL     OW 1291   6.534   1.163   4.179
  131SOL    HW1 1292   6.465   1.116   4.235
  131SOL    HW2 1293   6.489   1.235   4.125
  132SOL     OW 1294   3.406   3.947   1.694
  132SOL    HW1 1295   3.463   4.001   1.632
  132SOL    HW2 1296   3.368   4.006   1.765
  133SOL     OW 1297   5.270   0.648   4.199
  133SOL    HW1 1298   5.184   0.693   4.224
  133SOL    HW2 1299   5.263   0.610   4.107
  134SOL     OW 1300   6.062   0.703   2.321
  134SOL    HW1 1301   6.155   0.736   2.304
  134SOL    HW2 1302   6.057   0.661   2.412
  135SOL     OW 1303   4.880   3.518   4.420
  135SOL    HW1 1304   4.899   3.606   4.463
  135SOL    HW2 1305   4.905   3.444   4.483
  136SOL     OW 1306   2.351   5.931   4.853
  136SOL    HW1 1307   2.318   5.987   4.777
  136SOL    HW2 1308   2.341   5.982   4.938
  137SOL     OW 1309   3.797   1.354   4.579
  137SOL    HW1 1310   3.770   1.448   4.598
  137SOL    HW2 1311   3.896   1.344   4.586
  138SOL     OW 1312   0.874   5.443   3.785
  138SOL    HW1 1313   0.824   5.445   3.699
  138SOL    HW2 1314   0.951   5.508   3.781
  139SOL     OW 1315   2.168   5.649   6.440
  139SOL    HW1 1316   2.155   5.563   6.391
  139SOL    HW2 1317   2.093   5.712   6.420
  140SOL     OW 1318   2.361   0.306   3.217
  140SOL    HW1 1319   2.433   0.242   3.193
  140SOL    HW2 1320   2.352   0.310   3.317
  141SOL     OW 1321   6.407   3.686   6.979
  141SOL    HW1 1322   6.380   3.596   6.944
  141SOL    HW2 1323   6.440   3.742   6.902
  142SOL     OW 1324   1.243   4.466   1.718
  142SOL    HW1 1325   1.324   4.475   1.776
  142SOL    HW2 1326   1.271   4.438   1.626
  143SOL     OW 1327   5.951   6.436   1.677
  143SOL    HW1 1328   5.853   6.458   1.676
  143SOL    HW2 1329   5.993   6.470   1.593
  144SOL     OW 1330   3.152   4.899   3.624
  144SOL    HW1 1331   3.241   4.944   3.625
  144SOL    HW2 1332   3.115   4.899   3.531
  145SOL     OW 1333   0.021   4.578   2.801
  145SOL    HW1 1334   6.976   4.529   2.738
  145SOL    HW2 1335   0.051   4.664   2.759
  146SOL     OW 1336   6.019   1.655   6.142
  146SOL    HW1 1337   6.021   1.679   6.240
  146SOL    HW2 1338   6.030   1.738   6.088
  147SOL     OW 1339   5.292   1.385   5.467
  147SOL    HW1 1340   5.391   1.376   5.457
  147SOL    HW2 1341   5.258   1.456   5.406
  148SOL     OW 1342   1.214   4.719   1.323
  148SOL    HW1 1343   1.195   4.725   1.421
  148SOL    HW2 1344   1.183   4.803   1.278
  149SOL     OW 1345   2.611   1.807   5.196
  149SOL    HW1 1346   2.520   1.791   5.234
  149SOL    HW2 1347   2.642   1.899   5.219
  150SOL     OW 1348   3.668   1.790   5.223
  150SOL    HW1 1349   3.712   1.769   5.311
  150SOL    HW2 1350   3.737   1.820   5.158
  151SOL     OW 1351   3.887   1.801   0.805
  151SOL    HW1 1352   3.840   1.861   0.741
  151SOL    HW2 1353   3.980   1.834   0.820
  152SOL     OW 1354   0.594   1.572   0.105
  152SOL    HW1 1355   0.620   1.628   0.025
  152SOL    HW2 1356   0.502   1.535   0.090
  153SOL     OW 1357   2.978   1.089   3.202
  153SOL    HW1 1358   3.038   1.035   3.261
  153SOL    HW2 1359   2.914   1.141   3.259
  154SOL     OW 1360   6.385   1.840   0.798
  154SOL    HW1 1361   6.391   1.914   0.731
  154SOL    HW2 1362   6.291   1.836   0.834
  155SOL     OW 1363   0.268   0.018   1.643
  155SOL    HW1 1364   0.275   0.108   1.687
  155SOL    HW2 1365   0.211   6.973   1.699
  156SOL     OW 1366   4.943   0.694   0.317
  156SOL    HW1 1367   4.922   0.779   0.268
  156SOL    HW2 1368   4.863   0.634   0.316
  157SOL     OW 1369   5.252   3.459   0.304
  157SOL    HW1 1370   5.322   3.531   0.300
  157SOL    HW2 1371   5.296   3.371   0.323
  158SOL     OW 1372   1.512   2.776   2.312
  158SOL    HW1 1373   1.443   2.729   2.366
  158SOL    HW2 1374   1.514   2.873   2.336
  159SOL     OW 1375   4.707   5.006   0.695
  159SOL    HW1 1376   4.637   4.978   0.630
  159SOL    HW2 1377   4.667   5.014   0.787
  160SOL     OW 1378   5.682   0.323   0.626
  160SOL    HW1 1379   5.686   0.420   0.600
  160SOL    HW2 1380   5.619   0.312   0.703
  161SOL     OW 1381   0.969   6.564   0.787
  161SOL    HW1 1382   0.881   6.528   0.821
  161SOL    HW2 1383   0.955   6.607   0.698
  162SOL     OW 1384   2.121   6.234   0.122
  162SOL    HW1 1385   2.053   6.217   0.193
  162SOL    HW2 1386   2.094   6.187   0.038
  163SOL     OW 1387   6.832   4.822   2.936
  163SOL    HW1 1388   6.839   4.798   2.840
  163SOL    HW2 1389   6.744   4.866   2.953
  164SOL     OW 1390   1.744   2.046   3.197
  164SOL    HW1 1391   1.749   2.144   3.218
  164SOL    HW2 1392   1.686   2.032   3.117
  165SOL     OW 1393   0.472   5.650   2.406
  165SOL    HW1 1394   0.389   5.645   2.350
  165SOL    HW2 1395   0.530   5.571   2.387
  166SOL     OW 1396   6.075   3.884   1.241
  166SOL    HW1 1397   6.050   3.888   1.338
  166SOL    HW2 1398   6.148   3.818   1.228
  167SOL     OW 1399   5.025   1.859   7.011
  167SOL    HW1 1400   5.076   1.810   0.067
  167SOL    HW2 1401   5.069   1.845   6.922
  168SOL     OW 1402   4.130   3.298   2.086
  168SOL    HW1 1403   4.163   3.389   2.113
  168SOL    HW2 1404   4.184   3.228   2.132
  169SOL     OW 1405   6.123   3.035   0.658
  169SOL    HW1 1406   6.057   3.110   0.653
  169SOL    HW2 1407   6.199   3.054   0.596
  170SOL     OW 1408   1.417   5.500   2.625
  170SOL    HW1 1409   1.382   5.407   2.608
  170SOL    HW2 1410   1.434   5.512   2.723
  171SOL     OW 1411   1.738   3.272   0.155
  171SOL    HW1 1412   1.724   3.325   0.071
  171SOL    HW2 1413   1.828   3.229   0.153
  172SOL     OW 1414   5.632   1.922   1.537
  172SOL    HW1 1415   5.646   1.871   1.622
  172SOL    HW2 1416   5.535   1.946   1.529
  173SOL     OW 1417   5.814   0.933   5.476
  173SOL    HW1 1418   5.774   0.991   5.547
  173SOL    HW2 1419   5.883   0.872   5.516
  174SOL     OW 1420   5.333   5.211   5.409
  174SOL    HW1 1421   5.418   5.252   5.376
  174SOL    HW2 1422   5.350   5.116   5.437
  175SOL     OW 1423   1.680   1.154   0.838
  175SOL    HW1 1424   1.707   1.059   0.826
  175SOL    HW2 1425   1.605   1.159   0.905
  176SOL     OW 1426   4.893   4.736   2.900
  176SOL    HW1 1427   4.881   4.637   2.905
  176SOL    HW2 1428   4.867   4.778   2.987
  177SOL     OW 1429   5.060   1.940   4.715
  177SOL    HW1 1430   5.023   1.919   4.805
  177SOL    HW2 1431   5.104   2.030   4.717
  178SOL     OW 1432   2.470   5.598   5.190
  178SOL    HW1 1433   2.414   5.534   5.243
  178SOL    HW2 1434   2.567   5.576   5.204
  179SOL     OW 1435   4.045   5.504   0.087
  179SOL    HW1 1436   4.122   5.492   0.151
  179SOL    HW2 1437   3.965   5.537   0.137
  180SOL     OW 1438   3.621   6.750   1.330
  180SOL    HW1 1439   3.707   6.767   1.377
  180SOL    HW2 1440   3.564   6.832   1.334
  181SOL     OW 1441   2.866   2.563   5.407
  181SOL    HW1 1442   2.819   2.489   5.360
  181SOL    HW2 1443   2.965   2.549   5.402
  182SOL     OW 1444   4.877   3.706   0.112
  182SOL    HW1 1445   4.841   3.730   0.021
  182SOL    HW2 1446   4.857   3.780   0.176
  183SOL     OW 1447   3.986   2.049   4.269
  183SOL    HW1 1448   3.983   2.084   4.362
  183SOL    HW2 1449   3.898   2.066   4.224
  184SOL     OW 1450   1.208   5.922   3.622
  184SOL    HW1 1451   1.212   5.822   3.619
  184SOL    HW2 1452   1.119   5.954   3.590
  185SOL     OW 1453   0.591   1.884   4.234
  185SOL    HW1 1454   0.523   1.891   4.161
  185SOL    HW2 1455   0.552   1.920   4.319
  186SOL     OW 1456   5.876   5.870   4.407
  186SOL    HW1 1457   5.965   5.867   4.453
  186SOL    HW2 1458   5.883   5.927   4.325
  187SOL     OW 1459   4.284   5.269   2.523
  187SOL    HW1 1460   4.277   5.169   2.527
  187SOL    HW2 1461   4.319   5.304   2.610
  188SOL     OW 1462   2.071   2.190   3.042
  188SOL    HW1 1463   2.083   2.284   3.012
  188SOL    HW2 1464   1.990   2.150   2.998
  189SOL     OW 1465   5.868   5.306   6.772
  189SOL    HW1 1466   5.939   5.321   6.841
  189SOL    HW2 1467   5.852   5.208   6.762
  190SOL     OW 1468   6.090   5.424   6.888
  190SOL    HW1 1469   6.108   5.393   6.982
  190SOL    HW2 1470   6.110   5.522   6.881
  191SOL     OW 1471   7.007   1.122   5.862
  191SOL    HW1 1472   6.986   1.101   5.767
  191SOL    HW2 1473   0.086   1.154   5.869
  192SOL     OW 1474   0.446   4.594   1.548
  192SOL    HW1 1475   0.447   4.678   1.602
  192SOL    HW2 1476   0.535   4.581   1.504
  193SOL     OW 1477   3.670   4.182   5.910
  193SOL    HW1 1478   3.636   4.274   5.888
  193SOL    HW2 1479   3.696   4.136   5.825
  194SOL     OW 1480   4.218   6.647   2.043
  194SOL    HW1 1481   4.216   6.707   2.123
  194SOL    HW2 1482   4.207   6.552   2.072
  195SOL     OW 1483   3.074   0.525   2.439
  195SOL    HW1 1484   3.155   0.530   2.381
  195SOL    HW2 1485   2.997   0.569   2.393
  196SOL     OW 1486   2.241   1.073   6.568
  196SOL    HW1 1487   2.250   1.109   6.475
  196SOL    HW2 1488   2.247   0.973   6.566
  197SOL     OW 1489   2.075   6.193   6.309
  197SOL    HW1 1490   1.982   6.195   6.274
  197SOL    HW2 1491   2.094   6.103   6.348
  198SOL     OW 1492   4.315   5.927   0.976
  198SOL    HW1 1493   4.272   5.837   0.977
  198SOL    HW2 1494   4.266   5.987   1.039
  199SOL     OW 1495   6.286   1.193   2.367
  199SOL    HW1 1496   6.215   1.124   2.365
  199SOL    HW2 1497   6.251   1.278   2.326
  200SOL     OW 1498   1.327   2.874   1.913
  200SOL    HW1 1499   1.321   2.959   1.965
  200SOL    HW2 1500   1.378   2.806   1.966
  201SOL     OW 1501   2.535   0.730   6.441
  201SOL    HW1 1502   2.456   0.768   6.488
  201SOL    HW2 1503   2.612   0.794   6.450
  202SOL     OW 1504   5.161   6.844   4.689
  202SOL    HW1 1505   5.120   6.760   4.725
  202SOL    HW2 1506   5.194   6.900   4.765
  203SOL     OW 1507   5.449   2.853   6.158
  203SOL    HW1 1508   5.383   2.781   6.179
  203SOL    HW2 1509   5.416   2.940   6.194
  204SOL     OW 1510   0.453   0.129   0.347
  204SOL    HW1 1511   0.393   0.058   0.312
  204SOL    HW2 1512   0.419   0.160   0.436
  205SOL     OW 1513   0.639   1.453   1.065
  205SOL    HW1 1514   0.643   1.489   1.158
  205SOL    HW2 1515   0.546   1.421   1.045
  206SOL     OW 1516   0.992   4.344   1.126
  206SOL    HW1 1517   1.016   4.432   1.085
  206SOL    HW2 1518   1.003   4.271   1.058
  207SOL     OW 1519   4.130   0.296   5.568
  207SOL    HW1 1520   4.080   0.231   5.510
  207SOL    HW2 1521   4.123   0.388   5.530
  208SOL     OW 1522   5.085   4.406   6.149
  208SOL    HW1 1523   5.173   4.447   6.173
  208SOL    HW2 1524   5.013   4.445   6.206
  209SOL     OW 1525   0.409   5.963   5.958
  209SOL    HW1 1526   0.324   5.987   6.005
  209SOL    HW2 1527   0.471   5.919   6.022
  210SOL     OW 1528   4.234   2.218   1.948
  210SOL    HW1 1529   4.154   2.193   1.894
  210SOL    HW2 1530   4.270   2.306   1.915
  211SOL     OW 1531   0.899   0.827   2.495
  211SOL    HW1 1532   0.809   0.794   2.523
  211SOL    HW2 1533   0.895   0.926   2.481
  212SOL     OW 1534   1.605   4.778   3.032
  212SOL    HW1 1535   1.582   4.706   2.967
  212SOL    HW2 1536   1.570   4.754   3.123
  213SOL     OW 1537   4.696   1.445   6.510
  213SOL    HW1 1538   4.643   1.372   6.465
  213SOL    HW2 1539   4.774   1.405   6.556
  214SOL     OW 1540   1.601   6.536   3.338
  214SOL    HW1 1541   1.659   6.542   3.257
  214SOL    HW2 1542   1.599   6.442   3.371
  215SOL     OW 1543   3.817   3.176   1.749
  215SOL    HW1 1544   3.834   3.173   1.848
  215SOL    HW2 1545   3.719   3.177   1.732
  216SOL     OW 1546   1.539   6.959   4.926
  216SOL    HW1 1547   1.458   6.936   4.874
  216SOL    HW2 1548   1.595   0.009   4.875
  217SOL     OW 1549   1.755   2.746   4.179
  217SOL    HW1 1550   1.787   2.785   4.093
  217SOL    HW2 1551   1.789   2.652   4.188
  218SOL     OW 1552   1.711   2.503   4.661
  218SOL    HW1 1553   1.708   2.573   4.589
  218SOL    HW2 1554   1.736   2.546   4.748
  219SOL     OW 1555   3.654   3.830   6.593
  219SOL    HW1 1556   3.697   3.905   6.543
  219SOL    HW2 1557   3.684   3.831   6.688
  220SOL     OW 1558   2.404   6.231   0.112
  220SOL    HW1 1559   2.310   6.263   0.121
  220SOL    HW2 1560   2.463   6.307   0.086
  221SOL     OW 1561   5.338   3.706   3.729
  221SOL    HW1 1562   5.275   3.629   3.743
  221SOL    HW2 1563   5.410   3.702   3.798
  222SOL     OW 1564   1.400   5.577   5.246
  222SOL    HW1 1565   1.469   5.648   5.236
  222SOL    HW2 1566   1.364   5.552   5.157
  223SOL     OW 1567   0.591   3.592   1.516
  223SOL    HW1 1568   0.519   3.612   1.582
  223SOL    HW2 1569   0.567   3.629   1.426
  224SOL     OW 1570   2.853   2.259   2.743
  224SOL    HW1 1571   2.949   2.231   2.738
  224SOL    HW2 1572   2.826   2.271   2.838
  225SOL     OW 1573   5.752   0.944   0.338
  225SOL    HW1 1574   5.805   0.972   0.418
  225SOL    HW2 1575   5.751   0.844   0.333
  226SOL     OW 1576   0.501   0.415   0.694
  226SOL    HW1 1577   0.459   0.324   0.699
  226SOL    HW2 1578   0.576   0.414   0.628
  227SOL     OW 1579   1.437   3.872   3.168
  227SOL    HW1 1580   1.471   3.812   3.240
  227SOL    HW2 1581   1.472   3.965   3.182
  228SOL     OW 1582   4.019   6.939   4.503
  228SOL    HW1 1583   3.922   6.917   4.513
  228SOL    HW2 1584   4.070   6.898   4.579
  229SOL     OW 1585   5.965   5.966   1.483
  229SOL    HW1 1586   5.902   5.891   1.506
  229SOL    HW2 1587   6.033   5.933   1.418
  230SOL     OW 1588   1.964   4.142   3.871
  230SOL    HW1 1589   1.924   4.066   3.819
  230SOL    HW2 1590   2.015   4.105   3.949
  231SOL     OW 1591   6.426   3.112   6.414
  231SOL    HW1 1592   6.408   3.013   6.414
  231SOL    HW2 1593   6.510   3.131   6.464
  232SOL     OW 1594   1.276   3.064   6.466
  232SOL    HW1 1595   1.255   3.118   6.385
  232SOL    HW2 1596   1.289   3.124   6.544
  233SOL     OW 1597   2.274   1.009   4.831
  233SOL    HW1 1598   2.230   0.924   4.862
  233SOL    HW2 1599   2.328   1.047   4.906
  234SOL     OW 1600   2.377   5.008   6.438
  234SOL    HW1 1601   2.343   4.937   6.500
  234SOL    HW2 1602   2.305   5.031   6.372
  235SOL     OW 1603   3.562   3.447   3.405
  235SOL    HW1 1604   3.531   3.541   3.389
  235SOL    HW2 1605   3.560   3.428   3.503
  236SOL     OW 1606   6.644   3.151   6.596
  236SOL    HW1 1607   6.694   3.075   6.555
  236SOL    HW2 1608   6.669   3.159   6.693
  237SOL     OW 1609   0.295   6.340   1.249
  237SOL    HW1 1610   0.308   6.277   1.325
  237SOL    HW2 1611   0.381   6.387   1.230
  238SOL     OW 1612   5.803   3.627   1.453
  238SOL    HW1 1613   5.858   3.612   1.371
  238SOL    HW2 1614   5.847   3.581   1.531
  239SOL     OW 1615   6.574   5.552   6.999
  239SOL    HW1 1616   6.656   5.551   0.042
  239SOL    HW2 1617   6.495   5.522   0.038
  240SOL     OW 1618   0.524   3.379   6.181
  240SOL    HW1 1619   0.470   3.309   6.133
  240SOL    HW2 1620   0.620   3.351   6.182
  241SOL     OW 1621   0.919   1.242   3.563
  241SOL    HW1 1622   0.819   1.243   3.556
  241SOL    HW2 1623   0.958   1.204   3.479
  242SOL     OW 1624   1.445   3.016   5.364
  242SOL    HW1 1625   1.446   2.924   5.324
  242SOL    HW2 1626   1.498   3.078   5.306
  243SOL     OW 1627   4.628   0.409   6.211
  243SOL    HW1 1628   4.647   0.315   6.240
  243SOL    HW2 1629   4.648   0.419   6.114
  244SOL     OW 1630   4.616   2.258   4.594
  244SOL    HW1 1631   4.568   2.236   4.679
  244SOL    HW2 1632   4.624   2.176   4.538
  245SOL     OW 1633   6.732   2.582   4.488
  245SOL    HW1 1634   6.801   2.621   4.548
  245SOL    HW2 1635   6.776   2.530   4.414
  246SOL     OW 1636   5.202   4.033   4.061
  246SOL    HW1 1637   5.175   3.953   4.116
  246SOL    HW2 1638   5.277   4.007   4.000
  247SOL     OW 1639   2.660   1.153   3.014
  247SOL    HW1 1640   2.574   1.200   2.991
  247SOL    HW2 1641   2.712   1.138   2.930
  248SOL     OW 1642   5.103   2.244   4.714
  248SOL    HW1 1643   5.019   2.288   4.681
  248SOL    HW2 1644   5.160   2.219   4.636
  249SOL     OW 1645   3.067   6.222   5.056
  249SOL    HW1 1646   3.051   6.296   4.991
  249SOL    HW2 1647   3.121   6.151   5.013
  250SOL     OW 1648   5.874   1.858   5.578
  250SOL    HW1 1649   5.948   1.791   5.584
  250SOL    HW2 1650   5.902   1.932   5.516
  251SOL     OW 1651   4.505   2.942   6.121
  251SOL    HW1 1652   4.406   2.953   6.116
  251SOL    HW2 1653   4.528   2.878   6.194
  252SOL     OW 1654   6.879   1.152   5.495
  252SOL    HW1 1655   6.904   1.196   5.409
  252SOL    HW2 1656   6.786   1.114   5.488
  253SOL     OW 1657   1.683   3.495   1.366
  253SOL    HW1 1658   1.774   3.486   1.408
  253SOL    HW2 1659   1.693   3.515   1.269
  254SOL     OW 1660   6.742   2.925   4.704
  254SOL    HW1 1661   6.800   2.951   4.627
  254SOL    HW2 1662   6.790   2.857   4.760
  255SOL     OW 1663   3.161   2.030   3.600
  255SOL    HW1 1664   3.223   2.047   3.523
  255SOL    HW2 1665   3.199   2.072   3.683
  256SOL     OW 1666   6.391   5.523   6.626
  256SOL    HW1 1667   6.480   5.560   6.650
  256SOL    HW2 1668   6.319   5.586   6.655
  257SOL     OW 1669   2.992   5.724   6.007
  257SOL    HW1 1670   2.907   5.741   5.957
  257SOL    HW2 1671   3.005   5.796   6.075
  258SOL     OW 1672   4.926   4.378   4.959
  258SOL    HW1 1673   4.860   4.331   4.900
  258SOL    HW2 1674   4.917   4.477   4.947
  259SOL     OW 1675   1.582   2.847   2.605
  259SOL    HW1 1676   1.662   2.795   2.575
  259SOL    HW2 1677   1.517   2.785   2.650
  260SOL     OW 1678   4.756   0.837   6.548
  260SOL    HW1 1679   4.847   0.807   6.577
  260SOL    HW2 1680   4.736   0.800   6.457
  261SOL     OW 1681   0.383   3.645   1.671
  261SOL    HW1 1682   0.426   3.663   1.759
  261SOL    HW2 1683   0.314   3.715   1.652
  262SOL     OW 1684   1.492   3.073   2.315
  262SOL    HW1 1685   1.513   3.090   2.411
  262SOL    HW2 1686   1.392   3.071   2.303
  263SOL     OW 1687   0.664   2.515   4.711
  263SOL    HW1 1688   0.722   2.529   4.631
  263SOL    HW2 1689   0.711   2.549   4.792
  264SOL     OW 1690   0.711   3.338   5.492
  264SOL    HW1 1691   0.661   3.419   5.462
  264SOL    HW2 1692   0.771   3.306   5.418
  265SOL     OW 1693   4.541   4.473   4.098
  265SOL    HW1 1694   4.543   4.452   4.000
  265SOL    HW2 1695   4.609   4.417   4.146
  266SOL     OW 1696   3.826   1.871   0.069
  266SOL    HW1 1697   3.920   1.866   0.102
  266SOL    HW2 1698   3.826   1.902   6.988
  267SOL     OW 1699   1.947   2.300   6.854
  267SOL    HW1 1700   1.925   2.394   6.832
  267SOL    HW2 1701   1.863   2.245   6.851
  268SOL     OW 1702   4.439   4.595   4.550
  268SOL    HW1 1703   4.476   4.528   4.615
  268SOL    HW2 1704   4.361   4.641   4.591
  269SOL     OW 1705   1.496   1.515   6.668
  269SOL    HW1 1706   1.462   1.430   6.626
  269SOL    HW2 1707   1.422   1.582   6.670
  270SOL     OW 1708   5.215   1.144   2.358
  270SOL    HW1 1709   5.130   1.175   2.316
  270SOL    HW2 1710   5.276   1.107   2.287
  271SOL     OW 1711   1.590   1.305   1.205
  271SOL    HW1 1712   1.591   1.279   1.302
  271SOL    HW2 1713   1.677   1.347   1.181
  272SOL     OW 1714   4.076   5.217   4.725
  272SOL    HW1 1715   4.082   5.117   4.730
  272SOL    HW2 1716   3.995   5.248   4.776
  273SOL     OW 1717   1.042   5.477   4.862
  273SOL    HW1 1718   0.983   5.538   4.914
  273SOL    HW2 1719   1.114   5.441   4.922
  274SOL     OW 1720   5.626   2.785   3.398
  274SOL    HW1 1721   5.587   2.715   3.338
  274SOL    HW2 1722   5.675   2.852   3.344
  275SOL     OW 1723   0.216   6.259   5.959
  275SOL    HW1 1724   0.188   6.167   5.986
  275SOL    HW2 1725   0.310   6.275   5.989
  276SOL     OW 1726   6.691   5.498   3.451
  276SOL    HW1 1727   6.725   5.509   3.357
  276SOL    HW2 1728   6.603   5.452   3.449
  277SOL     OW 1729   3.486   1.141   5.174
  277SOL    HW1 1730   3.450   1.076   5.241
  277SOL    HW2 1731   3.586   1.137   5.173
  278SOL     OW 1732   5.572   4.707   2.364
  278SOL    HW1 1733   5.669   4.733   2.368
  278SOL    HW2 1734   5.560   4.618   2.409
  279SOL     OW 1735   0.383   2.871   3.280
  279SOL    HW1 1736   0.308   2.925   3.317
  279SOL    HW2 1737   0.350   2.817   3.202
  280SOL     OW 1738   4.830   6.544   4.092
  280SOL    HW1 1739   4.741   6.506   4.069
  280SOL    HW2 1740   4.899   6.471   4.092
  281SOL     OW 1741   4.140   5.573   3.930
  281SOL    HW1 1742   4.118   5.483   3.892
  281SOL    HW2 1743   4.132   5.642   3.858
  282SOL     OW 1744   4.402   1.716   5.639
  282SOL    HW1 1745   4.335   1.709   5.713
  282SOL    HW2 1746   4.400   1.633   5.584
  283SOL     OW 1747   6.267   0.177   4.663
  283SOL    HW1 1748   6.326   0.099   4.642
  283SOL    HW2 1749   6.183   0.144   4.707
  284SOL     OW 1750   0.334   4.736   4.849
  284SOL    HW1 1751   0.432   4.729   4.866
  284SOL    HW2 1752   0.316   4.806   4.780
  285SOL     OW 1753   5.363   0.071   0.243
  285SOL    HW1 1754   5.319   0.106   0.160
  285SOL    HW2 1755   5.405   0.148   0.292
  286SOL     OW 1756   3.516   5.369   4.901
  286SOL    HW1 1757   3.451   5.363   4.826
  286SOL    HW2 1758   3.485   5.437   4.967
  287SOL     OW 1759   1.409   5.999   6.291
  287SOL    HW1 1760   1.464   6.076   6.261
  287SOL    HW2 1761   1.364   5.957   6.212
  288SOL     OW 1762   4.199   0.539   0.930
  288SOL    HW1 1763   4.152   0.612   0.978
  288SOL    HW2 1764   4.132   0.479   0.887
  289SOL     OW 1765   1.325   5.451   5.724
  289SOL    HW1 1766   1.225   5.448   5.733
  289SOL    HW2 1767   1.362   5.358   5.727
  290SOL     OW 1768   4.595   0.695   2.712
  290SOL    HW1 1769   4.656   0.641   2.771
  290SOL    HW2 1770   4.569   0.779   2.759
  291SOL     OW 1771   4.242   0.563   4.207
  291SOL    HW1 1772   4.264   0.491   4.141
  291SOL    HW2 1773   4.280   0.539   4.296
  292SOL     OW 1774   3.648   0.156   3.744
  292SOL    HW1 1775   3.681   0.064   3.767
  292SOL    HW2 1776   3.714   0.201   3.684
  293SOL     OW 1777   4.737   6.537   2.379
  293SOL    HW1 1778   4.638   6.543   2.391
  293SOL    HW2 1779   4.759   6.537   2.282
  294SOL     OW 1780   5.823   0.008   5.726
  294SOL    HW1 1781   5.767   0.082   5.686
  294SOL    HW2 1782   5.784   6.996   5.814
  295SOL     OW 1783   1.197   2.144   5.075
  295SOL    HW1 1784   1.199   2.222   5.137
  295SOL    HW2 1785   1.159   2.065   5.121
  296SOL     OW 1786   6.404   1.446   1.020
  296SOL    HW1 1787   6.496   1.449   0.981
  296SOL    HW2 1788   6.389   1.528   1.076
  297SOL     OW 1789   5.108   5.123   3.976
  297SOL    HW1 1790   5.025   5.149   4.027
  297SOL    HW2 1791   5.102   5.158   3.883
  298SOL     OW 1792   4.439   0.476   0.827
  298SOL    HW1 1793   4.419   0.426   0.743
  298SOL    HW2 1794   4.353   0.499   0.873
  299SOL     OW 1795   3.346   1.884   0.345
  299SOL    HW1 1796   3.409   1.962   0.355
  299SOL    HW2 1797   3.252   1.917   0.350
  300SOL     OW 1798   3.534   1.246   2.179
  300SOL    HW1 1799   3.434   1.248   2.184
  300SOL    HW2 1800   3.566   1.152   2.177
  301SOL     OW 1801   5.274   6.511   1.597
  301SOL    HW1 1802   5.300   6.554   1.683
  301SOL    HW2 1803   5.269   6.412   1.610
  302SOL     OW 1804   6.943   6.381   1.565
  302SOL    HW1 1805   6.948   6.434   1.650
  302SOL    HW2 1806   6.978   6.436   1.489
  303SOL     OW 1807   5.664   5.883   2.384
  303SOL    HW1 1808   5.687   5.789   2.408
  303SOL    HW2 1809   5.616   5.884   2.296
  304SOL     OW 1810   1.295   0.212   5.625
  304SOL    HW1 1811   1.352   0.162   5.560
  304SOL    HW2 1812   1.281   0.305   5.592
  305SOL     OW 1813   1.088   3.056   1.676
  305SOL    HW1 1814   1.074   3.011   1.765
  305SOL    HW2 1815   1.185   3.073   1.662
  306SOL     OW 1816   6.994   0.772   2.391
  306SOL    HW1 1817   6.962   0.838   2.459
  306SOL    HW2 1818   0.079   0.775   2.387
  307SOL     OW 1819   3.516   3.203   0.732
  307SOL    HW1 1820   3.531   3.150   0.816
  307SOL    HW2 1821   3.418   3.215   0.717
  308SOL     OW 1822   5.728   1.761   4.514
  308SOL    HW1 1823   5.735   1.676   4.565
  308SOL    HW2 1824   5.820   1.796   4.494
  309SOL     OW 1825   0.201   0.039   6.799
  309SOL    HW1 1826   0.137   0.078   6.864
  309SOL    HW2 1827   0.243   0.112   6.745
  310SOL     OW 1828   5.947   6.129   4.301
  310SOL    HW1 1829   5.957   6.177   4.388
  310SOL    HW2 1830   6.035   6.129   4.254
  311SOL     OW 1831   2.555   4.907   2.256
  311SOL    HW1 1832   2.458   4.929   2.241
  311SOL    HW2 1833   2.571   4.896   2.354
  312SOL     OW 1834   4.676   2.287   3.706
  312SOL    HW1 1835   4.631   2.369   3.669
  312SOL    HW2 1836   4.758   2.267   3.652
  313SOL     OW 1837   3.404   3.280   2.853
  313SOL    HW1 1838   3.351   3.364   2.869
  313SOL    HW2 1839   3.354   3.202   2.891
  314SOL     OW 1840   1.735   5.806   5.219
  314SOL    HW1 1841   1.749   5.710   5.193
  314SOL    HW2 1842   1.794   5.829   5.297
  315SOL     OW 1843   6.606   1.536   3.317
  315SOL    HW1 1844   6.529   1.531   3.381
  315SOL    HW2 1845   6.673   1.466   3.340
  316SOL     OW 1846   4.423   2.202   5.568
  316SOL    HW1 1847   4.329   2.216   5.538
  316SOL    HW2 1848   4.450   2.107   5.553
  317SOL     OW 1849   1.953   1.460   2.027
  317SOL    HW1 1850   1.872   1.427   2.076
  317SOL    HW2 1851   2.030   1.400   2.048
  318SOL     OW 1852   6.976   0.296   6.510
  318SOL    HW1 1853   0.051   0.340   6.508
  318SOL    HW2 1854   6.987   0.197   6.501
  319SOL     OW 1855   0.564   2.445   3.030
  319SOL    HW1 1856   0.644   2.462   3.088
  319SOL    HW2 1857   0.586   2.467   2.935
  320SOL     OW 1858   6.042   2.480   6.881
  320SOL    HW1 1859   6.082   2.572   6.888
  320SOL    HW2 1860   6.036   2.454   6.784
  321SOL     OW 1861   3.676   3.204   0.262
  321SOL    HW1 1862   3.617   3.124   0.247
  321SOL    HW2 1863   3.747   3.206   0.192
  322SOL     OW 1864   3.795   3.336   5.865
  322SOL    HW1 1865   3.736   3.402   5.911
  322SOL    HW2 1866   3.886   3.375   5.852
  323SOL     OW 1867   0.580   3.056   3.685
  323SOL    HW1 1868   0.504   3.115   3.712
  323SOL    HW2 1869   0.575   3.039   3.586
  324SOL     OW 1870   2.613   6.666   3.306
  324SOL    HW1 1871   2.517   6.637   3.308
  324SOL    HW2 1872   2.655   6.637   3.220
  325SOL     OW 1873   1.524   3.403   2.740
  325SOL    HW1 1874   1.585   3.414   2.818
  325SOL    HW2 1875   1.441   3.456   2.755
  326SOL     OW 1876   1.667   4.472   6.580
  326SOL    HW1 1877   1.656   4.415   6.498
  326SOL    HW2 1878   1.657   4.568   6.556
  327SOL     OW 1879   2.273   4.592   2.487
  327SOL    HW1 1880   2.209   4.604   2.564
  327SOL    HW2 1881   2.275   4.675   2.433
  328SOL     OW 1882   1.944   4.184   1.663
  328SOL    HW1 1883   1.854   4.166   1.705
  328SOL    HW2 1884   1.997   4.243   1.724
  329SOL     OW 1885   2.902   3.892   0.721
  329SOL    HW1 1886   2.812   3.908   0.760
  329SOL    HW2 1887   2.921   3.794   0.718
  330SOL     OW 1888   4.097   5.991   6.920
  330SOL    HW1 1889   4.059   5.963   6.832
  330SOL    HW2 1890   4.107   6.091   6.922
  331SOL     OW 1891   5.304   5.040   0.860
  331SOL    HW1 1892   5.215   5.057   0.816
  331SOL    HW2 1893   5.371   5.014   0.791
  332SOL     OW 1894   5.307   1.475   3.822
  332SOL    HW1 1895   5.341   1.563   3.852
  332SOL    HW2 1896   5.275   1.422   3.901
  333SOL     OW 1897   4.201   1.067   5.122
  333SOL    HW1 1898   4.155   0.982   5.147
  333SOL    HW2 1899   4.273   1.086   5.188
  334SOL     OW 1900   3.609   2.727   1.782
  334SOL    HW1 1901   3.524   2.753   1.828
  334SOL    HW2 1902   3.601   2.632   1.750
  335SOL     OW 1903   4.306   0.309   6.629
  335SOL    HW1 1904   4.400   0.326   6.600
  335SOL    HW2 1905   4.245   0.317   6.550
  336SOL     OW 1906   3.119   1.535   2.991
  336SOL    HW1 1907   3.059   1.517   2.914
  336SOL    HW2 1908   3.141   1.633   2.995
  337SOL     OW 1909   1.879   2.278   6.143
  337SOL    HW1 1910   1.815   2.313   6.211
  337SOL    HW2 1911   1.968   2.262   6.186
  338SOL     OW 1912   3.957   3.163   0.767
  338SOL    HW1 1913   4.032   3.165   0.702
  338SOL    HW2 1914   3.871   3.147   0.719
  339SOL     OW 1915   4.216   4.938   4.516
  339SOL    HW1 1916   4.137   4.929   4.455
  339SOL    HW2 1917   4.210   4.870   4.589
  340SOL     OW 1918   5.186   3.441   4.890
  340SOL    HW1 1919   5.211   3.432   4.986
  340SOL    HW2 1920   5.087   3.434   4.880
  341SOL     OW 1921   6.023   5.871   4.799
  341SOL    HW1 1922   6.029   5.870   4.699
  341SOL    HW2 1923   5.969   5.792   4.830
  342SOL     OW 1924   4.628   3.425   0.854
  342SOL    HW1 1925   4.642   3.346   0.913
  342SOL    HW2 1926   4.541   3.416   0.806
  343SOL     OW 1927   0.281   6.310   2.738
  343SOL    HW1 1928   0.336   6.314   2.822
  343SOL    HW2 1929   0.254   6.215   2.721
  344SOL     OW 1930   1.074   1.823   2.226
  344SOL    HW1 1931   1.003   1.810   2.157
  344SOL    HW2 1932   1.033   1.820   2.318
  345SOL     OW 1933   6.789   2.036   4.131
  345SOL    HW1 1934   6.788   2.042   4.231
  345SOL    HW2 1935   6.785   1.940   4.103
  346SOL     OW 1936   1.695   6.949   2.638
  346SOL    HW1 1937   1.626   6.898   2.586
  346SOL    HW2 1938   1.771   6.972   2.577
  347SOL     OW 1939   2.756   5.820   6.574
  347SOL    HW1 1940   2.660   5.820   6.549
  347SOL    HW2 1941   2.773   5.892   6.641
  348SOL     OW 1942   4.241   5.062   2.769
  348SOL    HW1 1943   4.334   5.049   2.803
  348SOL    HW2 1944   4.185   5.108   2.838
  349SOL     OW 1945   6.697   4.397   2.241
  349SOL    HW1 1946   6.678   4.463   2.313
  349SOL    HW2 1947   6.634   4.320   2.248
  350SOL     OW 1948   3.195   2.922   0.464
  350SOL    HW1 1949   3.288   2.956   0.477
  350SOL    HW2 1950   3.190   2.867   0.381
  351SOL     OW 1951   3.058   3.555   0.431
  351SOL    HW1 1952   2.980   3.592   0.382
  351SOL    HW2 1953   3.104   3.486   0.374
  352SOL     OW 1954   4.514   6.310   3.608
  352SOL    HW1 1955   4.556   6.249   3.541
  352SOL    HW2 1956   4.416   6.313   3.594
  353SOL     OW 1957   3.165   0.327   5.846
  353SOL    HW1 1958   3.252   0.374   5.858
  353SOL    HW2 1959   3.095   0.393   5.819
  354SOL     OW 1960   5.166   2.471   0.367
  354SOL    HW1 1961   5.230   2.394   0.379
  354SOL    HW2 1962   5.129   2.469   0.275
  355SOL     OW 1963   1.820   3.160   2.381
  355SOL    HW1 1964   1.870   3.077   2.408
  355SOL    HW2 1965   1.800   3.215   2.462
  356SOL     OW 1966   2.231   0.465   4.738
  356SOL    HW1 1967   2.166   0.399   4.776
  356SOL    HW2 1968   2.205   0.486   4.644
  357SOL     OW 1969   0.717   6.083   4.227
  357SOL    HW1 1970   0.637   6.115   4.177
  357SOL    HW2 1971   0.687   6.020   4.300
  358SOL     OW 1972   4.080   6.316   1.134
  358SOL    HW1 1973   4.134   6.391   1.172
  358SOL    HW2 1974   4.012   6.352   1.071
  359SOL     OW 1975   3.527   0.566   1.547
  359SOL    HW1 1976   3.482   0.533   1.464
  359SOL    HW2 1977   3.624   0.578   1.530
  360SOL     OW 1978   1.442   4.254   4.412
  360SOL    HW1 1979   1.425   4.345   4.450
  360SOL    HW2 1980   1.493   4.199   4.478
  361SOL     OW 1981   6.218   6.298   2.880
  361SOL    HW1 1982   6.190   6.247   2.799
  361SOL    HW2 1983   6.246   6.390   2.854
  362SOL     OW 1984   3.491   4.135   0.430
  362SOL    HW1 1985   3.485   4.202   0.505
  362SOL    HW2 1986   3.410   4.076   0.433
  363SOL     OW 1987   5.932   4.714   3.096
  363SOL    HW1 1988   5.920   4.708   2.997
  363SOL    HW2 1989   5.929   4.623   3.136
  364SOL     OW 1990   0.526   4.848   6.406
  364SOL    HW1 1991   0.606   4.789   6.411
  364SOL    HW2 1992   0.484   4.854   6.497
  365SOL     OW 1993   3.723   1.013   1.172
  365SOL    HW1 1994   3.643   1.068   1.197
  365SOL    HW2 1995   3.764   0.974   1.254
  366SOL     OW 1996   5.658   2.812   6.983
  366SOL    HW1 1997   5.593   2.804   0.044
  366SOL    HW2 1998   5.750   2.823   0.005
  367SOL     OW 1999   5.870   2.757   6.006
  367SOL    HW1 2000   5.807   2.762   6.084
  367SOL    HW2 2001   5.957   2.720   6.037
  368SOL     OW 2002   6.553   2.459   5.992
  368SOL    HW1 2003   6.536   2.434   5.897
  368SOL    HW2 2004   6.651   2.470   6.006
  369SOL     OW 2005   6.017   4.316   2.935
  369SOL    HW1 2006   5.977   4.232   2.898
  369SOL    HW2 2007   6.111   4.299   2.961
  370SOL     OW 2008   1.219   1.798   4.229
  370SOL    HW1 2009   1.269   1.812   4.315
  370SOL    HW2 2010   1.161   1.877   4.211
  371SOL     OW 2011   1.894   4.540   6.727
  371SOL    HW1 2012   1.825   4.489   6.675
  371SOL    HW2 2013   1.881   4.523   6.825
  372SOL     OW 2014   1.834   6.982   5.193
  372SOL    HW1 2015   1.837   7.003   5.095
  372SOL    HW2 2016   1.795   0.045   5.242
  373SOL     OW 2017   5.244   6.381   5.509
  373SOL    HW1 2018   5.290   6.403   5.423
  373SOL    HW2 2019   5.202   6.463   5.547
  374SOL     OW 2020   2.414   2.213   2.945
  374SOL    HW1 2021   2.443   2.127   2.902
  374SOL    HW2 2022   2.493   2.274   2.954
  375SOL     OW 2023   0.795   4.990   4.909
  375SOL    HW1 2024   0.833   4.981   5.001
  375SOL    HW2 2025   0.848   4.934   4.846
  376SOL     OW 2026   1.657   1.830   5.526
  376SOL    HW1 2027   1.743   1.795   5.489
  376SOL    HW2 2028   1.674   1.876   5.614
  377SOL     OW 2029   2.136   2.571   0.096
  377SOL    HW1 2030   2.156   2.666   0.073
  377SOL    HW2 2031   2.038   2.557   0.099
  378SOL     OW 2032   3.964   1.505   6.091
  378SOL    HW1 2033   4.014   1.467   6.014
  378SOL    HW2 2034   3.891   1.565   6.058
  379SOL     OW 2035   4.901   3.084   0.408
  379SOL    HW1 2036   4.818   3.035   0.382
  379SOL    HW2 2037   4.883   3.182   0.411
  380SOL     OW 2038   2.953   1.397   0.744
  380SOL    HW1 2039   2.889   1.451   0.689
  380SOL    HW2 2040   3.047   1.422   0.720
  381SOL     OW 2041   1.495   3.541   3.903
  381SOL    HW1 2042   1.475   3.448   3.932
  381SOL    HW2 2043   1.566   3.580   3.962
  382SOL     OW 2044   5.794   0.353   6.846
  382SOL    HW1 2045   5.768   0.311   6.933
  382SOL    HW2 2046   5.861   0.425   6.863
  383SOL     OW 2047   4.292   2.871   0.750
  383SOL    HW1 2048   4.194   2.878   0.765
  383SOL    HW2 2049   4.310   2.806   0.676
  384SOL     OW 2050   0.310   5.094   4.047
  384SOL    HW1 2051   0.377   5.094   4.121
  384SOL    HW2 2052   0.348   5.141   3.968
  385SOL     OW 2053   3.456   6.039   6.222
  385SOL    HW1 2054   3.542   6.061   6.174
  385SOL    HW2 2055   3.385   6.103   6.192
  386SOL     OW 2056   3.745   0.182   4.120
  386SOL    HW1 2057   3.784   0.195   4.028
  386SOL    HW2 2058   3.817   0.153   4.183
  387SOL     OW 2059   1.452   5.903   2.306
  387SOL    HW1 2060   1.449   6.001   2.327
  387SOL    HW2 2061   1.450   5.850   2.392
  388SOL     OW 2062   2.011   1.965   6.422
  388SOL    HW1 2063   1.971   1.966   6.330
  388SOL    HW2 2064   1.994   2.053   6.466
  389SOL     OW 2065   3.804   3.289   2.487
  389SOL    HW1 2066   3.787   3.236   2.405
  389SOL    HW2 2067   3.798   3.230   2.568
  390SOL     OW 2068   3.684   0.925   3.443
  390SOL    HW1 2069   3.739   0.951   3.364
  390SOL    HW2 2070   3.705   0.830   3.468
  391SOL     OW 2071   2.165   2.647   6.807
  391SOL    HW1 2072   2.259   2.642   6.774
  391SOL    HW2 2073   2.155   2.588   6.887
  392SOL     OW 2074   1.524   4.000   0.412
  392SOL    HW1 2075   1.615   4.004   0.453
  392SOL    HW2 2076   1.533   3.979   0.314
  393SOL     OW 2077   0.127   4.649   5.390
  393SOL    HW1 2078   0.176   4.690   5.313
  393SOL    HW2 2079   0.110   4.552   5.370
  394SOL     OW 2080   0.172   0.881   0.035
  394SOL    HW1 2081   0.089   0.937   0.027
  394SOL    HW2 2082   0.182   0.849   0.129
  395SOL     OW 2083   5.155   3.955   3.083
  395SOL    HW1 2084   5.108   3.881   3.036
  395SOL    HW2 2085   5.195   3.921   3.168
  396SOL     OW 2086   3.922   3.812   2.120
  396SOL    HW1 2087   3.974   3.726   2.126
  396SOL    HW2 2088   3.848   3.802   2.054
  397SOL     OW 2089   4.086   2.422   5.769
  397SOL    HW1 2090   4.005   2.466   5.728
  397SOL    HW2 2091   4.056   2.349   5.831
  398SOL     OW 2092   0.247   6.338   2.032
  398SOL    HW1 2093   0.231   6.411   1.965
  398SOL    HW2 2094   0.341   6.306   2.024
  399SOL     OW 2095   4.583   6.390   2.835
  399SOL    HW1 2096   4.679   6.402   2.811
  399SOL    HW2 2097   4.560   6.447   2.914
  400SOL     OW 2098   6.427   6.694   5.379
  400SOL    HW1 2099   6.379   6.648   5.304
  400SOL    HW2 2100   6.450   6.787   5.352
  401SOL     OW 2101   4.691   0.955   5.443
  401SOL    HW1 2102   4.599   0.970   5.480
  401SOL    HW2 2103   4.716   0.859   5.455
  402SOL     OW 2104   5.993   6.841   3.256
  402SOL    HW1 2105   6.040   6.893   3.184
  402SOL    HW2 2106   5.895   6.844   3.240
  403SOL     OW 2107   3.774   2.278   5.329
  403SOL    HW1 2108   3.786   2.214   5.406
  403SOL    HW2 2109   3.678   2.277   5.301
  404SOL     OW 2110   1.671   6.081   4.060
  404SOL    HW1 2111   1.615   5.999   4.075
  404SOL    HW2 2112   1.689   6.092   3.962
  405SOL     OW 2113   1.624   3.550   1.781
  405SOL    HW1 2114   1.588   3.569   1.872
  405SOL    HW2 2115   1.723   3.559   1.782
  406SOL     OW 2116   0.845   3.975   3.516
  406SOL    HW1 2117   0.873   3.955   3.422
  406SOL    HW2 2118   0.745   3.985   3.520
  407SOL     OW 2119   2.019   0.460   3.670
  407SOL    HW1 2120   1.971   0.529   3.723
  407SOL    HW2 2121   2.109   0.443   3.710
  408SOL     OW 2122   1.098   1.372   3.191
  408SOL    HW1 2123   1.115   1.310   3.267
  408SOL    HW2 2124   1.143   1.460   3.208
  409SOL     OW 2125   6.233   2.946   1.386
  409SOL    HW1 2126   6.219   2.975   1.480
  409SOL    HW2 2127   6.220   2.847   1.380
  410SOL     OW 2128   2.166   0.318   6.708
  410SOL    HW1 2129   2.073   0.284   6.698
  410SOL    HW2 2130   2.193   0.313   6.804
  411SOL     OW 2131   5.888   6.686   6.666
  411SOL    HW1 2132   5.810   6.744   6.686
  411SOL    HW2 2133   5.869   6.592   6.696
  412SOL     OW 2134   4.824   6.778   3.930
  412SOL    HW1 2135   4.848   6.698   3.984
  412SOL    HW2 2136   4.736   6.764   3.885
  413SOL     OW 2137   5.450   4.712   1.871
  413SOL    HW1 2138   5.463   4.695   1.773
  413SOL    HW2 2139   5.360   4.754   1.886
  414SOL     OW 2140   3.647   4.909   4.129
  414SOL    HW1 2141   3.713   4.909   4.054
  414SOL    HW2 2142   3.633   5.002   4.161
  415SOL     OW 2143   0.845   5.972   6.648
  415SOL    HW1 2144   0.819   5.947   6.741
  415SOL    HW2 2145   0.882   6.065   6.648
  416SOL     OW 2146   5.394   5.004   4.917
  416SOL    HW1 2147   5.347   5.070   4.975
  416SOL    HW2 2148   5.342   4.919   4.912
  417SOL     OW 2149   2.425   5.640   0.711
  417SOL    HW1 2150   2.493   5.663   0.781
  417SOL    HW2 2151   2.339   5.685   0.731
  418SOL     OW 2152   4.285   5.981   1.699
  418SOL    HW1 2153   4.262   5.917   1.773
  418SOL    HW2 2154   4.204   5.999   1.644
  419SOL     OW 2155   1.712   0.605   1.522
  419SOL    HW1 2156   1.699   0.556   1.608
  419SOL    HW2 2157   1.641   0.675   1.512
  420SOL     OW 2158   6.463   3.046   0.990
  420SOL    HW1 2159   6.482   3.139   0.957
  420SOL    HW2 2160   6.439   3.050   1.087
  421SOL     OW 2161   6.943   4.409   5.791
  421SOL    HW1 2162   6.943   4.431   5.888
  421SOL    HW2 2163   7.005   4.470   5.742
  422SOL     OW 2164   5.792   4.683   0.430
  422SOL    HW1 2165   5.854   4.696   0.508
  422SOL    HW2 2166   5.813   4.596   0.386
  423SOL     OW 2167   0.905   2.780   0.469
  423SOL    HW1 2168   0.982   2.750   0.413
  423SOL    HW2 2169   0.837   2.825   0.410
  424SOL     OW 2170   3.024   3.610   1.203
  424SOL    HW1 2171   3.033   3.564   1.291
  424SOL    HW2 2172   2.979   3.698   1.217
  425SOL     OW 2173   6.307   1.193   1.995
  425SOL    HW1 2174   6.348   1.103   2.011
  425SOL    HW2 2175   6.373   1.264   2.020
  426SOL     OW 2176   5.031   2.539   4.114
  426SOL    HW1 2177   4.982   2.509   4.031
  426SOL    HW2 2178   5.078   2.625   4.095
  427SOL     OW 2179   5.693   4.918   3.120
  427SOL    HW1 2180   5.755   4.842   3.103
  427SOL    HW2 2181   5.705   4.988   3.050
  428SOL     OW 2182   4.522   0.152   4.774
  428SOL    HW1 2183   4.583   0.082   4.737
  428SOL    HW2 2184   4.559   0.243   4.752
  429SOL     OW 2185   2.458   4.045   1.460
  429SOL    HW1 2186   2.462   4.144   1.461
  429SOL    HW2 2187   2.492   4.010   1.372
  430SOL     OW 2188   0.390   0.144   4.073
  430SOL    HW1 2189   0.481   0.111   4.049
  430SOL    HW2 2190   0.395   0.196   4.158
  431SOL     OW 2191   3.494   0.354   0.614
  431SOL    HW1 2192   3.394   0.344   0.622
  431SOL    HW2 2193   3.539   0.281   0.665
  432SOL     OW 2194   6.160   1.927   2.012
  432SOL    HW1 2195   6.172   1.978   1.927
  432SOL    HW2 2196   6.067   1.890   2.017
  433SOL     OW 2197   3.193   6.281   4.751
  433SOL    HW1 2198   3.196   6.253   4.655
  433SOL    HW2 2199   3.203   6.380   4.758
  434SOL     OW 2200   3.946   5.480   2.220
  434SOL    HW1 2201   3.969   5.534   2.301
  434SOL    HW2 2202   3.951   5.538   2.139
  435SOL     OW 2203   3.881   2.185   5.096
  435SOL    HW1 2204   3.795   2.135   5.086
  435SOL    HW2 2205   3.888   2.222   5.188
  436SOL     OW 2206   3.143   5.901   1.005
  436SOL    HW1 2207   3.198   5.876   1.085
  436SOL    HW2 2208   3.093   5.986   1.025
  437SOL     OW 2209   0.919   0.065   6.567
  437SOL    HW1 2210   0.887   6.986   6.573
  437SOL    HW2 2211   1.012   0.067   6.531
  438SOL     OW 2212   2.201   2.987   2.161
  438SOL    HW1 2213   2.169   2.976   2.067
  438SOL    HW2 2214   2.231   2.899   2.197
  439SOL     OW 2215   6.148   4.787   3.232
  439SOL    HW1 2216   6.076   4.791   3.162
  439SOL    HW2 2217   6.143   4.868   3.290
  440SOL     OW 2218   1.144   1.546   5.205
  440SOL    HW1 2219   1.153   1.554   5.304
  440SOL    HW2 2220   1.233   1.523   5.166
  441SOL     OW 2221   1.340   2.649   3.964
  441SOL    HW1 2222   1.427   2.629   3.918
  441SOL    HW2 2223   1.300   2.732   3.926
  442SOL     OW 2224   2.624   5.003   6.562
  442SOL    HW1 2225   2.563   5.049   6.498
  442SOL    HW2 2226   2.629   4.906   6.539
  443SOL     OW 2227   0.372   4.121   4.491
  443SOL    HW1 2228   0.320   4.037   4.510
  443SOL    HW2 2229   0.457   4.121   4.544
  444SOL     OW 2230   5.141   2.022   5.787
  444SOL    HW1 2231   5.089   2.092   5.836
  444SOL    HW2 2232   5.156   1.944   5.848
  445SOL     OW 2233   1.476   5.526   3.279
  445SOL    HW1 2234   1.445   5.450   3.337
  445SOL    HW2 2235   1.505   5.602   3.337
  446SOL     OW 2236   3.829   4.912   3.920
  446SOL    HW1 2237   3.911   4.855   3.913
  446SOL    HW2 2238   3.771   4.896   3.841
  447SOL     OW 2239   0.720   2.845   0.122
  447SOL    HW1 2240   0.786   2.848   0.047
  447SOL    HW2 2241   0.637   2.797   0.092
  448SOL     OW 2242   2.833   0.791   4.396
  448SOL    HW1 2243   2.819   0.860   4.468
  448SOL    HW2 2244   2.885   0.831   4.321
  449SOL     OW 2245   4.402   0.533   4.717
  449SOL    HW1 2246   4.436   0.616   4.762
  449SOL    HW2 2247   4.366   0.557   4.627
  450SOL     OW 2248   1.530   5.787   3.950
  450SOL    HW1 2249   1.512   5.698   3.907
  450SOL    HW2 2250   1.573   5.847   3.884
  451SOL     OW 2251   2.146   2.034   3.689
  451SOL    HW1 2252   2.162   1.960   3.625
  451SOL    HW2 2253   2.185   2.119   3.653
  452SOL     OW 2254   6.478   6.193   1.439
  452SOL    HW1 2255   6.407   6.201   1.509
  452SOL    HW2 2256   6.559   6.244   1.468
  453SOL     OW 2257   3.352   0.701   4.744
  453SOL    HW1 2258   3.440   0.745   4.765
  453SOL    HW2 2259   3.366   0.633   4.672
  454SOL     OW 2260   6.954   4.532   6.044
  454SOL    HW1 2261   7.011   4.613   6.057
  454SOL    HW2 2262   6.884   4.529   6.116
  455SOL     OW 2263   6.310   2.426   3.098
  455SOL    HW1 2264   6.242   2.357   3.074
  455SOL    HW2 2265   6.274   2.483   3.172
  456SOL     OW 2266   5.449   5.886   4.401
  456SOL    HW1 2267   5.491   5.915   4.487
  456SOL    HW2 2268   5.521   5.861   4.337
  457SOL     OW 2269   2.127   3.531   3.823
  457SOL    HW1 2270   2.095   3.508   3.731
  457SOL    HW2 2271   2.177   3.617   3.821
  458SOL     OW 2272   4.088   5.337   3.840
  458SOL    HW1 2273   4.064   5.249   3.880
  458SOL    HW2 2274   4.182   5.332   3.804
  459SOL     OW 2275   2.022   6.812   4.822
  459SOL    HW1 2276   2.110   6.774   4.791
  459SOL    HW2 2277   1.947   6.756   4.788
  460SOL     OW 2278   1.738   0.332   3.811
  460SOL    HW1 2279   1.730   0.370   3.718
  460SOL    HW2 2280   1.720   0.404   3.877
  461SOL     OW 2281   6.072   6.911   5.747
  461SOL    HW1 2282   6.092   6.823   5.704
  461SOL    HW2 2283   5.983   6.944   5.716
  462SOL     OW 2284   3.745   2.685   6.192
  462SOL    HW1 2285   3.735   2.716   6.287
  462SOL    HW2 2286   3.655   2.665   6.154
  463SOL     OW 2287   6.449   5.054   3.450
  463SOL    HW1 2288   6.547   5.073   3.457
  463SOL    HW2 2289   6.419   5.005   3.531
  464SOL     OW 2290   2.265   2.522   6.172
  464SOL    HW1 2291   2.236   2.431   6.142
  464SOL    HW2 2292   2.335   2.512   6.242
  465SOL     OW 2293   0.972   2.559   4.813
  465SOL    HW1 2294   0.924   2.555   4.901
  465SOL    HW2 2295   0.948   2.643   4.765
  466SOL     OW 2296   1.502   5.528   2.882
  466SOL    HW1 2297   1.589   5.578   2.877
  466SOL    HW2 2298   1.520   5.430   2.888
  467SOL     OW 2299   1.425   1.188   0.321
  467SOL    HW1 2300   1.456   1.167   0.413
  467SOL    HW2 2301   1.463   1.122   0.257
  468SOL     OW 2302   3.390   6.465   7.011
  468SOL    HW1 2303   3.333   6.400   0.048
  468SOL    HW2 2304   3.455   6.509   0.058
  469SOL     OW 2305   2.919   4.684   0.146
  469SOL    HW1 2306   2.840   4.745   0.149
  469SOL    HW2 2307   2.999   4.735   0.113
  470SOL     OW 2308   4.521   0.099   2.391
  470SOL    HW1 2309   4.441   0.148   2.427
  470SOL    HW2 2310   4.491   0.019   2.340
  471SOL     OW 2311   2.012   2.284   4.072
  471SOL    HW1 2312   2.097   2.233   4.060
  471SOL    HW2 2313   1.934   2.222   4.069
  472SOL     OW 2314   5.093   3.485   6.419
  472SOL    HW1 2315   5.016   3.526   6.468
  472SOL    HW2 2316   5.161   3.556   6.399
  473SOL     OW 2317   0.978   3.162   2.397
  473SOL    HW1 2318   0.903   3.210   2.444
  473SOL    HW2 2319   0.986   3.069   2.433
  474SOL     OW 2320   5.244   5.211   4.411
  474SOL    HW1 2321   5.147   5.220   4.436
  474SOL    HW2 2322   5.266   5.276   4.339
  475SOL     OW 2323   5.662   0.743   6.850
  475SOL    HW1 2324   5.723   0.741   6.771
  475SOL    HW2 2325   5.676   0.828   6.900
  476SOL     OW 2326   6.619   4.118   2.931
  476SOL    HW1 2327   6.535   4.138   2.981
  476SOL    HW2 2328   6.651   4.200   2.884
  477SOL     OW 2329   1.716   4.492   4.012
  477SOL    HW1 2330   1.709   4.429   4.090
  477SOL    HW2 2331   1.774   4.569   4.036
  478SOL     OW 2332   3.072   0.126   1.997
  478SOL    HW1 2333   3.030   0.037   1.977
  478SOL    HW2 2334   3.153   0.138   1.939
  479SOL     OW 2335   4.230   2.293   6.613
  479SOL    HW1 2336   4.207   2.390   6.604
  479SOL    HW2 2337   4.286   2.265   6.535
  480SOL     OW 2338   2.047   1.131   0.098
  480SOL    HW1 2339   2.098   1.106   0.179
  480SOL    HW2 2340   2.105   1.183   0.035
  481SOL     OW 2341   1.388   0.572   0.732
  481SOL    HW1 2342   1.412   0.486   0.776
  481SOL    HW2 2343   1.300   0.563   0.686
  482SOL     OW 2344   4.499   4.943   3.258
  482SOL    HW1 2345   4.496   4.923   3.356
  482SOL    HW2 2346   4.445   4.876   3.209
  483SOL     OW 2347   6.843   1.507   2.091
  483SOL    HW1 2348   6.761   1.465   2.052
  483SOL    HW2 2349   6.834   1.511   2.191
  484SOL     OW 2350   1.435   2.982   4.976
  484SOL    HW1 2351   1.504   2.950   4.913
  484SOL    HW2 2352   1.432   3.082   4.974
  485SOL     OW 2353   3.731   5.369   2.897
  485SOL    HW1 2354   3.740   5.279   2.939
  485SOL    HW2 2355   3.820   5.398   2.862
  486SOL     OW 2356   6.624   2.077   0.883
  486SOL    HW1 2357   6.529   2.108   0.888
  486SOL    HW2 2358   6.642   2.036   0.794
  487SOL     OW 2359   1.336   2.018   1.498
  487SOL    HW1 2360   1.411   2.002   1.562
  487SOL    HW2 2361   1.316   1.934   1.448
  488SOL     OW 2362   0.296   1.729   2.143
  488SOL    HW1 2363   0.391   1.701   2.159
  488SOL    HW2 2364   0.248   1.657   2.094
  489SOL     OW 2365   2.980   6.171   6.406
  489SOL    HW1 2366   2.888   6.207   6.392
  489SOL    HW2 2367   3.046   6.226   6.355
  490SOL     OW 2368   6.894   5.796   3.220
  490SOL    HW1 2369   6.852   5.829   3.305
  490SOL    HW2 2370   6.981   5.752   3.241
  491SOL     OW 2371   0.135   3.024   2.357
  491SOL    HW1 2372   0.051   2.976   2.384
  491SOL    HW2 2373   0.170   3.077   2.434
  492SOL     OW 2374   2.574   0.230   5.331
  492SOL    HW1 2375   2.561   0.302   5.263
  492SOL    HW2 2376   2.492   0.222   5.387
  493SOL     OW 2377   5.005   6.365   5.365
  493SOL    HW1 2378   5.098   6.345   5.399
  493SOL    HW2 2379   4.988   6.463   5.373
  494SOL     OW 2380   6.691   1.260   6.705
  494SOL    HW1 2381   6.764   1.201   6.741
  494SOL    HW2 2382   6.712   1.285   6.611
  495SOL     OW 2383   5.199   5.700   3.874
  495SOL    HW1 2384   5.251   5.626   3.915
  495SOL    HW2 2385   5.146   5.665   3.797
  496SOL     OW 2386   5.214   3.384   1.898
  496SOL    HW1 2387   5.216   3.343   1.989
  496SOL    HW2 2388   5.259   3.473   1.900
  497SOL     OW 2389   3.255   1.041   4.486
  497SOL    HW1 2390   3.223   0.985   4.563
  497SOL    HW2 2391   3.315   1.113   4.520
  498SOL     OW 2392   2.130   3.988   1.698
  498SOL    HW1 2393   2.179   3.965   1.614
  498SOL    HW2 2394   2.060   4.057   1.678
  499SOL     OW 2395   2.987   0.505   4.209
  499SOL    HW1 2396   2.963   0.584   4.153
  499SOL    HW2 2397   3.000   0.534   4.304
  500SOL     OW 2398   0.658   3.744   3.861
  500SOL    HW1 2399   0.675   3.833   3.904
  500SOL    HW2 2400   0.569   3.710   3.892
  501SOL     OW 2401   2.546   6.112   0.327
  501SOL    HW1 2402   2.450   6.111   0.299
  501SOL    HW2 2403   2.576   6.207   0.339
  502SOL     OW 2404   6.658   4.154   0.115
  502SOL    HW1 2405   6.600   4.207   0.054
  502SOL    HW2 2406   6.660   4.059   0.085
  503SOL     OW 2407   6.119   5.859   6.384
  503SOL    HW1 2408   6.193   5.926   6.374
  503SOL    HW2 2409   6.055   5.870   6.308
  504SOL     OW 2410   2.107   5.628   2.927
  504SOL    HW1 2411   2.108   5.681   2.843
  504SOL    HW2 2412   2.201   5.608   2.955
  505SOL     OW 2413   3.427   6.542   4.740
  505SOL    HW1 2414   3.450   6.461   4.793
  505SOL    HW2 2415   3.472   6.622   4.780
  506SOL     OW 2416   1.438   5.263   4.908
  506SOL    HW1 2417   1.352   5.300   4.943
  506SOL    HW2 2418   1.433   5.163   4.906
  507SOL     OW 2419   3.729   6.958   3.162
  507SOL    HW1 2420   3.647   6.906   3.136
  507SOL    HW2 2421   3.805   6.932   3.103
  508SOL     OW 2422   6.606   3.856   2.094
  508SOL    HW1 2423   6.632   3.878   2.000
  508SOL    HW2 2424   6.513   3.888   2.112
  509SOL     OW 2425   3.379   0.944   1.781
  509SOL    HW1 2426   3.387   0.908   1.688
  509SOL    HW2 2427   3.291   0.991   1.791
  510SOL     OW 2428   6.075   4.889   0.313
  510SOL    HW1 2429   6.079   4.795   0.279
  510SOL    HW2 2430   5.981   4.924   0.305
  511SOL     OW 2431   0.662   1.246   6.028
  511SOL    HW1 2432   0.636   1.155   6.059
  511SOL    HW2 2433   0.587   1.310   6.047
  512SOL     OW 2434   6.597   2.848   0.031
  512SOL    HW1 2435   6.639   2.911   0.096
  512SOL    HW2 2436   6.553   2.899   6.972
  513SOL     OW 2437   5.926   6.141   3.193
  513SOL    HW1 2438   5.975   6.114   3.275
  513SOL    HW2 2439   5.939   6.239   3.176
  514SOL     OW 2440   6.772   2.701   4.175
  514SOL    HW1 2441   6.803   2.610   4.204
  514SOL    HW2 2442   6.697   2.732   4.234
  515SOL     OW 2443   1.852   0.926   6.460
  515SOL    HW1 2444   1.812   0.993   6.399
  515SOL    HW2 2445   1.807   0.931   6.550
  516SOL     OW 2446   2.701   4.696   1.799
  516SOL    HW1 2447   2.777   4.639   1.830
  516SOL    HW2 2448   2.676   4.760   1.872
  517SOL     OW 2449   4.643   5.428   2.498
  517SOL    HW1 2450   4.655   5.354   2.431
  517SOL    HW2 2451   4.621   5.389   2.587
  518SOL     OW 2452   1.937   2.033   2.827
  518SOL    HW1 2453   2.026   2.013   2.788
  518SOL    HW2 2454   1.865   2.015   2.759
  519SOL     OW 2455   1.017   1.015   4.326
  519SOL    HW1 2456   1.080   0.987   4.254
  519SOL    HW2 2457   0.928   1.039   4.286
  520SOL     OW 2458   6.059   4.663   0.180
  520SOL    HW1 2459   6.013   4.578   0.207
  520SOL    HW2 2460   6.158   4.646   0.172
  521SOL     OW 2461   6.931   3.595   5.554
  521SOL    HW1 2462   0.000   3.541   5.561
  521SOL    HW2 2463   6.879   3.564   5.475
  522SOL     OW 2464   3.614   3.384   5.246
  522SOL    HW1 2465   3.681   3.425   5.307
  522SOL    HW2 2466   3.629   3.416   5.152
  523SOL     OW 2467   0.826   4.931   1.231
  523SOL    HW1 2468   0.894   4.994   1.269
  523SOL    HW2 2469   0.830   4.844   1.279
  524SOL     OW 2470   0.405   1.393   0.765
  524SOL    HW1 2471   0.343   1.337   0.819
  524SOL    HW2 2472   0.484   1.339   0.737
  525SOL     OW 2473   1.856   3.336   6.461
  525SOL    HW1 2474   1.770   3.290   6.439
  525SOL    HW2 2475   1.873   3.407   6.392
  526SOL     OW 2476   4.531   6.444   4.383
  526SOL    HW1 2477   4.511   6.358   4.338
  526SOL    HW2 2478   4.630   6.462   4.379
  527SOL     OW 2479   6.770   3.106   6.883
  527SOL    HW1 2480   6.857   3.057   6.881
  527SOL    HW2 2481   6.788   3.205   6.882
  528SOL     OW 2482   1.323   1.523   3.787
  528SOL    HW1 2483   1.283   1.432   3.792
  528SOL    HW2 2484   1.419   1.519   3.818
  529SOL     OW 2485   1.059   6.694   4.293
  529SOL    HW1 2486   1.094   6.655   4.378
  529SOL    HW2 2487   1.115   6.661   4.216
  530SOL     OW 2488   2.969   3.187   4.849
  530SOL    HW1 2489   3.043   3.121   4.864
  530SOL    HW2 2490   2.883   3.149   4.880
  531SOL     OW 2491   0.483   0.311   2.961
  531SOL    HW1 2492   0.539   0.393   2.974
  531SOL    HW2 2493   0.482   0.287   2.864
  532SOL     OW 2494   1.192   2.230   0.019
  532SOL    HW1 2495   1.287   2.200   0.032
  532SOL    HW2 2496   1.134   2.183   0.086
  533SOL     OW 2497   4.756   0.026   3.567
  533SOL    HW1 2498   4.759   6.971   3.495
  533SOL    HW2 2499   4.670   0.017   3.618
  534SOL     OW 2500   4.966   5.887   3.108
  534SOL    HW1 2501   4.915   5.863   3.025
  534SOL    HW2 2502   4.919   5.963   3.154
  535SOL     OW 2503   0.777   3.305   4.572
  535SOL    HW1 2504   0.836   3.385   4.570
  535SOL    HW2 2505   0.760   3.278   4.666
  536SOL     OW 2506   0.103   4.781   1.767
  536SOL    HW1 2507   0.093   4.711   1.838
  536SOL    HW2 2508   0.020   4.835   1.761
  537SOL     OW 2509   1.750   6.615   4.002
  537SOL    HW1 2510   1.791   6.659   4.082
  537SOL    HW2 2511   1.822   6.571   3.948
  538SOL     OW 2512   1.181   3.936   2.502
  538SOL    HW1 2513   1.258   3.997   2.515
  538SOL    HW2 2514   1.112   3.980   2.445
  539SOL     OW 2515   1.094   6.402   0.300
  539SOL    HW1 2516   1.042   6.405   0.215
  539SOL    HW2 2517   1.102   6.308   0.332
  540SOL     OW 2518   0.758   0.540   2.438
  540SOL    HW1 2519   0.841   0.597   2.430
  540SOL    HW2 2520   0.679   0.600   2.451
  541SOL     OW 2521   3.962   6.283   4.147
  541SOL    HW1 2522   3.929   6.273   4.241
  541SOL    HW2 2523   3.922   6.365   4.107
  542SOL     OW 2524   6.547   0.223   6.988
  542SOL    HW1 2525   6.538   0.171   0.058
  542SOL    HW2 2526   6.636   0.270   6.986
  543SOL     OW 2527   1.667   4.451   5.604
  543SOL    HW1 2528   1.702   4.364   5.570
  543SOL    HW2 2529   1.635   4.440   5.699
  544SOL     OW 2530   2.131   3.746   0.986
  544SOL    HW1 2531   2.129   3.761   1.085
  544SOL    HW2 2532   2.074   3.815   0.941
  545SOL     OW 2533   2.923   0.216   3.052
  545SOL    HW1 2534   2.908   0.120   3.030
  545SOL    HW2 2535   2.856   0.246   3.120
  546SOL     OW 2536   1.541   2.801   0.453
  546SOL    HW1 2537   1.477   2.869   0.489
  546SOL    HW2 2538   1.492   2.716   0.433
  547SOL     OW 2539   2.943   1.093   6.751
  547SOL    HW1 2540   3.023   1.105   6.811
  547SOL    HW2 2541   2.860   1.094   6.807
  548SOL     OW 2542   3.715   3.021   2.616
  548SOL    HW1 2543   3.643   2.998   2.550
  548SOL    HW2 2544   3.674   3.038   2.706
  549SOL     OW 2545   4.707   3.241   1.017
  549SOL    HW1 2546   4.762   3.261   1.098
  549SOL    HW2 2547   4.675   3.146   1.022
  550SOL     OW 2548   6.035   4.589   3.433
  550SOL    HW1 2549   6.125   4.632   3.445
  550SOL    HW2 2550   5.976   4.649   3.379
  551SOL     OW 2551   1.159   1.200   1.385
  551SOL    HW1 2552   1.067   1.224   1.418
  551SOL    HW2 2553   1.172   1.101   1.389
  552SOL     OW 2554   4.320   5.025   0.224
  552SOL    HW1 2555   4.343   5.089   0.151
  552SOL    HW2 2556   4.360   4.935   0.205
  553SOL     OW 2557   2.217   6.357   1.991
  553SOL    HW1 2558   2.168   6.318   1.913
  553SOL    HW2 2559   2.262   6.442   1.963
  554SOL     OW 2560   5.775   6.227   5.708
  554SOL    HW1 2561   5.822   6.141   5.727
  554SOL    HW2 2562   5.677   6.211   5.701
  555SOL     OW 2563   2.401   5.298   2.760
  555SOL    HW1 2564   2.338   5.276   2.686
  555SOL    HW2 2565   2.490   5.321   2.722
  556SOL     OW 2566   5.463   2.588   3.302
  556SOL    HW1 2567   5.404   2.584   3.221
  556SOL    HW2 2568   5.452   2.505   3.355
  557SOL     OW 2569   0.161   4.791   0.082
  557SOL    HW1 2570   0.208   4.767   0.167
  557SOL    HW2 2571   0.194   4.733   0.008
  558SOL     OW 2572   2.918   3.774   4.903
  558SOL    HW1 2573   2.856   3.814   4.971
  558SOL    HW2 2574   2.957   3.689   4.939
  559SOL     OW 2575   6.618   5.814   6.441
  559SOL    HW1 2576   6.548   5.877   6.407
  559SOL    HW2 2577   6.579   5.757   6.513
  560SOL     OW 2578   4.336   5.780   0.285
  560SOL    HW1 2579   4.258   5.842   0.287
  560SOL    HW2 2580   4.331   5.722   0.204
  561SOL     OW 2581   6.030   0.838   0.424
  561SOL    HW1 2582   6.082   0.918   0.454
  561SOL    HW2 2583   6.069   0.805   0.337
  562SOL     OW 2584   4.517   1.056   5.973
  562SOL    HW1 2585   4.542   0.978   6.031
  562SOL    HW2 2586   4.451   1.114   6.021
  563SOL     OW 2587   2.299   6.887   3.022
  563SOL    HW1 2588   2.226   6.949   2.990
  563SOL    HW2 2589   2.310   6.898   3.120
  564SOL     OW 2590   2.644   1.673   6.281
  564SOL    HW1 2591   2.606   1.730   6.354
  564SOL    HW2 2592   2.742   1.663   6.294
  565SOL     OW 2593   3.713   3.705   5.664
  565SOL    HW1 2594   3.739   3.633   5.599
  565SOL    HW2 2595   3.691   3.788   5.614
  566SOL     OW 2596   6.262   4.046   4.215
  566SOL    HW1 2597   6.279   4.130   4.266
  566SOL    HW2 2598   6.326   4.040   4.139
  567SOL     OW 2599   3.816   3.986   2.681
  567SOL    HW1 2600   3.874   4.056   2.639
  567SOL    HW2 2601   3.723   4.021   2.689
  568SOL     OW 2602   3.504   2.349   0.209
  568SOL    HW1 2603   3.419   2.331   0.160
  568SOL    HW2 2604   3.485   2.403   0.291
  569SOL     OW 2605   1.377   3.715   0.302
  569SOL    HW1 2606   1.394   3.630   0.253
  569SOL    HW2 2607   1.437   3.787   0.265
  570SOL     OW 2608   2.287   6.685   6.507
  570SOL    HW1 2609   2.322   6.768   6.550
  570SOL    HW2 2610   2.203   6.656   6.554
  571SOL     OW 2611   3.108   6.989   3.156
  571SOL    HW1 2612   3.177   6.951   3.093
  571SOL    HW2 2613   3.143   0.059   3.196
  572SOL     OW 2614   2.342   4.629   5.835
  572SOL    HW1 2615   2.412   4.688   5.795
  572SOL    HW2 2616   2.252   4.669   5.818
  573SOL     OW 2617   4.443   1.367   5.135
  573SOL    HW1 2618   4.504   1.349   5.212
  573SOL    HW2 2619   4.355   1.402   5.169
  574SOL     OW 2620   2.709   2.008   3.626
  574SOL    HW1 2621   2.774   1.933   3.614
  574SOL    HW2 2622   2.721   2.048   3.717
  575SOL     OW 2623   6.595   3.318   6.237
  575SOL    HW1 2624   6.636   3.228   6.226
  575SOL    HW2 2625   6.495   3.310   6.240
  576SOL     OW 2626   1.124   2.350   2.035
  576SOL    HW1 2627   1.191   2.284   2.002
  576SOL    HW2 2628   1.036   2.304   2.050
  577SOL     OW 2629   1.732   0.995   3.012
  577SOL    HW1 2630   1.748   1.062   3.084
  577SOL    HW2 2631   1.646   1.016   2.965
  578SOL     OW 2632   6.855   4.155   3.223
  578SOL    HW1 2633   6.772   4.101   3.205
  578SOL    HW2 2634   6.848   4.196   3.314
  579SOL     OW 2635   2.610   3.034   0.759
  579SOL    HW1 2636   2.617   2.947   0.809
  579SOL    HW2 2637   2.525   3.035   0.706
  580SOL     OW 2638   0.743   4.385   6.752
  580SOL    HW1 2639   0.777   4.347   6.838
  580SOL    HW2 2640   0.789   4.340   6.675
  581SOL     OW 2641   3.285   3.581   2.509
  581SOL    HW1 2642   3.367   3.543   2.465
  581SOL    HW2 2643   3.259   3.524   2.587
  582SOL     OW 2644   5.934   5.383   2.890
  582SOL    HW1 2645   5.973   5.395   2.798
  582SOL    HW2 2646   5.960   5.461   2.947
  583SOL     OW 2647   2.132   5.431   6.281
  583SOL    HW1 2648   2.077   5.413   6.200
  583SOL    HW2 2649   2.146   5.346   6.331
  584SOL     OW 2650   1.195   4.874   5.807
  584SOL    HW1 2651   1.243   4.805   5.753
  584SOL    HW2 2652   1.181   4.956   5.752
  585SOL     OW 2653   6.078   2.935   5.793
  585SOL    HW1 2654   6.111   2.861   5.733
  585SOL    HW2 2655   6.088   2.907   5.888
  586SOL     OW 2656   3.192   0.832   6.305
  586SOL    HW1 2657   3.222   0.805   6.396
  586SOL    HW2 2658   3.115   0.775   6.277
  587SOL     OW 2659   2.678   2.414   5.283
  587SOL    HW1 2660   2.657   2.366   5.198
  587SOL    HW2 2661   2.602   2.474   5.308
  588SOL     OW 2662   2.306   5.279   0.452
  588SOL    HW1 2663   2.354   5.220   0.388
  588SOL    HW2 2664   2.372   5.323   0.513
  589SOL     OW 2665   3.853   5.409   1.538
  589SOL    HW1 2666   3.811   5.326   1.574
  589SOL    HW2 2667   3.929   5.437   1.597
  590SOL     OW 2668   5.571   3.217   1.420
  590SOL    HW1 2669   5.496   3.280   1.399
  590SOL    HW2 2670   5.608   3.180   1.335
  591SOL     OW 2671   4.227   6.175   3.833
  591SOL    HW1 2672   4.224   6.271   3.863
  591SOL    HW2 2673   4.238   6.116   3.912
  592SOL     OW 2674   4.046   6.999   1.248
  592SOL    HW1 2675   4.019   6.941   1.171
  592SOL    HW2 2676   4.127   6.961   1.291
  593SOL     OW 2677   4.671   2.123   3.386
  593SOL    HW1 2678   4.669   2.062   3.307
  593SOL    HW2 2679   4.583   2.119   3.434
  594SOL     OW 2680   4.750   2.342   6.129
  594SOL    HW1 2681   4.672   2.403   6.119
  594SOL    HW2 2682   4.834   2.395   6.137
  595SOL     OW 2683   5.201   6.644   3.663
  595SOL    HW1 2684   5.282   6.703   3.668
  595SOL    HW2 2685   5.224   6.554   3.698
  596SOL     OW 2686   1.090   3.636   1.980
  596SOL    HW1 2687   1.175   3.687   1.974
  596SOL    HW2 2688   1.048   3.649   2.070
  597SOL     OW 2689   4.941   0.158   5.757
  597SOL    HW1 2690   4.913   0.107   5.838
  597SOL    HW2 2691   4.862   0.207   5.720
  598SOL     OW 2692   3.173   4.175   6.618
  598SOL    HW1 2693   3.256   4.140   6.659
  598SOL    HW2 2694   3.121   4.100   6.576
  599SOL     OW 2695   1.529   6.751   2.952
  599SOL    HW1 2696   1.601   6.788   2.892
  599SOL    HW2 2697   1.507   6.658   2.924
  600SOL     OW 2698   1.235   1.307   1.138
  600SOL    HW1 2699   1.309   1.239   1.140
  600SOL    HW2 2700   1.182   1.300   1.223
  601SOL     OW 2701   3.523   6.445   4.226
  601SOL    HW1 2702   3.511   6.355   4.184
  601SOL    HW2 2703   3.616   6.453   4.262
  602SOL     OW 2704   1.147   2.462   0.156
  602SOL    HW1 2705   1.137   2.408   0.073
  602SOL    HW2 2706   1.145   2.402   0.236
  603SOL     OW 2707   4.025   2.001   3.841
  603SOL    HW1 2708   4.085   1.940   3.788
  603SOL    HW2 2709   4.080   2.049   3.910
  604SOL     OW 2710   0.429   4.035   1.414
  604SOL    HW1 2711   0.339   4.079   1.405
  604SOL    HW2 2712   0.461   4.005   1.324
  605SOL     OW 2713   6.890   5.290   2.742
  605SOL    HW1 2714   6.902   5.229   2.820
  605SOL    HW2 2715   6.798   5.329   2.743
  606SOL     OW 2716   5.029   0.443   5.506
  606SOL    HW1 2717   5.048   0.468   5.601
  606SOL    HW2 2718   4.958   0.372   5.505
  607SOL     OW 2719   5.649   0.755   5.635
  607SOL    HW1 2720   5.671   0.794   5.545
  607SOL    HW2 2721   5.567   0.699   5.628
  608SOL     OW 2722   4.128   6.497   0.020
  608SOL    HW1 2723   4.136   6.593   7.010
  608SOL    HW2 2724   4.218   6.461   0.043
  609SOL     OW 2725   3.258   3.559   3.881
  609SOL    HW1 2726   3.272   3.471   3.927
  609SOL    HW2 2727   3.224   3.543   3.789
  610SOL     OW 2728   5.400   1.999   2.885
  610SOL    HW1 2729   5.329   1.950   2.935
  610SOL    HW2 2730   5.388   1.984   2.787
  611SOL     OW 2731   1.245   0.647   6.270
  611SOL    HW1 2732   1.187   0.675   6.346
  611SOL    HW2 2733   1.209   0.686   6.185
  612SOL     OW 2734   3.890   5.827   5.613
  612SOL    HW1 2735   3.887   5.783   5.523
  612SOL    HW2 2736   3.942   5.769   5.676
  613SOL     OW 2737   4.879   6.961   5.232
  613SOL    HW1 2738   4.863   0.045   5.238
  613SOL    HW2 2739   4.955   6.943   5.169
  614SOL     OW 2740   5.978   4.390   1.091
  614SOL    HW1 2741   5.894   4.337   1.106
  614SOL    HW2 2742   6.015   4.369   1.001
  615SOL     OW 2743   0.736   1.750   1.491
  615SOL    HW1 2744   0.809   1.750   1.561
  615SOL    HW2 2745   0.765   1.805   1.413
  616SOL     OW 2746   6.145   1.616   3.234
  616SOL    HW1 2747   6.176   1.647   3.144
  616SOL    HW2 2748   6.108   1.524   3.227
  617SOL     OW 2749   6.978   3.622   6.794
  617SOL    HW1 2750   6.941   3.715   6.791
  617SOL    HW2 2751   6.966   3.578   6.705
  618SOL     OW 2752   6.476   3.534   0.640
  618SOL    HW1 2753   6.545   3.480   0.687
  618SOL    HW2 2754   6.386   3.515   0.679
  619SOL     OW 2755   4.131   0.128   6.768
  619SOL    HW1 2756   4.201   0.182   6.721
  619SOL    HW2 2757   4.125   0.157   6.863
  620SOL     OW 2758   5.900   2.733   0.987
  620SOL    HW1 2759   5.961   2.761   1.062
  620SOL    HW2 2760   5.806   2.760   1.009
  621SOL     OW 2761   1.629   0.319   4.916
  621SOL    HW1 2762   1.694   0.301   4.990
  621SOL    HW2 2763   1.597   0.413   4.922
  622SOL     OW 2764   0.363   1.713   5.148
  622SOL    HW1 2765   0.437   1.763   5.103
  622SOL    HW2 2766   0.370   1.616   5.125
  623SOL     OW 2767   0.679   6.964   5.027
  623SOL    HW1 2768   0.597   6.934   4.979
  623SOL    HW2 2769   0.665   6.957   5.126
  624SOL     OW 2770   6.395   1.080   0.050
  624SOL    HW1 2771   6.398   1.140   6.986
  624SOL    HW2 2772   6.488   1.056   0.078
  625SOL     OW 2773   1.668   1.920   0.780
  625SOL    HW1 2774   1.743   1.986   0.769
  625SOL    HW2 2775   1.700   1.829   0.754
  626SOL     OW 2776   0.826   5.735   2.580
  626SOL    HW1 2777   0.892   5.693   2.643
  626SOL    HW2 2778   0.857   5.724   2.486
  627SOL     OW 2779   6.448   6.603   0.636
  627SOL    HW1 2780   6.505   6.526   0.605
  627SOL    HW2 2781   6.486   6.640   0.720
  628SOL     OW 2782   5.831   3.570   5.155
  628SOL    HW1 2783   5.905   3.504   5.159
  628SOL    HW2 2784   5.753   3.536   5.207
  629SOL     OW 2785   0.735   1.330   6.755
  629SOL    HW1 2786   0.637   1.317   6.771
  629SOL    HW2 2787   0.748   1.363   6.662
  630SOL     OW 2788   0.169   2.110   0.818
  630SOL    HW1 2789   0.226   2.185   0.851
  630SOL    HW2 2790   0.073   2.136   0.823
  631SOL     OW 2791   3.658   1.226   4.368
  631SOL    HW1 2792   3.684   1.294   4.436
  631SOL    HW2 2793   3.737   1.206   4.309
  632SOL     OW 2794   4.560   2.731   0.478
  632SOL    HW1 2795   4.523   2.674   0.552
  632SOL    HW2 2796   4.486   2.788   0.441
  633SOL     OW 2797   3.137   4.450   6.667
  633SOL    HW1 2798   3.140   4.507   6.585
  633SOL    HW2 2799   3.141   4.353   6.641
  634SOL     OW 2800   3.629   3.096   2.851
  634SOL    HW1 2801   3.597   3.023   2.912
  634SOL    HW2 2802   3.563   3.171   2.851
  635SOL     OW 2803   4.662   6.627   0.424
  635SOL    HW1 2804   4.695   6.639   0.518
  635SOL    HW2 2805   4.740   6.610   0.364
  636SOL     OW 2806   2.987   0.137   5.954
  636SOL    HW1 2807   3.052   0.212   5.943
  636SOL    HW2 2808   3.036   0.053   5.975
  637SOL     OW 2809   6.368   2.470   2.382
  637SOL    HW1 2810   6.359   2.404   2.306
  637SOL    HW2 2811   6.331   2.558   2.353
  638SOL     OW 2812   5.796   3.900   3.947
  638SOL    HW1 2813   5.883   3.903   3.996
  638SOL    HW2 2814   5.727   3.952   3.997
  639SOL     OW 2815   5.223   4.410   3.811
  639SOL    HW1 2816   5.136   4.419   3.762
  639SOL    HW2 2817   5.298   4.400   3.746
  640SOL     OW 2818   6.804   4.870   3.372
  640SOL    HW1 2819   6.821   4.799   3.441
  640SOL    HW2 2820   6.739   4.836   3.305
  641SOL     OW 2821   0.895   4.768   4.772
  641SOL    HW1 2822   0.899   4.729   4.680
  641SOL    HW2 2823   0.988   4.781   4.807
  642SOL     OW 2824   1.423   2.703   4.632
  642SOL    HW1 2825   1.351   2.653   4.680
  642SOL    HW2 2826   1.387   2.790   4.599
  643SOL     OW 2827   6.292   0.537   6.150
  643SOL    HW1 2828   6.234   0.457   6.154
  643SOL    HW2 2829   6.388   0.509   6.155
  644SOL     OW 2830   1.951   0.628   4.477
  644SOL    HW1 2831   1.888   0.580   4.538
  644SOL    HW2 2832   2.008   0.561   4.429
  645SOL     OW 2833   3.305   5.457   4.435
  645SOL    HW1 2834   3.283   5.507   4.518
  645SOL    HW2 2835   3.395   5.484   4.401
  646SOL     OW 2836   3.834   0.423   4.571
  646SOL    HW1 2837   3.901   0.409   4.498
  646SOL    HW2 2838   3.879   0.411   4.660
  647SOL     OW 2839   5.601   1.595   4.955
  647SOL    HW1 2840   5.654   1.618   5.036
  647SOL    HW2 2841   5.513   1.643   4.958
  648SOL     OW 2842   6.797   3.794   3.584
  648SOL    HW1 2843   6.767   3.886   3.607
  648SOL    HW2 2844   6.757   3.767   3.496
  649SOL     OW 2845   2.135   3.679   0.517
  649SOL    HW1 2846   2.207   3.741   0.547
  649SOL    HW2 2847   2.066   3.670   0.589
  650SOL     OW 2848   6.476   5.202   0.410
  650SOL    HW1 2849   6.482   5.301   0.419
  650SOL    HW2 2850   6.567   5.164   0.394
  651SOL     OW 2851   1.605   0.600   4.957
  651SOL    HW1 2852   1.699   0.633   4.946
  651SOL    HW2 2853   1.585   0.589   5.055
  652SOL     OW 2854   4.552   6.763   2.728
  652SOL    HW1 2855   4.628   6.702   2.704
  652SOL    HW2 2856   4.565   6.851   2.683
  653SOL     OW 2857   0.311   6.350   0.443
  653SOL    HW1 2858   0.347   6.302   0.523
  653SOL    HW2 2859   0.377   6.420   0.414
  654SOL     OW 2860   0.118   6.589   6.362
  654SOL    HW1 2861   0.170   6.578   6.277
  654SOL    HW2 2862   0.182   6.605   6.437
  655SOL     OW 2863   6.596   5.279   2.218
  655SOL    HW1 2864   6.533   5.201   2.210
  655SOL    HW2 2865   6.689   5.248   2.199
  656SOL     OW 2866   1.705   6.177   0.019
  656SOL    HW1 2867   1.690   6.276   0.018
  656SOL    HW2 2868   1.628   6.132   6.988
  657SOL     OW 2869   3.413   4.163   1.165
  657SOL    HW1 2870   3.453   4.093   1.106
  657SOL    HW2 2871   3.318   4.139   1.187
  658SOL     OW 2872   1.284   3.902   5.278
  658SOL    HW1 2873   1.356   3.918   5.210
  658SOL    HW2 2874   1.312   3.830   5.341
  659SOL     OW 2875   2.877   5.936   4.802
  659SOL    HW1 2876   2.861   6.029   4.769
  659SOL    HW2 2877   2.883   5.874   4.723
  660SOL     OW 2878   4.535   4.778   2.763
  660SOL    HW1 2879   4.530   4.696   2.819
  660SOL    HW2 2880   4.505   4.757   2.670
  661SOL     OW 2881   4.735   4.038   4.634
  661SOL    HW1 2882   4.748   4.056   4.537
  661SOL    HW2 2883   4.638   4.024   4.653
  662SOL     OW 2884   4.381   0.993   5.517
  662SOL    HW1 2885   4.282   1.008   5.520
  662SOL    HW2 2886   4.427   1.057   5.578
  663SOL     OW 2887   0.438   4.594   0.084
  663SOL    HW1 2888   0.456   4.496   0.081
  663SOL    HW2 2889   0.388   4.621   0.002
  664SOL     OW 2890   1.751   5.583   6.548
  664SOL    HW1 2891   1.684   5.641   6.501
  664SOL    HW2 2892   1.715   5.556   6.637
  665SOL     OW 2893   4.152   5.145   0.997
  665SOL    HW1 2894   4.181   5.058   1.038
  665SOL    HW2 2895   4.175   5.220   1.058
  666SOL     OW 2896   4.402   2.416   1.101
  666SOL    HW1 2897   4.392   2.322   1.133
  666SOL    HW2 2898   4.376   2.479   1.174
  667SOL     OW 2899   0.438   4.069   3.678
  667SOL    HW1 2900   0.374   4.027   3.742
  667SOL    HW2 2901   0.530   4.068   3.717
  668SOL     OW 2902   4.719   5.743   0.029
  668SOL    HW1 2903   4.650   5.697   6.988
  668SOL    HW2 2904   4.790   5.781   6.985
  669SOL     OW 2905   2.591   6.087   3.098
  669SOL    HW1 2906   2.665   6.076   3.164
  669SOL    HW2 2907   2.607   6.169   3.044
  670SOL     OW 2908   3.365   3.514   2.127
  670SOL    HW1 2909   3.366   3.513   2.027
  670SOL    HW2 2910   3.277   3.480   2.159
  671SOL     OW 2911   2.370   5.962   6.532
  671SOL    HW1 2912   2.437   6.033   6.555
  671SOL    HW2 2913   2.413   5.872   6.540
  672SOL     OW 2914   0.799   4.546   2.138
  672SOL    HW1 2915   0.864   4.622   2.145
  672SOL    HW2 2916   0.840   4.463   2.177
  673SOL     OW 2917   4.646   0.257   1.235
  673SOL    HW1 2918   4.698   0.210   1.164
  673SOL    HW2 2919   4.579   0.318   1.192
  674SOL     OW 2920   6.632   3.062   4.113
  674SOL    HW1 2921   6.572   3.052   4.033
  674SOL    HW2 2922   6.611   2.990   4.179
  675SOL     OW 2923   0.405   1.457   5.081
  675SOL    HW1 2924   0.440   1.394   5.150
  675SOL    HW2 2925   0.444   1.435   4.992
  676SOL     OW 2926   2.585   5.036   3.214
  676SOL    HW1 2927   2.664   5.024   3.154
  676SOL    HW2 2928   2.584   5.129   3.251
  677SOL     OW 2929   5.765   1.507   6.448
  677SOL    HW1 2930   5.851   1.465   6.419
  677SOL    HW2 2931   5.689   1.466   6.398
  678SOL     OW 2932   1.837   1.417   5.172
  678SOL    HW1 2933   1.883   1.500   5.202
  678SOL    HW2 2934   1.835   1.414   5.072
  679SOL     OW 2935   4.873   1.108   4.625
  679SOL    HW1 2936   4.970   1.084   4.620
  679SOL    HW2 2937   4.820   1.036   4.579
  680SOL     OW 2938   5.826   4.895   5.900
  680SOL    HW1 2939   5.751   4.844   5.858
  680SOL    HW2 2940   5.792   4.946   5.979
  681SOL     OW 2941   6.314   6.983   0.720
  681SOL    HW1 2942   6.308   0.045   0.656
  681SOL    HW2 2943   6.247   6.994   0.793
  682SOL     OW 2944   1.649   6.784   6.457
  682SOL    HW1 2945   1.630   6.881   6.468
  682SOL    HW2 2946   1.747   6.767   6.466
  683SOL     OW 2947   3.334   1.043   6.004
  683SOL    HW1 2948   3.289   1.131   5.989
  683SOL    HW2 2949   3.411   1.056   6.067
  684SOL     OW 2950   6.068   1.386   6.172
  684SOL    HW1 2951   6.063   1.486   6.169
  684SOL    HW2 2952   6.068   1.355   6.267
  685SOL     OW 2953   5.193   6.631   5.611
  685SOL    HW1 2954   5.133   6.706   5.638
  685SOL    HW2 2955   5.277   6.668   5.572
  686SOL     OW 2956   5.375   3.003   2.753
  686SOL    HW1 2957   5.342   2.967   2.840
  686SOL    HW2 2958   5.451   3.066   2.770
  687SOL     OW 2959   0.021   2.701   5.345
  687SOL    HW1 2960   6.942   2.668   5.358
  687SOL    HW2 2961   0.067   2.707   5.434
  688SOL     OW 2962   1.365   4.072   0.631
  688SOL    HW1 2963   1.399   4.058   0.538
  688SOL    HW2 2964   1.266   4.055   0.633
  689SOL     OW 2965   0.721   4.416   5.371
  689SOL    HW1 2966   0.734   4.456   5.461
  689SOL    HW2 2967   0.756   4.479   5.301
  690SOL     OW 2968   0.242   3.381   3.077
  690SOL    HW1 2969   0.150   3.342   3.086
  690SOL    HW2 2970   0.295   3.359   3.159
  691SOL     OW 2971   2.201   1.879   6.602
  691SOL    HW1 2972   2.146   1.908   6.523
  691SOL    HW2 2973   2.241   1.789   6.583
  692SOL     OW 2974   3.327   6.138   3.993
  692SOL    HW1 2975   3.334   6.149   4.093
  692SOL    HW2 2976   3.419   6.139   3.954
  693SOL     OW 2977   6.437   1.191   3.297
  693SOL    HW1 2978   6.417   1.172   3.394
  693SOL    HW2 2979   6.501   1.123   3.263
  694SOL     OW 2980   3.336   5.763   2.254
  694SOL    HW1 2981   3.293   5.755   2.164
  694SOL    HW2 2982   3.381   5.852   2.262
  695SOL     OW 2983   4.991   4.381   5.708
  695SOL    HW1 2984   5.003   4.476   5.736
  695SOL    HW2 2985   5.052   4.322   5.760
  696SOL     OW 2986   3.347   5.244   1.723
  696SOL    HW1 2987   3.261   5.197   1.743
  696SOL    HW2 2988   3.400   5.254   1.807
  697SOL     OW 2989   1.181   2.546   5.379
  697SOL    HW1 2990   1.095   2.500   5.403
  697SOL    HW2 2991   1.161   2.628   5.326
  698SOL     OW 2992   5.699   0.457   5.810
  698SOL    HW1 2993   5.706   0.556   5.798
  698SOL    HW2 2994   5.787   0.415   5.791
  699SOL     OW 2995   0.368   4.238   0.192
  699SOL    HW1 2996   0.399   4.252   0.286
  699SOL    HW2 2997   0.446   4.243   0.130
  700SOL     OW 2998   3.168   1.737   3.822
  700SOL    HW1 2999   3.208   1.684   3.896
  700SOL    HW2 3000   3.098   1.799   3.859
  701SOL     OW 3001   0.356   3.965   5.749
  701SOL    HW1 3002   0.328   4.057   5.777
  701SOL    HW2 3003   0.314   3.898   5.809
  702SOL     OW 3004   5.725   6.052   6.051
  702SOL    HW1 3005   5.768   6.141   6.068
  702SOL    HW2 3006   5.640   6.045   6.104
  703SOL     OW 3007   4.285   3.624   6.433
  703SOL    HW1 3008   4.287   3.640   6.531
  703SOL    HW2 3009   4.210   3.676   6.392
  704SOL     OW 3010   1.686   1.458   6.337
  704SOL    HW1 3011   1.719   1.511   6.259
  704SOL    HW2 3012   1.761   1.405   6.375
  705SOL     OW 3013   5.099   6.838   3.846
  705SOL    HW1 3014   5.151   6.756   3.820
  705SOL    HW2 3015   5.003   6.814   3.858
  706SOL     OW 3016   3.948   2.059   3.419
  706SOL    HW1 3017   3.917   1.984   3.477
  706SOL    HW2 3018   3.916   2.146   3.457
  707SOL     OW 3019   4.282   0.335   2.796
  707SOL    HW1 3020   4.220   0.328   2.874
  707SOL    HW2 3021   4.269   0.424   2.752
  708SOL     OW 3022   4.191   0.365   1.272
  708SOL    HW1 3023   4.246   0.381   1.354
  708SOL    HW2 3024   4.113   0.426   1.272
  709SOL     OW 3025   1.249   5.506   0.508
  709SOL    HW1 3026   1.237   5.545   0.416
  709SOL    HW2 3027   1.299   5.570   0.565
  710SOL     OW 3028   3.994   3.073   2.650
  710SOL    HW1 3029   3.902   3.036   2.662
  710SOL    HW2 3030   4.026   3.054   2.557
  711SOL     OW 3031   1.191   1.939   6.231
  711SOL    HW1 3032   1.250   2.016   6.257
  711SOL    HW2 3033   1.234   1.853   6.261
  712SOL     OW 3034   2.451   4.474   0.390
  712SOL    HW1 3035   2.545   4.450   0.368
  712SOL    HW2 3036   2.426   4.434   0.478
  713SOL     OW 3037   3.242   3.414   0.289
  713SOL    HW1 3038   3.279   3.379   0.203
  713SOL    HW2 3039   3.290   3.497   0.316
  714SOL     OW 3040   6.809   5.010   4.700
  714SOL    HW1 3041   6.728   4.974   4.746
  714SOL    HW2 3042   6.781   5.074   4.628
  715SOL     OW 3043   5.091   6.351   1.155
  715SOL    HW1 3044   5.044   6.401   1.228
  715SOL    HW2 3045   5.153   6.284   1.196
  716SOL     OW 3046   0.532   6.511   0.420
  716SOL    HW1 3047   0.524   6.604   0.457
  716SOL    HW2 3048   0.597   6.459   0.475
  717SOL     OW 3049   5.687   5.261   6.322
  717SOL    HW1 3050   5.652   5.315   6.245
  717SOL    HW2 3051   5.611   5.234   6.381
  718SOL     OW 3052   4.649   2.394   5.562
  718SOL    HW1 3053   4.575   2.332   5.589
  718SOL    HW2 3054   4.681   2.446   5.642
  719SOL     OW 3055   6.303   2.509   1.181
  719SOL    HW1 3056   6.377   2.573   1.201
  719SOL    HW2 3057   6.298   2.494   1.082
  720SOL     OW 3058   3.687   0.920   5.999
  720SOL    HW1 3059   3.684   0.826   5.965
  720SOL    HW2 3060   3.643   0.980   5.932
  721SOL     OW 3061   1.688   0.080   4.301
  721SOL    HW1 3062   1.788   0.084   4.292
  721SOL    HW2 3063   1.655   0.165   4.342
  722SOL     OW 3064   3.226   6.849   5.341
  722SOL    HW1 3065   3.164   6.812   5.272
  722SOL    HW2 3066   3.215   6.949   5.346
  723SOL     OW 3067   2.153   3.250   3.070
  723SOL    HW1 3068   2.134   3.348   3.073
  723SOL    HW2 3069   2.180   3.225   2.977
  724SOL     OW 3070   1.245   1.358   4.107
  724SOL    HW1 3071   1.160   1.308   4.086
  724SOL    HW2 3072   1.241   1.449   4.066
  725SOL     OW 3073   3.036   5.360   1.517
  725SOL    HW1 3074   3.026   5.388   1.612
  725SOL    HW2 3075   3.101   5.420   1.471
  726SOL     OW 3076   3.776   4.252   0.928
  726SOL    HW1 3077   3.858   4.195   0.920
  726SOL    HW2 3078   3.771   4.289   1.021
  727SOL     OW 3079   4.994   5.567   5.601
  727SOL    HW1 3080   5.009   5.662   5.630
  727SOL    HW2 3081   4.927   5.524   5.661
  728SOL     OW 3082   0.633   3.704   5.315
  728SOL    HW1 3083   0.712   3.732   5.370
  728SOL    HW2 3084   0.610   3.775   5.249
  729SOL     OW 3085   2.016   1.045   0.588
  729SOL    HW1 3086   2.007   0.994   0.673
  729SOL    HW2 3087   1.940   1.024   0.527
  730SOL     OW 3088   5.620   0.246   3.662
  730SOL    HW1 3089   5.629   0.196   3.576
  730SOL    HW2 3090   5.547   0.314   3.653
  731SOL     OW 3091   6.348   3.566   5.785
  731SOL    HW1 3092   6.318   3.652   5.826
  731SOL    HW2 3093   6.268   3.513   5.756
  732SOL     OW 3094   0.376   3.870   0.972
  732SOL    HW1 3095   0.433   3.910   1.044
  732SOL    HW2 3096   0.344   3.942   0.910
  733SOL     OW 3097   5.959   4.058   5.118
  733SOL    HW1 3098   5.893   4.022   5.053
  733SOL    HW2 3099   5.974   4.155   5.100
  734SOL     OW 3100   6.430   4.578   2.617
  734SOL    HW1 3101   6.519   4.575   2.572
  734SOL    HW2 3102   6.416   4.668   2.658
  735SOL     OW 3103   3.532   3.181   1.024
  735SOL    HW1 3104   3.439   3.143   1.025
  735SOL    HW2 3105   3.591   3.126   1.083
  736SOL     OW 3106   6.181   6.190   2.637
  736SOL    HW1 3107   6.130   6.110   2.604
  736SOL    HW2 3108   6.267   6.197   2.587
  737SOL     OW 3109   4.271   2.475   6.889
  737SOL    HW1 3110   4.305   2.381   6.890
  737SOL    HW2 3111   4.241   2.498   6.797
  738SOL     OW 3112   2.009   4.204   2.520
  738SOL    HW1 3113   2.001   4.297   2.484
  738SOL    HW2 3114   2.099   4.166   2.495
  739SOL     OW 3115   4.639   6.248   5.455
  739SOL    HW1 3116   4.695   6.265   5.536
  739SOL    HW2 3117   4.698   6.231   5.376
  740SOL     OW 3118   5.053   6.813   0.709
  740SOL    HW1 3119   5.018   6.755   0.784
  740SOL    HW2 3120   5.098   6.893   0.747
  741SOL     OW 3121   2.020   6.749   3.087
  741SOL    HW1 3122   2.062   6.798   3.011
  741SOL    HW2 3123   1.933   6.794   3.111
  742SOL     OW 3124   2.250   6.563   1.649
  742SOL    HW1 3125   2.255   6.594   1.554
  742SOL    HW2 3126   2.175   6.610   1.695
  743SOL     OW 3127   1.452   3.893   4.127
  743SOL    HW1 3128   1.369   3.846   4.099
  743SOL    HW2 3129   1.481   3.956   4.055
  744SOL     OW 3130   6.154   0.310   6.235
  744SOL    HW1 3131   6.185   0.221   6.201
  744SOL    HW2 3132   6.209   0.337   6.314
  745SOL     OW 3133   0.527   5.123   4.640
  745SOL    HW1 3134   0.604   5.113   4.576
  745SOL    HW2 3135   0.557   5.176   4.719
  746SOL     OW 3136   0.847   5.787   5.978
  746SOL    HW1 3137   0.791   5.714   6.017
  746SOL    HW2 3138   0.788   5.863   5.950
  747SOL     OW 3139   4.801   5.304   5.178
  747SOL    HW1 3140   4.823   5.329   5.271
  747SOL    HW2 3141   4.703   5.315   5.162
  748SOL     OW 3142   3.471   5.591   3.011
  748SOL    HW1 3143   3.510   5.589   3.103
  748SOL    HW2 3144   3.526   5.651   2.953
  749SOL     OW 3145   6.453   3.503   4.543
  749SOL    HW1 3146   6.373   3.453   4.576
  749SOL    HW2 3147   6.443   3.600   4.564
  750SOL     OW 3148   1.985   3.662   0.733
  750SOL    HW1 3149   1.891   3.635   0.757
  750SOL    HW2 3150   2.038   3.675   0.816
  751SOL     OW 3151   4.139   1.818   6.361
  751SOL    HW1 3152   4.097   1.858   6.442
  751SOL    HW2 3153   4.091   1.851   6.279
  752SOL     OW 3154   4.378   2.417   1.740
  752SOL    HW1 3155   4.340   2.508   1.726
  752SOL    HW2 3156   4.371   2.365   1.655
  753SOL     OW 3157   2.065   3.011   4.287
  753SOL    HW1 3158   2.035   3.039   4.378
  753SOL    HW2 3159   2.088   3.093   4.233
  754SOL     OW 3160   5.613   3.179   6.662
  754SOL    HW1 3161   5.667   3.133   6.592
  754SOL    HW2 3162   5.673   3.239   6.716
  755SOL     OW 3163   1.521   5.682   6.094
  755SOL    HW1 3164   1.511   5.668   6.192
  755SOL    HW2 3165   1.444   5.736   6.060
  756SOL     OW 3166   3.842   6.895   1.434
  756SOL    HW1 3167   3.846   6.940   1.345
  756SOL    HW2 3168   3.864   6.960   1.506
  757SOL     OW 3169   0.332   6.513   3.207
  757SOL    HW1 3170   0.389   6.471   3.277
  757SOL    HW2 3171   0.254   6.454   3.187
  758SOL     OW 3172   4.032   0.801   1.574
  758SOL    HW1 3173   3.976   0.880   1.602
  758SOL    HW2 3174   4.111   0.833   1.522
  759SOL     OW 3175   0.619   0.791   0.747
  759SOL    HW1 3176   0.638   0.827   0.656
  759SOL    HW2 3177   0.637   0.861   0.816
  760SOL     OW 3178   4.328   0.640   6.166
  760SOL    HW1 3179   4.380   0.598   6.092
  760SOL    HW2 3180   4.278   0.719   6.132
  761SOL     OW 3181   5.678   3.563   5.652
  761SOL    HW1 3182   5.770   3.539   5.683
  761SOL    HW2 3183   5.656   3.656   5.681
  762SOL     OW 3184   2.155   6.772   4.423
  762SOL    HW1 3185   2.086   6.844   4.415
  762SOL    HW2 3186   2.112   6.690   4.460
  763SOL     OW 3187   3.672   4.879   6.540
  763SOL    HW1 3188   3.697   4.948   6.472
  763SOL    HW2 3189   3.679   4.788   6.499
  764SOL     OW 3190   4.600   0.670   3.381
  764SOL    HW1 3191   4.519   0.616   3.404
  764SOL    HW2 3192   4.629   0.723   3.461
  765SOL     OW 3193   1.462   6.542   1.301
  765SOL    HW1 3194   1.522   6.531   1.223
  765SOL    HW2 3195   1.368   6.559   1.269
  766SOL     OW 3196   0.757   2.186   0.901
  766SOL    HW1 3197   0.810   2.254   0.850
  766SOL    HW2 3198   0.690   2.233   0.958
  767SOL     OW 3199   6.219   5.675   2.546
  767SOL    HW1 3200   6.169   5.646   2.464
  767SOL    HW2 3201   6.194   5.770   2.567
  768SOL     OW 3202   2.912   6.551   2.061
  768SOL    HW1 3203   2.836   6.499   2.099
  768SOL    HW2 3204   2.876   6.628   2.008
  769SOL     OW 3205   3.331   0.587   4.483
  769SOL    HW1 3206   3.335   0.509   4.421
  769SOL    HW2 3207   3.243   0.633   4.473
  770SOL     OW 3208   1.633   4.348   3.026
  770SOL    HW1 3209   1.655   4.256   2.991
  770SOL    HW2 3210   1.688   4.416   2.977
  771SOL     OW 3211   2.257   5.580   2.527
  771SOL    HW1 3212   2.267   5.629   2.441
  771SOL    HW2 3213   2.235   5.484   2.508
  772SOL     OW 3214   6.835   5.277   0.483
  772SOL    HW1 3215   6.788   5.341   0.544
  772SOL    HW2 3216   6.898   5.221   0.535
  773SOL     OW 3217   0.097   4.028   3.182
  773SOL    HW1 3218   7.013   4.040   3.190
  773SOL    HW2 3219   0.129   3.966   3.254
  774SOL     OW 3220   1.044   1.083   2.500
  774SOL    HW1 3221   1.127   1.055   2.548
  774SOL    HW2 3222   1.012   1.170   2.537
  775SOL     OW 3223   0.882   1.779   3.272
  775SOL    HW1 3224   0.819   1.772   3.194
  775SOL    HW2 3225   0.849   1.847   3.337
  776SOL     OW 3226   6.295   1.094   5.559
  776SOL    HW1 3227   6.322   1.181   5.517
  776SOL    HW2 3228   6.305   1.101   5.659
  777SOL     OW 3229   3.432   6.163   0.967
  777SOL    HW1 3230   3.513   6.105   0.956
  777SOL    HW2 3231   3.370   6.148   0.890
  778SOL     OW 3232   3.588   1.301   2.998
  778SOL    HW1 3233   3.500   1.348   3.007
  778SOL    HW2 3234   3.592   1.253   2.910
  779SOL     OW 3235   0.619   2.194   2.659
  779SOL    HW1 3236   0.701   2.145   2.632
  779SOL    HW2 3237   0.548   2.180   2.590
  780SOL     OW 3238   6.542   3.840   4.253
  780SOL    HW1 3239   6.606   3.913   4.229
  780SOL    HW2 3240   6.594   3.756   4.272
  781SOL     OW 3241   5.202   2.053   6.592
  781SOL    HW1 3242   5.120   1.999   6.574
  781SOL    HW2 3243   5.263   2.047   6.513
  782SOL     OW 3244   0.598   3.337   0.122
  782SOL    HW1 3245   0.563   3.244   0.134
  782SOL    HW2 3246   0.585   3.389   0.207
  783SOL     OW 3247   3.758   4.923   0.992
  783SOL    HW1 3248   3.716   4.936   0.902
  783SOL    HW2 3249   3.754   4.826   1.017
  784SOL     OW 3250   5.277   6.626   6.563
  784SOL    HW1 3251   5.334   6.697   6.604
  784SOL    HW2 3252   5.251   6.560   6.634
  785SOL     OW 3253   6.564   2.365   3.204
  785SOL    HW1 3254   6.472   2.378   3.169
  785SOL    HW2 3255   6.617   2.449   3.193
  786SOL     OW 3256   1.750   1.598   1.348
  786SOL    HW1 3257   1.825   1.664   1.348
  786SOL    HW2 3258   1.747   1.551   1.259
  787SOL     OW 3259   3.198   1.411   6.447
  787SOL    HW1 3260   3.235   1.371   6.531
  787SOL    HW2 3261   3.098   1.411   6.452
  788SOL     OW 3262   2.793   1.861   5.002
  788SOL    HW1 3263   2.842   1.948   4.998
  788SOL    HW2 3264   2.730   1.861   5.079
  789SOL     OW 3265   5.143   3.884   0.678
  789SOL    HW1 3266   5.153   3.809   0.612
  789SOL    HW2 3267   5.227   3.936   0.682
  790SOL     OW 3268   2.723   1.070   3.810
  790SOL    HW1 3269   2.660   1.146   3.826
  790SOL    HW2 3270   2.812   1.107   3.782
  791SOL     OW 3271   3.424   6.400   3.144
  791SOL    HW1 3272   3.335   6.446   3.145
  791SOL    HW2 3273   3.417   6.313   3.194
  792SOL     OW 3274   0.475   0.290   1.604
  792SOL    HW1 3275   0.495   0.312   1.700
  792SOL    HW2 3276   0.396   0.345   1.574
  793SOL     OW 3277   4.477   6.285   2.591
  793SOL    HW1 3278   4.408   6.225   2.632
  793SOL    HW2 3279   4.529   6.330   2.664
  794SOL     OW 3280   3.073   3.428   4.758
  794SOL    HW1 3281   3.173   3.418   4.760
  794SOL    HW2 3282   3.031   3.342   4.785
  795SOL     OW 3283   3.550   5.879   4.811
  795SOL    HW1 3284   3.498   5.964   4.814
  795SOL    HW2 3285   3.603   5.869   4.895
  796SOL     OW 3286   1.073   2.170   6.758
  796SOL    HW1 3287   1.103   2.197   6.850
  796SOL    HW2 3288   1.114   2.081   6.735
  797SOL     OW 3289   4.814   2.491   2.522
  797SOL    HW1 3290   4.804   2.514   2.426
  797SOL    HW2 3291   4.807   2.391   2.533
  798SOL     OW 3292   5.301   6.839   1.344
  798SOL    HW1 3293   5.222   6.861   1.401
  798SOL    HW2 3294   5.317   6.914   1.279
  799SOL     OW 3295   6.020   1.564   3.970
  799SOL    HW1 3296   6.030   1.659   3.942
  799SOL    HW2 3297   6.016   1.559   4.070
  800SOL     OW 3298   5.435   1.175   2.193
  800SOL    HW1 3299   5.507   1.180   2.263
  800SOL    HW2 3300   5.473   1.134   2.110
  801SOL     OW 3301   1.783   3.042   3.630
  801SOL    HW1 3302   1.686   3.028   3.652
  801SOL    HW2 3303   1.797   3.025   3.532
  802SOL     OW 3304   4.082   0.176   0.678
  802SOL    HW1 3305   4.014   0.241   0.713
  802SOL    HW2 3306   4.155   0.225   0.631
  803SOL     OW 3307   0.561   5.546   4.823
  803SOL    HW1 3308   0.531   5.457   4.859
  803SOL    HW2 3309   0.582   5.536   4.726
  804SOL     OW 3310   6.091   5.951   6.767
  804SOL    HW1 3311   6.177   5.995   6.740
  804SOL    HW2 3312   6.050   5.907   6.687
  805SOL     OW 3313   3.428   2.078   5.497
  805SOL    HW1 3314   3.364   2.082   5.575
  805SOL    HW2 3315   3.378   2.095   5.412
  806SOL     OW 3316   4.668   0.951   4.508
  806SOL    HW1 3317   4.635   0.926   4.417
  806SOL    HW2 3318   4.599   1.003   4.556
  807SOL     OW 3319   0.450   1.958   3.993
  807SOL    HW1 3320   0.372   1.992   3.941
  807SOL    HW2 3321   0.513   2.033   4.013
  808SOL     OW 3322   4.706   3.720   6.342
  808SOL    HW1 3323   4.721   3.623   6.360
  808SOL    HW2 3324   4.673   3.765   6.425
  809SOL     OW 3325   0.864   4.691   1.332
  809SOL    HW1 3326   0.937   4.630   1.301
  809SOL    HW2 3327   0.780   4.670   1.283
  810SOL     OW 3328   3.578   2.575   1.027
  810SOL    HW1 3329   3.555   2.610   1.118
  810SOL    HW2 3330   3.559   2.477   1.024
  811SOL     OW 3331   4.237   5.600   4.444
  811SOL    HW1 3332   4.312   5.630   4.502
  811SOL    HW2 3333   4.266   5.599   4.348
  812SOL     OW 3334   1.030   1.425   1.955
  812SOL    HW1 3335   1.079   1.513   1.950
  812SOL    HW2 3336   1.032   1.382   1.865
  813SOL     OW 3337   3.694   5.063   4.849
  813SOL    HW1 3338   3.729   5.032   4.937
  813SOL    HW2 3339   3.728   5.155   4.830
  814SOL     OW 3340   5.595   6.365   3.532
  814SOL    HW1 3341   5.628   6.419   3.609
  814SOL    HW2 3342   5.625   6.270   3.544
  815SOL     OW 3343   6.770   3.040   2.787
  815SOL    HW1 3344   6.802   3.060   2.694
  815SOL    HW2 3345   6.673   3.019   2.785
  816SOL     OW 3346   6.708   6.603   0.336
  816SOL    HW1 3347   6.730   6.654   0.420
  816SOL    HW2 3348   6.772   6.527   0.326
  817SOL     OW 3349   2.396   4.137   1.780
  817SOL    HW1 3350   2.353   4.114   1.692
  817SOL    HW2 3351   2.326   4.143   1.851
  818SOL     OW 3352   6.379   3.276   1.616
  818SOL    HW1 3353   6.297   3.220   1.629
  818SOL    HW2 3354   6.387   3.341   1.692
  819SOL     OW 3355   5.901   3.328   3.186
  819SOL    HW1 3356   5.965   3.362   3.255
  819SOL    HW2 3357   5.854   3.406   3.143
  820SOL     OW 3358   2.433   2.623   6.728
  820SOL    HW1 3359   2.449   2.697   6.662
  820SOL    HW2 3360   2.487   2.641   6.811
  821SOL     OW 3361   2.305   4.460   0.651
  821SOL    HW1 3362   2.283   4.408   0.733
  821SOL    HW2 3363   2.249   4.542   0.647
  822SOL     OW 3364   0.979   4.472   4.654
  822SOL    HW1 3365   1.027   4.397   4.610
  822SOL    HW2 3366   1.001   4.558   4.608
  823SOL     OW 3367   4.980   4.103   0.140
  823SOL    HW1 3368   4.979   4.169   0.215
  823SOL    HW2 3369   4.930   4.140   0.062
  824SOL     OW 3370   5.203   0.742   5.258
  824SOL    HW1 3371   5.225   0.795   5.340
  824SOL    HW2 3372   5.287   0.708   5.216
  825SOL     OW 3373   1.328   3.898   1.435
  825SOL    HW1 3374   1.359   3.826   1.496
  825SOL    HW2 3375   1.335   3.866   1.340
  826SOL     OW 3376   5.755   3.248   0.122
  826SOL    HW1 3377   5.717   3.338   0.102
  826SOL    HW2 3378   5.680   3.181   0.127
  827SOL     OW 3379   3.237   5.876   6.216
  827SOL    HW1 3380   3.153   5.923   6.186
  827SOL    HW2 3381   3.312   5.942   6.215
  828SOL     OW 3382   6.025   0.096   5.998
  828SOL    HW1 3383   5.988   0.020   5.944
  828SOL    HW2 3384   5.983   0.182   5.968
  829SOL     OW 3385   2.993   3.832   3.845
  829SOL    HW1 3386   3.092   3.844   3.849
  829SOL    HW2 3387   2.972   3.741   3.808
  830SOL     OW 3388   4.964   4.836   6.584
  830SOL    HW1 3389   4.930   4.902   6.517
  830SOL    HW2 3390   5.007   4.884   6.660
  831SOL     OW 3391   6.362   1.234   5.122
  831SOL    HW1 3392   6.274   1.193   5.145
  831SOL    HW2 3393   6.347   1.312   5.060
  832SOL     OW 3394   2.190   0.810   1.185
  832SOL    HW1 3395   2.240   0.857   1.258
  832SOL    HW2 3396   2.098   0.850   1.177
  833SOL     OW 3397   0.299   4.729   6.262
  833SOL    HW1 3398   0.378   4.688   6.216
  833SOL    HW2 3399   0.331   4.789   6.336
  834SOL     OW 3400   3.163   3.841   1.110
  834SOL    HW1 3401   3.204   3.763   1.062
  834SOL    HW2 3402   3.064   3.829   1.116
  835SOL     OW 3403   3.371   0.113   4.159
  835SOL    HW1 3404   3.441   0.162   4.211
  835SOL    HW2 3405   3.416   0.058   4.088
  836SOL     OW 3406   3.460   6.911   0.010
  836SOL    HW1 3407   3.499   6.876   6.940
  836SOL    HW2 3408   3.387   6.975   7.004
  837SOL     OW 3409   5.423   6.574   0.125
  837SOL    HW1 3410   5.402   6.587   0.028
  837SOL    HW2 3411   5.393   6.655   0.176
  838SOL     OW 3412   1.120   0.739   4.908
  838SOL    HW1 3413   1.169   0.793   4.840
  838SOL    HW2 3414   1.163   0.650   4.919
  839SOL     OW 3415   2.589   2.432   1.981
  839SOL    HW1 3416   2.600   2.479   1.893
  839SOL    HW2 3417   2.679   2.411   2.019
  840SOL     OW 3418   6.228   0.014   6.135
  840SOL    HW1 3419   6.219   6.934   6.105
  840SOL    HW2 3420   6.150   0.067   6.102
  841SOL     OW 3421   5.284   4.715   0.516
  841SOL    HW1 3422   5.316   4.697   0.424
  841SOL    HW2 3423   5.278   4.814   0.531
  842SOL     OW 3424   4.448   5.126   4.554
  842SOL    HW1 3425   4.398   5.179   4.486
  842SOL    HW2 3426   4.385   5.063   4.600
  843SOL     OW 3427   4.117   2.018   6.566
  843SOL    HW1 3428   4.106   2.098   6.625
  843SOL    HW2 3429   4.214   2.003   6.547
  844SOL     OW 3430   4.378   6.840   1.088
  844SOL    HW1 3431   4.354   6.921   1.034
  844SOL    HW2 3432   4.470   6.852   1.125
  845SOL     OW 3433   6.217   3.521   4.803
  845SOL    HW1 3434   6.312   3.543   4.821
  845SOL    HW2 3435   6.204   3.422   4.805
  846SOL     OW 3436   4.078   1.925   0.187
  846SOL    HW1 3437   4.057   1.993   0.118
  846SOL    HW2 3438   4.107   1.840   0.143
  847SOL     OW 3439   0.240   3.304   0.201
  847SOL    HW1 3440   0.235   3.307   0.101
  847SOL    HW2 3441   0.212   3.392   0.238
  848SOL     OW 3442   6.295   1.697   6.514
  848SOL    HW1 3443   6.282   1.600   6.535
  848SOL    HW2 3444   6.302   1.748   6.600
  849SOL     OW 3445   1.335   4.568   5.929
  849SOL    HW1 3446   1.352   4.518   6.014
  849SOL    HW2 3447   1.236   4.578   5.915
  850SOL     OW 3448   5.119   1.175   3.645
  850SOL    HW1 3449   5.152   1.206   3.556
  850SOL    HW2 3450   5.195   1.143   3.700
  851SOL     OW 3451   0.165   1.565   1.922
  851SOL    HW1 3452   0.120   1.497   1.865
  851SOL    HW2 3453   0.243   1.523   1.968
  852SOL     OW 3454   2.171   2.926   0.589
  852SOL    HW1 3455   2.091   2.964   0.542
  852SOL    HW2 3456   2.238   2.896   0.521
  853SOL     OW 3457   1.423   4.038   2.125
  853SOL    HW1 3458   1.509   4.005   2.164
  853SOL    HW2 3459   1.443   4.106   2.054
  854SOL     OW 3460   4.837   5.651   2.481
  854SOL    HW1 3461   4.763   5.582   2.480
  854SOL    HW2 3462   4.922   5.609   2.451
  855SOL     OW 3463   6.623   6.999   0.936
  855SOL    HW1 3464   6.563   6.996   1.016
  855SOL    HW2 3465   6.596   0.059   0.877
  856SOL     OW 3466   1.615   1.599   4.947
  856SOL    HW1 3467   1.573   1.667   4.887
  856SOL    HW2 3468   1.697   1.563   4.904
  857SOL     OW 3469   5.843   5.066   1.390
  857SOL    HW1 3470   5.801   5.016   1.465
  857SOL    HW2 3471   5.938   5.087   1.414
  858SOL     OW 3472   2.153   4.206   1.437
  858SOL    HW1 3473   2.141   4.107   1.445
  858SOL    HW2 3474   2.065   4.251   1.452
  859SOL     OW 3475   4.928   5.154   6.736
  859SOL    HW1 3476   4.900   5.239   6.780
  859SOL    HW2 3477   5.020   5.130   6.766
  860SOL     OW 3478   4.190   4.336   1.167
  860SOL    HW1 3479   4.170   4.399   1.242
  860SOL    HW2 3480   4.252   4.380   1.102
  861SOL     OW 3481   2.810   0.131   4.733
  861SOL    HW1 3482   2.715   0.128   4.701
  861SOL    HW2 3483   2.811   0.152   4.831
  862SOL     OW 3484   6.735   4.902   5.549
  862SOL    HW1 3485   6.804   4.905   5.477
  862SOL    HW2 3486   6.763   4.834   5.618
  863SOL     OW 3487   1.118   0.407   0.987
  863SOL    HW1 3488   1.183   0.483   0.983
  863SOL    HW2 3489   1.100   0.374   0.894
  864SOL     OW 3490   4.985   4.793   3.712
  864SOL    HW1 3491   5.018   4.764   3.801
  864SOL    HW2 3492   4.910   4.859   3.724
  865SOL     OW 3493   1.765   6.489   5.313
  865SOL    HW1 3494   1.769   6.471   5.411
  865SOL    HW2 3495   1.672   6.511   5.286
  866SOL     OW 3496   1.691   2.758   1.283
  866SOL    HW1 3497   1.721   2.814   1.205
  866SOL    HW2 3498   1.750   2.778   1.362
  867SOL     OW 3499   3.870   2.582   1.098
  867SOL    HW1 3500   3.780   2.558   1.061
  867SOL    HW2 3501   3.869   2.678   1.126
  868SOL     OW 3502   5.682   6.298   1.440
  868SOL    HW1 3503   5.684   6.246   1.355
  868SOL    HW2 3504   5.775   6.313   1.473
  869SOL     OW 3505   0.114   5.435   2.751
  869SOL    HW1 3506   0.101   5.528   2.785
  869SOL    HW2 3507   0.030   5.382   2.766
  870SOL     OW 3508   5.948   3.672   0.424
  870SOL    HW1 3509   5.890   3.712   0.495
  870SOL    HW2 3510   6.041   3.708   0.433
  871SOL     OW 3511   6.396   3.426   1.841
  871SOL    HW1 3512   6.296   3.424   1.842
  871SOL    HW2 3513   6.429   3.503   1.895
  872SOL     OW 3514   6.360   4.231   3.879
  872SOL    HW1 3515   6.413   4.158   3.921
  872SOL    HW2 3516   6.264   4.206   3.878
  873SOL     OW 3517   4.814   0.123   3.879
  873SOL    HW1 3518   4.902   0.165   3.859
  873SOL    HW2 3519   4.818   0.025   3.858
  874SOL     OW 3520   1.507   4.191   5.457
  874SOL    HW1 3521   1.583   4.206   5.394
  874SOL    HW2 3522   1.421   4.191   5.406
  875SOL     OW 3523   4.621   3.684   1.197
  875SOL    HW1 3524   4.687   3.737   1.250
  875SOL    HW2 3525   4.596   3.601   1.247
  876SOL     OW 3526   0.135   5.440   3.670
  876SOL    HW1 3527   0.082   5.356   3.678
  876SOL    HW2 3528   0.077   5.514   3.638
  877SOL     OW 3529   3.651   4.584   6.524
  877SOL    HW1 3530   3.619   4.610   6.616
  877SOL    HW2 3531   3.579   4.534   6.477
  878SOL     OW 3532   4.290   5.951   6.351
  878SOL    HW1 3533   4.369   6.002   6.386
  878SOL    HW2 3534   4.299   5.855   6.375
  879SOL     OW 3535   3.494   1.917   2.386
  879SOL    HW1 3536   3.494   1.934   2.288
  879SOL    HW2 3537   3.416   1.859   2.410
  880SOL     OW 3538   2.950   5.042   6.965
  880SOL    HW1 3539   2.960   5.127   6.913
  880SOL    HW2 3540   3.011   4.972   6.929
  881SOL     OW 3541   4.090   4.511   5.308
  881SOL    HW1 3542   4.159   4.472   5.247
  881SOL    HW2 3543   4.050   4.438   5.363
  882SOL     OW 3544   1.953   1.146   3.711
  882SOL    HW1 3545   1.938   1.244   3.693
  882SOL    HW2 3546   1.919   1.092   3.635
  883SOL     OW 3547   4.885   5.215   4.948
  883SOL    HW1 3548   4.860   5.266   5.029
  883SOL    HW2 3549   4.982   5.229   4.927
  884SOL     OW 3550   6.906   3.963   2.015
  884SOL    HW1 3551   6.957   3.940   2.097
  884SOL    HW2 3552   6.815   3.922   2.018
  885SOL     OW 3553   5.302   5.855   6.899
  885SOL    HW1 3554   5.245   5.879   6.977
  885SOL    HW2 3555   5.394   5.892   6.913
  886SOL     OW 3556   4.507   0.778   0.261
  886SOL    HW1 3557   4.432   0.798   0.198
  886SOL    HW2 3558   4.547   0.864   0.293
  887SOL     OW 3559   4.408   6.378   5.375
  887SOL    HW1 3560   4.367   6.302   5.326
  887SOL    HW2 3561   4.494   6.348   5.417
  888SOL     OW 3562   6.433   6.570   3.390
  888SOL    HW1 3563   6.464   6.595   3.481
  888SOL    HW2 3564   6.369   6.493   3.397
  889SOL     OW 3565   0.526   6.713   6.136
  889SOL    HW1 3566   0.492   6.801   6.104
  889SOL    HW2 3567   0.451   6.647   6.139
  890SOL     OW 3568   2.802   4.893   2.025
  890SOL    HW1 3569   2.837   4.802   2.047
  890SOL    HW2 3570   2.841   4.960   2.088
  891SOL     OW 3571   5.538   3.785   1.222
  891SOL    HW1 3572   5.512   3.714   1.288
  891SOL    HW2 3573   5.491   3.870   1.245
  892SOL     OW 3574   3.706   3.934   0.530
  892SOL    HW1 3575   3.723   3.869   0.604
  892SOL    HW2 3576   3.613   3.971   0.539
  893SOL     OW 3577   2.273   0.779   1.672
  893SOL    HW1 3578   2.303   0.814   1.583
  893SOL    HW2 3579   2.181   0.812   1.692
  894SOL     OW 3580   2.150   4.012   4.062
  894SOL    HW1 3581   2.095   3.928   4.066
  894SOL    HW2 3582   2.164   4.047   4.155
  895SOL     OW 3583   2.149   6.319   4.954
  895SOL    HW1 3584   2.201   6.385   5.008
  895SOL    HW2 3585   2.055   6.315   4.987
  896SOL     OW 3586   5.134   5.643   3.030
  896SOL    HW1 3587   5.095   5.719   3.083
  896SOL    HW2 3588   5.089   5.640   2.940
  897SOL     OW 3589   4.700   1.133   0.590
  897SOL    HW1 3590   4.719   1.203   0.520
  897SOL    HW2 3591   4.680   1.178   0.677
  898SOL     OW 3592   4.284   6.095   3.569
  898SOL    HW1 3593   4.280   6.099   3.669
  898SOL    HW2 3594   4.363   6.041   3.540
  899SOL     OW 3595   0.574   5.337   0.070
  899SOL    HW1 3596   0.489   5.387   0.086
  899SOL    HW2 3597   0.596   5.338   6.987
  900SOL     OW 3598   5.331   5.586   1.683
  900SOL    HW1 3599   5.253   5.524   1.696
  900SOL    HW2 3600   5.313   5.673   1.729
  901SOL     OW 3601   0.047   1.471   4.772
  901SOL    HW1 3602   0.001   1.396   4.725
  901SOL    HW2 3603   0.059   1.448   4.869
  902SOL     OW 3604   0.327   1.463   6.253
  902SOL    HW1 3605   0.271   1.533   6.298
  902SOL    HW2 3606   0.269   1.405   6.196
  903SOL     OW 3607   6.511   4.598   6.937
  903SOL    HW1 3608   6.418   4.636   6.936
  903SOL    HW2 3609   6.525   4.543   6.854
  904SOL     OW 3610   1.823   2.170   4.348
  904SOL    HW1 3611   1.743   2.228   4.355
  904SOL    HW2 3612   1.906   2.226   4.346
  905SOL     OW 3613   5.217   2.762   6.688
  905SOL    HW1 3614   5.183   2.770   6.594
  905SOL    HW2 3615   5.240   2.853   6.723
  906SOL     OW 3616   0.498   3.810   6.201
  906SOL    HW1 3617   0.461   3.903   6.204
  906SOL    HW2 3618   0.588   3.808   6.244
  907SOL     OW 3619   6.075   2.806   3.325
  907SOL    HW1 3620   5.990   2.851   3.352
  907SOL    HW2 3621   6.136   2.873   3.282
  908SOL     OW 3622   1.383   6.869   4.191
  908SOL    HW1 3623   1.350   6.962   4.206
  908SOL    HW2 3624   1.394   6.853   4.093
  909SOL     OW 3625   2.483   1.195   1.039
  909SOL    HW1 3626   2.572   1.181   1.083
  909SOL    HW2 3627   2.421   1.241   1.103
  910SOL     OW 3628   2.281   0.745   0.935
  910SOL    HW1 3629   2.227   0.770   1.014
  910SOL    HW2 3630   2.312   0.827   0.887
  911SOL     OW 3631   6.850   5.280   1.281
  911SOL    HW1 3632   6.811   5.344   1.215
  911SOL    HW2 3633   6.853   5.189   1.242
  912SOL     OW 3634   6.883   0.860   5.664
  912SOL    HW1 3635   6.846   0.786   5.609
  912SOL    HW2 3636   6.874   0.947   5.615
  913SOL     OW 3637   2.344   0.787   3.454
  913SOL    HW1 3638   2.419   0.795   3.388
  913SOL    HW2 3639   2.339   0.693   3.488
  914SOL     OW 3640   2.801   5.944   5.558
  914SOL    HW1 3641   2.764   5.862   5.601
  914SOL    HW2 3642   2.882   5.921   5.505
  915SOL     OW 3643   0.702   3.432   1.148
  915SOL    HW1 3644   0.726   3.528   1.156
  915SOL    HW2 3645   0.719   3.401   1.054
  916SOL     OW 3646   1.448   2.466   2.366
  916SOL    HW1 3647   1.381   2.535   2.391
  916SOL    HW2 3648   1.402   2.380   2.346
  917SOL     OW 3649   3.830   0.422   1.600
  917SOL    HW1 3650   3.839   0.355   1.526
  917SOL    HW2 3651   3.921   0.451   1.631
  918SOL     OW 3652   2.851   6.212   0.205
  918SOL    HW1 3653   2.867   6.253   0.115
  918SOL    HW2 3654   2.800   6.276   0.262
  919SOL     OW 3655   1.936   6.352   1.583
  919SOL    HW1 3656   1.898   6.401   1.661
  919SOL    HW2 3657   1.865   6.293   1.543
  920SOL     OW 3658   2.327   0.255   3.502
  920SOL    HW1 3659   2.362   0.197   3.576
  920SOL    HW2 3660   2.228   0.243   3.494
  921SOL     OW 3661   4.752   4.939   3.767
  921SOL    HW1 3662   4.765   5.038   3.762
  921SOL    HW2 3663   4.679   4.911   3.704
  922SOL     OW 3664   3.360   2.818   6.518
  922SOL    HW1 3665   3.392   2.876   6.593
  922SOL    HW2 3666   3.350   2.874   6.435
  923SOL     OW 3667   3.282   5.886   0.529
  923SOL    HW1 3668   3.213   5.908   0.598
  923SOL    HW2 3669   3.357   5.836   0.573
  924SOL     OW 3670   5.171   3.362   2.393
  924SOL    HW1 3671   5.072   3.371   2.401
  924SOL    HW2 3672   5.205   3.303   2.466
  925SOL     OW 3673   6.989   1.526   5.227
  925SOL    HW1 3674   6.920   1.492   5.291
  925SOL    HW2 3675   7.009   1.622   5.247
  926SOL     OW 3676   6.103   0.940   6.771
  926SOL    HW1 3677   6.045   0.972   6.846
  926SOL    HW2 3678   6.045   0.901   6.699
  927SOL     OW 3679   4.869   4.012   4.083
  927SOL    HW1 3680   4.848   3.934   4.024
  927SOL    HW2 3681   4.966   4.036   4.072
  928SOL     OW 3682   1.749   0.508   0.724
  928SOL    HW1 3683   1.737   0.466   0.814
  928SOL    HW2 3684   1.660   0.520   0.680
  929SOL     OW 3685   6.634   2.173   1.147
  929SOL    HW1 3686   6.648   2.267   1.116
  929SOL    HW2 3687   6.649   2.110   1.070
  930SOL     OW 3688   0.128   5.813   4.793
  930SOL    HW1 3689   0.225   5.798   4.774
  930SOL    HW2 3690   0.117   5.847   4.886
  931SOL     OW 3691   0.134   3.619   3.365
  931SOL    HW1 3692   0.127   3.665   3.454
  931SOL    HW2 3693   0.054   3.560   3.352
  932SOL     OW 3694   2.976   6.417   1.172
  932SOL    HW1 3695   2.936   6.377   1.254
  932SOL    HW2 3696   3.049   6.481   1.199
  933SOL     OW 3697   0.999   5.236   2.027
  933SOL    HW1 3698   1.048   5.323   2.026
  933SOL    HW2 3699   0.948   5.227   2.112
  934SOL     OW 3700   2.690   1.110   4.617
  934SOL    HW1 3701   2.754   1.112   4.694
  934SOL    HW2 3702   2.664   1.203   4.592
  935SOL     OW 3703   4.823   3.262   5.565
  935SOL    HW1 3704   4.858   3.309   5.646
  935SOL    HW2 3705   4.819   3.327   5.489
  936SOL     OW 3706   1.057   0.352   6.678
  936SOL    HW1 3707   1.029   0.329   6.772
  936SOL    HW2 3708   1.068   0.268   6.625
  937SOL     OW 3709   4.833   2.334   5.371
  937SOL    HW1 3710   4.904   2.264   5.368
  937SOL    HW2 3711   4.791   2.336   5.462
  938SOL     OW 3712   6.875   4.717   5.762
  938SOL    HW1 3713   6.893   4.726   5.860
  938SOL    HW2 3714   6.944   4.658   5.720
  939SOL     OW 3715   4.838   1.486   5.497
  939SOL    HW1 3716   4.849   1.573   5.544
  939SOL    HW2 3717   4.906   1.420   5.532
  940SOL     OW 3718   6.555   2.005   2.951
  940SOL    HW1 3719   6.599   2.091   2.975
  940SOL    HW2 3720   6.491   2.020   2.876
  941SOL     OW 3721   6.330   0.991   4.235
  941SOL    HW1 3722   6.246   0.970   4.284
  941SOL    HW2 3723   6.399   0.921   4.256
  942SOL     OW 3724   5.168   0.999   4.826
  942SOL    HW1 3725   5.191   0.999   4.728
  942SOL    HW2 3726   5.101   0.928   4.844
  943SOL     OW 3727   0.790   3.190   2.875
  943SOL    HW1 3728   0.708   3.135   2.891
  943SOL    HW2 3729   0.870   3.130   2.872
  944SOL     OW 3730   6.310   3.305   6.206
  944SOL    HW1 3731   6.316   3.222   6.261
  944SOL    HW2 3732   6.345   3.288   6.114
  945SOL     OW 3733   6.042   4.554   5.202
  945SOL    HW1 3734   6.057   4.496   5.282
  945SOL    HW2 3735   6.067   4.648   5.224
  946SOL     OW 3736   5.884   2.545   6.437
  946SOL    HW1 3737   5.814   2.610   6.466
  946SOL    HW2 3738   5.875   2.529   6.338
  947SOL     OW 3739   2.806   3.363   5.474
  947SOL    HW1 3740   2.857   3.323   5.398
  947SOL    HW2 3741   2.847   3.335   5.560
  948SOL     OW 3742   4.182   1.118   0.917
  948SOL    HW1 3743   4.186   1.023   0.885
  948SOL    HW2 3744   4.100   1.130   0.973
  949SOL     OW 3745   6.528   6.182   6.428
  949SOL    HW1 3746   6.530   6.279   6.406
  949SOL    HW2 3747   6.580   6.130   6.359
  950SOL     OW 3748   4.491   5.019   2.869
  950SOL    HW1 3749   4.579   5.065   2.881
  950SOL    HW2 3750   4.506   4.928   2.830
  951SOL     OW 3751   2.050   0.696   1.943
  951SOL    HW1 3752   2.070   0.781   1.991
  951SOL    HW2 3753   1.992   0.715   1.864
  952SOL     OW 3754   5.764   1.314   2.175
  952SOL    HW1 3755   5.697   1.331   2.103
  952SOL    HW2 3756   5.856   1.318   2.137
  953SOL     OW 3757   4.978   5.934   5.777
  953SOL    HW1 3758   5.006   6.005   5.841
  953SOL    HW2 3759   4.984   5.970   5.683
  954SOL     OW 3760   5.324   6.947   0.693
  954SOL    HW1 3761   5.261   0.010   0.690
  954SOL    HW2 3762   5.409   6.971   0.647
  955SOL     OW 3763   0.966   5.170   3.473
  955SOL    HW1 3764   1.012   5.086   3.443
  955SOL    HW2 3765   1.034   5.236   3.505
  956SOL     OW 3766   0.936   1.788   2.003
  956SOL    HW1 3767   0.987   1.761   1.921
  956SOL    HW2 3768   0.851   1.737   2.007
  957SOL     OW 3769   1.322   4.478   4.867
  957SOL    HW1 3770   1.375   4.446   4.946
  957SOL    HW2 3771   1.263   4.554   4.895
  958SOL     OW 3772   4.823   2.656   1.081
  958SOL    HW1 3773   4.811   2.642   1.180
  958SOL    HW2 3774   4.784   2.579   1.031
  959SOL     OW 3775   2.869   4.796   2.981
  959SOL    HW1 3776   2.938   4.762   2.918
  959SOL    HW2 3777   2.886   4.893   3.002
  960SOL     OW 3778   0.390   5.958   4.005
  960SOL    HW1 3779   0.385   5.885   4.072
  960SOL    HW2 3780   0.437   6.037   4.045
  961SOL     OW 3781   4.979   6.373   3.202
  961SOL    HW1 3782   4.988   6.449   3.265
  961SOL    HW2 3783   4.949   6.407   3.113
  962SOL     OW 3784   1.618   1.041   3.644
  962SOL    HW1 3785   1.689   1.024   3.577
  962SOL    HW2 3786   1.659   1.064   3.732
  963SOL     OW 3787   5.836   0.684   0.153
  963SOL    HW1 3788   5.853   0.604   0.210
  963SOL    HW2 3789   5.920   0.738   0.145
  964SOL     OW 3790   6.241   3.455   0.731
  964SOL    HW1 3791   6.181   3.376   0.717
  964SOL    HW2 3792   6.206   3.510   0.807
  965SOL     OW 3793   5.892   1.890   0.742
  965SOL    HW1 3794   5.865   1.801   0.778
  965SOL    HW2 3795   5.944   1.878   0.658
  966SOL     OW 3796   6.198   1.468   2.311
  966SOL    HW1 3797   6.282   1.496   2.359
  966SOL    HW2 3798   6.159   1.546   2.263
  967SOL     OW 3799   1.744   5.265   0.590
  967SOL    HW1 3800   1.781   5.341   0.643
  967SOL    HW2 3801   1.683   5.210   0.647
  968SOL     OW 3802   4.484   2.397   2.251
  968SOL    HW1 3803   4.428   2.315   2.258
  968SOL    HW2 3804   4.485   2.428   2.155
  969SOL     OW 3805   3.672   6.028   6.020
  969SOL    HW1 3806   3.709   5.948   5.973
  969SOL    HW2 3807   3.679   6.107   5.959
  970SOL     OW 3808   4.827   1.329   4.767
  970SOL    HW1 3809   4.851   1.321   4.864
  970SOL    HW2 3810   4.850   1.244   4.720
  971SOL     OW 3811   0.471   1.613   2.944
  971SOL    HW1 3812   0.539   1.660   3.001
  971SOL    HW2 3813   0.380   1.622   2.987
  972SOL     OW 3814   5.657   3.968   0.726
  972SOL    HW1 3815   5.690   3.898   0.662
  972SOL    HW2 3816   5.734   4.006   0.777
  973SOL     OW 3817   0.071   4.831   6.080
  973SOL    HW1 3818   0.144   4.799   6.141
  973SOL    HW2 3819   0.065   4.931   6.084
  974SOL     OW 3820   4.126   0.593   2.087
  974SOL    HW1 3821   4.053   0.554   2.031
  974SOL    HW2 3822   4.206   0.611   2.030
  975SOL     OW 3823   1.682   5.961   6.650
  975SOL    HW1 3824   1.747   6.012   6.706
  975SOL    HW2 3825   1.708   5.865   6.648
  976SOL     OW 3826   6.111   2.986   2.638
  976SOL    HW1 3827   6.168   3.060   2.602
  976SOL    HW2 3828   6.138   2.899   2.596
  977SOL     OW 3829   2.338   1.294   3.941
  977SOL    HW1 3830   2.292   1.231   3.879
  977SOL    HW2 3831   2.301   1.386   3.928
  978SOL     OW 3832   5.055   3.965   5.276
  978SOL    HW1 3833   5.054   4.053   5.228
  978SOL    HW2 3834   5.065   3.891   5.209
  979SOL     OW 3835   6.647   1.302   3.076
  979SOL    HW1 3836   6.674   1.365   3.148
  979SOL    HW2 3837   6.578   1.345   3.018
  980SOL     OW 3838   5.134   1.781   3.683
  980SOL    HW1 3839   5.120   1.874   3.716
  980SOL    HW2 3840   5.071   1.719   3.730
  981SOL     OW 3841   1.384   1.501   5.085
  981SOL    HW1 3842   1.373   1.511   4.986
  981SOL    HW2 3843   1.474   1.536   5.112
  982SOL     OW 3844   2.163   2.342   3.765
  982SOL    HW1 3845   2.063   2.337   3.764
  982SOL    HW2 3846   2.192   2.423   3.817
  983SOL     OW 3847   5.679   2.977   3.713
  983SOL    HW1 3848   5.678   3.074   3.686
  983SOL    HW2 3849   5.673   2.920   3.631
  984SOL     OW 3850   3.917   0.644   4.901
  984SOL    HW1 3851   3.914   0.556   4.854
  984SOL    HW2 3852   4.012   0.675   4.907
  985SOL     OW 3853   5.199   4.737   6.444
  985SOL    HW1 3854   5.112   4.742   6.494
  985SOL    HW2 3855   5.259   4.810   6.475
  986SOL     OW 3856   5.143   5.585   0.210
  986SOL    HW1 3857   5.198   5.505   0.236
  986SOL    HW2 3858   5.091   5.564   0.127
  987SOL     OW 3859   4.278   6.130   1.167
  987SOL    HW1 3860   4.218   6.197   1.125
  987SOL    HW2 3861   4.262   6.127   1.266
  988SOL     OW 3862   3.873   2.752   1.413
  988SOL    HW1 3863   3.880   2.831   1.473
  988SOL    HW2 3864   3.805   2.688   1.449
  989SOL     OW 3865   0.581   0.752   5.724
  989SOL    HW1 3866   0.495   0.797   5.700
  989SOL    HW2 3867   0.657   0.801   5.682
  990SOL     OW 3868   4.796   0.455   3.355
  990SOL    HW1 3869   4.748   0.541   3.374
  990SOL    HW2 3870   4.859   0.435   3.429
  991SOL     OW 3871   1.778   1.912   5.270
  991SOL    HW1 3872   1.790   1.974   5.348
  991SOL    HW2 3873   1.730   1.960   5.196
  992SOL     OW 3874   0.818   3.681   1.157
  992SOL    HW1 3875   0.838   3.686   1.255
  992SOL    HW2 3876   0.886   3.735   1.107
  993SOL     OW 3877   1.976   5.376   2.317
  993SOL    HW1 3878   1.897   5.315   2.325
  993SOL    HW2 3879   1.951   5.458   2.266
  994SOL     OW 3880   3.772   3.622   2.774
  994SOL    HW1 3881   3.769   3.522   2.782
  994SOL    HW2 3882   3.815   3.661   2.855
  995SOL     OW 3883   2.752   2.105   6.207
  995SOL    HW1 3884   2.812   2.070   6.134
  995SOL    HW2 3885   2.780   2.067   6.295
  996SOL     OW 3886   1.802   4.020   3.688
  996SOL    HW1 3887   1.870   4.060   3.626
  996SOL    HW2 3888   1.712   4.024   3.645
  997SOL     OW 3889   6.507   0.454   1.103
  997SOL    HW1 3890   6.420   0.467   1.151
  997SOL    HW2 3891   6.537   0.359   1.114
  998SOL     OW 3892   4.739   0.024   4.152
  998SOL    HW1 3893   4.775   6.946   4.141
  998SOL    HW2 3894   4.754   0.075   4.068
  999SOL     OW 3895   5.393   5.224   1.030
  999SOL    HW1 3896   5.348   5.140   1.001
  999SOL    HW2 3897   5.492   5.211   1.027
 1000SOL     OW 3898   1.095   0.742   2.329
 1000SOL    HW1 3899   1.164   0.814   2.327
 1000SOL    HW2 3900   1.025   0.766   2.397
 1001SOL     OW 3901   5.390   6.605   6.867
 1001SOL    HW1 3902   5.370   6.682   6.807
 1001SOL    HW2 3903   5.388   6.520   6.815
 1002SOL     OW 3904   5.814   2.066   6.810
 1002SOL    HW1 3905   5.721   2.033   6.798
 1002SOL    HW2 3906   5.814   2.149   6.866
 1003SOL     OW 3907   2.538   6.896   1.648
 1003SOL    HW1 3908   2.581   6.809   1.624
 1003SOL    HW2 3909   2.560   6.919   1.743
 1004SOL     OW 3910   6.506   0.701   0.970
 1004SOL    HW1 3911   6.501   0.633   1.043
 1004SOL    HW2 3912   6.448   0.671   0.894
 1005SOL     OW 3913   0.239   1.522   3.337
 1005SOL    HW1 3914   0.182   1.506   3.417
 1005SOL    HW2 3915   0.192   1.489   3.255
 1006SOL     OW 3916   1.760   6.213   1.449
 1006SOL    HW1 3917   1.747   6.114   1.453
 1006SOL    HW2 3918   1.774   6.242   1.355
 1007SOL     OW 3919   6.008   0.300   4.064
 1007SOL    HW1 3920   6.000   0.201   4.074
 1007SOL    HW2 3921   6.060   0.338   4.141
 1008SOL     OW 3922   1.628   2.971   4.450
 1008SOL    HW1 3923   1.719   3.009   4.432
 1008SOL    HW2 3924   1.634   2.872   4.458
 1009SOL     OW 3925   0.220   6.082   3.834
 1009SOL    HW1 3926   0.305   6.041   3.867
 1009SOL    HW2 3927   0.229   6.182   3.834
 1010SOL     OW 3928   3.678   2.065   6.591
 1010SOL    HW1 3929   3.759   2.106   6.547
 1010SOL    HW2 3930   3.609   2.136   6.605
 1011SOL     OW 3931   2.766   5.262   2.518
 1011SOL    HW1 3932   2.741   5.195   2.448
 1011SOL    HW2 3933   2.687   5.320   2.538
 1012SOL     OW 3934   6.628   6.037   0.148
 1012SOL    HW1 3935   6.654   6.008   0.056
 1012SOL    HW2 3936   6.694   6.105   0.181
 1013SOL     OW 3937   0.176   1.087   6.344
 1013SOL    HW1 3938   0.152   1.071   6.440
 1013SOL    HW2 3939   0.237   1.014   6.313
 1014SOL     OW 3940   4.829   5.378   6.874
 1014SOL    HW1 3941   4.911   5.414   6.918
 1014SOL    HW2 3942   4.772   5.454   6.843
 1015SOL     OW 3943   1.927   6.714   5.252
 1015SOL    HW1 3944   1.859   6.650   5.289
 1015SOL    HW2 3945   1.882   6.801   5.231
 1016SOL     OW 3946   2.297   3.471   0.512
 1016SOL    HW1 3947   2.205   3.510   0.517
 1016SOL    HW2 3948   2.296   3.390   0.454
 1017SOL     OW 3949   4.627   2.464   0.738
 1017SOL    HW1 3950   4.549   2.439   0.681
 1017SOL    HW2 3951   4.627   2.563   0.753
 1018SOL     OW 3952   1.897   3.435   3.948
 1018SOL    HW1 3953   1.994   3.428   3.928
 1018SOL    HW2 3954   1.857   3.343   3.952
 1019SOL     OW 3955   1.472   0.772   0.349
 1019SOL    HW1 3956   1.557   0.741   0.392
 1019SOL    HW2 3957   1.427   0.839   0.409
 1020SOL     OW 3958   1.399   6.840   0.975
 1020SOL    HW1 3959   1.350   6.755   0.957
 1020SOL    HW2 3960   1.440   6.836   1.066
 1021SOL     OW 3961   6.006   0.422   0.592
 1021SOL    HW1 3962   6.002   0.335   0.643
 1021SOL    HW2 3963   5.973   0.407   0.499
 1022SOL     OW 3964   3.984   4.288   6.087
 1022SOL    HW1 3965   3.999   4.384   6.065
 1022SOL    HW2 3966   3.890   4.276   6.120
 1023SOL     OW 3967   6.091   0.237   2.128
 1023SOL    HW1 3968   6.173   0.188   2.098
 1023SOL    HW2 3969   6.019   0.225   2.059
 1024SOL     OW 3970   6.107   3.290   3.916
 1024SOL    HW1 3971   6.119   3.260   4.011
 1024SOL    HW2 3972   6.011   3.278   3.889
 1025SOL     OW 3973   3.415   3.867   0.203
 1025SOL    HW1 3974   3.494   3.897   0.255
 1025SOL    HW2 3975   3.380   3.782   0.242
 1026SOL     OW 3976   1.452   2.039   1.022
 1026SOL    HW1 3977   1.527   2.032   0.957
 1026SOL    HW2 3978   1.437   2.135   1.047
 1027SOL     OW 3979   2.301   6.514   1.015
 1027SOL    HW1 3980   2.351   6.601   1.017
 1027SOL    HW2 3981   2.207   6.529   1.046
 1028SOL     OW 3982   3.984   5.769   0.411
 1028SOL    HW1 3983   3.925   5.847   0.388
 1028SOL    HW2 3984   4.023   5.782   0.502
 1029SOL     OW 3985   1.533   0.465   0.362
 1029SOL    HW1 3986   1.440   0.494   0.337
 1029SOL    HW2 3987   1.544   0.368   0.340
 1030SOL     OW 3988   3.844   2.855   1.907
 1030SOL    HW1 3989   3.787   2.804   1.843
 1030SOL    HW2 3990   3.879   2.938   1.862
 1031SOL     OW 3991   4.926   5.369   0.320
 1031SOL    HW1 3992   4.902   5.317   0.402
 1031SOL    HW2 3993   5.024   5.360   0.302
 1032SOL     OW 3994   1.716   1.943   4.776
 1032SOL    HW1 3995   1.685   2.038   4.780
 1032SOL    HW2 3996   1.637   1.882   4.782
 1033SOL     OW 3997   1.130   6.747   1.632
 1033SOL    HW1 3998   1.095   6.759   1.539
 1033SOL    HW2 3999   1.226   6.774   1.635
 1034SOL     OW 4000   1.462   6.077   4.942
 1034SOL    HW1 4001   1.474   5.999   5.003
 1034SOL    HW2 4002   1.448   6.160   4.997
 1035SOL     OW 4003   2.727   1.328   3.615
 1035SOL    HW1 4004   2.800   1.329   3.684
 1035SOL    HW2 4005   2.752   1.387   3.538
 1036SOL     OW 4006   2.988   0.118   1.393
 1036SOL    HW1 4007   2.926   0.197   1.396
 1036SOL    HW2 4008   3.083   0.149   1.404
 1037SOL     OW 4009   1.688   1.565   1.650
 1037SOL    HW1 4010   1.691   1.575   1.550
 1037SOL    HW2 4011   1.595   1.541   1.678
 1038SOL     OW 4012   1.055   0.921   5.472
 1038SOL    HW1 4013   1.018   0.834   5.439
 1038SOL    HW2 4014   1.076   0.980   5.394
 1039SOL     OW 4015   4.172   2.804   5.636
 1039SOL    HW1 4016   4.259   2.815   5.685
 1039SOL    HW2 4017   4.168   2.869   5.561
 1040SOL     OW 4018   5.048   2.835   2.484
 1040SOL    HW1 4019   4.960   2.878   2.463
 1040SOL    HW2 4020   5.123   2.899   2.463
 1041SOL     OW 4021   6.529   6.783   4.467
 1041SOL    HW1 4022   6.443   6.782   4.417
 1041SOL    HW2 4023   6.593   6.718   4.425
 1042SOL     OW 4024   3.320   4.982   2.277
 1042SOL    HW1 4025   3.260   4.915   2.321
 1042SOL    HW2 4026   3.284   5.074   2.292
 1043SOL     OW 4027   4.626   1.354   5.378
 1043SOL    HW1 4028   4.704   1.410   5.405
 1043SOL    HW2 4029   4.550   1.368   5.442
 1044SOL     OW 4030   4.401   3.502   1.542
 1044SOL    HW1 4031   4.379   3.459   1.630
 1044SOL    HW2 4032   4.333   3.572   1.521
 1045SOL     OW 4033   2.832   6.612   1.745
 1045SOL    HW1 4034   2.800   6.650   1.831
 1045SOL    HW2 4035   2.821   6.512   1.747
 1046SOL     OW 4036   1.948   0.124   0.046
 1046SOL    HW1 4037   2.021   0.055   0.049
 1046SOL    HW2 4038   1.865   0.082   0.009
 1047SOL     OW 4039   1.499   6.002   2.601
 1047SOL    HW1 4040   1.513   6.009   2.700
 1047SOL    HW2 4041   1.572   5.946   2.561
 1048SOL     OW 4042   4.701   5.643   5.579
 1048SOL    HW1 4043   4.793   5.674   5.555
 1048SOL    HW2 4044   4.672   5.687   5.664
 1049SOL     OW 4045   6.916   4.392   4.841
 1049SOL    HW1 4046   6.924   4.467   4.776
 1049SOL    HW2 4047   6.864   4.318   4.800
 1050SOL     OW 4048   3.197   5.330   0.876
 1050SOL    HW1 4049   3.217   5.425   0.856
 1050SOL    HW2 4050   3.252   5.271   0.817
 1051SOL     OW 4051   3.340   5.191   0.154
 1051SOL    HW1 4052   3.333   5.093   0.173
 1051SOL    HW2 4053   3.432   5.212   0.121
 1052SOL     OW 4054   4.323   0.385   4.011
 1052SOL    HW1 4055   4.398   0.319   4.000
 1052SOL    HW2 4056   4.293   0.416   3.921
 1053SOL     OW 4057   5.299   5.835   3.263
 1053SOL    HW1 4058   5.212   5.880   3.282
 1053SOL    HW2 4059   5.321   5.772   3.337
 1054SOL     OW 4060   2.930   4.736   5.676
 1054SOL    HW1 4061   2.860   4.722   5.605
 1054SOL    HW2 4062   2.896   4.701   5.763
 1055SOL     OW 4063   5.619   6.866   4.154
 1055SOL    HW1 4064   5.671   6.833   4.233
 1055SOL    HW2 4065   5.676   6.859   4.071
 1056SOL     OW 4066   2.067   6.060   5.480
 1056SOL    HW1 4067   2.000   5.986   5.488
 1056SOL    HW2 4068   2.045   6.131   5.547
 1057SOL     OW 4069   3.271   3.505   2.865
 1057SOL    HW1 4070   3.298   3.584   2.809
 1057SOL    HW2 4071   3.335   3.494   2.941
 1058SOL     OW 4072   5.005   1.687   2.159
 1058SOL    HW1 4073   5.015   1.783   2.183
 1058SOL    HW2 4074   5.053   1.630   2.226
 1059SOL     OW 4075   2.857   0.501   1.547
 1059SOL    HW1 4076   2.855   0.404   1.525
 1059SOL    HW2 4077   2.871   0.554   1.463
 1060SOL     OW 4078   0.363   2.853   4.658
 1060SOL    HW1 4079   0.459   2.827   4.673
 1060SOL    HW2 4080   0.331   2.813   4.572
 1061SOL     OW 4081   4.739   3.829   1.391
 1061SOL    HW1 4082   4.684   3.906   1.425
 1061SOL    HW2 4083   4.731   3.753   1.455
 1062SOL     OW 4084   6.474   5.237   6.259
 1062SOL    HW1 4085   6.442   5.237   6.354
 1062SOL    HW2 4086   6.418   5.177   6.204
 1063SOL     OW 4087   1.156   4.630   1.035
 1063SOL    HW1 4088   1.163   4.636   1.135
 1063SOL    HW2 4089   1.191   4.714   0.994
 1064SOL     OW 4090   0.975   4.302   2.208
 1064SOL    HW1 4091   1.056   4.353   2.234
 1064SOL    HW2 4092   0.989   4.259   2.118
 1065SOL     OW 4093   5.054   0.725   4.810
 1065SOL    HW1 4094   4.967   0.744   4.764
 1065SOL    HW2 4095   5.116   0.678   4.747
 1066SOL     OW 4096   5.455   0.808   4.353
 1066SOL    HW1 4097   5.403   0.814   4.438
 1066SOL    HW2 4098   5.410   0.745   4.290
 1067SOL     OW 4099   1.767   2.294   0.209
 1067SOL    HW1 4100   1.834   2.233   0.168
 1067SOL    HW2 4101   1.813   2.373   0.250
 1068SOL     OW 4102   5.458   4.224   2.063
 1068SOL    HW1 4103   5.404   4.140   2.052
 1068SOL    HW2 4104   5.403   4.302   2.034
 1069SOL     OW 4105   4.850   5.002   1.287
 1069SOL    HW1 4106   4.901   4.935   1.234
 1069SOL    HW2 4107   4.867   4.988   1.385
 1070SOL     OW 4108   1.174   1.247   0.243
 1070SOL    HW1 4109   1.267   1.213   0.253
 1070SOL    HW2 4110   1.159   1.277   0.149
 1071SOL     OW 4111   3.920   0.368   3.224
 1071SOL    HW1 4112   4.012   0.350   3.260
 1071SOL    HW2 4113   3.852   0.324   3.283
 1072SOL     OW 4114   1.750   5.943   1.470
 1072SOL    HW1 4115   1.741   5.867   1.407
 1072SOL    HW2 4116   1.824   5.925   1.535
 1073SOL     OW 4117   3.545   5.876   2.894
 1073SOL    HW1 4118   3.548   5.925   2.981
 1073SOL    HW2 4119   3.513   5.938   2.822
 1074SOL     OW 4120   1.882   5.080   1.385
 1074SOL    HW1 4121   1.890   5.170   1.427
 1074SOL    HW2 4122   1.822   5.085   1.305
 1075SOL     OW 4123   4.786   5.986   3.525
 1075SOL    HW1 4124   4.879   5.976   3.491
 1075SOL    HW2 4125   4.765   5.911   3.588
 1076SOL     OW 4126   0.607   4.668   4.876
 1076SOL    HW1 4127   0.621   4.583   4.927
 1076SOL    HW2 4128   0.694   4.718   4.871
 1077SOL     OW 4129   6.146   6.843   0.381
 1077SOL    HW1 4130   6.055   6.833   0.341
 1077SOL    HW2 4131   6.199   6.909   0.328
 1078SOL     OW 4132   2.053   0.673   2.711
 1078SOL    HW1 4133   2.063   0.755   2.655
 1078SOL    HW2 4134   2.144   0.643   2.741
 1079SOL     OW 4135   1.904   5.486   2.608
 1079SOL    HW1 4136   1.890   5.419   2.681
 1079SOL    HW2 4137   1.839   5.468   2.534
 1080SOL     OW 4138   1.779   4.435   3.470
 1080SOL    HW1 4139   1.698   4.445   3.412
 1080SOL    HW2 4140   1.861   4.455   3.416
 1081SOL     OW 4141   0.463   0.851   5.319
 1081SOL    HW1 4142   0.375   0.893   5.341
 1081SOL    HW2 4143   0.464   0.757   5.353
 1082SOL     OW 4144   1.768   0.234   5.689
 1082SOL    HW1 4145   1.829   0.217   5.612
 1082SOL    HW2 4146   1.819   0.228   5.775
 1083SOL     OW 4147   3.747   4.090   1.760
 1083SOL    HW1 4148   3.826   4.143   1.729
 1083SOL    HW2 4149   3.675   4.095   1.690
 1084SOL     OW 4150   6.536   5.691   1.299
 1084SOL    HW1 4151   6.583   5.631   1.364
 1084SOL    HW2 4152   6.492   5.766   1.348
 1085SOL     OW 4153   1.971   4.455   3.270
 1085SOL    HW1 4154   1.990   4.358   3.259
 1085SOL    HW2 4155   1.943   4.494   3.182
 1086SOL     OW 4156   6.737   5.548   3.185
 1086SOL    HW1 4157   6.771   5.639   3.161
 1086SOL    HW2 4158   6.638   5.545   3.168
 1087SOL     OW 4159   5.323   2.549   5.655
 1087SOL    HW1 4160   5.342   2.622   5.721
 1087SOL    HW2 4161   5.271   2.586   5.578
 1088SOL     OW 4162   6.089   4.985   3.451
 1088SOL    HW1 4163   6.138   5.067   3.482
 1088SOL    HW2 4164   6.021   4.959   3.519
 1089SOL     OW 4165   1.035   6.850   4.793
 1089SOL    HW1 4166   0.948   6.806   4.772
 1089SOL    HW2 4167   1.031   6.946   4.764
 1090SOL     OW 4168   2.951   1.252   3.753
 1090SOL    HW1 4169   3.003   1.302   3.822
 1090SOL    HW2 4170   3.010   1.183   3.711
 1091SOL     OW 4171   2.073   2.293   4.401
 1091SOL    HW1 4172   2.114   2.208   4.367
 1091SOL    HW2 4173   2.118   2.371   4.358
 1092SOL     OW 4174   2.723   3.662   1.344
 1092SOL    HW1 4175   2.723   3.562   1.342
 1092SOL    HW2 4176   2.684   3.693   1.430
 1093SOL     OW 4177   2.196   1.950   3.087
 1093SOL    HW1 4178   2.121   1.911   3.141
 1093SOL    HW2 4179   2.167   2.037   3.047
 1094SOL     OW 4180   0.587   6.816   2.688
 1094SOL    HW1 4181   0.508   6.756   2.699
 1094SOL    HW2 4182   0.668   6.772   2.728
 1095SOL     OW 4183   6.489   2.211   6.117
 1095SOL    HW1 4184   6.495   2.294   6.061
 1095SOL    HW2 4185   6.559   2.215   6.189
 1096SOL     OW 4186   3.674   4.602   1.598
 1096SOL    HW1 4187   3.615   4.609   1.679
 1096SOL    HW2 4188   3.768   4.582   1.627
 1097SOL     OW 4189   0.778   4.720   4.375
 1097SOL    HW1 4190   0.688   4.727   4.333
 1097SOL    HW2 4191   0.818   4.631   4.355
 1098SOL     OW 4192   5.415   2.625   0.891
 1098SOL    HW1 4193   5.350   2.691   0.853
 1098SOL    HW2 4194   5.437   2.650   0.985
 1099SOL     OW 4195   4.049   1.250   4.670
 1099SOL    HW1 4196   4.014   1.200   4.750
 1099SOL    HW2 4197   4.111   1.322   4.701
 1100SOL     OW 4198   1.953   1.600   6.530
 1100SOL    HW1 4199   2.010   1.682   6.534
 1100SOL    HW2 4200   1.863   1.620   6.568
 1101SOL     OW 4201   5.407   3.005   1.037
 1101SOL    HW1 4202   5.318   3.048   1.055
 1101SOL    HW2 4203   5.421   2.929   1.102
 1102SOL     OW 4204   2.124   4.590   2.719
 1102SOL    HW1 4205   2.029   4.559   2.713
 1102SOL    HW2 4206   2.167   4.549   2.800
 1103SOL     OW 4207   2.710   1.007   0.835
 1103SOL    HW1 4208   2.747   0.926   0.880
 1103SOL    HW2 4209   2.770   1.085   0.851
 1104SOL     OW 4210   1.480   3.575   6.533
 1104SOL    HW1 4211   1.515   3.573   6.439
 1104SOL    HW2 4212   1.518   3.498   6.585
 1105SOL     OW 4213   4.800   3.866   5.911
 1105SOL    HW1 4214   4.844   3.853   5.999
 1105SOL    HW2 4215   4.714   3.914   5.923
 1106SOL     OW 4216   1.093   1.945   0.510
 1106SOL    HW1 4217   1.114   2.002   0.589
 1106SOL    HW2 4218   1.025   1.876   0.536
 1107SOL     OW 4219   0.394   0.874   6.578
 1107SOL    HW1 4220   0.348   0.933   6.644
 1107SOL    HW2 4221   0.444   0.803   6.627
 1108SOL     OW 4222   2.449   0.580   5.509
 1108SOL    HW1 4223   2.472   0.626   5.423
 1108SOL    HW2 4224   2.518   0.512   5.529
 1109SOL     OW 4225   4.432   5.678   4.925
 1109SOL    HW1 4226   4.466   5.770   4.904
 1109SOL    HW2 4227   4.484   5.640   5.002
 1110SOL     OW 4228   3.110   1.733   2.656
 1110SOL    HW1 4229   3.059   1.812   2.621
 1110SOL    HW2 4230   3.139   1.752   2.750
 1111SOL     OW 4231   5.714   5.769   0.428
 1111SOL    HW1 4232   5.654   5.762   0.507
 1111SOL    HW2 4233   5.745   5.864   0.418
 1112SOL     OW 4234   6.451   0.957   3.015
 1112SOL    HW1 4235   6.396   0.900   3.076
 1112SOL    HW2 4236   6.445   0.923   2.922
 1113SOL     OW 4237   6.108   3.281   2.422
 1113SOL    HW1 4238   6.203   3.309   2.436
 1113SOL    HW2 4239   6.106   3.184   2.399
 1114SOL     OW 4240   4.508   0.908   6.295
 1114SOL    HW1 4241   4.577   0.904   6.223
 1114SOL    HW2 4242   4.514   0.826   6.352
 1115SOL     OW 4243   4.054   3.363   6.724
 1115SOL    HW1 4244   4.093   3.340   6.635
 1115SOL    HW2 4245   4.101   3.441   6.763
 1116SOL     OW 4246   5.846   5.545   4.773
 1116SOL    HW1 4247   5.817   5.528   4.678
 1116SOL    HW2 4248   5.769   5.578   4.826
 1117SOL     OW 4249   2.616   2.652   1.215
 1117SOL    HW1 4250   2.647   2.739   1.255
 1117SOL    HW2 4251   2.695   2.595   1.193
 1118SOL     OW 4252   1.980   4.921   1.852
 1118SOL    HW1 4253   2.076   4.895   1.844
 1118SOL    HW2 4254   1.973   5.019   1.866
 1119SOL     OW 4255   3.551   4.169   1.521
 1119SOL    HW1 4256   3.595   4.233   1.458
 1119SOL    HW2 4257   3.515   4.219   1.600
 1120SOL     OW 4258   5.649   5.847   5.520
 1120SOL    HW1 4259   5.742   5.883   5.522
 1120SOL    HW2 4260   5.597   5.887   5.596
 1121SOL     OW 4261   5.068   3.846   2.730
 1121SOL    HW1 4262   5.146   3.909   2.717
 1121SOL    HW2 4263   5.024   3.830   2.641
 1122SOL     OW 4264   5.188   3.247   6.499
 1122SOL    HW1 4265   5.153   3.339   6.480
 1122SOL    HW2 4266   5.162   3.186   6.424
 1123SOL     OW 4267   4.848   1.802   2.415
 1123SOL    HW1 4268   4.861   1.853   2.330
 1123SOL    HW2 4269   4.752   1.808   2.444
 1124SOL     OW 4270   6.695   4.080   5.073
 1124SOL    HW1 4271   6.770   4.145   5.086
 1124SOL    HW2 4272   6.659   4.052   5.162
 1125SOL     OW 4273   2.243   1.473   4.803
 1125SOL    HW1 4274   2.263   1.552   4.860
 1125SOL    HW2 4275   2.220   1.395   4.861
 1126SOL     OW 4276   5.228   0.170   0.039
 1126SOL    HW1 4277   5.156   0.105   0.014
 1126SOL    HW2 4278   5.186   0.252   0.078
 1127SOL     OW 4279   3.932   5.295   5.392
 1127SOL    HW1 4280   3.954   5.197   5.398
 1127SOL    HW2 4281   3.853   5.315   5.450
 1128SOL     OW 4282   4.997   2.820   5.123
 1128SOL    HW1 4283   4.926   2.869   5.073
 1128SOL    HW2 4284   5.036   2.749   5.064
 1129SOL     OW 4285   4.320   6.810   0.067
 1129SOL    HW1 4286   4.376   6.867   0.007
 1129SOL    HW2 4287   4.365   6.802   0.156
 1130SOL     OW 4288   1.833   3.599   1.114
 1130SOL    HW1 4289   1.785   3.632   1.032
 1130SOL    HW2 4290   1.836   3.672   1.182
 1131SOL     OW 4291   0.463   6.296   6.075
 1131SOL    HW1 4292   0.520   6.288   5.993
 1131SOL    HW2 4293   0.495   6.232   6.145
 1132SOL     OW 4294   4.470   0.614   6.636
 1132SOL    HW1 4295   4.461   0.576   6.544
 1132SOL    HW2 4296   4.383   0.606   6.685
 1133SOL     OW 4297   6.501   2.221   0.399
 1133SOL    HW1 4298   6.509   2.158   0.322
 1133SOL    HW2 4299   6.455   2.305   0.369
 1134SOL     OW 4300   5.594   1.728   0.674
 1134SOL    HW1 4301   5.663   1.703   0.742
 1134SOL    HW2 4302   5.503   1.723   0.715
 1135SOL     OW 4303   3.034   1.781   2.308
 1135SOL    HW1 4304   3.064   1.868   2.348
 1135SOL    HW2 4305   2.993   1.725   2.380
 1136SOL     OW 4306   3.074   4.955   5.133
 1136SOL    HW1 4307   3.049   5.038   5.184
 1136SOL    HW2 4308   3.006   4.939   5.061
 1137SOL     OW 4309   0.974   3.496   0.262
 1137SOL    HW1 4310   0.904   3.455   0.320
 1137SOL    HW2 4311   0.983   3.442   0.178
 1138SOL     OW 4312   1.372   1.699   6.326
 1138SOL    HW1 4313   1.344   1.608   6.354
 1138SOL    HW2 4314   1.457   1.693   6.272
 1139SOL     OW 4315   2.068   6.758   1.751
 1139SOL    HW1 4316   2.092   6.838   1.806
 1139SOL    HW2 4317   1.993   6.781   1.689
 1140SOL     OW 4318   3.609   2.016   2.604
 1140SOL    HW1 4319   3.555   2.078   2.661
 1140SOL    HW2 4320   3.555   1.986   2.526
 1141SOL     OW 4321   6.259   5.544   5.997
 1141SOL    HW1 4322   6.206   5.467   6.032
 1141SOL    HW2 4323   6.260   5.617   6.065
 1142SOL     OW 4324   4.765   0.552   4.488
 1142SOL    HW1 4325   4.774   0.618   4.562
 1142SOL    HW2 4326   4.853   0.544   4.440
 1143SOL     OW 4327   2.992   1.995   2.513
 1143SOL    HW1 4328   3.054   2.052   2.568
 1143SOL    HW2 4329   2.960   2.048   2.434
 1144SOL     OW 4330   6.617   4.737   4.589
 1144SOL    HW1 4331   6.604   4.736   4.688
 1144SOL    HW2 4332   6.528   4.730   4.544
 1145SOL     OW 4333   0.269   4.904   3.329
 1145SOL    HW1 4334   0.282   4.814   3.370
 1145SOL    HW2 4335   0.261   4.894   3.230
 1146SOL     OW 4336   5.080   0.886   1.093
 1146SOL    HW1 4337   5.163   0.942   1.099
 1146SOL    HW2 4338   5.001   0.945   1.075
 1147SOL     OW 4339   0.828   4.146   0.592
 1147SOL    HW1 4340   0.746   4.095   0.566
 1147SOL    HW2 4341   0.801   4.232   0.635
 1148SOL     OW 4342   3.003   6.982   0.237
 1148SOL    HW1 4343   3.021   6.979   0.336
 1148SOL    HW2 4344   3.016   0.060   0.204
 1149SOL     OW 4345   5.506   3.569   3.154
 1149SOL    HW1 4346   5.445   3.498   3.120
 1149SOL    HW2 4347   5.507   3.646   3.091
 1150SOL     OW 4348   1.615   4.002   1.167
 1150SOL    HW1 4349   1.658   3.981   1.080
 1150SOL    HW2 4350   1.627   4.098   1.189
 1151SOL     OW 4351   5.075   5.684   6.734
 1151SOL    HW1 4352   5.144   5.737   6.684
 1151SOL    HW2 4353   5.037   5.613   6.674
 1152SOL     OW 4354   0.827   6.538   5.041
 1152SOL    HW1 4355   0.742   6.584   5.066
 1152SOL    HW2 4356   0.806   6.457   4.987
 1153SOL     OW 4357   2.581   6.483   2.021
 1153SOL    HW1 4358   2.587   6.393   2.066
 1153SOL    HW2 4359   2.485   6.505   2.003
 1154SOL     OW 4360   0.041   3.502   1.768
 1154SOL    HW1 4361   6.981   3.516   1.833
 1154SOL    HW2 4362   0.058   3.586   1.717
 1155SOL     OW 4363   3.647   4.999   6.794
 1155SOL    HW1 4364   3.569   4.947   6.827
 1155SOL    HW2 4365   3.680   4.958   6.708
 1156SOL     OW 4366   2.335   0.542   4.466
 1156SOL    HW1 4367   2.276   0.621   4.478
 1156SOL    HW2 4368   2.428   0.572   4.445
 1157SOL     OW 4369   6.122   2.110   4.385
 1157SOL    HW1 4370   6.084   2.147   4.470
 1157SOL    HW2 4371   6.191   2.041   4.407
 1158SOL     OW 4372   6.292   5.366   5.580
 1158SOL    HW1 4373   6.206   5.354   5.531
 1158SOL    HW2 4374   6.293   5.457   5.623
 1159SOL     OW 4375   4.913   0.675   2.681
 1159SOL    HW1 4376   4.853   0.598   2.699
 1159SOL    HW2 4377   4.998   0.664   2.733
 1160SOL     OW 4378   3.531   3.698   1.725
 1160SOL    HW1 4379   3.470   3.619   1.723
 1160SOL    HW2 4380   3.482   3.779   1.696
 1161SOL     OW 4381   5.005   0.552   5.255
 1161SOL    HW1 4382   5.072   0.625   5.265
 1161SOL    HW2 4383   5.010   0.490   5.334
 1162SOL     OW 4384   4.012   2.829   0.776
 1162SOL    HW1 4385   3.918   2.840   0.809
 1162SOL    HW2 4386   4.049   2.742   0.809
 1163SOL     OW 4387   6.016   2.773   1.952
 1163SOL    HW1 4388   5.993   2.719   1.872
 1163SOL    HW2 4389   5.970   2.736   2.033
 1164SOL     OW 4390   5.225   2.854   3.729
 1164SOL    HW1 4391   5.279   2.926   3.774
 1164SOL    HW2 4392   5.281   2.809   3.659
 1165SOL     OW 4393   1.935   4.400   3.794
 1165SOL    HW1 4394   1.844   4.412   3.756
 1165SOL    HW2 4395   1.943   4.307   3.831
 1166SOL     OW 4396   4.047   0.962   0.013
 1166SOL    HW1 4397   3.979   0.963   0.086
 1166SOL    HW2 4398   4.002   0.974   6.939
 1167SOL     OW 4399   2.756   0.325   6.210
 1167SOL    HW1 4400   2.817   0.253   6.178
 1167SOL    HW2 4401   2.669   0.320   6.161
 1168SOL     OW 4402   5.404   0.405   2.198
 1168SOL    HW1 4403   5.434   0.338   2.265
 1168SOL    HW2 4404   5.483   0.457   2.165
 1169SOL     OW 4405   0.019   3.035   0.342
 1169SOL    HW1 4406   0.033   2.937   0.337
 1169SOL    HW2 4407   6.957   3.056   0.403
 1170SOL     OW 4408   4.523   0.713   2.019
 1170SOL    HW1 4409   4.514   0.626   2.067
 1170SOL    HW2 4410   4.529   0.697   1.921
 1171SOL     OW 4411   2.393   5.670   0.442
 1171SOL    HW1 4412   2.388   5.638   0.537
 1171SOL    HW2 4413   2.489   5.672   0.413
 1172SOL     OW 4414   3.450   4.051   3.404
 1172SOL    HW1 4415   3.368   4.078   3.454
 1172SOL    HW2 4416   3.439   4.071   3.307
 1173SOL     OW 4417   3.381   6.946   6.026
 1173SOL    HW1 4418   3.305   6.932   5.962
 1173SOL    HW2 4419   3.357   6.908   6.115
 1174SOL     OW 4420   3.114   5.622   0.582
 1174SOL    HW1 4421   3.127   5.633   0.681
 1174SOL    HW2 4422   3.060   5.698   0.547
 1175SOL     OW 4423   4.708   3.753   6.883
 1175SOL    HW1 4424   4.651   3.803   6.949
 1175SOL    HW2 4425   4.670   3.661   6.869
 1176SOL     OW 4426   5.922   4.737   0.677
 1176SOL    HW1 4427   5.882   4.828   0.663
 1176SOL    HW2 4428   5.939   4.723   0.774
 1177SOL     OW 4429   0.087   1.616   5.539
 1177SOL    HW1 4430   0.003   1.563   5.528
 1177SOL    HW2 4431   0.064   1.710   5.565
 1178SOL     OW 4432   4.184   3.660   1.502
 1178SOL    HW1 4433   4.115   3.698   1.562
 1178SOL    HW2 4434   4.142   3.635   1.415
 1179SOL     OW 4435   3.339   5.228   0.655
 1179SOL    HW1 4436   3.326   5.315   0.609
 1179SOL    HW2 4437   3.309   5.154   0.595
 1180SOL     OW 4438   2.867   0.482   3.787
 1180SOL    HW1 4439   2.774   0.512   3.769
 1180SOL    HW2 4440   2.905   0.439   3.705
 1181SOL     OW 4441   0.478   3.139   4.618
 1181SOL    HW1 4442   0.407   3.070   4.632
 1181SOL    HW2 4443   0.500   3.144   4.520
 1182SOL     OW 4444   1.962   4.948   2.846
 1182SOL    HW1 4445   1.923   4.943   2.938
 1182SOL    HW2 4446   2.054   4.909   2.847
 1183SOL     OW 4447   3.969   5.458   2.773
 1183SOL    HW1 4448   4.024   5.423   2.849
 1183SOL    HW2 4449   4.003   5.419   2.687
 1184SOL     OW 4450   3.297   2.090   5.012
 1184SOL    HW1 4451   3.262   2.160   5.074
 1184SOL    HW2 4452   3.345   2.020   5.065
 1185SOL     OW 4453   1.912   0.468   0.396
 1185SOL    HW1 4454   1.955   0.550   0.435
 1185SOL    HW2 4455   1.853   0.425   0.464
 1186SOL     OW 4456   6.172   6.757   6.155
 1186SOL    HW1 4457   6.242   6.719   6.094
 1186SOL    HW2 4458   6.152   6.691   6.228
 1187SOL     OW 4459   5.691   6.001   4.848
 1187SOL    HW1 4460   5.640   6.086   4.863
 1187SOL    HW2 4461   5.719   5.962   4.936
 1188SOL     OW 4462   3.299   6.854   6.287
 1188SOL    HW1 4463   3.346   6.904   6.360
 1188SOL    HW2 4464   3.256   6.772   6.324
 1189SOL     OW 4465   5.192   1.109   1.989
 1189SOL    HW1 4466   5.238   1.190   2.025
 1189SOL    HW2 4467   5.140   1.134   1.907
 1190SOL     OW 4468   4.234   4.722   4.693
 1190SOL    HW1 4469   4.261   4.762   4.781
 1190SOL    HW2 4470   4.161   4.656   4.709
 1191SOL     OW 4471   3.572   5.459   5.745
 1191SOL    HW1 4472   3.591   5.535   5.807
 1191SOL    HW2 4473   3.647   5.450   5.679
 1192SOL     OW 4474   5.834   4.795   3.388
 1192SOL    HW1 4475   5.895   4.824   3.314
 1192SOL    HW2 4476   5.808   4.874   3.442
 1193SOL     OW 4477   6.516   0.465   4.304
 1193SOL    HW1 4478   6.512   0.375   4.262
 1193SOL    HW2 4479   6.611   0.492   4.318
 1194SOL     OW 4480   6.895   1.553   1.076
 1194SOL    HW1 4481   6.898   1.468   1.130
 1194SOL    HW2 4482   6.834   1.541   0.998
 1195SOL     OW 4483   6.231   2.105   0.412
 1195SOL    HW1 4484   6.267   2.110   0.319
 1195SOL    HW2 4485   6.199   2.195   0.441
 1196SOL     OW 4486   0.118   4.595   2.099
 1196SOL    HW1 4487   0.202   4.582   2.151
 1196SOL    HW2 4488   0.048   4.532   2.131
 1197SOL     OW 4489   3.690   6.203   5.814
 1197SOL    HW1 4490   3.647   6.215   5.724
 1197SOL    HW2 4491   3.687   6.289   5.863
 1198SOL     OW 4492   2.304   2.695   2.346
 1198SOL    HW1 4493   2.207   2.671   2.345
 1198SOL    HW2 4494   2.350   2.651   2.270
 1199SOL     OW 4495   3.517   2.857   3.003
 1199SOL    HW1 4496   3.513   2.758   2.989
 1199SOL    HW2 4497   3.556   2.876   3.093
 1200SOL     OW 4498   4.108   3.358   5.031
 1200SOL    HW1 4499   4.141   3.347   4.937
 1200SOL    HW2 4500   4.065   3.273   5.061
 1201SOL     OW 4501   0.272   1.005   4.115
 1201SOL    HW1 4502   0.207   1.073   4.084
 1201SOL    HW2 4503   0.359   1.017   4.067
 1202SOL     OW 4504   6.225   0.583   5.794
 1202SOL    HW1 4505   6.313   0.610   5.834
 1202SOL    HW2 4506   6.151   0.614   5.854
 1203SOL     OW 4507   5.592   6.652   0.811
 1203SOL    HW1 4508   5.606   6.749   0.792
 1203SOL    HW2 4509   5.642   6.627   0.894
 1204SOL     OW 4510   3.932   1.250   0.179
 1204SOL    HW1 4511   3.924   1.175   0.245
 1204SOL    HW2 4512   3.880   1.229   0.097
 1205SOL     OW 4513   4.388   3.033   6.435
 1205SOL    HW1 4514   4.477   2.999   6.405
 1205SOL    HW2 4515   4.401   3.097   6.511
 1206SOL     OW 4516   1.387   1.984   4.968
 1206SOL    HW1 4517   1.320   2.006   5.039
 1206SOL    HW2 4518   1.479   1.993   5.006
 1207SOL     OW 4519   6.991   6.914   0.998
 1207SOL    HW1 4520   0.009   6.947   0.909
 1207SOL    HW2 4521   0.044   6.853   1.038
 1208SOL     OW 4522   3.485   4.073   2.487
 1208SOL    HW1 4523   3.557   4.064   2.419
 1208SOL    HW2 4524   3.400   4.033   2.451
 1209SOL     OW 4525   6.025   6.527   4.543
 1209SOL    HW1 4526   6.085   6.492   4.471
 1209SOL    HW2 4527   5.939   6.557   4.502
 1210SOL     OW 4528   4.567   6.549   3.527
 1210SOL    HW1 4529   4.506   6.591   3.458
 1210SOL    HW2 4530   4.542   6.453   3.540
 1211SOL     OW 4531   1.874   3.480   3.381
 1211SOL    HW1 4532   1.942   3.487   3.308
 1211SOL    HW2 4533   1.804   3.414   3.355
 1212SOL     OW 4534   6.745   2.117   5.947
 1212SOL    HW1 4535   6.650   2.103   5.975
 1212SOL    HW2 4536   6.783   2.194   5.998
 1213SOL     OW 4537   5.442   2.737   4.926
 1213SOL    HW1 4538   5.502   2.686   4.864
 1213SOL    HW2 4539   5.473   2.832   4.931
 1214SOL     OW 4540   1.150   3.312   4.615
 1214SOL    HW1 4541   1.156   3.254   4.534
 1214SOL    HW2 4542   1.065   3.364   4.613
 1215SOL     OW 4543   2.051   4.801   2.149
 1215SOL    HW1 4544   2.076   4.704   2.144
 1215SOL    HW2 4545   2.003   4.827   2.065
 1216SOL     OW 4546   0.442   0.144   1.374
 1216SOL    HW1 4547   0.362   0.084   1.375
 1216SOL    HW2 4548   0.450   0.190   1.463
 1217SOL     OW 4549   2.017   6.700   0.890
 1217SOL    HW1 4550   2.014   6.612   0.936
 1217SOL    HW2 4551   1.933   6.712   0.836
 1218SOL     OW 4552   0.957   3.263   5.020
 1218SOL    HW1 4553   1.033   3.314   4.981
 1218SOL    HW2 4554   0.883   3.256   4.953
 1219SOL     OW 4555   4.485   4.253   1.294
 1219SOL    HW1 4556   4.387   4.239   1.304
 1219SOL    HW2 4557   4.502   4.329   1.232
 1220SOL     OW 4558   5.319   3.975   2.742
 1220SOL    HW1 4559   5.385   4.011   2.676
 1220SOL    HW2 4560   5.312   4.036   2.820
 1221SOL     OW 4561   5.611   4.144   6.681
 1221SOL    HW1 4562   5.673   4.079   6.639
 1221SOL    HW2 4563   5.621   4.233   6.637
 1222SOL     OW 4564   7.003   0.504   0.792
 1222SOL    HW1 4565   6.997   0.416   0.837
 1222SOL    HW2 4566   6.951   0.501   0.706
 1223SOL     OW 4567   5.049   1.158   0.606
 1223SOL    HW1 4568   4.992   1.085   0.644
 1223SOL    HW2 4569   5.055   1.147   0.507
 1224SOL     OW 4570   3.383   5.948   0.149
 1224SOL    HW1 4571   3.310   5.880   0.147
 1224SOL    HW2 4572   3.394   5.983   0.242
 1225SOL     OW 4573   4.107   2.462   1.199
 1225SOL    HW1 4574   4.029   2.524   1.188
 1225SOL    HW2 4575   4.080   2.370   1.171
 1226SOL     OW 4576   5.422   6.340   1.126
 1226SOL    HW1 4577   5.448   6.268   1.189
 1226SOL    HW2 4578   5.398   6.422   1.177
 1227SOL     OW 4579   5.958   5.020   5.702
 1227SOL    HW1 4580   5.902   4.992   5.779
 1227SOL    HW2 4581   6.011   5.101   5.727
 1228SOL     OW 4582   3.702   3.157   0.548
 1228SOL    HW1 4583   3.656   3.187   0.464
 1228SOL    HW2 4584   3.642   3.174   0.627
 1229SOL     OW 4585   1.395   6.797   1.633
 1229SOL    HW1 4586   1.417   6.895   1.640
 1229SOL    HW2 4587   1.477   6.743   1.654
 1230SOL     OW 4588   5.153   6.075   3.082
 1230SOL    HW1 4589   5.165   6.123   3.169
 1230SOL    HW2 4590   5.087   6.001   3.093
 1231SOL     OW 4591   1.509   2.533   6.241
 1231SOL    HW1 4592   1.535   2.629   6.239
 1231SOL    HW2 4593   1.478   2.508   6.333
 1232SOL     OW 4594   4.597   1.010   5.084
 1232SOL    HW1 4595   4.538   1.024   5.164
 1232SOL    HW2 4596   4.685   1.055   5.099
 1233SOL     OW 4597   1.224   5.656   3.565
 1233SOL    HW1 4598   1.188   5.675   3.473
 1233SOL    HW2 4599   1.324   5.651   3.561
 1234SOL     OW 4600   6.784   2.506   6.568
 1234SOL    HW1 4601   6.716   2.457   6.622
 1234SOL    HW2 4602   6.834   2.442   6.511
 1235SOL     OW 4603   6.687   4.873   6.842
 1235SOL    HW1 4604   6.681   4.793   6.902
 1235SOL    HW2 4605   6.665   4.846   6.748
 1236SOL     OW 4606   3.485   2.204   0.547
 1236SOL    HW1 4607   3.495   2.304   0.547
 1236SOL    HW2 4608   3.539   2.165   0.472
 1237SOL     OW 4609   1.917   6.400   4.685
 1237SOL    HW1 4610   1.849   6.443   4.744
 1237SOL    HW2 4611   1.871   6.345   4.615
 1238SOL     OW 4612   0.527   6.827   3.591
 1238SOL    HW1 4613   0.588   6.748   3.591
 1238SOL    HW2 4614   0.532   6.873   3.502
 1239SOL     OW 4615   6.791   5.566   4.181
 1239SOL    HW1 4616   6.825   5.533   4.270
 1239SOL    HW2 4617   6.802   5.665   4.175
 1240SOL     OW 4618   5.676   5.025   2.289
 1240SOL    HW1 4619   5.600   5.067   2.338
 1240SOL    HW2 4620   5.642   4.952   2.229
 1241SOL     OW 4621   0.258   4.479   4.917
 1241SOL    HW1 4622   0.242   4.578   4.913
 1241SOL    HW2 4623   0.246   4.439   4.826
 1242SOL     OW 4624   2.140   3.708   0.207
 1242SOL    HW1 4625   2.096   3.797   0.205
 1242SOL    HW2 4626   2.158   3.682   0.302
 1243SOL     OW 4627   0.290   1.513   4.661
 1243SOL    HW1 4628   0.193   1.501   4.681
 1243SOL    HW2 4629   0.314   1.610   4.665
 1244SOL     OW 4630   5.448   6.980   5.433
 1244SOL    HW1 4631   5.410   0.056   5.421
 1244SOL    HW2 4632   5.425   6.923   5.354
 1245SOL     OW 4633   5.057   5.908   1.404
 1245SOL    HW1 4634   4.999   5.929   1.483
 1245SOL    HW2 4635   5.065   5.809   1.394
 1246SOL     OW 4636   3.819   1.262   2.259
 1246SOL    HW1 4637   3.848   1.168   2.240
 1246SOL    HW2 4638   3.723   1.272   2.234
 1247SOL     OW 4639   6.191   6.955   4.501
 1247SOL    HW1 4640   6.158   0.009   4.437
 1247SOL    HW2 4641   6.238   6.882   4.450
 1248SOL     OW 4642   1.029   6.216   3.818
 1248SOL    HW1 4643   1.118   6.201   3.775
 1248SOL    HW2 4644   1.029   6.178   3.911
 1249SOL     OW 4645   6.856   4.562   1.775
 1249SOL    HW1 4646   6.768   4.515   1.783
 1249SOL    HW2 4647   6.930   4.494   1.780
 1250SOL     OW 4648   6.585   3.135   4.666
 1250SOL    HW1 4649   6.656   3.077   4.707
 1250SOL    HW2 4650   6.622   3.227   4.652
 1251SOL     OW 4651   2.180   0.407   2.450
 1251SOL    HW1 4652   2.140   0.343   2.515
 1251SOL    HW2 4653   2.273   0.430   2.480
 1252SOL     OW 4654   3.113   5.480   6.758
 1252SOL    HW1 4655   3.177   5.541   6.712
 1252SOL    HW2 4656   3.051   5.534   6.816
 1253SOL     OW 4657   2.688   0.705   1.628
 1253SOL    HW1 4658   2.592   0.686   1.608
 1253SOL    HW2 4659   2.744   0.626   1.604
 1254SOL     OW 4660   6.351   2.011   3.305
 1254SOL    HW1 4661   6.327   2.079   3.374
 1254SOL    HW2 4662   6.444   2.029   3.272
 1255SOL     OW 4663   6.049   2.302   5.097
 1255SOL    HW1 4664   6.019   2.306   5.192
 1255SOL    HW2 4665   6.086   2.391   5.069
 1256SOL     OW 4666   0.292   6.097   3.207
 1256SOL    HW1 4667   0.387   6.115   3.235
 1256SOL    HW2 4668   0.233   6.170   3.241
 1257SOL     OW 4669   6.958   4.527   4.138
 1257SOL    HW1 4670   6.993   4.611   4.179
 1257SOL    HW2 4671   7.008   4.448   4.174
 1258SOL     OW 4672   2.502   5.944   2.615
 1258SOL    HW1 4673   2.527   6.040   2.602
 1258SOL    HW2 4674   2.405   5.931   2.592
 1259SOL     OW 4675   3.497   6.279   5.312
 1259SOL    HW1 4676   3.564   6.243   5.247
 1259SOL    HW2 4677   3.503   6.378   5.314
 1260SOL     OW 4678   3.397   1.028   1.402
 1260SOL    HW1 4679   3.423   1.081   1.483
 1260SOL    HW2 4680   3.425   1.077   1.320
 1261SOL     OW 4681   0.158   3.605   6.982
 1261SOL    HW1 4682   0.092   3.625   6.909
 1261SOL    HW2 4683   0.241   3.567   6.941
 1262SOL     OW 4684   4.618   4.893   1.193
 1262SOL    HW1 4685   4.569   4.950   1.127
 1262SOL    HW2 4686   4.710   4.931   1.208
 1263SOL     OW 4687   6.400   2.040   0.613
 1263SOL    HW1 4688   6.491   2.078   0.596
 1263SOL    HW2 4689   6.343   2.051   0.531
 1264SOL     OW 4690   0.949   4.279   2.480
 1264SOL    HW1 4691   0.977   4.293   2.384
 1264SOL    HW2 4692   0.984   4.354   2.536
 1265SOL     OW 4693   6.602   4.798   3.194
 1265SOL    HW1 4694   6.539   4.786   3.271
 1265SOL    HW2 4695   6.627   4.709   3.156
 1266SOL     OW 4696   2.635   0.938   4.046
 1266SOL    HW1 4697   2.676   0.984   3.967
 1266SOL    HW2 4698   2.570   1.001   4.090
 1267SOL     OW 4699   5.770   5.752   1.478
 1267SOL    HW1 4700   5.793   5.747   1.381
 1267SOL    HW2 4701   5.704   5.826   1.492
 1268SOL     OW 4702   5.104   2.251   6.843
 1268SOL    HW1 4703   5.148   2.339   6.830
 1268SOL    HW2 4704   5.150   2.182   6.787
 1269SOL     OW 4705   5.975   6.063   5.267
 1269SOL    HW1 4706   5.938   6.026   5.352
 1269SOL    HW2 4707   6.036   6.140   5.288
 1270SOL     OW 4708   2.229   4.085   4.311
 1270SOL    HW1 4709   2.252   4.057   4.404
 1270SOL    HW2 4710   2.292   4.156   4.280
 1271SOL     OW 4711   3.530   1.826   3.247
 1271SOL    HW1 4712   3.491   1.868   3.329
 1271SOL    HW2 4713   3.554   1.897   3.181
 1272SOL     OW 4714   6.936   5.955   1.139
 1272SOL    HW1 4715   6.955   5.865   1.180
 1272SOL    HW2 4716   6.879   5.944   1.058
 1273SOL     OW 4717   1.455   4.167   6.973
 1273SOL    HW1 4718   1.467   4.220   6.889
 1273SOL    HW2 4719   1.358   4.163   6.997
 1274SOL     OW 4720   6.832   3.372   1.612
 1274SOL    HW1 4721   6.837   3.272   1.614
 1274SOL    HW2 4722   6.913   3.410   1.657
 1275SOL     OW 4723   4.073   0.177   3.406
 1275SOL    HW1 4724   4.054   0.079   3.407
 1275SOL    HW2 4725   4.172   0.191   3.414
 1276SOL     OW 4726   0.058   0.370   3.609
 1276SOL    HW1 4727   0.040   0.321   3.524
 1276SOL    HW2 4728   0.011   0.458   3.607
 1277SOL     OW 4729   0.684   0.453   4.400
 1277SOL    HW1 4730   0.671   0.397   4.318
 1277SOL    HW2 4731   0.634   0.411   4.477
 1278SOL     OW 4732   1.185   1.543   5.505
 1278SOL    HW1 4733   1.109   1.495   5.548
 1278SOL    HW2 4734   1.270   1.518   5.552
 1279SOL     OW 4735   1.868   0.081   0.574
 1279SOL    HW1 4736   1.892   0.162   0.628
 1279SOL    HW2 4737   1.917   0.083   0.487
 1280SOL     OW 4738   2.513   6.158   3.520
 1280SOL    HW1 4739   2.549   6.223   3.453
 1280SOL    HW2 4740   2.521   6.197   3.612
 1281SOL     OW 4741   1.203   5.678   2.842
 1281SOL    HW1 4742   1.252   5.765   2.830
 1281SOL    HW2 4743   1.218   5.643   2.934
 1282SOL     OW 4744   0.801   1.103   0.492
 1282SOL    HW1 4745   0.858   1.114   0.410
 1282SOL    HW2 4746   0.767   1.009   0.496
 1283SOL     OW 4747   5.718   2.366   5.310
 1283SOL    HW1 4748   5.717   2.349   5.212
 1283SOL    HW2 4749   5.647   2.434   5.333
 1284SOL     OW 4750   3.308   3.534   1.627
 1284SOL    HW1 4751   3.240   3.485   1.683
 1284SOL    HW2 4752   3.313   3.491   1.537
 1285SOL     OW 4753   5.664   3.785   6.291
 1285SOL    HW1 4754   5.761   3.764   6.292
 1285SOL    HW2 4755   5.616   3.725   6.355
 1286SOL     OW 4756   5.295   4.465   2.722
 1286SOL    HW1 4757   5.229   4.401   2.684
 1286SOL    HW2 4758   5.306   4.543   2.660
 1287SOL     OW 4759   5.379   4.018   6.252
 1287SOL    HW1 4760   5.282   4.013   6.228
 1287SOL    HW2 4761   5.433   3.962   6.189
 1288SOL     OW 4762   6.428   3.705   1.340
 1288SOL    HW1 4763   6.381   3.776   1.392
 1288SOL    HW2 4764   6.389   3.615   1.362
 1289SOL     OW 4765   0.351   6.150   1.771
 1289SOL    HW1 4766   0.253   6.129   1.763
 1289SOL    HW2 4767   0.370   6.182   1.864
 1290SOL     OW 4768   0.718   0.806   7.011
 1290SOL    HW1 4769   0.645   0.802   6.942
 1290SOL    HW2 4770   0.791   0.865   6.978
 1291SOL     OW 4771   0.857   3.618   5.932
 1291SOL    HW1 4772   0.768   3.607   5.977
 1291SOL    HW2 4773   0.844   3.650   5.839
 1292SOL     OW 4774   6.197   5.132   2.306
 1292SOL    HW1 4775   6.108   5.086   2.301
 1292SOL    HW2 4776   6.185   5.225   2.340
 1293SOL     OW 4777   2.422   1.420   6.600
 1293SOL    HW1 4778   2.499   1.362   6.575
 1293SOL    HW2 4779   2.356   1.367   6.653
 1294SOL     OW 4780   1.040   3.457   1.153
 1294SOL    HW1 4781   0.996   3.546   1.149
 1294SOL    HW2 4782   1.059   3.424   1.061
 1295SOL     OW 4783   6.249   3.316   2.744
 1295SOL    HW1 4784   6.311   3.346   2.671
 1295SOL    HW2 4785   6.185   3.389   2.766
 1296SOL     OW 4786   3.898   0.667   5.315
 1296SOL    HW1 4787   3.804   0.686   5.344
 1296SOL    HW2 4788   3.898   0.596   5.245
 1297SOL     OW 4789   5.941   0.688   6.177
 1297SOL    HW1 4790   5.915   0.728   6.265
 1297SOL    HW2 4791   5.925   0.589   6.180
 1298SOL     OW 4792   6.424   3.458   3.428
 1298SOL    HW1 4793   6.348   3.411   3.383
 1298SOL    HW2 4794   6.480   3.391   3.476
 1299SOL     OW 4795   0.710   3.833   2.466
 1299SOL    HW1 4796   0.718   3.740   2.431
 1299SOL    HW2 4797   0.773   3.893   2.417
 1300SOL     OW 4798   3.101   3.872   2.273
 1300SOL    HW1 4799   3.149   3.864   2.360
 1300SOL    HW2 4800   3.040   3.793   2.262
 1301SOL     OW 4801   0.651   6.173   2.678
 1301SOL    HW1 4802   0.683   6.212   2.591
 1301SOL    HW2 4803   0.724   6.122   2.721
 1302SOL     OW 4804   3.106   0.039   4.991
 1302SOL    HW1 4805   3.121   6.997   4.910
 1302SOL    HW2 4806   3.063   6.999   5.062
 1303SOL     OW 4807   4.305   1.551   0.626
 1303SOL    HW1 4808   4.213   1.523   0.652
 1303SOL    HW2 4809   4.311   1.651   0.623
 1304SOL     OW 4810   1.369   1.306   6.555
 1304SOL    HW1 4811   1.400   1.316   6.461
 1304SOL    HW2 4812   1.331   1.215   6.568
 1305SOL     OW 4813   5.611   5.360   6.603
 1305SOL    HW1 4814   5.585   5.433   6.539
 1305SOL    HW2 4815   5.709   5.342   6.595
 1306SOL     OW 4816   0.773   4.615   5.171
 1306SOL    HW1 4817   0.871   4.596   5.171
 1306SOL    HW2 4818   0.726   4.548   5.112
 1307SOL     OW 4819   1.632   2.373   5.065
 1307SOL    HW1 4820   1.713   2.356   5.121
 1307SOL    HW2 4821   1.658   2.422   4.982
 1308SOL     OW 4822   3.943   5.701   4.754
 1308SOL    HW1 4823   3.940   5.701   4.854
 1308SOL    HW2 4824   3.853   5.678   4.718
 1309SOL     OW 4825   5.544   2.771   5.295
 1309SOL    HW1 4826   5.531   2.682   5.252
 1309SOL    HW2 4827   5.640   2.783   5.319
 1310SOL     OW 4828   6.447   3.796   4.956
 1310SOL    HW1 4829   6.515   3.865   4.980
 1310SOL    HW2 4830   6.456   3.772   4.860
 1311SOL     OW 4831   6.684   6.489   4.136
 1311SOL    HW1 4832   6.747   6.562   4.163
 1311SOL    HW2 4833   6.628   6.463   4.215
 1312SOL     OW 4834   0.652   0.491   6.735
 1312SOL    HW1 4835   0.663   0.455   6.642
 1312SOL    HW2 4836   0.718   0.448   6.796
 1313SOL     OW 4837   1.718   4.959   5.508
 1313SOL    HW1 4838   1.736   4.863   5.529
 1313SOL    HW2 4839   1.802   5.003   5.477
 1314SOL     OW 4840   2.332   1.583   5.541
 1314SOL    HW1 4841   2.413   1.551   5.491
 1314SOL    HW2 4842   2.343   1.680   5.564
 1315SOL     OW 4843   0.737   0.690   0.275
 1315SOL    HW1 4844   0.739   0.618   0.206
 1315SOL    HW2 4845   0.799   0.764   0.249
 1316SOL     OW 4846   1.978   6.576   3.844
 1316SOL    HW1 4847   1.976   6.669   3.808
 1316SOL    HW2 4848   2.059   6.566   3.903
 1317SOL     OW 4849   1.035   3.827   4.334
 1317SOL    HW1 4850   1.114   3.872   4.374
 1317SOL    HW2 4851   0.951   3.863   4.375
 1318SOL     OW 4852   6.888   0.733   0.523
 1318SOL    HW1 4853   6.853   0.786   0.600
 1318SOL    HW2 4854   6.814   0.714   0.460
 1319SOL     OW 4855   6.390   1.675   0.147
 1319SOL    HW1 4856   6.436   1.616   0.080
 1319SOL    HW2 4857   6.397   1.770   0.118
 1320SOL     OW 4858   5.937   3.669   0.137
 1320SOL    HW1 4859   6.011   3.736   0.140
 1320SOL    HW2 4860   5.891   3.666   0.225
 1321SOL     OW 4861   4.510   2.487   6.364
 1321SOL    HW1 4862   4.487   2.492   6.267
 1321SOL    HW2 4863   4.609   2.499   6.376
 1322SOL     OW 4864   5.466   0.828   3.444
 1322SOL    HW1 4865   5.368   0.821   3.463
 1322SOL    HW2 4866   5.517   0.827   3.530
 1323SOL     OW 4867   5.225   1.883   5.249
 1323SOL    HW1 4868   5.255   1.955   5.186
 1323SOL    HW2 4869   5.127   1.867   5.238
 1324SOL     OW 4870   1.035   2.863   1.898
 1324SOL    HW1 4871   1.133   2.878   1.911
 1324SOL    HW2 4872   1.022   2.798   1.822
 1325SOL     OW 4873   2.296   6.825   1.989
 1325SOL    HW1 4874   2.221   6.880   2.026
 1325SOL    HW2 4875   2.382   6.854   2.031
 1326SOL     OW 4876   4.737   2.837   4.605
 1326SOL    HW1 4877   4.659   2.799   4.555
 1326SOL    HW2 4878   4.773   2.916   4.555
 1327SOL     OW 4879   2.903   5.119   3.049
 1327SOL    HW1 4880   2.839   5.194   3.034
 1327SOL    HW2 4881   2.959   5.138   3.130
 1328SOL     OW 4882   1.038   2.678   0.958
 1328SOL    HW1 4883   0.994   2.665   0.868
 1328SOL    HW2 4884   1.118   2.619   0.965
 1329SOL     OW 4885   6.697   2.057   0.568
 1329SOL    HW1 4886   6.642   2.111   0.505
 1329SOL    HW2 4887   6.791   2.051   0.534
 1330SOL     OW 4888   6.553   0.961   1.002
 1330SOL    HW1 4889   6.559   0.864   1.022
 1330SOL    HW2 4890   6.602   0.981   0.917
 1331SOL     OW 4891   4.431   2.115   3.125
 1331SOL    HW1 4892   4.514   2.060   3.131
 1331SOL    HW2 4893   4.350   2.057   3.137
 1332SOL     OW 4894   3.705   0.061   0.159
 1332SOL    HW1 4895   3.706   0.116   0.242
 1332SOL    HW2 4896   3.615   0.068   0.115
 1333SOL     OW 4897   3.815   3.824   5.937
 1333SOL    HW1 4898   3.788   3.797   5.845
 1333SOL    HW2 4899   3.872   3.905   5.933
 1334SOL     OW 4900   6.829   2.379   4.733
 1334SOL    HW1 4901   6.797   2.438   4.659
 1334SOL    HW2 4902   6.923   2.404   4.756
 1335SOL     OW 4903   2.971   6.619   2.761
 1335SOL    HW1 4904   3.057   6.668   2.777
 1335SOL    HW2 4905   2.908   6.637   2.836
 1336SOL     OW 4906   1.439   1.364   6.310
 1336SOL    HW1 4907   1.525   1.414   6.307
 1336SOL    HW2 4908   1.452   1.272   6.272
 1337SOL     OW 4909   0.716   1.668   5.121
 1337SOL    HW1 4910   0.756   1.631   5.038
 1337SOL    HW2 4911   0.628   1.711   5.100
 1338SOL     OW 4912   4.443   2.925   5.636
 1338SOL    HW1 4913   4.468   2.868   5.557
 1338SOL    HW2 4914   4.500   2.900   5.714
 1339SOL     OW 4915   0.352   6.953   0.082
 1339SOL    HW1 4916   0.315   0.029   0.064
 1339SOL    HW2 4917   0.348   6.898   7.013
 1340SOL     OW 4918   1.057   1.193   2.119
 1340SOL    HW1 4919   1.085   1.262   2.051
 1340SOL    HW2 4920   1.131   1.181   2.185
 1341SOL     OW 4921   4.021   0.109   5.413
 1341SOL    HW1 4922   3.924   0.133   5.407
 1341SOL    HW2 4923   4.035   0.045   5.489
 1342SOL     OW 4924   1.468   5.046   6.314
 1342SOL    HW1 4925   1.488   4.951   6.335
 1342SOL    HW2 4926   1.382   5.051   6.263
 1343SOL     OW 4927   3.715   6.075   2.421
 1343SOL    HW1 4928   3.750   6.155   2.373
 1343SOL    HW2 4929   3.700   6.001   2.356
 1344SOL     OW 4930   0.051   3.901   3.537
 1344SOL    HW1 4931   0.082   3.967   3.606
 1344SOL    HW2 4932   6.966   3.895   3.538
 1345SOL     OW 4933   1.117   1.923   3.469
 1345SOL    HW1 4934   1.096   1.863   3.391
 1345SOL    HW2 4935   1.094   2.018   3.445
 1346SOL     OW 4936   1.763   0.019   3.252
 1346SOL    HW1 4937   1.709   6.952   3.231
 1346SOL    HW2 4938   1.857   7.008   3.274
 1347SOL     OW 4939   6.277   6.161   3.655
 1347SOL    HW1 4940   6.339   6.237   3.673
 1347SOL    HW2 4941   6.297   6.086   3.718
 1348SOL     OW 4942   5.814   5.744   3.205
 1348SOL    HW1 4943   5.859   5.794   3.131
 1348SOL    HW2 4944   5.726   5.787   3.226
 1349SOL     OW 4945   4.863   2.738   6.290
 1349SOL    HW1 4946   4.837   2.657   6.343
 1349SOL    HW2 4947   4.918   2.799   6.347
 1350SOL     OW 4948   3.593   4.769   0.120
 1350SOL    HW1 4949   3.624   4.803   0.031
 1350SOL    HW2 4950   3.592   4.669   0.120
 1351SOL     OW 4951   0.133   1.988   3.204
 1351SOL    HW1 4952   0.042   1.965   3.238
 1351SOL    HW2 4953   0.202   1.961   3.272
 1352SOL     OW 4954   0.813   0.941   3.038
 1352SOL    HW1 4955   0.715   0.930   3.053
 1352SOL    HW2 4956   0.861   0.862   3.076
 1353SOL     OW 4957   6.621   4.078   5.827
 1353SOL    HW1 4958   6.637   4.172   5.798
 1353SOL    HW2 4959   6.644   4.016   5.752
 1354SOL     OW 4960   6.962   2.033   0.513
 1354SOL    HW1 4961   6.980   1.966   0.441
 1354SOL    HW2 4962   0.026   2.093   0.524
 1355SOL     OW 4963   5.860   3.158   5.731
 1355SOL    HW1 4964   5.960   3.166   5.733
 1355SOL    HW2 4965   5.830   3.103   5.809
 1356SOL     OW 4966   3.241   3.836   4.047
 1356SOL    HW1 4967   3.282   3.897   4.114
 1356SOL    HW2 4968   3.144   3.822   4.070
 1357SOL     OW 4969   2.146   3.650   5.760
 1357SOL    HW1 4970   2.219   3.581   5.761
 1357SOL    HW2 4971   2.150   3.702   5.675
 1358SOL     OW 4972   3.582   1.556   6.251
 1358SOL    HW1 4973   3.585   1.499   6.334
 1358SOL    HW2 4974   3.666   1.541   6.198
 1359SOL     OW 4975   0.042   4.620   1.114
 1359SOL    HW1 4976   0.104   4.693   1.142
 1359SOL    HW2 4977   0.018   4.632   1.018
 1360SOL     OW 4978   4.032   3.736   2.631
 1360SOL    HW1 4979   4.074   3.681   2.704
 1360SOL    HW2 4980   4.091   3.815   2.612
 1361SOL     OW 4981   6.833   6.929   6.298
 1361SOL    HW1 4982   6.804   6.999   6.233
 1361SOL    HW2 4983   6.849   6.843   6.249
 1362SOL     OW 4984   2.961   3.757   4.405
 1362SOL    HW1 4985   2.936   3.710   4.490
 1362SOL    HW2 4986   2.984   3.689   4.336
 1363SOL     OW 4987   7.012   5.942   3.718
 1363SOL    HW1 4988   0.016   5.935   3.620
 1363SOL    HW2 4989   0.074   5.988   3.763
 1364SOL     OW 4990   0.221   2.084   0.538
 1364SOL    HW1 4991   0.211   2.106   0.635
 1364SOL    HW2 4992   0.317   2.071   0.516
 1365SOL     OW 4993   1.220   3.350   5.410
 1365SOL    HW1 4994   1.242   3.319   5.318
 1365SOL    HW2 4995   1.146   3.417   5.405
 1366SOL     OW 4996   0.352   4.310   0.883
 1366SOL    HW1 4997   0.293   4.346   0.810
 1366SOL    HW2 4998   0.331   4.355   0.969
 1367SOL     OW 4999   1.339   5.729   2.507
 1367SOL    HW1 5000   1.249   5.747   2.548
 1367SOL    HW2 5001   1.371   5.639   2.536
 1368SOL     OW 5002   0.046   0.501   4.134
 1368SOL    HW1 5003   0.028   0.577   4.072
 1368SOL    HW2 5004   0.094   0.535   4.215
 1369SOL     OW 5005   2.468   6.428   2.367
 1369SOL    HW1 5006   2.557   6.443   2.325
 1369SOL    HW2 5007   2.448   6.501   2.433
 1370SOL     OW 5008   6.030   2.357   3.878
 1370SOL    HW1 5009   5.933   2.342   3.895
 1370SOL    HW2 5010   6.043   2.389   3.784
 1371SOL     OW 5011   4.661   1.660   4.772
 1371SOL    HW1 5012   4.567   1.633   4.749
 1371SOL    HW2 5013   4.722   1.632   4.699
 1372SOL     OW 5014   0.091   2.222   1.305
 1372SOL    HW1 5015   0.081   2.187   1.211
 1372SOL    HW2 5016   0.109   2.145   1.367
 1373SOL     OW 5017   4.842   2.249   0.312
 1373SOL    HW1 5018   4.746   2.277   0.304
 1373SOL    HW2 5019   4.901   2.325   0.286
 1374SOL     OW 5020   4.779   3.913   0.253
 1374SOL    HW1 5021   4.848   3.979   0.223
 1374SOL    HW2 5022   4.796   3.887   0.348
 1375SOL     OW 5023   0.088   6.896   6.601
 1375SOL    HW1 5024   0.073   6.807   6.644
 1375SOL    HW2 5025   0.116   6.962   6.670
 1376SOL     OW 5026   3.455   4.626   5.630
 1376SOL    HW1 5027   3.449   4.633   5.530
 1376SOL    HW2 5028   3.480   4.715   5.669
 1377SOL     OW 5029   0.930   3.426   3.523
 1377SOL    HW1 5030   1.015   3.419   3.576
 1377SOL    HW2 5031   0.929   3.513   3.474
 1378SOL     OW 5032   5.575   2.572   5.498
 1378SOL    HW1 5033   5.485   2.535   5.521
 1378SOL    HW2 5034   5.564   2.654   5.441
 1379SOL     OW 5035   3.981   5.275   3.228
 1379SOL    HW1 5036   3.932   5.264   3.315
 1379SOL    HW2 5037   4.071   5.232   3.235
 1380SOL     OW 5038   6.916   6.146   3.189
 1380SOL    HW1 5039   6.905   6.060   3.139
 1380SOL    HW2 5040   6.828   6.194   3.191
 1381SOL     OW 5041   5.727   2.031   0.211
 1381SOL    HW1 5042   5.737   2.102   0.281
 1381SOL    HW2 5043   5.686   2.071   0.129
 1382SOL     OW 5044   4.900   3.450   1.218
 1382SOL    HW1 5045   4.951   3.445   1.305
 1382SOL    HW2 5046   4.854   3.539   1.212
 1383SOL     OW 5047   1.076   0.080   1.520
 1383SOL    HW1 5048   1.049   0.172   1.546
 1383SOL    HW2 5049   1.049   0.016   1.592
 1384SOL     OW 5050   4.846   6.767   1.855
 1384SOL    HW1 5051   4.923   6.789   1.914
 1384SOL    HW2 5052   4.856   6.673   1.822
 1385SOL     OW 5053   2.794   5.009   3.522
 1385SOL    HW1 5054   2.799   4.964   3.432
 1385SOL    HW2 5055   2.715   5.070   3.524
 1386SOL     OW 5056   3.212   0.468   3.883
 1386SOL    HW1 5057   3.291   0.439   3.828
 1386SOL    HW2 5058   3.232   0.557   3.925
 1387SOL     OW 5059   3.661   5.841   3.426
 1387SOL    HW1 5060   3.744   5.895   3.412
 1387SOL    HW2 5061   3.584   5.902   3.446
 1388SOL     OW 5062   6.589   0.377   1.909
 1388SOL    HW1 5063   6.499   0.349   1.944
 1388SOL    HW2 5064   6.629   0.446   1.971
 1389SOL     OW 5065   6.226   1.227   4.402
 1389SOL    HW1 5066   6.164   1.166   4.452
 1389SOL    HW2 5067   6.198   1.232   4.306
 1390SOL     OW 5068   0.187   3.614   6.585
 1390SOL    HW1 5069   0.261   3.550   6.609
 1390SOL    HW2 5070   0.108   3.562   6.551
 1391SOL     OW 5071   6.316   6.412   4.838
 1391SOL    HW1 5072   6.231   6.369   4.806
 1391SOL    HW2 5073   6.326   6.395   4.936
 1392SOL     OW 5074   5.821   6.295   6.201
 1392SOL    HW1 5075   5.730   6.337   6.203
 1392SOL    HW2 5076   5.833   6.236   6.281
 1393SOL     OW 5077   6.569   4.737   5.023
 1393SOL    HW1 5078   6.583   4.646   4.982
 1393SOL    HW2 5079   6.564   4.728   5.122
 1394SOL     OW 5080   3.777   4.803   5.831
 1394SOL    HW1 5081   3.784   4.756   5.743
 1394SOL    HW2 5082   3.683   4.801   5.863
 1395SOL     OW 5083   2.444   4.375   5.508
 1395SOL    HW1 5084   2.461   4.294   5.452
 1395SOL    HW2 5085   2.500   4.370   5.591
 1396SOL     OW 5086   0.936   1.362   5.002
 1396SOL    HW1 5087   0.991   1.445   4.992
 1396SOL    HW2 5088   0.885   1.345   4.918
 1397SOL     OW 5089   0.333   0.294   3.695
 1397SOL    HW1 5090   0.245   0.326   3.661
 1397SOL    HW2 5091   0.335   0.194   3.693
 1398SOL     OW 5092   2.987   0.686   6.202
 1398SOL    HW1 5093   2.957   0.651   6.114
 1398SOL    HW2 5094   2.927   0.652   6.274
 1399SOL     OW 5095   4.017   5.463   0.682
 1399SOL    HW1 5096   3.936   5.412   0.714
 1399SOL    HW2 5097   4.100   5.416   0.713
 1400SOL     OW 5098   0.392   1.715   3.226
 1400SOL    HW1 5099   0.325   1.652   3.266
 1400SOL    HW2 5100   0.470   1.724   3.288
 1401SOL     OW 5101   6.455   0.897   4.547
 1401SOL    HW1 5102   6.478   0.799   4.548
 1401SOL    HW2 5103   6.522   0.946   4.490
 1402SOL     OW 5104   6.743   3.946   6.594
 1402SOL    HW1 5105   6.666   3.985   6.545
 1402SOL    HW2 5106   6.791   3.881   6.535
 1403SOL     OW 5107   2.238   2.687   1.430
 1403SOL    HW1 5108   2.289   2.602   1.432
 1403SOL    HW2 5109   2.267   2.746   1.506
 1404SOL     OW 5110   6.158   6.771   0.663
 1404SOL    HW1 5111   6.213   6.853   0.680
 1404SOL    HW2 5112   6.200   6.718   0.589
 1405SOL     OW 5113   2.512   3.677   1.169
 1405SOL    HW1 5114   2.493   3.580   1.157
 1405SOL    HW2 5115   2.600   3.688   1.215
 1406SOL     OW 5116   0.456   5.539   0.688
 1406SOL    HW1 5117   0.463   5.632   0.652
 1406SOL    HW2 5118   0.524   5.525   0.760
 1407SOL     OW 5119   0.217   2.349   2.587
 1407SOL    HW1 5120   0.296   2.352   2.650
 1407SOL    HW2 5121   0.134   2.333   2.640
 1408SOL     OW 5122   5.463   1.469   6.098
 1408SOL    HW1 5123   5.531   1.419   6.044
 1408SOL    HW2 5124   5.376   1.469   6.050
 1409SOL     OW 5125   0.152   0.213   5.047
 1409SOL    HW1 5126   0.076   0.210   5.112
 1409SOL    HW2 5127   0.126   0.167   4.963
 1410SOL     OW 5128   1.081   3.539   6.389
 1410SOL    HW1 5129   1.018   3.549   6.312
 1410SOL    HW2 5130   1.152   3.473   6.365
 1411SOL     OW 5131   3.461   6.517   1.370
 1411SOL    HW1 5132   3.519   6.598   1.359
 1411SOL    HW2 5133   3.511   6.436   1.339
 1412SOL     OW 5134   0.304   1.954   1.037
 1412SOL    HW1 5135   0.223   1.994   0.994
 1412SOL    HW2 5136   0.312   1.987   1.131
 1413SOL     OW 5137   1.268   2.018   5.530
 1413SOL    HW1 5138   1.307   1.953   5.465
 1413SOL    HW2 5139   1.314   2.008   5.618
 1414SOL     OW 5140   2.540   1.248   1.905
 1414SOL    HW1 5141   2.570   1.182   1.835
 1414SOL    HW2 5142   2.488   1.322   1.861
 1415SOL     OW 5143   2.939   1.000   4.551
 1415SOL    HW1 5144   3.006   0.986   4.623
 1415SOL    HW2 5145   2.849   1.018   4.591
 1416SOL     OW 5146   5.404   5.124   4.643
 1416SOL    HW1 5147   5.392   5.077   4.730
 1416SOL    HW2 5148   5.328   5.101   4.582
 1417SOL     OW 5149   2.794   1.901   0.230
 1417SOL    HW1 5150   2.882   1.874   0.191
 1417SOL    HW2 5151   2.751   1.969   0.171
 1418SOL     OW 5152   3.400   4.025   3.104
 1418SOL    HW1 5153   3.382   3.936   3.062
 1418SOL    HW2 5154   3.392   4.097   3.035
 1419SOL     OW 5155   2.716   5.578   4.970
 1419SOL    HW1 5156   2.766   5.602   5.053
 1419SOL    HW2 5157   2.666   5.658   4.937
 1420SOL     OW 5158   2.710   6.717   1.527
 1420SOL    HW1 5159   2.722   6.679   1.619
 1420SOL    HW2 5160   2.793   6.767   1.501
 1421SOL     OW 5161   1.984   4.743   3.356
 1421SOL    HW1 5162   1.995   4.650   3.322
 1421SOL    HW2 5163   2.073   4.779   3.384
 1422SOL     OW 5164   1.262   3.804   0.925
 1422SOL    HW1 5165   1.295   3.767   0.838
 1422SOL    HW2 5166   1.313   3.763   1.000
 1423SOL     OW 5167   5.323   6.398   3.458
 1423SOL    HW1 5168   5.418   6.367   3.458
 1423SOL    HW2 5169   5.293   6.410   3.553
 1424SOL     OW 5170   6.384   5.021   6.102
 1424SOL    HW1 5171   6.306   4.972   6.140
 1424SOL    HW2 5172   6.384   5.011   6.003
 1425SOL     OW 5173   1.729   5.546   5.179
 1425SOL    HW1 5174   1.685   5.518   5.093
 1425SOL    HW2 5175   1.687   5.497   5.255
 1426SOL     OW 5176   1.855   3.496   6.241
 1426SOL    HW1 5177   1.851   3.459   6.148
 1426SOL    HW2 5178   1.802   3.581   6.245
 1427SOL     OW 5179   0.725   0.212   3.587
 1427SOL    HW1 5180   0.783   0.183   3.663
 1427SOL    HW2 5181   0.629   0.197   3.612
 1428SOL     OW 5182   6.770   3.709   0.215
 1428SOL    HW1 5183   6.849   3.767   0.234
 1428SOL    HW2 5184   6.723   3.689   0.301
 1429SOL     OW 5185   4.338   2.064   0.121
 1429SOL    HW1 5186   4.245   2.038   0.144
 1429SOL    HW2 5187   4.394   1.982   0.111
 1430SOL     OW 5188   1.415   4.739   3.741
 1430SOL    HW1 5189   1.438   4.679   3.818
 1430SOL    HW2 5190   1.359   4.688   3.675
 1431SOL     OW 5191   2.687   1.723   0.703
 1431SOL    HW1 5192   2.665   1.809   0.748
 1431SOL    HW2 5193   2.712   1.740   0.608
 1432SOL     OW 5194   2.499   1.606   2.359
 1432SOL    HW1 5195   2.566   1.553   2.307
 1432SOL    HW2 5196   2.542   1.691   2.391
 1433SOL     OW 5197   4.262   1.072   4.823
 1433SOL    HW1 5198   4.344   1.085   4.767
 1433SOL    HW2 5199   4.283   1.092   4.918
 1434SOL     OW 5200   0.229   0.059   5.471
 1434SOL    HW1 5201   0.223   0.098   5.562
 1434SOL    HW2 5202   0.144   0.011   5.449
 1435SOL     OW 5203   6.265   0.171   2.920
 1435SOL    HW1 5204   6.219   0.253   2.953
 1435SOL    HW2 5205   6.340   0.197   2.860
 1436SOL     OW 5206   5.372   3.894   6.782
 1436SOL    HW1 5207   5.438   3.969   6.792
 1436SOL    HW2 5208   5.285   3.921   6.823
 1437SOL     OW 5209   2.991   2.246   3.990
 1437SOL    HW1 5210   3.025   2.339   3.974
 1437SOL    HW2 5211   2.943   2.214   3.909
 1438SOL     OW 5212   2.584   6.350   1.209
 1438SOL    HW1 5213   2.630   6.406   1.140
 1438SOL    HW2 5214   2.599   6.253   1.189
 1439SOL     OW 5215   6.645   5.439   1.706
 1439SOL    HW1 5216   6.665   5.466   1.612
 1439SOL    HW2 5217   6.695   5.498   1.770
 1440SOL     OW 5218   3.379   2.880   6.968
 1440SOL    HW1 5219   3.279   2.887   6.973
 1440SOL    HW2 5220   3.408   2.793   7.009
 1441SOL     OW 5221   6.492   0.227   4.193
 1441SOL    HW1 5222   6.546   0.262   4.116
 1441SOL    HW2 5223   6.421   0.166   4.158
 1442SOL     OW 5224   0.634   5.977   6.908
 1442SOL    HW1 5225   0.588   5.889   6.921
 1442SOL    HW2 5226   0.566   6.051   6.913
 1443SOL     OW 5227   0.287   3.295   4.011
 1443SOL    HW1 5228   0.307   3.335   4.100
 1443SOL    HW2 5229   0.305   3.196   4.013
 1444SOL     OW 5230   4.820   5.706   0.820
 1444SOL    HW1 5231   4.778   5.640   0.757
 1444SOL    HW2 5232   4.753   5.777   0.843
 1445SOL     OW 5233   1.401   3.006   3.335
 1445SOL    HW1 5234   1.392   3.003   3.236
 1445SOL    HW2 5235   1.345   3.081   3.371
 1446SOL     OW 5236   6.071   1.380   6.858
 1446SOL    HW1 5237   6.028   1.341   6.940
 1446SOL    HW2 5238   6.086   1.478   6.871
 1447SOL     OW 5239   5.711   6.343   4.527
 1447SOL    HW1 5240   5.749   6.256   4.560
 1447SOL    HW2 5241   5.657   6.326   4.444
 1448SOL     OW 5242   0.213   2.496   5.480
 1448SOL    HW1 5243   0.203   2.513   5.382
 1448SOL    HW2 5244   0.296   2.542   5.513
 1449SOL     OW 5245   1.394   2.824   6.407
 1449SOL    HW1 5246   1.453   2.840   6.327
 1449SOL    HW2 5247   1.352   2.911   6.434
 1450SOL     OW 5248   0.582   1.838   1.111
 1450SOL    HW1 5249   0.632   1.752   1.099
 1450SOL    HW2 5250   0.530   1.858   1.027
 1451SOL     OW 5251   0.789   6.510   2.741
 1451SOL    HW1 5252   0.774   6.439   2.809
 1451SOL    HW2 5253   0.795   6.599   2.786
 1452SOL     OW 5254   4.167   1.754   4.927
 1452SOL    HW1 5255   4.101   1.680   4.916
 1452SOL    HW2 5256   4.256   1.724   4.894
 1453SOL     OW 5257   0.421   3.719   5.607
 1453SOL    HW1 5258   0.379   3.751   5.692
 1453SOL    HW2 5259   0.400   3.784   5.534
 1454SOL     OW 5260   0.625   2.863   1.976
 1454SOL    HW1 5261   0.691   2.934   1.999
 1454SOL    HW2 5262   0.621   2.796   2.051
 1455SOL     OW 5263   1.277   0.403   1.494
 1455SOL    HW1 5264   1.194   0.392   1.548
 1455SOL    HW2 5265   1.339   0.327   1.512
 1456SOL     OW 5266   6.655   0.063   5.916
 1456SOL    HW1 5267   6.704   0.082   6.002
 1456SOL    HW2 5268   6.557   0.062   5.933
 1457SOL     OW 5269   0.611   6.413   1.478
 1457SOL    HW1 5270   0.689   6.398   1.418
 1457SOL    HW2 5271   0.610   6.343   1.550
 1458SOL     OW 5272   6.060   5.205   4.407
 1458SOL    HW1 5273   6.004   5.127   4.433
 1458SOL    HW2 5274   6.010   5.263   4.343
 1459SOL     OW 5275   3.724   6.414   6.274
 1459SOL    HW1 5276   3.771   6.350   6.214
 1459SOL    HW2 5277   3.771   6.417   6.363
 1460SOL     OW 5278   0.403   0.260   5.014
 1460SOL    HW1 5279   0.305   0.259   5.034
 1460SOL    HW2 5280   0.454   0.235   5.096
 1461SOL     OW 5281   6.253   4.143   2.880
 1461SOL    HW1 5282   6.272   4.209   2.807
 1461SOL    HW2 5283   6.281   4.051   2.850
 1462SOL     OW 5284   1.824   0.996   0.039
 1462SOL    HW1 5285   1.913   1.041   0.037
 1462SOL    HW2 5286   1.833   0.907   0.084
 1463SOL     OW 5287   0.173   5.317   6.334
 1463SOL    HW1 5288   0.209   5.401   6.293
 1463SOL    HW2 5289   0.107   5.341   6.405
 1464SOL     OW 5290   0.040   5.956   2.174
 1464SOL    HW1 5291   0.063   6.051   2.191
 1464SOL    HW2 5292   6.997   5.921   2.248
 1465SOL     OW 5293   1.858   0.628   3.818
 1465SOL    HW1 5294   1.809   0.673   3.743
 1465SOL    HW2 5295   1.795   0.616   3.895
 1466SOL     OW 5296   2.437   2.238   1.907
 1466SOL    HW1 5297   2.492   2.305   1.956
 1466SOL    HW2 5298   2.480   2.218   1.818
 1467SOL     OW 5299   1.921   1.381   2.985
 1467SOL    HW1 5300   1.989   1.308   2.995
 1467SOL    HW2 5301   1.830   1.340   2.978
 1468SOL     OW 5302   2.686   5.580   2.228
 1468SOL    HW1 5303   2.716   5.603   2.321
 1468SOL    HW2 5304   2.588   5.564   2.228
 1469SOL     OW 5305   0.487   0.342   2.430
 1469SOL    HW1 5306   0.518   0.433   2.406
 1469SOL    HW2 5307   0.538   0.274   2.377
 1470SOL     OW 5308   1.040   1.698   2.688
 1470SOL    HW1 5309   1.098   1.620   2.711
 1470SOL    HW2 5310   1.096   1.780   2.679
 1471SOL     OW 5311   0.690   0.287   0.905
 1471SOL    HW1 5312   0.653   0.280   0.998
 1471SOL    HW2 5313   0.635   0.353   0.852
 1472SOL     OW 5314   2.327   5.466   5.400
 1472SOL    HW1 5315   2.253   5.533   5.401
 1472SOL    HW2 5316   2.374   5.468   5.488
 1473SOL     OW 5317   3.686   5.365   5.491
 1473SOL    HW1 5318   3.597   5.318   5.489
 1473SOL    HW2 5319   3.686   5.438   5.423
 1474SOL     OW 5320   5.419   5.002   2.095
 1474SOL    HW1 5321   5.497   4.965   2.044
 1474SOL    HW2 5322   5.397   5.093   2.060
 1475SOL     OW 5323   5.622   0.743   1.748
 1475SOL    HW1 5324   5.570   0.708   1.670
 1475SOL    HW2 5325   5.682   0.672   1.783
 1476SOL     OW 5326   2.932   1.040   1.188
 1476SOL    HW1 5327   2.865   0.976   1.227
 1476SOL    HW2 5328   3.024   1.011   1.214
 1477SOL     OW 5329   3.083   6.842   6.061
 1477SOL    HW1 5330   3.050   6.851   6.155
 1477SOL    HW2 5331   3.175   6.804   6.062
 1478SOL     OW 5332   6.134   5.310   5.339
 1478SOL    HW1 5333   6.157   5.401   5.305
 1478SOL    HW2 5334   6.043   5.284   5.307
 1479SOL     OW 5335   2.091   2.523   0.837
 1479SOL    HW1 5336   2.136   2.482   0.757
 1479SOL    HW2 5337   2.056   2.613   0.813
 1480SOL     OW 5338   3.546   0.862   4.992
 1480SOL    HW1 5339   3.518   0.900   4.904
 1480SOL    HW2 5340   3.481   0.890   5.063
 1481SOL     OW 5341   6.140   3.048   6.930
 1481SOL    HW1 5342   6.131   2.951   6.909
 1481SOL    HW2 5343   6.097   3.067   0.004
 1482SOL     OW 5344   4.616   1.303   1.390
 1482SOL    HW1 5345   4.684   1.339   1.453
 1482SOL    HW2 5346   4.658   1.230   1.335
 1483SOL     OW 5347   5.241   2.283   6.156
 1483SOL    HW1 5348   5.322   2.337   6.178
 1483SOL    HW2 5349   5.226   2.284   6.057
 1484SOL     OW 5350   4.742   5.112   4.317
 1484SOL    HW1 5351   4.667   5.045   4.315
 1484SOL    HW2 5352   4.799   5.095   4.397
 1485SOL     OW 5353   4.062   0.826   4.590
 1485SOL    HW1 5354   3.970   0.791   4.579
 1485SOL    HW2 5355   4.087   0.881   4.510
 1486SOL     OW 5356   5.918   0.676   2.738
 1486SOL    HW1 5357   5.997   0.634   2.694
 1486SOL    HW2 5358   5.861   0.605   2.780
 1487SOL     OW 5359   0.264   2.466   0.140
 1487SOL    HW1 5360   0.208   2.541   0.103
 1487SOL    HW2 5361   0.239   2.451   0.236
 1488SOL     OW 5362   5.876   0.342   3.781
 1488SOL    HW1 5363   5.896   0.287   3.863
 1488SOL    HW2 5364   5.782   0.324   3.751
 1489SOL     OW 5365   4.444   4.905   5.994
 1489SOL    HW1 5366   4.541   4.888   6.009
 1489SOL    HW2 5367   4.391   4.861   6.067
 1490SOL     OW 5368   0.869   3.708   1.434
 1490SOL    HW1 5369   0.810   3.647   1.487
 1490SOL    HW2 5370   0.884   3.793   1.485
 1491SOL     OW 5371   5.969   4.809   2.187
 1491SOL    HW1 5372   6.068   4.807   2.176
 1491SOL    HW2 5373   5.931   4.720   2.162
 1492SOL     OW 5374   6.485   0.234   2.745
 1492SOL    HW1 5375   6.582   0.217   2.763
 1492SOL    HW2 5376   6.453   0.173   2.673
 1493SOL     OW 5377   3.896   7.003   6.307
 1493SOL    HW1 5378   3.873   6.973   6.214
 1493SOL    HW2 5379   3.909   6.923   6.366
 1494SOL     OW 5380   5.014   2.411   6.203
 1494SOL    HW1 5381   4.973   2.420   6.294
 1494SOL    HW2 5382   5.103   2.366   6.211
 1495SOL     OW 5383   0.713   3.496   5.160
 1495SOL    HW1 5384   0.674   3.413   5.198
 1495SOL    HW2 5385   0.687   3.575   5.217
 1496SOL     OW 5386   0.324   1.374   1.403
 1496SOL    HW1 5387   0.350   1.357   1.308
 1496SOL    HW2 5388   0.264   1.453   1.407
 1497SOL     OW 5389   5.183   3.110   2.584
 1497SOL    HW1 5390   5.241   3.077   2.659
 1497SOL    HW2 5391   5.087   3.097   2.608
 1498SOL     OW 5392   2.609   4.715   6.535
 1498SOL    HW1 5393   2.544   4.656   6.488
 1498SOL    HW2 5394   2.658   4.662   6.604
 1499SOL     OW 5395   0.907   2.054   5.312
 1499SOL    HW1 5396   0.990   2.110   5.306
 1499SOL    HW2 5397   0.862   2.052   5.223
 1500SOL     OW 5398   0.193   0.434   0.207
 1500SOL    HW1 5399   0.188   0.401   0.301
 1500SOL    HW2 5400   0.289   0.449   0.182
 1501SOL     OW 5401   5.599   2.701   6.754
 1501SOL    HW1 5402   5.525   2.634   6.769
 1501SOL    HW2 5403   5.627   2.740   6.841
 1502SOL     OW 5404   4.333   0.577   0.084
 1502SOL    HW1 5405   4.408   0.616   0.032
 1502SOL    HW2 5406   4.254   0.563   0.024
 1503SOL     OW 5407   1.400   2.639   2.089
 1503SOL    HW1 5408   1.439   2.671   2.175
 1503SOL    HW2 5409   1.443   2.553   2.062
 1504SOL     OW 5410   0.362   0.330   4.293
 1504SOL    HW1 5411   0.397   0.294   4.379
 1504SOL    HW2 5412   0.262   0.328   4.294
 1505SOL     OW 5413   4.629   0.395   4.701
 1505SOL    HW1 5414   4.541   0.443   4.708
 1505SOL    HW2 5415   4.701   0.452   4.742
 1506SOL     OW 5416   0.628   6.574   0.162
 1506SOL    HW1 5417   0.616   6.588   0.260
 1506SOL    HW2 5418   0.655   6.479   0.145
 1507SOL     OW 5419   0.036   1.810   6.123
 1507SOL    HW1 5420   0.131   1.815   6.154
 1507SOL    HW2 5421   0.014   1.890   6.068
 1508SOL     OW 5422   6.421   1.168   0.719
 1508SOL    HW1 5423   6.354   1.135   0.786
 1508SOL    HW2 5424   6.504   1.197   0.767
 1509SOL     OW 5425   3.665   1.792   4.855
 1509SOL    HW1 5426   3.736   1.859   4.878
 1509SOL    HW2 5427   3.583   1.810   4.911
 1510SOL     OW 5428   4.727   1.299   4.477
 1510SOL    HW1 5429   4.774   1.290   4.565
 1510SOL    HW2 5430   4.725   1.210   4.431
 1511SOL     OW 5431   4.125   3.360   3.817
 1511SOL    HW1 5432   4.133   3.321   3.725
 1511SOL    HW2 5433   4.116   3.285   3.883
 1512SOL     OW 5434   6.983   5.606   0.771
 1512SOL    HW1 5435   6.997   5.519   0.820
 1512SOL    HW2 5436   0.051   5.630   0.721
 1513SOL     OW 5437   3.936   0.383   4.809
 1513SOL    HW1 5438   4.032   0.372   4.836
 1513SOL    HW2 5439   3.879   0.320   4.862
 1514SOL     OW 5440   3.600   2.623   5.376
 1514SOL    HW1 5441   3.691   2.580   5.377
 1514SOL    HW2 5442   3.602   2.704   5.435
 1515SOL     OW 5443   5.681   2.101   2.273
 1515SOL    HW1 5444   5.591   2.143   2.284
 1515SOL    HW2 5445   5.669   2.007   2.240
 1516SOL     OW 5446   6.593   5.584   5.854
 1516SOL    HW1 5447   6.579   5.495   5.896
 1516SOL    HW2 5448   6.648   5.574   5.771
 1517SOL     OW 5449   4.428   5.860   2.832
 1517SOL    HW1 5450   4.339   5.879   2.790
 1517SOL    HW2 5451   4.488   5.939   2.823
 1518SOL     OW 5452   0.398   2.846   0.564
 1518SOL    HW1 5453   0.347   2.872   0.646
 1518SOL    HW2 5454   0.470   2.781   0.590
 1519SOL     OW 5455   6.698   4.727   1.613
 1519SOL    HW1 5456   6.639   4.648   1.593
 1519SOL    HW2 5457   6.784   4.695   1.653
 1520SOL     OW 5458   0.606   4.495   1.843
 1520SOL    HW1 5459   0.642   4.440   1.767
 1520SOL    HW2 5460   0.508   4.478   1.853
 1521SOL     OW 5461   1.913   4.129   6.276
 1521SOL    HW1 5462   1.859   4.057   6.319
 1521SOL    HW2 5463   1.993   4.149   6.333
 1522SOL     OW 5464   5.516   6.212   4.965
 1522SOL    HW1 5465   5.423   6.243   4.945
 1522SOL    HW2 5466   5.580   6.289   4.956
 1523SOL     OW 5467   4.089   6.279   6.885
 1523SOL    HW1 5468   4.008   6.315   6.838
 1523SOL    HW2 5469   4.122   6.346   6.951
 1524SOL     OW 5470   2.448   1.561   2.833
 1524SOL    HW1 5471   2.395   1.612   2.900
 1524SOL    HW2 5472   2.545   1.582   2.845
 1525SOL     OW 5473   6.339   3.816   0.634
 1525SOL    HW1 5474   6.293   3.794   0.548
 1525SOL    HW2 5475   6.420   3.759   0.645
 1526SOL     OW 5476   6.904   1.047   6.740
 1526SOL    HW1 5477   6.994   1.046   6.697
 1526SOL    HW2 5478   6.914   1.065   6.838
 1527SOL     OW 5479   3.995   1.584   4.836
 1527SOL    HW1 5480   3.921   1.589   4.769
 1527SOL    HW2 5481   3.997   1.492   4.876
 1528SOL     OW 5482   3.890   4.837   2.795
 1528SOL    HW1 5483   3.934   4.843   2.706
 1528SOL    HW2 5484   3.958   4.817   2.865
 1529SOL     OW 5485   4.308   0.072   0.244
 1529SOL    HW1 5486   4.232   0.034   0.296
 1529SOL    HW2 5487   4.394   0.037   0.279
 1530SOL     OW 5488   4.056   2.138   2.386
 1530SOL    HW1 5489   3.989   2.181   2.325
 1530SOL    HW2 5490   4.009   2.077   2.449
 1531SOL     OW 5491   4.358   6.854   5.725
 1531SOL    HW1 5492   4.409   6.804   5.655
 1531SOL    HW2 5493   4.404   6.941   5.744
 1532SOL     OW 5494   3.475   3.501   6.340
 1532SOL    HW1 5495   3.528   3.434   6.287
 1532SOL    HW2 5496   3.382   3.466   6.354
 1533SOL     OW 5497   5.914   4.761   6.332
 1533SOL    HW1 5498   5.833   4.724   6.377
 1533SOL    HW2 5499   5.936   4.850   6.371
 1534SOL     OW 5500   2.977   5.674   6.908
 1534SOL    HW1 5501   2.976   5.718   6.998
 1534SOL    HW2 5502   2.883   5.670   6.872
 1535SOL     OW 5503   5.343   6.133   4.348
 1535SOL    HW1 5504   5.397   6.049   4.339
 1535SOL    HW2 5505   5.246   6.111   4.336
 1536SOL     OW 5506   3.839   4.089   5.692
 1536SOL    HW1 5507   3.870   4.048   5.777
 1536SOL    HW2 5508   3.795   4.019   5.635
 1537SOL     OW 5509   4.309   5.821   3.720
 1537SOL    HW1 5510   4.304   5.727   3.687
 1537SOL    HW2 5511   4.351   5.823   3.810
 1538SOL     OW 5512   3.267   0.080   6.912
 1538SOL    HW1 5513   3.338   0.147   6.934
 1538SOL    HW2 5514   3.182   0.127   6.891
 1539SOL     OW 5515   4.744   3.916   1.838
 1539SOL    HW1 5516   4.779   3.887   1.927
 1539SOL    HW2 5517   4.711   3.837   1.788
 1540SOL     OW 5518   1.136   5.913   5.594
 1540SOL    HW1 5519   1.060   5.893   5.532
 1540SOL    HW2 5520   1.139   5.843   5.666
 1541SOL     OW 5521   3.304   3.014   3.906
 1541SOL    HW1 5522   3.209   3.030   3.933
 1541SOL    HW2 5523   3.358   2.991   3.987
 1542SOL     OW 5524   6.571   6.917   2.368
 1542SOL    HW1 5525   6.509   6.844   2.339
 1542SOL    HW2 5526   6.627   6.884   2.444
 1543SOL     OW 5527   3.074   5.122   5.480
 1543SOL    HW1 5528   3.156   5.091   5.433
 1543SOL    HW2 5529   2.997   5.123   5.416
 1544SOL     OW 5530   2.986   3.401   2.606
 1544SOL    HW1 5531   3.001   3.303   2.592
 1544SOL    HW2 5532   2.971   3.446   2.518
 1545SOL     OW 5533   5.103   0.735   2.939
 1545SOL    HW1 5534   5.167   0.668   2.975
 1545SOL    HW2 5535   5.076   0.798   3.012
 1546SOL     OW 5536   4.112   6.890   5.621
 1546SOL    HW1 5537   4.097   6.794   5.599
 1546SOL    HW2 5538   4.179   6.897   5.695
 1547SOL     OW 5539   1.904   4.238   2.035
 1547SOL    HW1 5540   1.945   4.316   1.988
 1547SOL    HW2 5541   1.960   4.213   2.114
 1548SOL     OW 5542   5.633   3.313   5.232
 1548SOL    HW1 5543   5.694   3.258   5.288
 1548SOL    HW2 5544   5.617   3.402   5.276
 1549SOL     OW 5545   4.106   1.731   1.643
 1549SOL    HW1 5546   4.011   1.761   1.651
 1549SOL    HW2 5547   4.151   1.739   1.732
 1550SOL     OW 5548   2.829   3.670   0.278
 1550SOL    HW1 5549   2.837   3.765   0.310
 1550SOL    HW2 5550   2.741   3.633   0.305
 1551SOL     OW 5551   2.059   4.458   6.031
 1551SOL    HW1 5552   2.038   4.476   5.935
 1551SOL    HW2 5553   2.158   4.456   6.044
 1552SOL     OW 5554   1.345   5.962   0.176
 1552SOL    HW1 5555   1.301   5.916   0.253
 1552SOL    HW2 5556   1.436   5.994   0.203
 1553SOL     OW 5557   6.665   1.946   6.492
 1553SOL    HW1 5558   6.647   2.001   6.574
 1553SOL    HW2 5559   6.762   1.952   6.468
 1554SOL     OW 5560   4.076   1.953   2.967
 1554SOL    HW1 5561   4.063   2.047   3.001
 1554SOL    HW2 5562   4.141   1.954   2.892
 1555SOL     OW 5563   5.021   2.481   0.140
 1555SOL    HW1 5564   4.968   2.554   0.096
 1555SOL    HW2 5565   5.062   2.423   0.070
 1556SOL     OW 5566   3.055   1.833   0.127
 1556SOL    HW1 5567   3.040   1.734   0.122
 1556SOL    HW2 5568   3.142   1.855   0.083
 1557SOL     OW 5569   2.118   2.019   5.440
 1557SOL    HW1 5570   2.160   2.029   5.530
 1557SOL    HW2 5571   2.022   2.046   5.444
 1558SOL     OW 5572   5.772   0.274   4.874
 1558SOL    HW1 5573   5.810   0.288   4.782
 1558SOL    HW2 5574   5.809   0.343   4.936
 1559SOL     OW 5575   1.414   2.579   0.125
 1559SOL    HW1 5576   1.466   2.526   0.058
 1559SOL    HW2 5577   1.318   2.581   0.099
 1560SOL     OW 5578   0.091   1.076   5.602
 1560SOL    HW1 5579   7.015   1.101   5.568
 1560SOL    HW2 5580   0.157   1.146   5.574
 1561SOL     OW 5581   6.317   6.525   3.946
 1561SOL    HW1 5582   6.277   6.601   3.998
 1561SOL    HW2 5583   6.400   6.557   3.900
 1562SOL     OW 5584   4.145   5.912   2.744
 1562SOL    HW1 5585   4.071   5.852   2.714
 1562SOL    HW2 5586   4.210   5.924   2.669
 1563SOL     OW 5587   2.322   0.254   5.459
 1563SOL    HW1 5588   2.313   0.312   5.540
 1563SOL    HW2 5589   2.265   0.290   5.385
 1564SOL     OW 5590   1.186   2.841   3.542
 1564SOL    HW1 5591   1.230   2.753   3.526
 1564SOL    HW2 5592   1.114   2.856   3.475
 1565SOL     OW 5593   4.227   4.632   3.712
 1565SOL    HW1 5594   4.284   4.578   3.649
 1565SOL    HW2 5595   4.278   4.649   3.796
 1566SOL     OW 5596   6.075   4.969   2.967
 1566SOL    HW1 5597   6.060   5.013   2.878
 1566SOL    HW2 5598   6.004   4.997   3.031
 1567SOL     OW 5599   6.199   5.934   0.822
 1567SOL    HW1 5600   6.202   6.033   0.836
 1567SOL    HW2 5601   6.184   5.915   0.725
 1568SOL     OW 5602   1.461   6.543   6.918
 1568SOL    HW1 5603   1.494   6.451   6.940
 1568SOL    HW2 5604   1.480   6.562   6.821
 1569SOL     OW 5605   4.608   6.154   3.397
 1569SOL    HW1 5606   4.574   6.136   3.305
 1569SOL    HW2 5607   4.671   6.081   3.424
 1570SOL     OW 5608   1.992   0.341   0.944
 1570SOL    HW1 5609   1.893   0.354   0.957
 1570SOL    HW2 5610   2.025   0.272   1.009
 1571SOL     OW 5611   5.247   2.437   1.353
 1571SOL    HW1 5612   5.182   2.509   1.376
 1571SOL    HW2 5613   5.235   2.410   1.257
 1572SOL     OW 5614   0.648   6.760   0.986
 1572SOL    HW1 5615   0.604   6.778   1.073
 1572SOL    HW2 5616   0.679   6.665   0.983
 1573SOL     OW 5617   5.093   2.802   2.195
 1573SOL    HW1 5618   5.028   2.865   2.152
 1573SOL    HW2 5619   5.077   2.800   2.293
 1574SOL     OW 5620   6.222   1.140   1.477
 1574SOL    HW1 5621   6.188   1.058   1.431
 1574SOL    HW2 5622   6.313   1.122   1.515
 1575SOL     OW 5623   3.567   1.394   0.500
 1575SOL    HW1 5624   3.641   1.421   0.562
 1575SOL    HW2 5625   3.507   1.472   0.486
 1576SOL     OW 5626   0.916   6.944   3.703
 1576SOL    HW1 5627   0.932   6.876   3.775
 1576SOL    HW2 5628   1.000   6.996   3.687
 1577SOL     OW 5629   3.238   1.691   4.455
 1577SOL    HW1 5630   3.224   1.756   4.380
 1577SOL    HW2 5631   3.335   1.685   4.476
 1578SOL     OW 5632   6.468   3.210   5.984
 1578SOL    HW1 5633   6.510   3.123   6.012
 1578SOL    HW2 5634   6.527   3.257   5.919
 1579SOL     OW 5635   0.094   1.458   3.115
 1579SOL    HW1 5636   0.070   1.367   3.081
 1579SOL    HW2 5637   0.123   1.515   3.038
 1580SOL     OW 5638   2.798   4.016   5.245
 1580SOL    HW1 5639   2.803   4.103   5.294
 1580SOL    HW2 5640   2.706   4.003   5.208
 1581SOL     OW 5641   0.592   3.912   5.001
 1581SOL    HW1 5642   0.600   3.918   4.901
 1581SOL    HW2 5643   0.564   4.001   5.037
 1582SOL     OW 5644   1.393   0.086   4.516
 1582SOL    HW1 5645   1.357   7.012   4.490
 1582SOL    HW2 5646   1.332   0.129   4.583
 1583SOL     OW 5647   1.209   4.602   3.179
 1583SOL    HW1 5648   1.266   4.553   3.113
 1583SOL    HW2 5649   1.154   4.536   3.230
 1584SOL     OW 5650   1.546   6.684   4.995
 1584SOL    HW1 5651   1.559   6.777   4.961
 1584SOL    HW2 5652   1.476   6.638   4.939
 1585SOL     OW 5653   6.024   1.816   3.368
 1585SOL    HW1 5654   5.957   1.767   3.425
 1585SOL    HW2 5655   6.092   1.751   3.335
 1586SOL     OW 5656   3.623   4.664   1.320
 1586SOL    HW1 5657   3.543   4.724   1.317
 1586SOL    HW2 5658   3.635   4.630   1.413
 1587SOL     OW 5659   2.698   6.280   6.395
 1587SOL    HW1 5660   2.606   6.251   6.368
 1587SOL    HW2 5661   2.693   6.329   6.482
 1588SOL     OW 5662   5.222   1.749   3.431
 1588SOL    HW1 5663   5.196   1.761   3.527
 1588SOL    HW2 5664   5.141   1.755   3.373
 1589SOL     OW 5665   5.929   3.833   2.010
 1589SOL    HW1 5666   5.831   3.844   1.993
 1589SOL    HW2 5667   5.943   3.780   2.093
 1590SOL     OW 5668   2.568   6.121   6.692
 1590SOL    HW1 5669   2.592   6.083   6.782
 1590SOL    HW2 5670   2.623   6.203   6.675
 1591SOL     OW 5671   0.171   5.402   2.497
 1591SOL    HW1 5672   0.161   5.419   2.595
 1591SOL    HW2 5673   0.085   5.364   2.461
 1592SOL     OW 5674   2.331   4.106   0.687
 1592SOL    HW1 5675   2.386   4.068   0.762
 1592SOL    HW2 5676   2.259   4.164   0.725
 1593SOL     OW 5677   1.054   6.353   4.155
 1593SOL    HW1 5678   0.981   6.356   4.223
 1593SOL    HW2 5679   1.048   6.267   4.103
 1594SOL     OW 5680   6.386   6.135   2.454
 1594SOL    HW1 5681   6.394   6.064   2.384
 1594SOL    HW2 5682   6.477   6.166   2.480
 1595SOL     OW 5683   1.469   5.178   7.012
 1595SOL    HW1 5684   1.462   5.149   6.917
 1595SOL    HW2 5685   1.547   5.240   0.008
 1596SOL     OW 5686   0.648   2.833   4.630
 1596SOL    HW1 5687   0.606   2.802   4.544
 1596SOL    HW2 5688   0.746   2.814   4.627
 1597SOL     OW 5689   2.085   6.590   6.646
 1597SOL    HW1 5690   2.047   6.499   6.635
 1597SOL    HW2 5691   2.116   6.602   6.740
 1598SOL     OW 5692   0.721   3.512   6.962
 1598SOL    HW1 5693   0.797   3.551   7.014
 1598SOL    HW2 5694   0.688   3.430   7.008
 1599SOL     OW 5695   4.591   4.052   5.932
 1599SOL    HW1 5696   4.564   4.110   6.010
 1599SOL    HW2 5697   4.572   4.101   5.847
 1600SOL     OW 5698   5.031   1.877   4.991
 1600SOL    HW1 5699   5.101   1.806   5.000
 1600SOL    HW2 5700   4.942   1.838   5.013
 1601SOL     OW 5701   0.174   4.701   4.251
 1601SOL    HW1 5702   0.091   4.751   4.273
 1601SOL    HW2 5703   0.202   4.722   4.157
 1602SOL     OW 5704   2.220   5.110   4.021
 1602SOL    HW1 5705   2.205   5.142   4.114
 1602SOL    HW2 5706   2.305   5.149   3.985
 1603SOL     OW 5707   6.467   6.025   2.782
 1603SOL    HW1 5708   6.374   6.020   2.819
 1603SOL    HW2 5709   6.533   6.012   2.855
 1604SOL     OW 5710   6.430   4.337   0.243
 1604SOL    HW1 5711   6.486   4.294   0.314
 1604SOL    HW2 5712   6.485   4.346   0.159
 1605SOL     OW 5713   6.129   6.450   2.203
 1605SOL    HW1 5714   6.204   6.513   2.223
 1605SOL    HW2 5715   6.142   6.410   2.112
 1606SOL     OW 5716   3.382   0.562   5.122
 1606SOL    HW1 5717   3.454   0.545   5.055
 1606SOL    HW2 5718   3.292   0.553   5.079
 1607SOL     OW 5719   3.942   2.261   0.471
 1607SOL    HW1 5720   3.888   2.289   0.550
 1607SOL    HW2 5721   4.031   2.306   0.473
 1608SOL     OW 5722   1.245   0.309   4.661
 1608SOL    HW1 5723   1.304   0.373   4.613
 1608SOL    HW2 5724   1.272   0.306   4.758
 1609SOL     OW 5725   4.561   0.196   0.636
 1609SOL    HW1 5726   4.536   0.112   0.684
 1609SOL    HW2 5727   4.656   0.189   0.605
 1610SOL     OW 5728   5.865   4.308   5.825
 1610SOL    HW1 5729   5.862   4.217   5.784
 1610SOL    HW2 5730   5.778   4.325   5.873
 1611SOL     OW 5731   2.817   3.513   1.957
 1611SOL    HW1 5732   2.766   3.598   1.969
 1611SOL    HW2 5733   2.773   3.458   1.887
 1612SOL     OW 5734   2.574   1.302   4.930
 1612SOL    HW1 5735   2.535   1.341   5.013
 1612SOL    HW2 5736   2.615   1.375   4.875
 1613SOL     OW 5737   1.944   5.757   1.300
 1613SOL    HW1 5738   2.007   5.724   1.371
 1613SOL    HW2 5739   1.858   5.707   1.307
 1614SOL     OW 5740   6.238   3.739   0.374
 1614SOL    HW1 5741   6.306   3.676   0.337
 1614SOL    HW2 5742   6.200   3.795   0.301
 1615SOL     OW 5743   6.437   5.156   0.659
 1615SOL    HW1 5744   6.447   5.178   0.562
 1615SOL    HW2 5745   6.413   5.238   0.710
 1616SOL     OW 5746   3.534   2.086   4.817
 1616SOL    HW1 5747   3.521   1.999   4.769
 1616SOL    HW2 5748   3.447   2.135   4.818
 1617SOL     OW 5749   6.115   0.354   1.710
 1617SOL    HW1 5750   6.072   0.442   1.732
 1617SOL    HW2 5751   6.068   0.314   1.631
 1618SOL     OW 5752   1.084   3.552   1.469
 1618SOL    HW1 5753   1.041   3.471   1.507
 1618SOL    HW2 5754   1.014   3.616   1.437
 1619SOL     OW 5755   0.840   2.312   3.085
 1619SOL    HW1 5756   0.790   2.233   3.049
 1619SOL    HW2 5757   0.921   2.328   3.029
 1620SOL     OW 5758   2.520   5.519   1.177
 1620SOL    HW1 5759   2.589   5.591   1.165
 1620SOL    HW2 5760   2.511   5.498   1.274
 1621SOL     OW 5761   0.944   1.127   0.265
 1621SOL    HW1 5762   1.033   1.172   0.267
 1621SOL    HW2 5763   0.876   1.187   0.224
 1622SOL     OW 5764   0.470   2.379   4.870
 1622SOL    HW1 5765   0.457   2.409   4.965
 1622SOL    HW2 5766   0.541   2.434   4.827
 1623SOL     OW 5767   2.321   3.533   5.356
 1623SOL    HW1 5768   2.420   3.517   5.360
 1623SOL    HW2 5769   2.283   3.529   5.448
 1624SOL     OW 5770   2.979   1.135   5.301
 1624SOL    HW1 5771   2.981   1.231   5.272
 1624SOL    HW2 5772   2.984   1.076   5.220
 1625SOL     OW 5773   1.192   5.164   1.613
 1625SOL    HW1 5774   1.123   5.155   1.685
 1625SOL    HW2 5775   1.245   5.247   1.627
 1626SOL     OW 5776   3.462   2.242   6.578
 1626SOL    HW1 5777   3.421   2.205   6.494
 1626SOL    HW2 5778   3.400   2.227   6.655
 1627SOL     OW 5779   6.474   2.686   3.669
 1627SOL    HW1 5780   6.570   2.706   3.686
 1627SOL    HW2 5781   6.448   2.601   3.715
 1628SOL     OW 5782   4.344   4.949   6.899
 1628SOL    HW1 5783   4.245   4.948   6.885
 1628SOL    HW2 5784   4.375   5.044   6.909
 1629SOL     OW 5785   2.971   1.620   4.092
 1629SOL    HW1 5786   2.921   1.535   4.106
 1629SOL    HW2 5787   3.011   1.621   4.000
 1630SOL     OW 5788   1.382   6.365   5.805
 1630SOL    HW1 5789   1.348   6.366   5.710
 1630SOL    HW2 5790   1.477   6.395   5.806
 1631SOL     OW 5791   0.314   1.904   6.391
 1631SOL    HW1 5792   0.302   1.857   6.304
 1631SOL    HW2 5793   0.387   1.972   6.382
 1632SOL     OW 5794   0.198   1.640   0.342
 1632SOL    HW1 5795   0.115   1.670   0.388
 1632SOL    HW2 5796   0.262   1.604   0.410
 1633SOL     OW 5797   4.872   2.419   3.943
 1633SOL    HW1 5798   4.913   2.331   3.965
 1633SOL    HW2 5799   4.785   2.404   3.895
 1634SOL     OW 5800   3.989   4.575   6.072
 1634SOL    HW1 5801   4.031   4.599   6.160
 1634SOL    HW2 5802   3.890   4.569   6.083
 1635SOL     OW 5803   6.761   5.488   5.654
 1635SOL    HW1 5804   6.837   5.465   5.715
 1635SOL    HW2 5805   6.762   5.427   5.575
 1636SOL     OW 5806   2.214   3.934   1.460
 1636SOL    HW1 5807   2.294   3.995   1.456
 1636SOL    HW2 5808   2.210   3.879   1.377
 1637SOL     OW 5809   0.222   0.302   3.065
 1637SOL    HW1 5810   0.259   0.251   3.143
 1637SOL    HW2 5811   0.297   0.337   3.010
 1638SOL     OW 5812   0.482   4.378   3.730
 1638SOL    HW1 5813   0.485   4.285   3.694
 1638SOL    HW2 5814   0.555   4.432   3.687
 1639SOL     OW 5815   3.976   6.758   3.057
 1639SOL    HW1 5816   3.935   6.677   3.098
 1639SOL    HW2 5817   4.066   6.735   3.019
 1640SOL     OW 5818   5.711   1.339   0.878
 1640SOL    HW1 5819   5.797   1.295   0.851
 1640SOL    HW2 5820   5.729   1.413   0.941
 1641SOL     OW 5821   5.558   2.701   4.087
 1641SOL    HW1 5822   5.629   2.637   4.056
 1641SOL    HW2 5823   5.469   2.655   4.085
 1642SOL     OW 5824   5.691   3.418   6.774
 1642SOL    HW1 5825   5.714   3.514   6.762
 1642SOL    HW2 5826   5.607   3.410   6.827
 1643SOL     OW 5827   3.113   4.938   3.895
 1643SOL    HW1 5828   3.195   4.949   3.951
 1643SOL    HW2 5829   3.139   4.922   3.800
 1644SOL     OW 5830   0.778   3.183   1.233
 1644SOL    HW1 5831   0.855   3.140   1.186
 1644SOL    HW2 5832   0.774   3.280   1.210
 1645SOL     OW 5833   2.846   6.550   5.618
 1645SOL    HW1 5834   2.830   6.452   5.624
 1645SOL    HW2 5835   2.761   6.596   5.593
 1646SOL     OW 5836   2.071   6.963   0.880
 1646SOL    HW1 5837   2.065   6.864   0.887
 1646SOL    HW2 5838   2.089   6.989   0.785
 1647SOL     OW 5839   6.060   2.683   4.361
 1647SOL    HW1 5840   6.101   2.593   4.353
 1647SOL    HW2 5841   5.961   2.676   4.348
 1648SOL     OW 5842   6.033   5.818   1.004
 1648SOL    HW1 5843   6.023   5.719   0.999
 1648SOL    HW2 5844   6.110   5.847   0.948
 1649SOL     OW 5845   4.239   7.010   3.976
 1649SOL    HW1 5846   4.320   0.036   4.018
 1649SOL    HW2 5847   4.239   6.911   3.992
 1650SOL     OW 5848   1.801   0.124   4.821
 1650SOL    HW1 5849   1.774   0.051   4.758
 1650SOL    HW2 5850   1.725   0.188   4.832
 1651SOL     OW 5851   0.619   0.696   1.816
 1651SOL    HW1 5852   0.551   0.768   1.800
 1651SOL    HW2 5853   0.696   0.709   1.754
 1652SOL     OW 5854   1.916   3.412   1.520
 1652SOL    HW1 5855   1.986   3.430   1.588
 1652SOL    HW2 5856   1.828   3.396   1.566
 1653SOL     OW 5857   0.522   6.843   1.236
 1653SOL    HW1 5858   0.464   6.910   1.190
 1653SOL    HW2 5859   0.551   6.879   1.324
 1654SOL     OW 5860   6.258   2.890   2.147
 1654SOL    HW1 5861   6.350   2.850   2.143
 1654SOL    HW2 5862   6.220   2.896   2.055
 1655SOL     OW 5863   5.894   2.666   4.766
 1655SOL    HW1 5864   5.917   2.761   4.790
 1655SOL    HW2 5865   5.969   2.627   4.712
 1656SOL     OW 5866   1.870   4.468   2.677
 1656SOL    HW1 5867   1.866   4.369   2.691
 1656SOL    HW2 5868   1.806   4.494   2.604
 1657SOL     OW 5869   6.907   0.737   4.500
 1657SOL    HW1 5870   6.861   0.783   4.576
 1657SOL    HW2 5871   6.993   0.697   4.533
 1658SOL     OW 5872   0.904   0.387   2.212
 1658SOL    HW1 5873   0.856   0.333   2.142
 1658SOL    HW2 5874   0.884   0.350   2.302
 1659SOL     OW 5875   4.031   1.198   5.767
 1659SOL    HW1 5876   4.077   1.150   5.841
 1659SOL    HW2 5877   4.038   1.297   5.783
 1660SOL     OW 5878   1.100   4.920   3.943
 1660SOL    HW1 5879   1.070   5.014   3.925
 1660SOL    HW2 5880   1.182   4.921   4.000
 1661SOL     OW 5881   3.045   1.375   1.981
 1661SOL    HW1 5882   2.993   1.420   2.054
 1661SOL    HW2 5883   3.124   1.430   1.958
 1662SOL     OW 5884   6.673   1.008   4.402
 1662SOL    HW1 5885   6.709   1.100   4.414
 1662SOL    HW2 5886   6.695   0.974   4.311
 1663SOL     OW 5887   3.109   0.621   2.903
 1663SOL    HW1 5888   3.160   0.597   2.821
 1663SOL    HW2 5889   3.164   0.680   2.961
 1664SOL     OW 5890   2.263   0.018   3.706
 1664SOL    HW1 5891   2.232   0.017   3.801
 1664SOL    HW2 5892   2.192   0.061   3.649
 1665SOL     OW 5893   0.014   1.289   2.693
 1665SOL    HW1 5894   0.085   1.229   2.728
 1665SOL    HW2 5895   0.008   1.279   2.593
 1666SOL     OW 5896   5.135   3.197   0.600
 1666SOL    HW1 5897   5.221   3.242   0.578
 1666SOL    HW2 5898   5.109   3.135   0.526
 1667SOL     OW 5899   5.982   6.888   1.172
 1667SOL    HW1 5900   5.944   6.796   1.169
 1667SOL    HW2 5901   5.920   6.952   1.126
 1668SOL     OW 5902   5.264   5.704   5.358
 1668SOL    HW1 5903   5.360   5.676   5.349
 1668SOL    HW2 5904   5.208   5.655   5.291
 1669SOL     OW 5905   6.162   6.486   6.808
 1669SOL    HW1 5906   6.154   6.405   6.867
 1669SOL    HW2 5907   6.226   6.551   6.849
 1670SOL     OW 5908   6.999   4.978   6.474
 1670SOL    HW1 5909   6.970   4.895   6.427
 1670SOL    HW2 5910   6.957   4.981   6.565
 1671SOL     OW 5911   4.529   2.710   1.058
 1671SOL    HW1 5912   4.567   2.699   0.966
 1671SOL    HW2 5913   4.429   2.709   1.053
 1672SOL     OW 5914   1.998   3.892   2.068
 1672SOL    HW1 5915   2.094   3.903   2.044
 1672SOL    HW2 5916   1.941   3.933   1.996
 1673SOL     OW 5917   6.832   1.949   4.768
 1673SOL    HW1 5918   6.909   2.001   4.731
 1673SOL    HW2 5919   6.847   1.851   4.749
 1674SOL     OW 5920   0.537   4.145   2.271
 1674SOL    HW1 5921   0.581   4.070   2.222
 1674SOL    HW2 5922   0.597   4.175   2.346
 1675SOL     OW 5923   4.471   0.511   5.958
 1675SOL    HW1 5924   4.444   0.552   5.870
 1675SOL    HW2 5925   4.441   0.416   5.961
 1676SOL     OW 5926   3.130   0.990   2.110
 1676SOL    HW1 5927   3.044   0.995   2.162
 1676SOL    HW2 5928   3.112   1.015   2.015
 1677SOL     OW 5929   4.041   2.942   5.348
 1677SOL    HW1 5930   3.990   2.878   5.291
 1677SOL    HW2 5931   3.978   2.995   5.404
 1678SOL     OW 5932   4.669   4.596   5.233
 1678SOL    HW1 5933   4.692   4.686   5.272
 1678SOL    HW2 5934   4.746   4.533   5.248
 1679SOL     OW 5935   2.086   3.327   5.020
 1679SOL    HW1 5936   2.095   3.262   4.944
 1679SOL    HW2 5937   2.160   3.311   5.086
 1680SOL     OW 5938   0.825   2.275   4.359
 1680SOL    HW1 5939   0.869   2.187   4.378
 1680SOL    HW2 5940   0.835   2.297   4.262
 1681SOL     OW 5941   6.479   5.919   1.438
 1681SOL    HW1 5942   6.389   5.889   1.469
 1681SOL    HW2 5943   6.475   6.016   1.414
 1682SOL     OW 5944   0.085   2.488   4.785
 1682SOL    HW1 5945   0.128   2.400   4.808
 1682SOL    HW2 5946   0.110   2.556   4.855
 1683SOL     OW 5947   4.118   5.663   0.975
 1683SOL    HW1 5948   4.207   5.636   0.936
 1683SOL    HW2 5949   4.072   5.582   1.011
 1684SOL     OW 5950   0.989   6.206   2.805
 1684SOL    HW1 5951   1.085   6.188   2.829
 1684SOL    HW2 5952   0.951   6.126   2.760
 1685SOL     OW 5953   2.531   1.175   6.233
 1685SOL    HW1 5954   2.505   1.168   6.137
 1685SOL    HW2 5955   2.606   1.112   6.252
 1686SOL     OW 5956   1.977   4.811   5.226
 1686SOL    HW1 5957   1.924   4.865   5.291
 1686SOL    HW2 5958   1.973   4.715   5.252
 1687SOL     OW 5959   2.328   2.763   1.057
 1687SOL    HW1 5960   2.426   2.780   1.067
 1687SOL    HW2 5961   2.289   2.829   0.992
 1688SOL     OW 5962   1.641   2.614   3.888
 1688SOL    HW1 5963   1.686   2.537   3.933
 1688SOL    HW2 5964   1.665   2.615   3.791
 1689SOL     OW 5965   4.293   0.775   1.774
 1689SOL    HW1 5966   4.381   0.730   1.762
 1689SOL    HW2 5967   4.283   0.848   1.706
 1690SOL     OW 5968   1.220   3.207   3.449
 1690SOL    HW1 5969   1.304   3.227   3.498
 1690SOL    HW2 5970   1.145   3.196   3.515
 1691SOL     OW 5971   5.380   3.705   3.451
 1691SOL    HW1 5972   5.421   3.618   3.425
 1691SOL    HW2 5973   5.367   3.707   3.551
 1692SOL     OW 5974   6.395   0.630   1.437
 1692SOL    HW1 5975   6.343   0.671   1.362
 1692SOL    HW2 5976   6.408   0.533   1.418
 1693SOL     OW 5977   0.303   2.013   2.835
 1693SOL    HW1 5978   0.352   1.954   2.899
 1693SOL    HW2 5979   0.294   1.967   2.747
 1694SOL     OW 5980   5.183   0.618   3.693
 1694SOL    HW1 5981   5.272   0.586   3.663
 1694SOL    HW2 5982   5.186   0.638   3.791
 1695SOL     OW 5983   2.470   1.460   5.783
 1695SOL    HW1 5984   2.561   1.473   5.742
 1695SOL    HW2 5985   2.400   1.488   5.718
 1696SOL     OW 5986   4.963   4.974   0.583
 1696SOL    HW1 5987   4.928   4.942   0.495
 1696SOL    HW2 5988   4.908   4.935   0.657
 1697SOL     OW 5989   5.491   6.147   2.127
 1697SOL    HW1 5990   5.455   6.105   2.043
 1697SOL    HW2 5991   5.589   6.163   2.116
 1698SOL     OW 5992   4.730   0.620   0.848
 1698SOL    HW1 5993   4.710   0.697   0.908
 1698SOL    HW2 5994   4.648   0.563   0.839
 1699SOL     OW 5995   3.032   1.408   1.506
 1699SOL    HW1 5996   3.092   1.470   1.556
 1699SOL    HW2 5997   2.983   1.457   1.435
 1700SOL     OW 5998   6.307   2.223   3.479
 1700SOL    HW1 5999   6.362   2.303   3.499
 1700SOL    HW2 6000   6.237   2.212   3.549
 1701SOL     OW 6001   5.087   3.263   5.315
 1701SOL    HW1 6002   5.064   3.167   5.302
 1701SOL    HW2 6003   5.137   3.275   5.400
 1702SOL     OW 6004   0.018   3.088   0.811
 1702SOL    HW1 6005   0.057   3.178   0.791
 1702SOL    HW2 6006   0.091   3.024   0.835
 1703SOL     OW 6007   3.773   3.515   3.119
 1703SOL    HW1 6008   3.804   3.477   3.032
 1703SOL    HW2 6009   3.731   3.442   3.173
 1704SOL     OW 6010   0.522   1.213   2.030
 1704SOL    HW1 6011   0.551   1.126   2.072
 1704SOL    HW2 6012   0.563   1.221   1.939
 1705SOL     OW 6013   3.513   2.142   1.742
 1705SOL    HW1 6014   3.596   2.193   1.761
 1705SOL    HW2 6015   3.523   2.048   1.774
 1706SOL     OW 6016   4.569   0.497   1.566
 1706SOL    HW1 6017   4.612   0.560   1.502
 1706SOL    HW2 6018   4.554   0.409   1.521
 1707SOL     OW 6019   4.637   1.939   3.158
 1707SOL    HW1 6020   4.717   1.919   3.102
 1707SOL    HW2 6021   4.634   1.875   3.235
 1708SOL     OW 6022   4.379   5.098   2.173
 1708SOL    HW1 6023   4.285   5.089   2.208
 1708SOL    HW2 6024   4.401   5.018   2.118
 1709SOL     OW 6025   2.737   5.942   1.639
 1709SOL    HW1 6026   2.805   5.876   1.607
 1709SOL    HW2 6027   2.645   5.908   1.620
 1710SOL     OW 6028   5.570   4.639   3.721
 1710SOL    HW1 6029   5.477   4.616   3.692
 1710SOL    HW2 6030   5.632   4.631   3.644
 1711SOL     OW 6031   1.319   4.236   4.700
 1711SOL    HW1 6032   1.332   4.311   4.765
 1711SOL    HW2 6033   1.406   4.188   4.687
 1712SOL     OW 6034   0.928   2.640   6.565
 1712SOL    HW1 6035   0.909   2.579   6.488
 1712SOL    HW2 6036   0.969   2.724   6.532
 1713SOL     OW 6037   3.693   2.550   1.306
 1713SOL    HW1 6038   3.770   2.567   1.246
 1713SOL    HW2 6039   3.687   2.452   1.326
 1714SOL     OW 6040   4.575   1.592   5.852
 1714SOL    HW1 6041   4.526   1.652   5.789
 1714SOL    HW2 6042   4.644   1.644   5.901
 1715SOL     OW 6043   6.634   3.830   2.446
 1715SOL    HW1 6044   6.629   3.841   2.545
 1715SOL    HW2 6045   6.552   3.870   2.404
 1716SOL     OW 6046   4.937   6.770   2.156
 1716SOL    HW1 6047   4.991   6.819   2.225
 1716SOL    HW2 6048   4.844   6.807   2.155
 1717SOL     OW 6049   2.042   6.992   6.199
 1717SOL    HW1 6050   2.020   6.903   6.239
 1717SOL    HW2 6051   2.141   7.001   6.190
 1718SOL     OW 6052   2.056   1.988   1.426
 1718SOL    HW1 6053   2.133   2.050   1.409
 1718SOL    HW2 6054   2.048   1.972   1.524
 1719SOL     OW 6055   2.401   4.156   1.052
 1719SOL    HW1 6056   2.434   4.099   1.127
 1719SOL    HW2 6057   2.303   4.139   1.039
 1720SOL     OW 6058   6.637   1.386   0.889
 1720SOL    HW1 6059   6.711   1.441   0.850
 1720SOL    HW2 6060   6.674   1.330   0.963
 1721SOL     OW 6061   0.851   6.567   3.115
 1721SOL    HW1 6062   0.928   6.572   3.179
 1721SOL    HW2 6063   0.833   6.472   3.092
 1722SOL     OW 6064   4.644   1.826   3.771
 1722SOL    HW1 6065   4.620   1.865   3.860
 1722SOL    HW2 6066   4.649   1.726   3.778
 1723SOL     OW 6067   6.446   2.590   2.909
 1723SOL    HW1 6068   6.387   2.559   2.984
 1723SOL    HW2 6069   6.400   2.573   2.822
 1724SOL     OW 6070   6.137   1.829   0.887
 1724SOL    HW1 6071   6.062   1.864   0.831
 1724SOL    HW2 6072   6.101   1.765   0.955
 1725SOL     OW 6073   2.746   4.946   0.122
 1725SOL    HW1 6074   2.681   5.022   0.126
 1725SOL    HW2 6075   2.834   4.979   0.089
 1726SOL     OW 6076   5.601   3.892   5.300
 1726SOL    HW1 6077   5.503   3.870   5.308
 1726SOL    HW2 6078   5.647   3.821   5.246
 1727SOL     OW 6079   3.657   2.928   4.536
 1727SOL    HW1 6080   3.705   2.949   4.621
 1727SOL    HW2 6081   3.621   3.012   4.495
 1728SOL     OW 6082   6.184   5.126   4.713
 1728SOL    HW1 6083   6.116   5.134   4.786
 1728SOL    HW2 6084   6.140   5.140   4.625
 1729SOL     OW 6085   2.131   3.928   3.549
 1729SOL    HW1 6086   2.161   3.913   3.455
 1729SOL    HW2 6087   2.070   4.007   3.553
 1730SOL     OW 6088   6.412   0.071   5.072
 1730SOL    HW1 6089   6.419   0.170   5.079
 1730SOL    HW2 6090   6.322   0.041   5.101
 1731SOL     OW 6091   0.725   5.396   1.861
 1731SOL    HW1 6092   0.732   5.403   1.961
 1731SOL    HW2 6093   0.636   5.431   1.832
 1732SOL     OW 6094   2.210   4.351   5.627
 1732SOL    HW1 6095   2.301   4.387   5.607
 1732SOL    HW2 6096   2.174   4.304   5.546
 1733SOL     OW 6097   1.266   3.684   2.497
 1733SOL    HW1 6098   1.237   3.780   2.506
 1733SOL    HW2 6099   1.252   3.637   2.584
 1734SOL     OW 6100   4.829   3.260   1.877
 1734SOL    HW1 6101   4.919   3.236   1.841
 1734SOL    HW2 6102   4.786   3.178   1.917
 1735SOL     OW 6103   6.143   5.828   1.328
 1735SOL    HW1 6104   6.179   5.771   1.402
 1735SOL    HW2 6105   6.159   5.783   1.240
 1736SOL     OW 6106   4.168   2.109   1.509
 1736SOL    HW1 6107   4.114   2.085   1.589
 1736SOL    HW2 6108   4.108   2.129   1.432
 1737SOL     OW 6109   3.045   1.483   4.441
 1737SOL    HW1 6110   3.096   1.568   4.450
 1737SOL    HW2 6111   3.094   1.420   4.382
 1738SOL     OW 6112   2.143   1.531   3.657
 1738SOL    HW1 6113   2.051   1.526   3.696
 1738SOL    HW2 6114   2.137   1.550   3.559
 1739SOL     OW 6115   5.253   2.316   5.501
 1739SOL    HW1 6116   5.332   2.256   5.507
 1739SOL    HW2 6117   5.273   2.401   5.550
 1740SOL     OW 6118   0.550   2.056   6.361
 1740SOL    HW1 6119   0.574   2.044   6.265
 1740SOL    HW2 6120   0.492   2.137   6.372
 1741SOL     OW 6121   2.425   0.616   3.939
 1741SOL    HW1 6122   2.387   0.702   3.905
 1741SOL    HW2 6123   2.510   0.634   3.990
 1742SOL     OW 6124   4.551   6.202   6.156
 1742SOL    HW1 6125   4.535   6.194   6.254
 1742SOL    HW2 6126   4.464   6.225   6.110
 1743SOL     OW 6127   2.187   1.969   2.231
 1743SOL    HW1 6128   2.246   2.044   2.201
 1743SOL    HW2 6129   2.125   1.944   2.157
 1744SOL     OW 6130   0.610   0.472   1.357
 1744SOL    HW1 6131   0.633   0.376   1.347
 1744SOL    HW2 6132   0.665   0.512   1.430
 1745SOL     OW 6133   6.653   0.248   3.964
 1745SOL    HW1 6134   6.647   0.152   3.938
 1745SOL    HW2 6135   6.749   0.275   3.971
 1746SOL     OW 6136   2.198   5.207   5.375
 1746SOL    HW1 6137   2.176   5.144   5.301
 1746SOL    HW2 6138   2.265   5.274   5.343
 1747SOL     OW 6139   5.655   1.186   3.036
 1747SOL    HW1 6140   5.576   1.126   3.052
 1747SOL    HW2 6141   5.690   1.170   2.944
 1748SOL     OW 6142   0.483   1.030   3.626
 1748SOL    HW1 6143   0.487   1.130   3.625
 1748SOL    HW2 6144   0.396   0.999   3.588
 1749SOL     OW 6145   2.867   6.768   5.290
 1749SOL    HW1 6146   2.859   6.763   5.390
 1749SOL    HW2 6147   2.808   6.841   5.255
 1750SOL     OW 6148   6.571   0.019   3.364
 1750SOL    HW1 6149   6.503   0.046   3.295
 1750SOL    HW2 6150   6.623   0.100   3.393
 1751SOL     OW 6151   3.930   6.264   4.953
 1751SOL    HW1 6152   3.923   6.190   4.886
 1751SOL    HW2 6153   3.854   6.258   5.018
 1752SOL     OW 6154   6.995   2.273   2.721
 1752SOL    HW1 6155   7.008   2.196   2.784
 1752SOL    HW2 6156   6.950   2.348   2.768
 1753SOL     OW 6157   0.092   2.639   1.117
 1753SOL    HW1 6158   0.155   2.596   1.181
 1753SOL    HW2 6159   7.014   2.634   1.152
 1754SOL     OW 6160   3.481   3.478   1.353
 1754SOL    HW1 6161   3.549   3.544   1.320
 1754SOL    HW2 6162   3.526   3.404   1.402
 1755SOL     OW 6163   5.792   5.777   2.721
 1755SOL    HW1 6164   5.803   5.697   2.663
 1755SOL    HW2 6165   5.710   5.827   2.694
 1756SOL     OW 6166   4.225   4.231   6.221
 1756SOL    HW1 6167   4.287   4.199   6.149
 1756SOL    HW2 6168   4.141   4.266   6.179
 1757SOL     OW 6169   2.594   5.150   4.863
 1757SOL    HW1 6170   2.560   5.235   4.902
 1757SOL    HW2 6171   2.516   5.093   4.836
 1758SOL     OW 6172   2.879   0.664   4.000
 1758SOL    HW1 6173   2.950   0.730   3.977
 1758SOL    HW2 6174   2.883   0.587   3.936
 1759SOL     OW 6175   1.011   4.635   5.627
 1759SOL    HW1 6176   0.967   4.725   5.623
 1759SOL    HW2 6177   1.107   4.642   5.601
 1760SOL     OW 6178   6.447   1.899   1.530
 1760SOL    HW1 6179   6.439   1.889   1.431
 1760SOL    HW2 6180   6.384   1.836   1.575
 1761SOL     OW 6181   0.263   0.576   0.670
 1761SOL    HW1 6182   0.344   0.518   0.679
 1761SOL    HW2 6183   0.198   0.555   0.743
 1762SOL     OW 6184   6.671   1.719   4.928
 1762SOL    HW1 6185   6.701   1.723   5.023
 1762SOL    HW2 6186   6.751   1.707   4.869
 1763SOL     OW 6187   2.001   3.764   4.040
 1763SOL    HW1 6188   1.969   3.702   3.968
 1763SOL    HW2 6189   1.922   3.807   4.083
 1764SOL     OW 6190   1.967   3.900   2.652
 1764SOL    HW1 6191   1.869   3.911   2.667
 1764SOL    HW2 6192   1.985   3.888   2.555
 1765SOL     OW 6193   3.842   1.988   6.843
 1765SOL    HW1 6194   3.937   1.988   6.811
 1765SOL    HW2 6195   3.781   1.999   6.764
 1766SOL     OW 6196   5.252   3.457   3.458
 1766SOL    HW1 6197   5.195   3.380   3.431
 1766SOL    HW2 6198   5.195   3.538   3.472
 1767SOL     OW 6199   6.420   3.883   3.074
 1767SOL    HW1 6200   6.518   3.900   3.089
 1767SOL    HW2 6201   6.375   3.868   3.163
 1768SOL     OW 6202   3.431   1.202   4.600
 1768SOL    HW1 6203   3.393   1.293   4.614
 1768SOL    HW2 6204   3.510   1.207   4.539
 1769SOL     OW 6205   4.160   2.208   5.116
 1769SOL    HW1 6206   4.190   2.301   5.094
 1769SOL    HW2 6207   4.068   2.193   5.081
 1770SOL     OW 6208   0.215   5.285   4.830
 1770SOL    HW1 6209   0.172   5.368   4.866
 1770SOL    HW2 6210   0.232   5.296   4.732
 1771SOL     OW 6211   2.331   5.329   6.744
 1771SOL    HW1 6212   2.319   5.417   6.789
 1771SOL    HW2 6213   2.410   5.334   6.682
 1772SOL     OW 6214   2.885   6.623   3.415
 1772SOL    HW1 6215   2.931   6.708   3.441
 1772SOL    HW2 6216   2.839   6.585   3.495
 1773SOL     OW 6217   2.866   4.927   6.280
 1773SOL    HW1 6218   2.888   4.893   6.372
 1773SOL    HW2 6219   2.767   4.932   6.270
 1774SOL     OW 6220   4.425   0.064   1.935
 1774SOL    HW1 6221   4.343   0.040   1.988
 1774SOL    HW2 6222   4.412   0.154   1.894
 1775SOL     OW 6223   1.166   4.468   3.922
 1775SOL    HW1 6224   1.076   4.508   3.940
 1775SOL    HW2 6225   1.206   4.511   3.841
 1776SOL     OW 6226   3.570   0.358   4.489
 1776SOL    HW1 6227   3.526   0.447   4.473
 1776SOL    HW2 6228   3.669   0.369   4.488
 1777SOL     OW 6229   3.358   4.887   5.951
 1777SOL    HW1 6230   3.263   4.858   5.966
 1777SOL    HW2 6231   3.379   4.966   6.009
 1778SOL     OW 6232   4.891   2.695   5.810
 1778SOL    HW1 6233   4.901   2.787   5.770
 1778SOL    HW2 6234   4.841   2.637   5.746
 1779SOL     OW 6235   4.492   1.098   4.667
 1779SOL    HW1 6236   4.549   1.150   4.731
 1779SOL    HW2 6237   4.443   1.162   4.608
 1780SOL     OW 6238   2.714   3.248   5.982
 1780SOL    HW1 6239   2.617   3.232   5.963
 1780SOL    HW2 6240   2.768   3.224   5.901
 1781SOL     OW 6241   4.442   5.833   3.982
 1781SOL    HW1 6242   4.377   5.891   4.030
 1781SOL    HW2 6243   4.431   5.738   4.012
 1782SOL     OW 6244   2.704   2.025   2.642
 1782SOL    HW1 6245   2.712   1.953   2.710
 1782SOL    HW2 6246   2.782   2.088   2.650
 1783SOL     OW 6247   1.060   4.170   6.238
 1783SOL    HW1 6248   1.093   4.238   6.303
 1783SOL    HW2 6249   1.059   4.080   6.282
 1784SOL     OW 6250   3.528   1.491   4.802
 1784SOL    HW1 6251   3.590   1.569   4.801
 1784SOL    HW2 6252   3.497   1.472   4.709
 1785SOL     OW 6253   6.148   5.411   3.906
 1785SOL    HW1 6254   6.061   5.459   3.921
 1785SOL    HW2 6255   6.219   5.453   3.962
 1786SOL     OW 6256   1.213   2.665   1.278
 1786SOL    HW1 6257   1.191   2.708   1.366
 1786SOL    HW2 6258   1.131   2.623   1.240
 1787SOL     OW 6259   2.471   0.661   4.807
 1787SOL    HW1 6260   2.565   0.627   4.808
 1787SOL    HW2 6261   2.464   0.736   4.740
 1788SOL     OW 6262   3.491   2.681   0.102
 1788SOL    HW1 6263   3.553   2.714   0.173
 1788SOL    HW2 6264   3.539   2.680   0.014
 1789SOL     OW 6265   6.062   1.417   2.643
 1789SOL    HW1 6266   6.048   1.379   2.552
 1789SOL    HW2 6267   5.981   1.468   2.671
 1790SOL     OW 6268   4.229   6.727   4.028
 1790SOL    HW1 6269   4.293   6.683   4.092
 1790SOL    HW2 6270   4.144   6.749   4.076
 1791SOL     OW 6271   6.839   1.274   3.857
 1791SOL    HW1 6272   6.927   1.227   3.864
 1791SOL    HW2 6273   6.854   1.372   3.845
 1792SOL     OW 6274   0.318   2.582   4.127
 1792SOL    HW1 6275   0.355   2.595   4.035
 1792SOL    HW2 6276   0.390   2.545   4.186
 1793SOL     OW 6277   0.136   0.003   3.500
 1793SOL    HW1 6278   0.115   0.089   3.453
 1793SOL    HW2 6279   0.068   6.949   3.474
 1794SOL     OW 6280   6.136   6.103   6.040
 1794SOL    HW1 6281   6.229   6.134   6.058
 1794SOL    HW2 6282   6.071   6.166   6.083
 1795SOL     OW 6283   6.809   2.931   2.060
 1795SOL    HW1 6284   6.826   2.934   2.159
 1795SOL    HW2 6285   6.859   2.854   2.020
 1796SOL     OW 6286   2.620   0.641   4.401
 1796SOL    HW1 6287   2.680   0.718   4.423
 1796SOL    HW2 6288   2.638   0.612   4.307
 1797SOL     OW 6289   1.126   0.604   6.551
 1797SOL    HW1 6290   1.132   0.675   6.621
 1797SOL    HW2 6291   1.107   0.516   6.595
 1798SOL     OW 6292   5.206   2.152   4.481
 1798SOL    HW1 6293   5.293   2.202   4.486
 1798SOL    HW2 6294   5.154   2.184   4.402
 1799SOL     OW 6295   6.267   2.040   6.168
 1799SOL    HW1 6296   6.306   1.997   6.249
 1799SOL    HW2 6297   6.334   2.101   6.126
 1800SOL     OW 6298   4.067   4.937   2.583
 1800SOL    HW1 6299   4.125   4.993   2.642
 1800SOL    HW2 6300   4.106   4.845   2.576
 1801SOL     OW 6301   0.312   0.495   1.993
 1801SOL    HW1 6302   0.397   0.464   1.951
 1801SOL    HW2 6303   0.257   0.545   1.926
 1802SOL     OW 6304   5.280   5.402   2.380
 1802SOL    HW1 6305   5.347   5.464   2.339
 1802SOL    HW2 6306   5.306   5.381   2.474
 1803SOL     OW 6307   6.952   5.991   0.002
 1803SOL    HW1 6308   6.934   6.060   0.072
 1803SOL    HW2 6309   6.973   5.904   0.047
 1804SOL     OW 6310   2.304   4.079   5.680
 1804SOL    HW1 6311   2.263   4.166   5.707
 1804SOL    HW2 6312   2.401   4.093   5.657
 1805SOL     OW 6313   6.603   3.654   5.411
 1805SOL    HW1 6314   6.538   3.683   5.481
 1805SOL    HW2 6315   6.685   3.710   5.415
 1806SOL     OW 6316   1.075   1.355   0.475
 1806SOL    HW1 6317   1.028   1.430   0.428
 1806SOL    HW2 6318   1.144   1.316   0.414
 1807SOL     OW 6319   5.078   2.550   5.953
 1807SOL    HW1 6320   5.032   2.539   6.041
 1807SOL    HW2 6321   5.016   2.596   5.889
 1808SOL     OW 6322   0.445   3.471   5.476
 1808SOL    HW1 6323   0.403   3.477   5.385
 1808SOL    HW2 6324   0.442   3.561   5.520
 1809SOL     OW 6325   1.871   3.078   4.512
 1809SOL    HW1 6326   1.887   3.174   4.488
 1809SOL    HW2 6327   1.860   3.070   4.611
 1810SOL     OW 6328   3.024   0.603   4.462
 1810SOL    HW1 6329   2.946   0.665   4.460
 1810SOL    HW2 6330   3.036   0.568   4.555
 1811SOL     OW 6331   4.449   4.578   3.577
 1811SOL    HW1 6332   4.480   4.524   3.656
 1811SOL    HW2 6333   4.483   4.536   3.493
 1812SOL     OW 6334   4.134   6.608   6.061
 1812SOL    HW1 6335   4.043   6.625   6.099
 1812SOL    HW2 6336   4.191   6.688   6.077
 1813SOL     OW 6337   5.556   5.048   0.458
 1813SOL    HW1 6338   5.539   5.146   0.450
 1813SOL    HW2 6339   5.509   5.013   0.539
 1814SOL     OW 6340   6.508   1.346   0.296
 1814SOL    HW1 6341   6.454   1.379   0.373
 1814SOL    HW2 6342   6.544   1.255   0.316
 1815SOL     OW 6343   5.983   2.557   1.817
 1815SOL    HW1 6344   5.961   2.536   1.721
 1815SOL    HW2 6345   6.034   2.481   1.857
 1816SOL     OW 6346   2.297   3.878   0.541
 1816SOL    HW1 6347   2.337   3.950   0.598
 1816SOL    HW2 6348   2.320   3.895   0.445
 1817SOL     OW 6349   3.209   6.546   3.096
 1817SOL    HW1 6350   3.111   6.527   3.095
 1817SOL    HW2 6351   3.245   6.541   3.002
 1818SOL     OW 6352   1.800   6.499   1.805
 1818SOL    HW1 6353   1.744   6.531   1.728
 1818SOL    HW2 6354   1.755   6.421   1.849
 1819SOL     OW 6355   0.149   5.154   1.675
 1819SOL    HW1 6356   0.236   5.124   1.713
 1819SOL    HW2 6357   0.074   5.123   1.733
 1820SOL     OW 6358   4.800   1.008   2.291
 1820SOL    HW1 6359   4.750   0.995   2.206
 1820SOL    HW2 6360   4.782   1.100   2.327
 1821SOL     OW 6361   2.466   0.602   1.505
 1821SOL    HW1 6362   2.407   0.630   1.582
 1821SOL    HW2 6363   2.427   0.521   1.461
 1822SOL     OW 6364   1.623   2.685   1.746
 1822SOL    HW1 6365   1.573   2.763   1.707
 1822SOL    HW2 6366   1.625   2.611   1.679
 1823SOL     OW 6367   2.573   5.571   3.551
 1823SOL    HW1 6368   2.662   5.531   3.532
 1823SOL    HW2 6369   2.581   5.671   3.552
 1824SOL     OW 6370   3.650   3.283   1.534
 1824SOL    HW1 6371   3.733   3.236   1.504
 1824SOL    HW2 6372   3.578   3.216   1.550
 1825SOL     OW 6373   1.207   1.597   4.013
 1825SOL    HW1 6374   1.253   1.605   3.924
 1825SOL    HW2 6375   1.212   1.684   4.062
 1826SOL     OW 6376   3.229   0.190   0.911
 1826SOL    HW1 6377   3.232   0.104   0.859
 1826SOL    HW2 6378   3.153   0.186   0.977
 1827SOL     OW 6379   6.927   6.024   1.870
 1827SOL    HW1 6380   6.974   6.055   1.788
 1827SOL    HW2 6381   6.978   5.950   1.913
 1828SOL     OW 6382   1.263   2.555   0.910
 1828SOL    HW1 6383   1.251   2.484   0.841
 1828SOL    HW2 6384   1.360   2.561   0.935
 1829SOL     OW 6385   3.074   0.459   3.599
 1829SOL    HW1 6386   3.169   0.429   3.594
 1829SOL    HW2 6387   3.066   0.534   3.665
 1830SOL     OW 6388   5.847   6.122   4.052
 1830SOL    HW1 6389   5.879   6.125   4.146
 1830SOL    HW2 6390   5.752   6.152   4.048
 1831SOL     OW 6391   6.002   0.523   2.114
 1831SOL    HW1 6392   6.002   0.428   2.146
 1831SOL    HW2 6393   6.047   0.581   2.183
 1832SOL     OW 6394   4.943   1.343   1.105
 1832SOL    HW1 6395   5.041   1.326   1.105
 1832SOL    HW2 6396   4.925   1.441   1.095
 1833SOL     OW 6397   5.230   0.527   6.322
 1833SOL    HW1 6398   5.299   0.570   6.263
 1833SOL    HW2 6399   5.275   0.458   6.380
 1834SOL     OW 6400   2.718   4.176   0.089
 1834SOL    HW1 6401   2.736   4.176   7.006
 1834SOL    HW2 6402   2.799   4.146   0.139
 1835SOL     OW 6403   0.055   3.904   2.227
 1835SOL    HW1 6404   0.135   3.848   2.245
 1835SOL    HW2 6405   7.005   3.895   2.302
 1836SOL     OW 6406   5.099   2.292   0.950
 1836SOL    HW1 6407   5.127   2.315   0.856
 1836SOL    HW2 6408   5.155   2.344   1.014
 1837SOL     OW 6409   1.178   1.829   4.690
 1837SOL    HW1 6410   1.229   1.746   4.667
 1837SOL    HW2 6411   1.234   1.909   4.667
 1838SOL     OW 6412   6.931   1.155   4.337
 1838SOL    HW1 6413   6.867   1.170   4.261
 1838SOL    HW2 6414   6.991   1.078   4.314
 1839SOL     OW 6415   5.470   2.573   5.142
 1839SOL    HW1 6416   5.384   2.522   5.140
 1839SOL    HW2 6417   5.473   2.636   5.065
 1840SOL     OW 6418   3.385   6.003   1.744
 1840SOL    HW1 6419   3.363   5.906   1.739
 1840SOL    HW2 6420   3.343   6.051   1.667
 1841SOL     OW 6421   2.393   1.143   3.643
 1841SOL    HW1 6422   2.404   1.152   3.544
 1841SOL    HW2 6423   2.442   1.063   3.675
 1842SOL     OW 6424   1.543   5.592   0.341
 1842SOL    HW1 6425   1.595   5.507   0.334
 1842SOL    HW2 6426   1.492   5.608   0.257
 1843SOL     OW 6427   6.535   2.257   3.652
 1843SOL    HW1 6428   6.613   2.254   3.714
 1843SOL    HW2 6429   6.552   2.326   3.581
 1844SOL     OW 6430   3.471   0.421   5.329
 1844SOL    HW1 6431   3.435   0.480   5.256
 1844SOL    HW2 6432   3.530   0.351   5.288
 1845SOL     OW 6433   2.156   6.831   5.114
 1845SOL    HW1 6434   2.106   6.764   5.168
 1845SOL    HW2 6435   2.101   6.913   5.102
 1846SOL     OW 6436   4.349   2.144   1.196
 1846SOL    HW1 6437   4.372   2.052   1.166
 1846SOL    HW2 6438   4.249   2.154   1.202
 1847SOL     OW 6439   1.462   0.824   6.154
 1847SOL    HW1 6440   1.458   0.775   6.241
 1847SOL    HW2 6441   1.375   0.812   6.106
 1848SOL     OW 6442   1.019   0.068   2.909
 1848SOL    HW1 6443   0.937   0.034   2.955
 1848SOL    HW2 6444   1.098   0.058   2.969
 1849SOL     OW 6445   3.696   2.459   0.700
 1849SOL    HW1 6446   3.769   2.479   0.635
 1849SOL    HW2 6447   3.731   2.402   0.774
 1850SOL     OW 6448   0.906   2.804   2.123
 1850SOL    HW1 6449   0.929   2.795   2.026
 1850SOL    HW2 6450   0.895   2.713   2.163
 1851SOL     OW 6451   0.257   3.066   1.233
 1851SOL    HW1 6452   0.245   3.152   1.283
 1851SOL    HW2 6453   0.354   3.042   1.232
 1852SOL     OW 6454   6.110   3.790   2.487
 1852SOL    HW1 6455   6.029   3.761   2.435
 1852SOL    HW2 6456   6.133   3.884   2.463
 1853SOL     OW 6457   0.284   3.133   2.919
 1853SOL    HW1 6458   0.227   3.176   2.850
 1853SOL    HW2 6459   0.226   3.092   2.990
 1854SOL     OW 6460   2.691   5.806   3.451
 1854SOL    HW1 6461   2.754   5.884   3.464
 1854SOL    HW2 6462   2.597   5.837   3.466
 1855SOL     OW 6463   5.656   3.428   6.108
 1855SOL    HW1 6464   5.707   3.506   6.146
 1855SOL    HW2 6465   5.647   3.357   6.178
 1856SOL     OW 6466   6.004   3.808   5.545
 1856SOL    HW1 6467   6.020   3.809   5.446
 1856SOL    HW2 6468   6.059   3.879   5.588
 1857SOL     OW 6469   4.266   1.310   5.376
 1857SOL    HW1 6470   4.177   1.337   5.337
 1857SOL    HW2 6471   4.252   1.235   5.441
 1858SOL     OW 6472   6.446   3.499   3.896
 1858SOL    HW1 6473   6.538   3.526   3.867
 1858SOL    HW2 6474   6.424   3.410   3.858
 1859SOL     OW 6475   4.899   1.823   3.004
 1859SOL    HW1 6476   4.995   1.805   2.983
 1859SOL    HW2 6477   4.846   1.824   2.919
 1860SOL     OW 6478   6.480   0.358   4.704
 1860SOL    HW1 6479   6.558   0.311   4.665
 1860SOL    HW2 6480   6.405   0.293   4.720
 1861SOL     OW 6481   5.966   0.558   1.811
 1861SOL    HW1 6482   5.873   0.524   1.804
 1861SOL    HW2 6483   5.981   0.599   1.901
 1862SOL     OW 6484   2.376   0.568   5.904
 1862SOL    HW1 6485   2.413   0.601   5.817
 1862SOL    HW2 6486   2.409   0.625   5.979
 1863SOL     OW 6487   1.472   2.190   2.197
 1863SOL    HW1 6488   1.418   2.150   2.271
 1863SOL    HW2 6489   1.543   2.126   2.169
 1864SOL     OW 6490   0.858   6.968   5.317
 1864SOL    HW1 6491   0.839   0.047   5.346
 1864SOL    HW2 6492   0.773   6.922   5.294
 1865SOL     OW 6493   3.658   6.679   6.189
 1865SOL    HW1 6494   3.606   6.743   6.246
 1865SOL    HW2 6495   3.660   6.589   6.233
 1866SOL     OW 6496   4.118   4.982   3.232
 1866SOL    HW1 6497   4.120   5.011   3.328
 1866SOL    HW2 6498   4.209   4.992   3.193
 1867SOL     OW 6499   0.197   4.141   6.850
 1867SOL    HW1 6500   0.198   4.048   6.887
 1867SOL    HW2 6501   0.288   4.164   6.816
 1868SOL     OW 6502   4.844   4.150   6.918
 1868SOL    HW1 6503   4.854   4.230   6.859
 1868SOL    HW2 6504   4.753   4.111   6.907
 1869SOL     OW 6505   6.275   2.846   5.617
 1869SOL    HW1 6506   6.340   2.913   5.581
 1869SOL    HW2 6507   6.311   2.807   5.702
 1870SOL     OW 6508   1.717   2.974   5.599
 1870SOL    HW1 6509   1.716   3.038   5.523
 1870SOL    HW2 6510   1.798   2.990   5.655
 1871SOL     OW 6511   0.403   0.578   0.438
 1871SOL    HW1 6512   0.478   0.517   0.461
 1871SOL    HW2 6513   0.354   0.604   0.521
 1872SOL     OW 6514   3.747   1.611   5.995
 1872SOL    HW1 6515   3.716   1.704   5.975
 1872SOL    HW2 6516   3.723   1.550   5.919
 1873SOL     OW 6517   5.331   1.749   5.733
 1873SOL    HW1 6518   5.419   1.788   5.705
 1873SOL    HW2 6519   5.297   1.796   5.814
 1874SOL     OW 6520   3.161   1.685   0.618
 1874SOL    HW1 6521   3.104   1.707   0.539
 1874SOL    HW2 6522   3.157   1.587   0.636
 1875SOL     OW 6523   0.211   0.810   0.286
 1875SOL    HW1 6524   0.298   0.805   0.237
 1875SOL    HW2 6525   0.221   0.768   0.376
 1876SOL     OW 6526   3.928   6.699   6.237
 1876SOL    HW1 6527   3.833   6.728   6.229
 1876SOL    HW2 6528   3.964   6.726   6.327
 1877SOL     OW 6529   0.402   6.962   2.418
 1877SOL    HW1 6530   0.478   0.012   2.415
 1877SOL    HW2 6531   0.407   6.900   2.339
 1878SOL     OW 6532   6.876   2.433   3.463
 1878SOL    HW1 6533   6.867   2.334   3.457
 1878SOL    HW2 6534   6.841   2.465   3.551
 1879SOL     OW 6535   1.465   4.529   3.918
 1879SOL    HW1 6536   1.419   4.475   3.989
 1879SOL    HW2 6537   1.564   4.515   3.926
 1880SOL     OW 6538   6.369   1.507   4.573
 1880SOL    HW1 6539   6.395   1.563   4.653
 1880SOL    HW2 6540   6.388   1.559   4.490
 1881SOL     OW 6541   5.829   2.338   2.881
 1881SOL    HW1 6542   5.846   2.273   2.808
 1881SOL    HW2 6543   5.741   2.320   2.924
 1882SOL     OW 6544   0.891   3.569   6.209
 1882SOL    HW1 6545   0.906   3.596   6.114
 1882SOL    HW2 6546   0.803   3.605   6.240
 1883SOL     OW 6547   0.626   2.201   4.014
 1883SOL    HW1 6548   0.680   2.255   3.949
 1883SOL    HW2 6549   0.661   2.217   4.106
 1884SOL     OW 6550   6.633   3.189   0.566
 1884SOL    HW1 6551   6.571   3.111   0.582
 1884SOL    HW2 6552   6.591   3.252   0.502
 1885SOL     OW 6553   1.713   2.190   6.578
 1885SOL    HW1 6554   1.810   2.184   6.599
 1885SOL    HW2 6555   1.663   2.220   6.660
 1886SOL     OW 6556   2.008   1.237   1.234
 1886SOL    HW1 6557   2.012   1.154   1.290
 1886SOL    HW2 6558   2.098   1.254   1.194
 1887SOL     OW 6559   1.452   5.860   5.112
 1887SOL    HW1 6560   1.391   5.820   5.043
 1887SOL    HW2 6561   1.404   5.866   5.199
 1888SOL     OW 6562   2.469   1.807   0.137
 1888SOL    HW1 6563   2.425   1.801   0.227
 1888SOL    HW2 6564   2.521   1.723   0.120
 1889SOL     OW 6565   0.520   2.918   5.963
 1889SOL    HW1 6566   0.520   2.919   5.863
 1889SOL    HW2 6567   0.615   2.920   5.996
 1890SOL     OW 6568   1.923   6.391   4.295
 1890SOL    HW1 6569   1.950   6.340   4.213
 1890SOL    HW2 6570   1.892   6.327   4.365
 1891SOL     OW 6571   5.373   2.128   1.844
 1891SOL    HW1 6572   5.309   2.195   1.881
 1891SOL    HW2 6573   5.465   2.147   1.877
 1892SOL     OW 6574   2.727   0.807   2.635
 1892SOL    HW1 6575   2.804   0.796   2.697
 1892SOL    HW2 6576   2.646   0.763   2.674
 1893SOL     OW 6577   3.567   3.089   6.979
 1893SOL    HW1 6578   3.483   3.037   6.993
 1893SOL    HW2 6579   3.553   3.155   6.906
 1894SOL     OW 6580   3.521   4.171   4.057
 1894SOL    HW1 6581   3.578   4.186   4.138
 1894SOL    HW2 6582   3.432   4.215   4.070
 1895SOL     OW 6583   4.804   0.820   1.794
 1895SOL    HW1 6584   4.892   0.826   1.746
 1895SOL    HW2 6585   4.807   0.745   1.860
 1896SOL     OW 6586   5.421   0.221   1.284
 1896SOL    HW1 6587   5.443   0.124   1.297
 1896SOL    HW2 6588   5.329   0.229   1.245
 1897SOL     OW 6589   2.240   5.352   1.473
 1897SOL    HW1 6590   2.335   5.384   1.480
 1897SOL    HW2 6591   2.231   5.293   1.392
 1898SOL     OW 6592   2.129   5.603   3.287
 1898SOL    HW1 6593   2.179   5.549   3.220
 1898SOL    HW2 6594   2.055   5.652   3.241
 1899SOL     OW 6595   0.694   0.783   2.059
 1899SOL    HW1 6596   0.681   0.744   1.968
 1899SOL    HW2 6597   0.749   0.721   2.115
 1900SOL     OW 6598   1.665   0.480   6.151
 1900SOL    HW1 6599   1.640   0.417   6.224
 1900SOL    HW2 6600   1.748   0.448   6.106
 1901SOL     OW 6601   1.795   2.107   1.236
 1901SOL    HW1 6602   1.855   2.184   1.261
 1901SOL    HW2 6603   1.700   2.132   1.255
 1902SOL     OW 6604   1.861   1.497   4.862
 1902SOL    HW1 6605   1.941   1.555   4.847
 1902SOL    HW2 6606   1.839   1.448   4.777
 1903SOL     OW 6607   6.869   3.294   2.320
 1903SOL    HW1 6608   6.838   3.291   2.225
 1903SOL    HW2 6609   6.965   3.324   2.322
 1904SOL     OW 6610   5.464   5.394   3.678
 1904SOL    HW1 6611   5.377   5.346   3.667
 1904SOL    HW2 6612   5.449   5.479   3.728
 1905SOL     OW 6613   1.200   0.202   3.576
 1905SOL    HW1 6614   1.289   0.176   3.537
 1905SOL    HW2 6615   1.179   0.142   3.654
 1906SOL     OW 6616   2.614   0.026   4.938
 1906SOL    HW1 6617   2.550   0.002   5.011
 1906SOL    HW2 6618   2.683   0.088   4.974
 1907SOL     OW 6619   3.444   1.185   1.622
 1907SOL    HW1 6620   3.386   1.212   1.699
 1907SOL    HW2 6621   3.489   1.266   1.584
 1908SOL     OW 6622   3.735   6.605   5.508
 1908SOL    HW1 6623   3.827   6.604   5.548
 1908SOL    HW2 6624   3.733   6.671   5.433
 1909SOL     OW 6625   0.046   3.631   2.523
 1909SOL    HW1 6626   0.128   3.601   2.573
 1909SOL    HW2 6627   0.050   3.595   2.430
 1910SOL     OW 6628   0.272   4.650   6.889
 1910SOL    HW1 6629   0.215   4.588   6.834
 1910SOL    HW2 6630   0.338   4.696   6.829
 1911SOL     OW 6631   6.717   3.821   4.845
 1911SOL    HW1 6632   6.797   3.878   4.829
 1911SOL    HW2 6633   6.719   3.786   4.939
 1912SOL     OW 6634   3.812   5.959   0.360
 1912SOL    HW1 6635   3.827   6.058   0.356
 1912SOL    HW2 6636   3.758   5.931   0.281
 1913SOL     OW 6637   2.821   6.211   4.742
 1913SOL    HW1 6638   2.897   6.257   4.697
 1913SOL    HW2 6639   2.755   6.279   4.774
 1914SOL     OW 6640   3.938   2.583   6.030
 1914SOL    HW1 6641   3.943   2.632   5.942
 1914SOL    HW2 6642   3.866   2.624   6.086
 1915SOL     OW 6643   3.236   2.086   4.755
 1915SOL    HW1 6644   3.253   2.180   4.726
 1915SOL    HW2 6645   3.252   2.079   4.854
 1916SOL     OW 6646   3.706   5.367   1.304
 1916SOL    HW1 6647   3.619   5.326   1.330
 1916SOL    HW2 6648   3.762   5.381   1.385
 1917SOL     OW 6649   2.289   2.950   6.504
 1917SOL    HW1 6650   2.257   2.856   6.494
 1917SOL    HW2 6651   2.214   3.013   6.484
 1918SOL     OW 6652   1.136   1.038   5.199
 1918SOL    HW1 6653   1.195   1.117   5.184
 1918SOL    HW2 6654   1.064   1.037   5.129
 1919SOL     OW 6655   1.610   1.157   1.952
 1919SOL    HW1 6656   1.654   1.110   2.029
 1919SOL    HW2 6657   1.540   1.099   1.912
 1920SOL     OW 6658   0.406   4.013   2.783
 1920SOL    HW1 6659   0.357   4.067   2.852
 1920SOL    HW2 6660   0.450   3.935   2.828
 1921SOL     OW 6661   1.262   3.344   6.383
 1921SOL    HW1 6662   1.307   3.311   6.300
 1921SOL    HW2 6663   1.310   3.308   6.463
 1922SOL     OW 6664   2.398   3.296   1.477
 1922SOL    HW1 6665   2.491   3.322   1.506
 1922SOL    HW2 6666   2.404   3.223   1.409
 1923SOL     OW 6667   4.132   1.098   5.519
 1923SOL    HW1 6668   4.086   1.124   5.604
 1923SOL    HW2 6669   4.083   1.022   5.477
 1924SOL     OW 6670   5.072   6.475   0.386
 1924SOL    HW1 6671   5.111   6.563   0.411
 1924SOL    HW2 6672   5.121   6.437   0.308
 1925SOL     OW 6673   2.128   4.657   0.695
 1925SOL    HW1 6674   2.040   4.629   0.657
 1925SOL    HW2 6675   2.115   4.687   0.790
 1926SOL     OW 6676   2.507   6.693   2.946
 1926SOL    HW1 6677   2.472   6.600   2.957
 1926SOL    HW2 6678   2.434   6.759   2.969
 1927SOL     OW 6679   2.438   4.768   0.339
 1927SOL    HW1 6680   2.481   4.796   0.253
 1927SOL    HW2 6681   2.446   4.669   0.350
 1928SOL     OW 6682   5.840   3.963   4.787
 1928SOL    HW1 6683   5.831   3.892   4.717
 1928SOL    HW2 6684   5.936   3.971   4.814
 1929SOL     OW 6685   2.401   0.165   1.163
 1929SOL    HW1 6686   2.476   0.172   1.097
 1929SOL    HW2 6687   2.360   0.074   1.158
 1930SOL     OW 6688   4.341   3.714   6.682
 1930SOL    HW1 6689   4.334   3.799   6.733
 1930SOL    HW2 6690   4.432   3.707   6.641
 1931SOL     OW 6691   0.957   2.339   1.599
 1931SOL    HW1 6692   0.989   2.432   1.615
 1931SOL    HW2 6693   1.034   2.282   1.572
 1932SOL     OW 6694   4.749   2.242   3.024
 1932SOL    HW1 6695   4.789   2.319   2.974
 1932SOL    HW2 6696   4.703   2.181   2.959
 1933SOL     OW 6697   1.474   3.342   0.812
 1933SOL    HW1 6698   1.447   3.403   0.886
 1933SOL    HW2 6699   1.412   3.354   0.734
 1934SOL     OW 6700   6.686   0.224   5.205
 1934SOL    HW1 6701   6.651   0.249   5.296
 1934SOL    HW2 6702   6.625   0.261   5.135
 1935SOL     OW 6703   4.714   5.375   3.592
 1935SOL    HW1 6704   4.784   5.406   3.528
 1935SOL    HW2 6705   4.700   5.277   3.582
 1936SOL     OW 6706   5.172   4.613   4.031
 1936SOL    HW1 6707   5.165   4.569   4.120
 1936SOL    HW2 6708   5.189   4.544   3.961
 1937SOL     OW 6709   4.098   6.122   0.367
 1937SOL    HW1 6710   4.177   6.175   0.396
 1937SOL    HW2 6711   4.128   6.049   0.305
 1938SOL     OW 6712   1.331   1.767   2.167
 1938SOL    HW1 6713   1.360   1.811   2.083
 1938SOL    HW2 6714   1.232   1.776   2.178
 1939SOL     OW 6715   0.129   6.705   4.077
 1939SOL    HW1 6716   0.128   6.730   3.981
 1939SOL    HW2 6717   0.178   6.618   4.089
 1940SOL     OW 6718   5.804   5.324   0.838
 1940SOL    HW1 6719   5.808   5.397   0.769
 1940SOL    HW2 6720   5.867   5.251   0.814
 1941SOL     OW 6721   1.493   2.990   4.155
 1941SOL    HW1 6722   1.582   3.035   4.165
 1941SOL    HW2 6723   1.466   2.950   4.242
 1942SOL     OW 6724   5.545   2.316   1.652
 1942SOL    HW1 6725   5.452   2.320   1.617
 1942SOL    HW2 6726   5.544   2.329   1.752
 1943SOL     OW 6727   2.023   6.983   3.349
 1943SOL    HW1 6728   1.979   6.908   3.398
 1943SOL    HW2 6729   2.119   6.959   3.330
 1944SOL     OW 6730   6.286   3.950   6.948
 1944SOL    HW1 6731   6.280   3.965   6.849
 1944SOL    HW2 6732   6.320   3.857   6.965
 1945SOL     OW 6733   4.093   5.324   6.888
 1945SOL    HW1 6734   4.138   5.365   6.808
 1945SOL    HW2 6735   4.054   5.396   6.945
 1946SOL     OW 6736   5.625   6.694   1.104
 1946SOL    HW1 6737   5.716   6.663   1.132
 1946SOL    HW2 6738   5.559   6.620   1.114
 1947SOL     OW 6739   5.523   6.506   4.690
 1947SOL    HW1 6740   5.522   6.601   4.661
 1947SOL    HW2 6741   5.588   6.454   4.634
 1948SOL     OW 6742   6.400   4.831   2.723
 1948SOL    HW1 6743   6.381   4.887   2.643
 1948SOL    HW2 6744   6.471   4.874   2.778
 1949SOL     OW 6745   3.746   3.308   6.505
 1949SOL    HW1 6746   3.703   3.330   6.417
 1949SOL    HW2 6747   3.840   3.341   6.506
 1950SOL     OW 6748   3.586   3.005   1.727
 1950SOL    HW1 6749   3.645   2.927   1.702
 1950SOL    HW2 6750   3.500   2.998   1.677
 1951SOL     OW 6751   6.567   4.401   6.744
 1951SOL    HW1 6752   6.634   4.334   6.711
 1951SOL    HW2 6753   6.490   4.403   6.681
 1952SOL     OW 6754   4.548   4.096   0.833
 1952SOL    HW1 6755   4.580   4.054   0.918
 1952SOL    HW2 6756   4.535   4.025   0.764
 1953SOL     OW 6757   6.256   1.344   5.797
 1953SOL    HW1 6758   6.195   1.365   5.873
 1953SOL    HW2 6759   6.316   1.268   5.821
 1954SOL     OW 6760   6.235   0.422   1.210
 1954SOL    HW1 6761   6.286   0.367   1.276
 1954SOL    HW2 6762   6.176   0.486   1.259
 1955SOL     OW 6763   0.607   0.604   2.979
 1955SOL    HW1 6764   0.658   0.619   2.895
 1955SOL    HW2 6765   0.509   0.605   2.960
 1956SOL     OW 6766   5.239   0.007   1.705
 1956SOL    HW1 6767   5.188   6.999   1.622
 1956SOL    HW2 6768   5.337   7.014   1.686
 1957SOL     OW 6769   5.036   4.835   3.975
 1957SOL    HW1 6770   5.100   4.758   3.970
 1957SOL    HW2 6771   5.084   4.920   3.956
 1958SOL     OW 6772   4.789   1.431   1.609
 1958SOL    HW1 6773   4.827   1.503   1.667
 1958SOL    HW2 6774   4.798   1.457   1.513
 1959SOL     OW 6775   1.142   0.081   3.852
 1959SOL    HW1 6776   1.239   0.089   3.875
 1959SOL    HW2 6777   1.091   0.048   3.931
 1960SOL     OW 6778   0.099   3.862   2.716
 1960SOL    HW1 6779   0.114   3.781   2.659
 1960SOL    HW2 6780   0.049   3.931   2.664
 1961SOL     OW 6781   6.454   4.131   4.437
 1961SOL    HW1 6782   6.449   4.101   4.532
 1961SOL    HW2 6783   6.468   4.051   4.378
 1962SOL     OW 6784   1.456   6.598   2.294
 1962SOL    HW1 6785   1.361   6.567   2.291
 1962SOL    HW2 6786   1.491   6.609   2.201
 1963SOL     OW 6787   1.308   1.219   2.265
 1963SOL    HW1 6788   1.341   1.274   2.342
 1963SOL    HW2 6789   1.338   1.260   2.179
 1964SOL     OW 6790   4.564   4.475   1.505
 1964SOL    HW1 6791   4.600   4.396   1.455
 1964SOL    HW2 6792   4.464   4.476   1.498
 1965SOL     OW 6793   2.080   2.646   4.551
 1965SOL    HW1 6794   2.178   2.663   4.544
 1965SOL    HW2 6795   2.064   2.562   4.603
 1966SOL     OW 6796   0.585   6.095   1.395
 1966SOL    HW1 6797   0.615   6.082   1.489
 1966SOL    HW2 6798   0.640   6.165   1.351
 1967SOL     OW 6799   5.744   2.916   4.004
 1967SOL    HW1 6800   5.747   2.902   4.103
 1967SOL    HW2 6801   5.651   2.901   3.970
 1968SOL     OW 6802   2.064   0.297   5.337
 1968SOL    HW1 6803   1.980   0.350   5.326
 1968SOL    HW2 6804   2.138   0.340   5.286
 1969SOL     OW 6805   2.989   1.642   0.914
 1969SOL    HW1 6806   2.941   1.560   0.882
 1969SOL    HW2 6807   3.036   1.620   1.000
 1970SOL     OW 6808   1.104   0.031   5.400
 1970SOL    HW1 6809   1.008   0.031   5.373
 1970SOL    HW2 6810   1.157   6.989   5.337
 1971SOL     OW 6811   0.188   0.924   5.371
 1971SOL    HW1 6812   0.124   0.852   5.345
 1971SOL    HW2 6813   0.151   0.975   5.449
 1972SOL     OW 6814   5.871   2.213   1.149
 1972SOL    HW1 6815   5.912   2.303   1.134
 1972SOL    HW2 6816   5.793   2.222   1.211
 1973SOL     OW 6817   2.913   4.130   0.873
 1973SOL    HW1 6818   2.962   4.215   0.856
 1973SOL    HW2 6819   2.931   4.065   0.799
 1974SOL     OW 6820   5.253   0.473   4.873
 1974SOL    HW1 6821   5.345   0.463   4.909
 1974SOL    HW2 6822   5.254   0.539   4.798
 1975SOL     OW 6823   1.781   2.069   4.092
 1975SOL    HW1 6824   1.811   1.975   4.073
 1975SOL    HW2 6825   1.777   2.083   4.191
 1976SOL     OW 6826   5.901   6.221   0.716
 1976SOL    HW1 6827   5.915   6.143   0.656
 1976SOL    HW2 6828   5.984   6.276   0.719
 1977SOL     OW 6829   2.035   3.376   5.329
 1977SOL    HW1 6830   2.095   3.308   5.287
 1977SOL    HW2 6831   2.040   3.462   5.277
 1978SOL     OW 6832   1.955   6.357   2.875
 1978SOL    HW1 6833   2.049   6.392   2.875
 1978SOL    HW2 6834   1.944   6.293   2.951
 1979SOL     OW 6835   5.199   4.897   0.042
 1979SOL    HW1 6836   5.202   4.986   0.088
 1979SOL    HW2 6837   5.155   4.831   0.103
 1980SOL     OW 6838   4.128   0.310   3.703
 1980SOL    HW1 6839   4.170   0.249   3.635
 1980SOL    HW2 6840   4.165   0.402   3.691
 1981SOL     OW 6841   5.580   3.121   2.289
 1981SOL    HW1 6842   5.512   3.169   2.234
 1981SOL    HW2 6843   5.535   3.052   2.345
 1982SOL     OW 6844   6.720   4.055   3.626
 1982SOL    HW1 6845   6.621   4.042   3.634
 1982SOL    HW2 6846   6.739   4.120   3.553
 1983SOL     OW 6847   1.945   0.716   1.405
 1983SOL    HW1 6848   1.849   0.689   1.407
 1983SOL    HW2 6849   1.954   0.801   1.353
 1984SOL     OW 6850   4.588   2.618   5.026
 1984SOL    HW1 6851   4.515   2.628   5.093
 1984SOL    HW2 6852   4.549   2.587   4.939
 1985SOL     OW 6853   6.897   6.072   2.911
 1985SOL    HW1 6854   6.849   5.984   2.908
 1985SOL    HW2 6855   6.992   6.057   2.938
 1986SOL     OW 6856   3.221   1.299   6.188
 1986SOL    HW1 6857   3.141   1.312   6.129
 1986SOL    HW2 6858   3.212   1.357   6.270
 1987SOL     OW 6859   2.250   1.573   3.286
 1987SOL    HW1 6860   2.307   1.652   3.263
 1987SOL    HW2 6861   2.306   1.490   3.284
 1988SOL     OW 6862   6.890   3.070   0.566
 1988SOL    HW1 6863   6.933   3.091   0.654
 1988SOL    HW2 6864   6.797   3.107   0.566
 1989SOL     OW 6865   2.019   5.635   5.112
 1989SOL    HW1 6866   1.961   5.690   5.052
 1989SOL    HW2 6867   2.009   5.538   5.089
 1990SOL     OW 6868   4.012   5.737   0.684
 1990SOL    HW1 6869   3.955   5.775   0.757
 1990SOL    HW2 6870   3.998   5.638   0.679
 1991SOL     OW 6871   2.029   6.365   0.518
 1991SOL    HW1 6872   2.126   6.362   0.540
 1991SOL    HW2 6873   2.010   6.305   0.440
 1992SOL     OW 6874   0.225   0.817   0.568
 1992SOL    HW1 6875   0.253   0.725   0.596
 1992SOL    HW2 6876   0.257   0.883   0.635
 1993SOL     OW 6877   3.426   1.640   6.018
 1993SOL    HW1 6878   3.357   1.701   6.056
 1993SOL    HW2 6879   3.493   1.617   6.088
 1994SOL     OW 6880   6.392   2.483   0.906
 1994SOL    HW1 6881   6.382   2.385   0.887
 1994SOL    HW2 6882   6.321   2.534   0.856
 1995SOL     OW 6883   5.344   3.000   3.485
 1995SOL    HW1 6884   5.359   3.064   3.561
 1995SOL    HW2 6885   5.377   2.909   3.512
 1996SOL     OW 6886   2.532   1.887   1.050
 1996SOL    HW1 6887   2.450   1.944   1.047
 1996SOL    HW2 6888   2.545   1.844   0.961
 1997SOL     OW 6889   4.024   1.786   4.051
 1997SOL    HW1 6890   4.077   1.773   3.968
 1997SOL    HW2 6891   4.019   1.883   4.074
 1998SOL     OW 6892   1.259   3.384   0.634
 1998SOL    HW1 6893   1.235   3.470   0.588
 1998SOL    HW2 6894   1.188   3.317   0.617
 1999SOL     OW 6895   1.527   0.098   5.800
 1999SOL    HW1 6896   1.612   0.109   5.748
 1999SOL    HW2 6897   1.451   0.134   5.746
 2000SOL     OW 6898   3.683   2.679   5.736
 2000SOL    HW1 6899   3.605   2.616   5.739
 2000SOL    HW2 6900   3.767   2.626   5.721
 2001SOL     OW 6901   2.050   1.514   0.936
 2001SOL    HW1 6902   1.989   1.457   0.881
 2001SOL    HW2 6903   2.145   1.486   0.922
 2002SOL     OW 6904   0.145   4.997   0.414
 2002SOL    HW1 6905   0.239   4.990   0.449
 2002SOL    HW2 6906   0.086   4.935   0.464
 2003SOL     OW 6907   6.503   4.841   2.294
 2003SOL    HW1 6908   6.537   4.758   2.249
 2003SOL    HW2 6909   6.567   4.916   2.278
 2004SOL     OW 6910   5.144   1.048   4.546
 2004SOL    HW1 6911   5.201   1.126   4.517
 2004SOL    HW2 6912   5.087   1.019   4.469
 2005SOL     OW 6913   6.959   4.821   0.493
 2005SOL    HW1 6914   7.005   4.733   0.478
 2005SOL    HW2 6915   6.964   4.846   0.589
 2006SOL     OW 6916   5.462   0.034   3.863
 2006SOL    HW1 6917   5.451   0.039   3.962
 2006SOL    HW2 6918   5.523   0.108   3.832
 2007SOL     OW 6919   5.044   4.643   0.982
 2007SOL    HW1 6920   5.131   4.693   0.981
 2007SOL    HW2 6921   4.997   4.660   1.069
 2008SOL     OW 6922   2.163   3.638   3.422
 2008SOL    HW1 6923   2.169   3.559   3.483
 2008SOL    HW2 6924   2.114   3.712   3.468
 2009SOL     OW 6925   4.809   6.654   2.609
 2009SOL    HW1 6926   4.850   6.743   2.595
 2009SOL    HW2 6927   4.777   6.618   2.521
 2010SOL     OW 6928   2.380   1.607   1.497
 2010SOL    HW1 6929   2.301   1.614   1.435
 2010SOL    HW2 6930   2.368   1.671   1.573
 2011SOL     OW 6931   0.612   0.769   4.691
 2011SOL    HW1 6932   0.698   0.735   4.651
 2011SOL    HW2 6933   0.595   0.862   4.657
 2012SOL     OW 6934   1.519   3.802   2.483
 2012SOL    HW1 6935   1.497   3.897   2.462
 2012SOL    HW2 6936   1.435   3.748   2.491
 2013SOL     OW 6937   5.599   3.235   4.003
 2013SOL    HW1 6938   5.690   3.223   3.963
 2013SOL    HW2 6939   5.601   3.209   4.099
 2014SOL     OW 6940   2.998   0.210   3.502
 2014SOL    HW1 6941   3.031   0.303   3.519
 2014SOL    HW2 6942   3.071   0.155   3.462
 2015SOL     OW 6943   2.597   0.128   0.960
 2015SOL    HW1 6944   2.660   0.051   0.951
 2015SOL    HW2 6945   2.554   0.146   0.871
 2016SOL     OW 6946   1.608   5.570   5.647
 2016SOL    HW1 6947   1.603   5.535   5.740
 2016SOL    HW2 6948   1.549   5.651   5.638
 2017SOL     OW 6949   4.063   0.399   2.981
 2017SOL    HW1 6950   4.003   0.388   3.061
 2017SOL    HW2 6951   4.042   0.328   2.914
 2018SOL     OW 6952   6.335   2.935   3.656
 2018SOL    HW1 6953   6.403   2.863   3.672
 2018SOL    HW2 6954   6.379   3.012   3.609
 2019SOL     OW 6955   5.698   4.001   6.484
 2019SOL    HW1 6956   5.674   3.905   6.498
 2019SOL    HW2 6957   5.640   4.039   6.412
 2020SOL     OW 6958   2.303   0.005   6.132
 2020SOL    HW1 6959   2.297   6.956   6.055
 2020SOL    HW2 6960   2.376   0.071   6.114
 2021SOL     OW 6961   6.629   6.254   4.702
 2021SOL    HW1 6962   6.711   6.259   4.645
 2021SOL    HW2 6963   6.558   6.313   4.664
 2022SOL     OW 6964   1.466   4.803   4.148
 2022SOL    HW1 6965   1.512   4.788   4.060
 2022SOL    HW2 6966   1.520   4.867   4.202
 2023SOL     OW 6967   0.744   0.955   6.614
 2023SOL    HW1 6968   0.662   0.898   6.611
 2023SOL    HW2 6969   0.754   0.994   6.705
 2024SOL     OW 6970   0.192   5.742   3.819
 2024SOL    HW1 6971   0.111   5.766   3.871
 2024SOL    HW2 6972   0.211   5.644   3.829
 2025SOL     OW 6973   3.875   0.736   4.035
 2025SOL    HW1 6974   3.804   0.805   4.054
 2025SOL    HW2 6975   3.951   0.749   4.098
 2026SOL     OW 6976   6.503   2.674   6.794
 2026SOL    HW1 6977   6.518   2.772   6.796
 2026SOL    HW2 6978   6.422   2.651   6.849
 2027SOL     OW 6979   1.234   6.976   1.337
 2027SOL    HW1 6980   1.330   7.002   1.338
 2027SOL    HW2 6981   1.183   0.017   1.403
 2028SOL     OW 6982   3.543   5.534   4.238
 2028SOL    HW1 6983   3.562   5.508   4.144
 2028SOL    HW2 6984   3.612   5.494   4.299
 2029SOL     OW 6985   6.479   2.455   0.103
 2029SOL    HW1 6986   6.437   2.453   0.194
 2029SOL    HW2 6987   6.552   2.524   0.102
 2030SOL     OW 6988   3.200   0.229   2.977
 2030SOL    HW1 6989   3.237   0.319   2.997
 2030SOL    HW2 6990   3.105   0.224   3.008
 2031SOL     OW 6991   6.661   6.077   2.155
 2031SOL    HW1 6992   6.720   6.101   2.078
 2031SOL    HW2 6993   6.708   6.096   2.241
 2032SOL     OW 6994   3.546   1.394   1.447
 2032SOL    HW1 6995   3.596   1.456   1.508
 2032SOL    HW2 6996   3.473   1.445   1.401
 2033SOL     OW 6997   2.472   1.298   0.544
 2033SOL    HW1 6998   2.493   1.297   0.642
 2033SOL    HW2 6999   2.372   1.292   0.532
 2034SOL     OW 7000   2.475   5.384   5.654
 2034SOL    HW1 7001   2.512   5.398   5.746
 2034SOL    HW2 7002   2.444   5.290   5.644
 2035SOL     OW 7003   6.309   6.125   3.337
 2035SOL    HW1 7004   6.228   6.073   3.364
 2035SOL    HW2 7005   6.297   6.221   3.366
 2036SOL     OW 7006   1.109   3.300   2.745
 2036SOL    HW1 7007   1.057   3.385   2.736
 2036SOL    HW2 7008   1.047   3.222   2.734
 2037SOL     OW 7009   6.373   2.849   6.483
 2037SOL    HW1 7010   6.424   2.763   6.483
 2037SOL    HW2 7011   6.285   2.836   6.529
 2038SOL     OW 7012   2.344   1.548   0.502
 2038SOL    HW1 7013   2.259   1.529   0.551
 2038SOL    HW2 7014   2.417   1.490   0.538
 2039SOL     OW 7015   0.020   6.548   3.358
 2039SOL    HW1 7016   6.937   6.533   3.371
 2039SOL    HW2 7017   0.054   6.487   3.287
 2040SOL     OW 7018   2.162   1.901   0.014
 2040SOL    HW1 7019   2.196   1.808   7.011
 2040SOL    HW2 7020   2.103   1.900   0.095
 2041SOL     OW 7021   1.229   0.473   4.965
 2041SOL    HW1 7022   1.283   0.396   4.933
 2041SOL    HW2 7023   1.154   0.440   5.022
 2042SOL     OW 7024   5.478   0.018   6.132
 2042SOL    HW1 7025   5.470   6.936   6.152
 2042SOL    HW2 7026   5.387   0.057   6.117
 2043SOL     OW 7027   6.093   2.763   2.978
 2043SOL    HW1 7028   6.034   2.701   3.029
 2043SOL    HW2 7029   6.132   2.715   2.899
 2044SOL     OW 7030   6.152   0.222   1.060
 2044SOL    HW1 7031   6.056   0.226   1.034
 2044SOL    HW2 7032   6.180   0.309   1.100
 2045SOL     OW 7033   1.262   4.918   4.619
 2045SOL    HW1 7034   1.206   4.954   4.693
 2045SOL    HW2 7035   1.206   4.863   4.558
 2046SOL     OW 7036   6.648   1.952   5.297
 2046SOL    HW1 7037   6.599   1.958   5.210
 2046SOL    HW2 7038   6.583   1.946   5.372
 2047SOL     OW 7039   6.507   2.788   0.938
 2047SOL    HW1 7040   6.508   2.885   0.961
 2047SOL    HW2 7041   6.523   2.734   1.020
 2048SOL     OW 7042   0.536   0.503   5.089
 2048SOL    HW1 7043   0.485   0.573   5.040
 2048SOL    HW2 7044   0.479   0.422   5.103
 2049SOL     OW 7045   5.634   1.813   3.984
 2049SOL    HW1 7046   5.696   1.767   3.921
 2049SOL    HW2 7047   5.541   1.783   3.967
 2050SOL     OW 7048   6.620   2.429   4.132
 2050SOL    HW1 7049   6.575   2.342   4.150
 2050SOL    HW2 7050   6.593   2.462   4.041
 2051SOL     OW 7051   1.821   6.417   6.738
 2051SOL    HW1 7052   1.867   6.456   6.817
 2051SOL    HW2 7053   1.787   6.325   6.761
 2052SOL     OW 7054   1.437   2.880   1.089
 2052SOL    HW1 7055   1.440   2.943   1.011
 2052SOL    HW2 7056   1.377   2.803   1.067
 2053SOL     OW 7057   0.770   5.594   5.027
 2053SOL    HW1 7058   0.754   5.661   5.100
 2053SOL    HW2 7059   0.692   5.594   4.965
 2054SOL     OW 7060   3.002   3.780   3.139
 2054SOL    HW1 7061   3.069   3.706   3.141
 2054SOL    HW2 7062   2.909   3.741   3.137
 2055SOL     OW 7063   6.326   2.941   4.950
 2055SOL    HW1 7064   6.247   2.886   4.977
 2055SOL    HW2 7065   6.369   2.979   5.032
 2056SOL     OW 7066   4.064   4.805   2.098
 2056SOL    HW1 7067   4.033   4.842   2.010
 2056SOL    HW2 7068   4.004   4.838   2.171
 2057SOL     OW 7069   4.973   3.762   5.528
 2057SOL    HW1 7070   5.048   3.823   5.553
 2057SOL    HW2 7071   4.929   3.727   5.611
 2058SOL     OW 7072   0.159   6.398   2.508
 2058SOL    HW1 7073   0.216   6.374   2.586
 2058SOL    HW2 7074   0.217   6.433   2.434
 2059SOL     OW 7075   2.448   6.567   6.767
 2059SOL    HW1 7076   2.485   6.658   6.745
 2059SOL    HW2 7077   2.396   6.533   6.689
 2060SOL     OW 7078   0.258   3.968   1.803
 2060SOL    HW1 7079   0.212   3.923   1.727
 2060SOL    HW2 7080   0.291   4.058   1.775
 2061SOL     OW 7081   2.168   2.268   2.617
 2061SOL    HW1 7082   2.151   2.337   2.688
 2061SOL    HW2 7083   2.265   2.243   2.618
 2062SOL     OW 7084   0.265   6.123   5.329
 2062SOL    HW1 7085   0.250   6.220   5.312
 2062SOL    HW2 7086   0.208   6.093   5.406
 2063SOL     OW 7087   1.335   6.229   5.136
 2063SOL    HW1 7088   1.307   6.325   5.131
 2063SOL    HW2 7089   1.255   6.173   5.159
 2064SOL     OW 7090   0.147   2.633   4.989
 2064SOL    HW1 7091   0.186   2.723   4.972
 2064SOL    HW2 7092   0.185   2.595   5.073
 2065SOL     OW 7093   6.079   3.049   6.161
 2065SOL    HW1 7094   6.026   3.075   6.080
 2065SOL    HW2 7095   6.093   3.130   6.219
 2066SOL     OW 7096   6.217   3.956   5.648
 2066SOL    HW1 7097   6.245   4.030   5.709
 2066SOL    HW2 7098   6.261   3.969   5.559
 2067SOL     OW 7099   6.628   5.350   0.904
 2067SOL    HW1 7100   6.529   5.353   0.892
 2067SOL    HW2 7101   6.672   5.345   0.814
 2068SOL     OW 7102   4.023   0.397   4.391
 2068SOL    HW1 7103   3.975   0.424   4.307
 2068SOL    HW2 7104   4.103   0.343   4.367
 2069SOL     OW 7105   0.480   2.422   4.276
 2069SOL    HW1 7106   0.557   2.458   4.223
 2069SOL    HW2 7107   0.496   2.439   4.373
 2070SOL     OW 7108   0.981   2.530   1.172
 2070SOL    HW1 7109   1.035   2.446   1.181
 2070SOL    HW2 7110   1.000   2.572   1.084
 2071SOL     OW 7111   6.326   1.038   6.145
 2071SOL    HW1 7112   6.248   1.044   6.083
 2071SOL    HW2 7113   6.386   1.117   6.130
 2072SOL     OW 7114   4.636   5.295   4.872
 2072SOL    HW1 7115   4.707   5.236   4.911
 2072SOL    HW2 7116   4.650   5.303   4.773
 2073SOL     OW 7117   3.631   6.133   5.521
 2073SOL    HW1 7118   3.554   6.183   5.483
 2073SOL    HW2 7119   3.712   6.191   5.521
 2074SOL     OW 7120   2.583   2.269   6.879
 2074SOL    HW1 7121   2.606   2.304   6.969
 2074SOL    HW2 7122   2.495   2.306   6.850
 2075SOL     OW 7123   6.526   2.299   2.903
 2075SOL    HW1 7124   6.502   2.362   2.978
 2075SOL    HW2 7125   6.443   2.260   2.864
 2076SOL     OW 7126   5.757   6.954   6.017
 2076SOL    HW1 7127   5.665   6.976   6.051
 2076SOL    HW2 7128   5.817   6.934   6.094
 2077SOL     OW 7129   6.487   2.263   1.979
 2077SOL    HW1 7130   6.491   2.168   2.010
 2077SOL    HW2 7131   6.574   2.287   1.936
 2078SOL     OW 7132   1.768   4.975   6.499
 2078SOL    HW1 7133   1.739   5.050   6.559
 2078SOL    HW2 7134   1.868   4.974   6.494
 2079SOL     OW 7135   6.692   0.990   3.206
 2079SOL    HW1 7136   6.750   1.018   3.284
 2079SOL    HW2 7137   6.705   1.055   3.131
 2080SOL     OW 7138   3.087   1.351   4.687
 2080SOL    HW1 7139   3.041   1.372   4.600
 2080SOL    HW2 7140   3.115   1.436   4.731
 2081SOL     OW 7141   1.220   6.392   4.422
 2081SOL    HW1 7142   1.178   6.402   4.332
 2081SOL    HW2 7143   1.216   6.296   4.450
 2082SOL     OW 7144   0.670   6.730   3.245
 2082SOL    HW1 7145   0.581   6.713   3.204
 2082SOL    HW2 7146   0.739   6.675   3.199
 2083SOL     OW 7147   1.619   6.163   4.710
 2083SOL    HW1 7148   1.590   6.096   4.779
 2083SOL    HW2 7149   1.554   6.238   4.706
 2084SOL     OW 7150   0.861   3.308   1.985
 2084SOL    HW1 7151   0.785   3.292   1.922
 2084SOL    HW2 7152   0.947   3.310   1.934
 2085SOL     OW 7153   4.662   6.443   0.978
 2085SOL    HW1 7154   4.675   6.440   1.077
 2085SOL    HW2 7155   4.603   6.520   0.954
 2086SOL     OW 7156   3.733   6.269   0.092
 2086SOL    HW1 7157   3.687   6.357   0.101
 2086SOL    HW2 7158   3.810   6.264   0.156
 2087SOL     OW 7159   4.429   2.185   0.486
 2087SOL    HW1 7160   4.480   2.228   0.412
 2087SOL    HW2 7161   4.431   2.086   0.474
 2088SOL     OW 7162   1.299   5.850   6.032
 2088SOL    HW1 7163   1.287   5.941   5.993
 2088SOL    HW2 7164   1.211   5.805   6.039
 2089SOL     OW 7165   4.508   2.392   5.296
 2089SOL    HW1 7166   4.548   2.433   5.214
 2089SOL    HW2 7167   4.564   2.415   5.375
 2090SOL     OW 7168   4.759   3.104   5.234
 2090SOL    HW1 7169   4.811   3.182   5.268
 2090SOL    HW2 7170   4.667   3.133   5.209
 2091SOL     OW 7171   6.413   6.027   0.490
 2091SOL    HW1 7172   6.440   6.036   0.585
 2091SOL    HW2 7173   6.419   6.115   0.444
 2092SOL     OW 7174   5.429   4.281   1.094
 2092SOL    HW1 7175   5.450   4.320   1.183
 2092SOL    HW2 7176   5.337   4.242   1.095
 2093SOL     OW 7177   3.703   1.824   2.053
 2093SOL    HW1 7178   3.608   1.848   2.078
 2093SOL    HW2 7179   3.736   1.752   2.114
 2094SOL     OW 7180   5.459   2.000   0.942
 2094SOL    HW1 7181   5.422   2.049   1.021
 2094SOL    HW2 7182   5.492   2.066   0.874
 2095SOL     OW 7183   6.000   6.657   3.659
 2095SOL    HW1 7184   5.959   6.565   3.658
 2095SOL    HW2 7185   6.100   6.648   3.666
 2096SOL     OW 7186   4.541   5.159   3.117
 2096SOL    HW1 7187   4.512   5.071   3.155
 2096SOL    HW2 7188   4.626   5.147   3.067
 2097SOL     OW 7189   2.940   3.070   0.158
 2097SOL    HW1 7190   2.945   3.044   0.254
 2097SOL    HW2 7191   2.945   3.169   0.150
 2098SOL     OW 7192   4.044   5.923   3.008
 2098SOL    HW1 7193   4.102   5.927   2.927
 2098SOL    HW2 7194   4.061   5.838   3.057
 2099SOL     OW 7195   4.249   1.459   6.534
 2099SOL    HW1 7196   4.163   1.482   6.580
 2099SOL    HW2 7197   4.250   1.501   6.443
 2100SOL     OW 7198   4.671   1.677   0.061
 2100SOL    HW1 7199   4.719   1.603   0.013
 2100SOL    HW2 7200   4.737   1.734   0.109
 2101SOL     OW 7201   0.017   6.275   1.268
 2101SOL    HW1 7202   6.995   6.220   1.343
 2101SOL    HW2 7203   0.116   6.259   1.260
 2102SOL     OW 7204   5.050   3.541   1.701
 2102SOL    HW1 7205   5.039   3.468   1.768
 2102SOL    HW2 7206   5.093   3.620   1.745
 2103SOL     OW 7207   3.627   3.483   0.716
 2103SOL    HW1 7208   3.687   3.505   0.792
 2103SOL    HW2 7209   3.591   3.391   0.727
 2104SOL     OW 7210   1.597   4.958   1.820
 2104SOL    HW1 7211   1.544   4.873   1.815
 2104SOL    HW2 7212   1.640   4.975   1.731
 2105SOL     OW 7213   3.928   4.519   6.496
 2105SOL    HW1 7214   3.992   4.570   6.555
 2105SOL    HW2 7215   3.837   4.561   6.503
 2106SOL     OW 7216   5.225   4.086   1.126
 2106SOL    HW1 7217   5.224   4.044   1.036
 2106SOL    HW2 7218   5.146   4.053   1.179
 2107SOL     OW 7219   6.246   2.483   5.515
 2107SOL    HW1 7220   6.303   2.505   5.436
 2107SOL    HW2 7221   6.156   2.523   5.503
 2108SOL     OW 7222   5.785   5.921   5.095
 2108SOL    HW1 7223   5.811   5.825   5.091
 2108SOL    HW2 7224   5.856   5.973   5.142
 2109SOL     OW 7225   3.222   6.030   2.028
 2109SOL    HW1 7226   3.298   6.041   2.093
 2109SOL    HW2 7227   3.160   6.108   2.036
 2110SOL     OW 7228   3.813   0.427   5.827
 2110SOL    HW1 7229   3.770   0.356   5.771
 2110SOL    HW2 7230   3.825   0.392   5.921
 2111SOL     OW 7231   1.724   2.187   5.312
 2111SOL    HW1 7232   1.785   2.182   5.391
 2111SOL    HW2 7233   1.634   2.219   5.341
 2112SOL     OW 7234   5.529   2.379   0.058
 2112SOL    HW1 7235   5.466   2.439   0.008
 2112SOL    HW2 7236   5.517   2.285   0.026
 2113SOL     OW 7237   2.522   0.092   4.696
 2113SOL    HW1 7238   2.549   0.077   4.791
 2113SOL    HW2 7239   2.435   0.046   4.678
 2114SOL     OW 7240   2.234   3.073   6.998
 2114SOL    HW1 7241   2.273   3.097   6.909
 2114SOL    HW2 7242   2.157   3.132   0.003
 2115SOL     OW 7243   1.418   4.768   1.754
 2115SOL    HW1 7244   1.331   4.781   1.708
 2115SOL    HW2 7245   1.442   4.671   1.755
 2116SOL     OW 7246   1.106   2.783   1.499
 2116SOL    HW1 7247   1.135   2.873   1.468
 2116SOL    HW2 7248   1.010   2.787   1.528
 2117SOL     OW 7249   5.334   3.483   1.619
 2117SOL    HW1 7250   5.245   3.520   1.644
 2117SOL    HW2 7251   5.326   3.385   1.602
 2118SOL     OW 7252   6.031   3.839   2.734
 2118SOL    HW1 7253   6.121   3.844   2.777
 2118SOL    HW2 7254   6.041   3.823   2.636
 2119SOL     OW 7255   1.701   1.461   0.880
 2119SOL    HW1 7256   1.608   1.427   0.863
 2119SOL    HW2 7257   1.741   1.413   0.958
 2120SOL     OW 7258   6.743   2.580   2.671
 2120SOL    HW1 7259   6.826   2.538   2.708
 2120SOL    HW2 7260   6.674   2.509   2.655
 2121SOL     OW 7261   1.972   2.500   6.332
 2121SOL    HW1 7262   2.066   2.477   6.307
 2121SOL    HW2 7263   1.926   2.419   6.368
 2122SOL     OW 7264   6.314   6.642   5.950
 2122SOL    HW1 7265   6.367   6.560   5.968
 2122SOL    HW2 7266   6.374   6.713   5.913
 2123SOL     OW 7267   5.956   6.296   2.556
 2123SOL    HW1 7268   5.903   6.354   2.619
 2123SOL    HW2 7269   6.043   6.271   2.599
 2124SOL     OW 7270   3.193   1.674   6.477
 2124SOL    HW1 7271   3.159   1.678   6.571
 2124SOL    HW2 7272   3.206   1.579   6.450
 2125SOL     OW 7273   1.036   6.015   2.472
 2125SOL    HW1 7274   0.993   5.943   2.416
 2125SOL    HW2 7275   1.122   5.980   2.508
 2126SOL     OW 7276   4.186   2.610   6.643
 2126SOL    HW1 7277   4.201   2.601   6.545
 2126SOL    HW2 7278   4.088   2.616   6.662
 2127SOL     OW 7279   0.577   1.762   5.530
 2127SOL    HW1 7280   0.652   1.730   5.473
 2127SOL    HW2 7281   0.490   1.736   5.489
 2128SOL     OW 7282   6.062   2.906   1.143
 2128SOL    HW1 7283   6.112   2.920   1.057
 2128SOL    HW2 7284   6.127   2.903   1.219
 2129SOL     OW 7285   4.825   4.428   4.223
 2129SOL    HW1 7286   4.810   4.526   4.238
 2129SOL    HW2 7287   4.896   4.395   4.285
 2130SOL     OW 7288   2.687   1.583   1.160
 2130SOL    HW1 7289   2.703   1.682   1.158
 2130SOL    HW2 7290   2.697   1.547   1.067
 2131SOL     OW 7291   5.090   1.898   0.528
 2131SOL    HW1 7292   5.063   1.939   0.442
 2131SOL    HW2 7293   5.174   1.941   0.561
 2132SOL     OW 7294   3.310   1.592   6.905
 2132SOL    HW1 7295   3.287   1.594   7.002
 2132SOL    HW2 7296   3.400   1.632   6.891
 2133SOL     OW 7297   2.866   2.216   0.843
 2133SOL    HW1 7298   2.949   2.211   0.898
 2133SOL    HW2 7299   2.788   2.235   0.902
 2134SOL     OW 7300   1.178   1.133   4.702
 2134SOL    HW1 7301   1.130   1.218   4.679
 2134SOL    HW2 7302   1.116   1.073   4.752
 2135SOL     OW 7303   0.034   1.466   4.324
 2135SOL    HW1 7304   0.090   1.402   4.376
 2135SOL    HW2 7305   6.953   1.453   4.347
 2136SOL     OW 7306   1.227   3.994   4.431
 2136SOL    HW1 7307   1.262   4.079   4.392
 2136SOL    HW2 7308   1.297   3.923   4.424
 2137SOL     OW 7309   0.460   6.903   4.473
 2137SOL    HW1 7310   0.434   6.922   4.379
 2137SOL    HW2 7311   0.525   6.972   4.504
 2138SOL     OW 7312   5.706   3.173   1.795
 2138SOL    HW1 7313   5.706   3.109   1.719
 2138SOL    HW2 7314   5.649   3.137   1.869
 2139SOL     OW 7315   4.225   1.369   3.206
 2139SOL    HW1 7316   4.204   1.457   3.247
 2139SOL    HW2 7317   4.218   1.375   3.107
 2140SOL     OW 7318   2.943   6.343   2.815
 2140SOL    HW1 7319   2.943   6.439   2.786
 2140SOL    HW2 7320   3.038   6.311   2.821
 2141SOL     OW 7321   6.441   3.052   1.960
 2141SOL    HW1 7322   6.354   3.067   1.912
 2141SOL    HW2 7323   6.515   3.043   1.894
 2142SOL     OW 7324   1.321   2.362   3.019
 2142SOL    HW1 7325   1.361   2.450   3.045
 2142SOL    HW2 7326   1.392   2.304   2.979
 2143SOL     OW 7327   3.526   5.784   0.803
 2143SOL    HW1 7328   3.571   5.844   0.870
 2143SOL    HW2 7329   3.555   5.809   0.711
 2144SOL     OW 7330   2.176   0.455   3.031
 2144SOL    HW1 7331   2.225   0.427   3.113
 2144SOL    HW2 7332   2.109   0.525   3.054
 2145SOL     OW 7333   3.739   5.427   4.388
 2145SOL    HW1 7334   3.695   5.344   4.424
 2145SOL    HW2 7335   3.819   5.448   4.444
 2146SOL     OW 7336   3.130   3.909   2.789
 2146SOL    HW1 7337   3.060   3.866   2.732
 2146SOL    HW2 7338   3.150   3.849   2.868
 2147SOL     OW 7339   0.103   1.466   0.137
 2147SOL    HW1 7340   0.153   1.536   0.187
 2147SOL    HW2 7341   0.054   1.407   0.201
 2148SOL     OW 7342   4.900   3.238   4.186
 2148SOL    HW1 7343   4.842   3.318   4.169
 2148SOL    HW2 7344   4.985   3.267   4.230
 2149SOL     OW 7345   4.001   0.227   1.112
 2149SOL    HW1 7346   3.964   0.145   1.156
 2149SOL    HW2 7347   4.080   0.260   1.163
 2150SOL     OW 7348   3.005   2.189   2.286
 2150SOL    HW1 7349   2.912   2.182   2.249
 2150SOL    HW2 7350   3.038   2.283   2.275
 2151SOL     OW 7351   2.866   1.915   4.423
 2151SOL    HW1 7352   2.874   2.014   4.430
 2151SOL    HW2 7353   2.819   1.879   4.504
 2152SOL     OW 7354   4.697   6.246   1.953
 2152SOL    HW1 7355   4.772   6.283   1.897
 2152SOL    HW2 7356   4.716   6.150   1.974
 2153SOL     OW 7357   4.131   0.730   3.630
 2153SOL    HW1 7358   4.126   0.765   3.723
 2153SOL    HW2 7359   4.126   0.807   3.565
 2154SOL     OW 7360   3.384   6.118   4.874
 2154SOL    HW1 7361   3.462   6.179   4.886
 2154SOL    HW2 7362   3.311   6.166   4.826
 2155SOL     OW 7363   1.723   5.039   0.054
 2155SOL    HW1 7364   1.627   5.065   0.045
 2155SOL    HW2 7365   1.755   4.996   6.984
 2156SOL     OW 7366   2.781   0.284   1.364
 2156SOL    HW1 7367   2.734   0.358   1.315
 2156SOL    HW2 7368   2.715   0.236   1.422
 2157SOL     OW 7369   6.491   0.751   4.230
 2157SOL    HW1 7370   6.569   0.811   4.211
 2157SOL    HW2 7371   6.524   0.663   4.265
 2158SOL     OW 7372   3.794   6.501   0.366
 2158SOL    HW1 7373   3.807   6.582   0.309
 2158SOL    HW2 7374   3.703   6.503   0.406
 2159SOL     OW 7375   1.451   5.818   5.667
 2159SOL    HW1 7376   1.351   5.816   5.661
 2159SOL    HW2 7377   1.489   5.846   5.579
 2160SOL     OW 7378   4.413   3.842   1.635
 2160SOL    HW1 7379   4.329   3.792   1.619
 2160SOL    HW2 7380   4.392   3.932   1.675
 2161SOL     OW 7381   4.951   3.610   3.657
 2161SOL    HW1 7382   4.863   3.576   3.691
 2161SOL    HW2 7383   4.947   3.710   3.649
 2162SOL     OW 7384   2.002   0.688   0.501
 2162SOL    HW1 7385   2.078   0.659   0.559
 2162SOL    HW2 7386   2.038   0.738   0.422
 2163SOL     OW 7387   0.194   5.627   6.823
 2163SOL    HW1 7388   0.204   5.557   6.752
 2163SOL    HW2 7389   0.152   5.586   6.905
 2164SOL     OW 7390   1.875   1.177   6.311
 2164SOL    HW1 7391   1.922   1.225   6.385
 2164SOL    HW2 7392   1.937   1.167   6.233
 2165SOL     OW 7393   1.703   1.541   2.563
 2165SOL    HW1 7394   1.760   1.615   2.526
 2165SOL    HW2 7395   1.758   1.458   2.571
 2166SOL     OW 7396   2.265   2.474   5.763
 2166SOL    HW1 7397   2.307   2.469   5.672
 2166SOL    HW2 7398   2.281   2.389   5.812
 2167SOL     OW 7399   2.790   0.083   2.494
 2167SOL    HW1 7400   2.850   0.159   2.522
 2167SOL    HW2 7401   2.757   0.035   2.575
 2168SOL     OW 7402   6.425   2.317   5.040
 2168SOL    HW1 7403   6.523   2.305   5.021
 2168SOL    HW2 7404   6.375   2.239   5.003
 2169SOL     OW 7405   5.348   1.985   6.379
 2169SOL    HW1 7406   5.427   2.045   6.368
 2169SOL    HW2 7407   5.378   1.890   6.388
 2170SOL     OW 7408   5.586   4.578   4.965
 2170SOL    HW1 7409   5.562   4.507   4.898
 2170SOL    HW2 7410   5.510   4.589   5.030
 2171SOL     OW 7411   6.553   2.967   0.403
 2171SOL    HW1 7412   6.578   3.005   0.313
 2171SOL    HW2 7413   6.635   2.945   0.455
 2172SOL     OW 7414   3.195   1.398   0.635
 2172SOL    HW1 7415   3.214   1.359   0.545
 2172SOL    HW2 7416   3.244   1.345   0.705
 2173SOL     OW 7417   3.764   0.244   5.402
 2173SOL    HW1 7418   3.716   0.255   5.489
 2173SOL    HW2 7419   3.698   0.219   5.330
 2174SOL     OW 7420   6.262   4.955   5.850
 2174SOL    HW1 7421   6.185   4.891   5.856
 2174SOL    HW2 7422   6.232   5.039   5.805
 2175SOL     OW 7423   3.159   1.856   2.967
 2175SOL    HW1 7424   3.078   1.909   2.941
 2175SOL    HW2 7425   3.215   1.910   3.030
 2176SOL     OW 7426   1.043   2.055   1.944
 2176SOL    HW1 7427   0.963   2.108   1.915
 2176SOL    HW2 7428   1.016   1.962   1.966
 2177SOL     OW 7429   6.734   0.541   2.079
 2177SOL    HW1 7430   6.706   0.482   2.155
 2177SOL    HW2 7431   6.763   0.630   2.115
 2178SOL     OW 7432   0.889   4.084   0.340
 2178SOL    HW1 7433   0.962   4.017   0.351
 2178SOL    HW2 7434   0.842   4.095   0.428
 2179SOL     OW 7435   2.009   5.665   4.378
 2179SOL    HW1 7436   1.941   5.700   4.313
 2179SOL    HW2 7437   2.070   5.740   4.405
 2180SOL     OW 7438   3.110   2.987   2.365
 2180SOL    HW1 7439   3.050   3.058   2.330
 2180SOL    HW2 7440   3.061   2.899   2.366
 2181SOL     OW 7441   4.285   3.965   5.805
 2181SOL    HW1 7442   4.298   3.906   5.884
 2181SOL    HW2 7443   4.372   3.977   5.757
 2182SOL     OW 7444   0.016   3.531   6.345
 2182SOL    HW1 7445   6.985   3.488   6.423
 2182SOL    HW2 7446   0.024   3.465   6.270
 2183SOL     OW 7447   3.123   2.897   0.732
 2183SOL    HW1 7448   3.157   2.929   0.643
 2183SOL    HW2 7449   3.200   2.885   0.794
 2184SOL     OW 7450   3.587   0.085   5.936
 2184SOL    HW1 7451   3.669   0.030   5.949
 2184SOL    HW2 7452   3.508   0.035   5.972
 2185SOL     OW 7453   2.073   1.732   1.349
 2185SOL    HW1 7454   2.085   1.828   1.375
 2185SOL    HW2 7455   2.095   1.721   1.252
 2186SOL     OW 7456   6.719   4.549   2.464
 2186SOL    HW1 7457   6.750   4.635   2.425
 2186SOL    HW2 7458   6.797   4.498   2.500
 2187SOL     OW 7459   0.440   0.899   1.789
 2187SOL    HW1 7460   0.380   0.897   1.870
 2187SOL    HW2 7461   0.415   0.977   1.732
 2188SOL     OW 7462   4.798   5.745   3.990
 2188SOL    HW1 7463   4.703   5.750   4.021
 2188SOL    HW2 7464   4.859   5.750   4.069
 2189SOL     OW 7465   1.552   0.253   6.314
 2189SOL    HW1 7466   1.490   0.238   6.391
 2189SOL    HW2 7467   1.506   0.224   6.229
 2190SOL     OW 7468   5.799   2.806   1.433
 2190SOL    HW1 7469   5.823   2.720   1.478
 2190SOL    HW2 7470   5.779   2.876   1.502
 2191SOL     OW 7471   3.697   1.932   6.077
 2191SOL    HW1 7472   3.620   1.924   6.140
 2191SOL    HW2 7473   3.671   1.895   5.988
 2192SOL     OW 7474   4.503   6.576   5.212
 2192SOL    HW1 7475   4.594   6.539   5.193
 2192SOL    HW2 7476   4.463   6.526   5.289
 2193SOL     OW 7477   6.717   5.367   6.282
 2193SOL    HW1 7478   6.748   5.372   6.377
 2193SOL    HW2 7479   6.635   5.310   6.276
 2194SOL     OW 7480   1.905   5.778   0.551
 2194SOL    HW1 7481   1.972   5.716   0.510
 2194SOL    HW2 7482   1.846   5.815   0.479
 2195SOL     OW 7483   6.889   6.557   1.805
 2195SOL    HW1 7484   6.847   6.533   1.892
 2195SOL    HW2 7485   6.821   6.597   1.744
 2196SOL     OW 7486   2.296   0.723   5.671
 2196SOL    HW1 7487   2.354   0.669   5.609
 2196SOL    HW2 7488   2.259   0.802   5.621
 2197SOL     OW 7489   4.867   4.257   1.585
 2197SOL    HW1 7490   4.777   4.215   1.598
 2197SOL    HW2 7491   4.899   4.295   1.671
 2198SOL     OW 7492   0.029   3.036   6.869
 2198SOL    HW1 7493   0.103   3.049   6.803
 2198SOL    HW2 7494   0.068   3.003   6.955
 2199SOL     OW 7495   5.331   6.829   0.964
 2199SOL    HW1 7496   5.420   6.786   0.978
 2199SOL    HW2 7497   5.333   6.883   0.880
 2200SOL     OW 7498   4.187   0.586   4.515
 2200SOL    HW1 7499   4.142   0.502   4.485
 2200SOL    HW2 7500   4.118   0.651   4.547
 2201SOL     OW 7501   5.574   3.848   2.433
 2201SOL    HW1 7502   5.671   3.846   2.455
 2201SOL    HW2 7503   5.540   3.755   2.421
 2202SOL     OW 7504   3.228   5.249   4.273
 2202SOL    HW1 7505   3.250   5.321   4.339
 2202SOL    HW2 7506   3.214   5.163   4.321
 2203SOL     OW 7507   3.119   2.189   2.719
 2203SOL    HW1 7508   3.172   2.267   2.685
 2203SOL    HW2 7509   3.180   2.112   2.735
 2204SOL     OW 7510   3.892   0.964   6.797
 2204SOL    HW1 7511   3.832   0.887   6.822
 2204SOL    HW2 7512   3.923   0.953   6.703
 2205SOL     OW 7513   1.359   0.678   6.881
 2205SOL    HW1 7514   1.364   0.595   6.936
 2205SOL    HW2 7515   1.450   0.701   6.846
 2206SOL     OW 7516   2.862   3.859   5.728
 2206SOL    HW1 7517   2.927   3.881   5.656
 2206SOL    HW2 7518   2.871   3.925   5.803
 2207SOL     OW 7519   1.125   4.370   6.398
 2207SOL    HW1 7520   1.155   4.463   6.419
 2207SOL    HW2 7521   1.027   4.362   6.416
 2208SOL     OW 7522   1.490   4.541   2.120
 2208SOL    HW1 7523   1.537   4.553   2.208
 2208SOL    HW2 7524   1.399   4.583   2.125
 2209SOL     OW 7525   1.612   6.002   5.810
 2209SOL    HW1 7526   1.560   5.931   5.764
 2209SOL    HW2 7527   1.696   5.962   5.848
 2210SOL     OW 7528   1.322   5.045   2.752
 2210SOL    HW1 7529   1.261   5.060   2.830
 2210SOL    HW2 7530   1.332   5.131   2.701
 2211SOL     OW 7531   5.679   1.607   5.206
 2211SOL    HW1 7532   5.681   1.702   5.178
 2211SOL    HW2 7533   5.643   1.600   5.299
 2212SOL     OW 7534   0.355   6.300   6.369
 2212SOL    HW1 7535   0.440   6.249   6.364
 2212SOL    HW2 7536   0.374   6.396   6.389
 2213SOL     OW 7537   4.433   2.457   4.474
 2213SOL    HW1 7538   4.343   2.417   4.491
 2213SOL    HW2 7539   4.502   2.385   4.470
 2214SOL     OW 7540   4.452   0.594   5.223
 2214SOL    HW1 7541   4.552   0.595   5.215
 2214SOL    HW2 7542   4.414   0.524   5.163
 2215SOL     OW 7543   6.884   1.460   5.478
 2215SOL    HW1 7544   6.785   1.469   5.466
 2215SOL    HW2 7545   6.905   1.367   5.510
 2216SOL     OW 7546   1.893   0.469   0.125
 2216SOL    HW1 7547   1.910   0.477   0.224
 2216SOL    HW2 7548   1.820   0.403   0.109
 2217SOL     OW 7549   3.771   6.944   1.136
 2217SOL    HW1 7550   3.674   6.925   1.121
 2217SOL    HW2 7551   3.824   6.909   1.059
 2218SOL     OW 7552   0.944   6.581   6.943
 2218SOL    HW1 7553   0.957   6.498   6.997
 2218SOL    HW2 7554   0.898   6.558   6.857
 2219SOL     OW 7555   1.836   3.609   2.712
 2219SOL    HW1 7556   1.895   3.533   2.739
 2219SOL    HW2 7557   1.748   3.602   2.760
 2220SOL     OW 7558   0.234   1.473   4.135
 2220SOL    HW1 7559   0.283   1.561   4.137
 2220SOL    HW2 7560   0.192   1.457   4.224
 2221SOL     OW 7561   6.369   2.196   0.870
 2221SOL    HW1 7562   6.309   2.147   0.934
 2221SOL    HW2 7563   6.357   2.159   0.778
 2222SOL     OW 7564   4.262   0.908   1.152
 2222SOL    HW1 7565   4.218   0.973   1.213
 2222SOL    HW2 7566   4.197   0.878   1.082
 2223SOL     OW 7567   5.774   5.012   3.519
 2223SOL    HW1 7568   5.714   4.968   3.586
 2223SOL    HW2 7569   5.815   5.094   3.559
 2224SOL     OW 7570   1.811   4.537   1.021
 2224SOL    HW1 7571   1.794   4.578   0.932
 2224SOL    HW2 7572   1.870   4.597   1.075
 2225SOL     OW 7573   6.003   5.080   2.734
 2225SOL    HW1 7574   6.052   5.004   2.691
 2225SOL    HW2 7575   5.945   5.124   2.665
 2226SOL     OW 7576   3.805   3.477   0.984
 2226SOL    HW1 7577   3.869   3.401   0.976
 2226SOL    HW2 7578   3.718   3.445   1.020
 2227SOL     OW 7579   6.150   4.151   6.261
 2227SOL    HW1 7580   6.076   4.118   6.319
 2227SOL    HW2 7581   6.113   4.198   6.182
 2228SOL     OW 7582   3.202   5.769   0.216
 2228SOL    HW1 7583   3.172   5.759   0.311
 2228SOL    HW2 7584   3.192   5.681   0.169
 2229SOL     OW 7585   4.396   1.613   3.986
 2229SOL    HW1 7586   4.329   1.591   3.915
 2229SOL    HW2 7587   4.421   1.710   3.979
 2230SOL     OW 7588   1.253   5.470   4.015
 2230SOL    HW1 7589   1.168   5.476   4.068
 2230SOL    HW2 7590   1.331   5.477   4.077
 2231SOL     OW 7591   1.832   1.766   2.464
 2231SOL    HW1 7592   1.839   1.845   2.525
 2231SOL    HW2 7593   1.828   1.797   2.369
 2232SOL     OW 7594   0.510   3.448   3.918
 2232SOL    HW1 7595   0.447   3.392   3.972
 2232SOL    HW2 7596   0.481   3.543   3.922
 2233SOL     OW 7597   4.032   5.019   6.586
 2233SOL    HW1 7598   3.965   5.093   6.582
 2233SOL    HW2 7599   4.018   4.958   6.507
 2234SOL     OW 7600   3.810   2.193   0.741
 2234SOL    HW1 7601   3.788   2.188   0.839
 2234SOL    HW2 7602   3.774   2.113   0.694
 2235SOL     OW 7603   1.377   0.224   6.832
 2235SOL    HW1 7604   1.364   0.316   6.870
 2235SOL    HW2 7605   1.360   0.156   6.903
 2236SOL     OW 7606   0.791   4.382   0.721
 2236SOL    HW1 7607   0.698   4.406   0.748
 2236SOL    HW2 7608   0.825   4.448   0.654
 2237SOL     OW 7609   6.565   3.560   4.322
 2237SOL    HW1 7610   6.493   3.564   4.253
 2237SOL    HW2 7611   6.528   3.523   4.408
 2238SOL     OW 7612   0.088   5.531   1.978
 2238SOL    HW1 7613   0.140   5.446   1.991
 2238SOL    HW2 7614   0.054   5.562   2.067
 2239SOL     OW 7615   4.216   4.810   4.200
 2239SOL    HW1 7616   4.133   4.819   4.255
 2239SOL    HW2 7617   4.279   4.746   4.244
 2240SOL     OW 7618   6.279   5.175   3.285
 2240SOL    HW1 7619   6.347   5.113   3.324
 2240SOL    HW2 7620   6.217   5.207   3.356
 2241SOL     OW 7621   6.951   6.234   2.548
 2241SOL    HW1 7622   6.915   6.256   2.638
 2241SOL    HW2 7623   0.024   6.280   2.535
 2242SOL     OW 7624   5.461   1.472   3.118
 2242SOL    HW1 7625   5.498   1.408   3.186
 2242SOL    HW2 7626   5.520   1.552   3.113
 2243SOL     OW 7627   2.453   6.231   5.279
 2243SOL    HW1 7628   2.525   6.166   5.303
 2243SOL    HW2 7629   2.425   6.281   5.361
 2244SOL     OW 7630   4.111   0.719   3.238
 2244SOL    HW1 7631   4.109   0.739   3.140
 2244SOL    HW2 7632   4.027   0.752   3.281
 2245SOL     OW 7633   0.117   2.123   2.303
 2245SOL    HW1 7634   0.183   2.195   2.280
 2245SOL    HW2 7635   0.125   2.049   2.236
 2246SOL     OW 7636   1.680   2.523   5.430
 2246SOL    HW1 7637   1.698   2.620   5.414
 2246SOL    HW2 7638   1.602   2.494   5.375
 2247SOL     OW 7639   2.669   2.072   5.336
 2247SOL    HW1 7640   2.662   2.142   5.264
 2247SOL    HW2 7641   2.580   2.061   5.380
 2248SOL     OW 7642   5.312   3.560   5.520
 2248SOL    HW1 7643   5.316   3.476   5.574
 2248SOL    HW2 7644   5.304   3.639   5.582
 2249SOL     OW 7645   5.828   6.504   3.149
 2249SOL    HW1 7646   5.750   6.477   3.092
 2249SOL    HW2 7647   5.908   6.449   3.123
 2250SOL     OW 7648   5.145   4.083   1.653
 2250SOL    HW1 7649   5.116   4.072   1.748
 2250SOL    HW2 7650   5.067   4.069   1.592
 2251SOL     OW 7651   5.945   1.216   0.352
 2251SOL    HW1 7652   6.034   1.181   0.382
 2251SOL    HW2 7653   5.891   1.243   0.432
 2252SOL     OW 7654   6.232   3.241   5.302
 2252SOL    HW1 7655   6.298   3.273   5.370
 2252SOL    HW2 7656   6.153   3.201   5.349
 2253SOL     OW 7657   1.906   2.852   6.466
 2253SOL    HW1 7658   1.899   2.806   6.377
 2253SOL    HW2 7659   1.815   2.861   6.506
 2254SOL     OW 7660   2.423   3.279   5.927
 2254SOL    HW1 7661   2.344   3.305   5.983
 2254SOL    HW2 7662   2.414   3.320   5.836
 2255SOL     OW 7663   5.849   2.579   1.586
 2255SOL    HW1 7664   5.835   2.506   1.518
 2255SOL    HW2 7665   5.764   2.593   1.637
 2256SOL     OW 7666   3.647   5.380   1.887
 2256SOL    HW1 7667   3.652   5.296   1.833
 2256SOL    HW2 7668   3.677   5.457   1.832
 2257SOL     OW 7669   1.403   3.349   4.272
 2257SOL    HW1 7670   1.499   3.320   4.282
 2257SOL    HW2 7671   1.399   3.448   4.260
 2258SOL     OW 7672   1.441   5.009   4.439
 2258SOL    HW1 7673   1.522   5.011   4.497
 2258SOL    HW2 7674   1.363   4.973   4.490
 2259SOL     OW 7675   5.326   4.103   6.531
 2259SOL    HW1 7676   5.337   4.066   6.439
 2259SOL    HW2 7677   5.316   4.027   6.596
 2260SOL     OW 7678   4.259   4.628   2.873
 2260SOL    HW1 7679   4.335   4.563   2.877
 2260SOL    HW2 7680   4.230   4.640   2.778
 2261SOL     OW 7681   5.575   6.202   0.933
 2261SOL    HW1 7682   5.517   6.255   0.995
 2261SOL    HW2 7683   5.653   6.258   0.905
 2262SOL     OW 7684   5.673   2.201   3.658
 2262SOL    HW1 7685   5.603   2.170   3.723
 2262SOL    HW2 7686   5.653   2.295   3.629
 2263SOL     OW 7687   2.256   6.125   6.088
 2263SOL    HW1 7688   2.260   6.196   6.018
 2263SOL    HW2 7689   2.173   6.138   6.143
 2264SOL     OW 7690   3.018   3.600   2.387
 2264SOL    HW1 7691   3.107   3.587   2.431
 2264SOL    HW2 7692   3.019   3.557   2.297
 2265SOL     OW 7693   0.405   1.200   3.399
 2265SOL    HW1 7694   0.414   1.241   3.490
 2265SOL    HW2 7695   0.320   1.231   3.356
 2266SOL     OW 7696   6.915   1.394   0.734
 2266SOL    HW1 7697   6.891   1.304   0.697
 2266SOL    HW2 7698   6.996   1.429   0.687
 2267SOL     OW 7699   5.182   2.704   4.932
 2267SOL    HW1 7700   5.279   2.725   4.947
 2267SOL    HW2 7701   5.171   2.606   4.917
 2268SOL     OW 7702   6.365   5.772   0.384
 2268SOL    HW1 7703   6.402   5.859   0.417
 2268SOL    HW2 7704   6.358   5.774   0.285
 2269SOL     OW 7705   5.907   5.299   5.207
 2269SOL    HW1 7706   5.822   5.350   5.219
 2269SOL    HW2 7707   5.886   5.203   5.192
 2270SOL     OW 7708   3.648   3.697   1.213
 2270SOL    HW1 7709   3.558   3.704   1.169
 2270SOL    HW2 7710   3.675   3.786   1.248
 2271SOL     OW 7711   6.027   4.468   1.351
 2271SOL    HW1 7712   6.000   4.434   1.261
 2271SOL    HW2 7713   5.981   4.555   1.368
 2272SOL     OW 7714   5.950   2.130   4.594
 2272SOL    HW1 7715   5.874   2.188   4.563
 2272SOL    HW2 7716   5.977   2.158   4.686
 2273SOL     OW 7717   1.642   1.818   3.290
 2273SOL    HW1 7718   1.718   1.756   3.268
 2273SOL    HW2 7719   1.665   1.910   3.259
 2274SOL     OW 7720   1.590   4.083   4.596
 2274SOL    HW1 7721   1.664   4.064   4.532
 2274SOL    HW2 7722   1.541   3.998   4.617
 2275SOL     OW 7723   5.187   6.640   4.392
 2275SOL    HW1 7724   5.188   6.625   4.490
 2275SOL    HW2 7725   5.129   6.718   4.371
 2276SOL     OW 7726   3.810   5.123   1.203
 2276SOL    HW1 7727   3.764   5.210   1.222
 2276SOL    HW2 7728   3.785   5.092   1.112
 2277SOL     OW 7729   3.318   3.243   4.790
 2277SOL    HW1 7730   3.239   3.183   4.791
 2277SOL    HW2 7731   3.393   3.202   4.843
 2278SOL     OW 7732   4.569   6.072   3.114
 2278SOL    HW1 7733   4.522   5.987   3.137
 2278SOL    HW2 7734   4.582   6.077   3.015
 2279SOL     OW 7735   5.344   4.311   4.340
 2279SOL    HW1 7736   5.429   4.311   4.288
 2279SOL    HW2 7737   5.307   4.404   4.343
 2280SOL     OW 7738   6.855   6.213   5.035
 2280SOL    HW1 7739   6.899   6.169   5.114
 2280SOL    HW2 7740   6.825   6.143   4.970
 2281SOL     OW 7741   3.666   1.865   1.498
 2281SOL    HW1 7742   3.733   1.927   1.457
 2281SOL    HW2 7743   3.596   1.841   1.430
 2282SOL     OW 7744   5.203   5.956   4.638
 2282SOL    HW1 7745   5.176   5.885   4.573
 2282SOL    HW2 7746   5.302   5.957   4.648
 2283SOL     OW 7747   6.737   3.409   2.544
 2283SOL    HW1 7748   6.797   3.383   2.468
 2283SOL    HW2 7749   6.792   3.421   2.627
 2284SOL     OW 7750   2.615   2.202   1.661
 2284SOL    HW1 7751   2.628   2.260   1.580
 2284SOL    HW2 7752   2.693   2.213   1.723
 2285SOL     OW 7753   1.365   3.744   0.666
 2285SOL    HW1 7754   1.356   3.690   0.582
 2285SOL    HW2 7755   1.387   3.839   0.643
 2286SOL     OW 7756   7.008   5.831   5.363
 2286SOL    HW1 7757   6.949   5.790   5.293
 2286SOL    HW2 7758   0.088   5.812   5.341
 2287SOL     OW 7759   2.101   3.044   1.369
 2287SOL    HW1 7760   2.064   3.017   1.458
 2287SOL    HW2 7761   2.109   2.964   1.311
 2288SOL     OW 7762   0.964   5.632   3.414
 2288SOL    HW1 7763   1.020   5.678   3.345
 2288SOL    HW2 7764   0.908   5.700   3.462
 2289SOL     OW 7765   5.362   2.023   1.600
 2289SOL    HW1 7766   5.388   2.040   1.695
 2289SOL    HW2 7767   5.306   2.099   1.566
 2290SOL     OW 7768   3.057   3.121   2.584
 2290SOL    HW1 7769   3.077   3.062   2.506
 2290SOL    HW2 7770   3.046   3.066   2.666
 2291SOL     OW 7771   1.963   2.203   1.971
 2291SOL    HW1 7772   2.029   2.245   2.034
 2291SOL    HW2 7773   1.999   2.208   1.878
 2292SOL     OW 7774   5.172   3.229   3.712
 2292SOL    HW1 7775   5.150   3.216   3.615
 2292SOL    HW2 7776   5.259   3.185   3.733
 2293SOL     OW 7777   5.339   1.208   0.703
 2293SOL    HW1 7778   5.240   1.200   0.715
 2293SOL    HW2 7779   5.365   1.174   0.612
 2294SOL     OW 7780   3.212   1.841   5.628
 2294SOL    HW1 7781   3.267   1.803   5.554
 2294SOL    HW2 7782   3.264   1.911   5.677
 2295SOL     OW 7783   6.820   1.107   1.675
 2295SOL    HW1 7784   6.814   1.188   1.617
 2295SOL    HW2 7785   6.913   1.099   1.712
 2296SOL     OW 7786   2.394   4.986   3.037
 2296SOL    HW1 7787   2.454   4.991   3.117
 2296SOL    HW2 7788   2.393   4.892   3.002
 2297SOL     OW 7789   4.943   4.646   5.758
 2297SOL    HW1 7790   5.012   4.670   5.690
 2297SOL    HW2 7791   4.856   4.688   5.732
 2298SOL     OW 7792   3.751   3.788   3.483
 2298SOL    HW1 7793   3.696   3.764   3.403
 2298SOL    HW2 7794   3.729   3.881   3.512
 2299SOL     OW 7795   4.938   3.772   4.770
 2299SOL    HW1 7796   4.917   3.761   4.673
 2299SOL    HW2 7797   4.895   3.698   4.822
 2300SOL     OW 7798   3.033   6.866   3.399
 2300SOL    HW1 7799   3.074   6.892   3.311
 2300SOL    HW2 7800   2.942   6.908   3.407
 2301SOL     OW 7801   3.458   2.949   4.131
 2301SOL    HW1 7802   3.547   2.993   4.116
 2301SOL    HW2 7803   3.431   2.962   4.226
 2302SOL     OW 7804   3.927   0.689   0.075
 2302SOL    HW1 7805   4.007   0.661   0.128
 2302SOL    HW2 7806   3.897   0.779   0.105
 2303SOL     OW 7807   2.143   2.828   1.226
 2303SOL    HW1 7808   2.197   2.820   1.142
 2303SOL    HW2 7809   2.190   2.782   1.301
 2304SOL     OW 7810   6.458   5.916   4.194
 2304SOL    HW1 7811   6.372   5.867   4.178
 2304SOL    HW2 7812   6.534   5.858   4.165
 2305SOL     OW 7813   1.854   1.002   3.495
 2305SOL    HW1 7814   1.945   0.962   3.492
 2305SOL    HW2 7815   1.818   1.010   3.402
 2306SOL     OW 7816   1.428   5.220   2.314
 2306SOL    HW1 7817   1.513   5.215   2.367
 2306SOL    HW2 7818   1.440   5.170   2.228
 2307SOL     OW 7819   1.161   2.762   5.140
 2307SOL    HW1 7820   1.184   2.860   5.140
 2307SOL    HW2 7821   1.237   2.711   5.099
 2308SOL     OW 7822   2.283   5.155   0.721
 2308SOL    HW1 7823   2.318   5.226   0.661
 2308SOL    HW2 7824   2.290   5.066   0.676
 2309SOL     OW 7825   1.858   0.719   4.199
 2309SOL    HW1 7826   1.875   0.660   4.278
 2309SOL    HW2 7827   1.933   0.709   4.133
 2310SOL     OW 7828   5.314   6.757   2.535
 2310SOL    HW1 7829   5.246   6.813   2.487
 2310SOL    HW2 7830   5.268   6.700   2.603
 2311SOL     OW 7831   1.945   6.209   0.320
 2311SOL    HW1 7832   1.943   6.114   0.352
 2311SOL    HW2 7833   1.854   6.235   0.289
 2312SOL     OW 7834   3.855   5.485   3.116
 2312SOL    HW1 7835   3.911   5.410   3.152
 2312SOL    HW2 7836   3.803   5.452   3.038
 2313SOL     OW 7837   4.908   5.200   2.456
 2313SOL    HW1 7838   4.978   5.144   2.412
 2313SOL    HW2 7839   4.833   5.216   2.392
 2314SOL     OW 7840   3.462   6.026   3.458
 2314SOL    HW1 7841   3.496   6.073   3.377
 2314SOL    HW2 7842   3.390   6.081   3.500
 2315SOL     OW 7843   4.886   3.218   6.480
 2315SOL    HW1 7844   4.984   3.237   6.494
 2315SOL    HW2 7845   4.836   3.241   6.564
 2316SOL     OW 7846   4.726   2.811   3.427
 2316SOL    HW1 7847   4.810   2.823   3.480
 2316SOL    HW2 7848   4.670   2.740   3.469
 2317SOL     OW 7849   1.142   4.912   2.588
 2317SOL    HW1 7850   1.058   4.959   2.613
 2317SOL    HW2 7851   1.217   4.944   2.647
 2318SOL     OW 7852   0.654   2.218   3.462
 2318SOL    HW1 7853   0.660   2.306   3.416
 2318SOL    HW2 7854   0.564   2.208   3.504
 2319SOL     OW 7855   2.286   4.165   4.810
 2319SOL    HW1 7856   2.345   4.124   4.880
 2319SOL    HW2 7857   2.198   4.190   4.850
 2320SOL     OW 7858   0.442   2.418   4.543
 2320SOL    HW1 7859   0.508   2.467   4.600
 2320SOL    HW2 7860   0.416   2.332   4.588
 2321SOL     OW 7861   3.524   0.345   4.912
 2321SOL    HW1 7862   3.599   0.280   4.902
 2321SOL    HW2 7863   3.562   0.438   4.918
 2322SOL     OW 7864   1.434   2.047   5.749
 2322SOL    HW1 7865   1.516   1.990   5.740
 2322SOL    HW2 7866   1.367   2.001   5.807
 2323SOL     OW 7867   3.942   5.752   3.489
 2323SOL    HW1 7868   3.975   5.847   3.482
 2323SOL    HW2 7869   3.845   5.753   3.515
 2324SOL     OW 7870   0.923   6.239   2.343
 2324SOL    HW1 7871   0.935   6.328   2.387
 2324SOL    HW2 7872   0.955   6.167   2.404
 2325SOL     OW 7873   0.926   3.918   1.593
 2325SOL    HW1 7874   0.899   3.864   1.673
 2325SOL    HW2 7875   1.006   3.974   1.616
 2326SOL     OW 7876   1.738   3.956   6.406
 2326SOL    HW1 7877   1.762   3.893   6.480
 2326SOL    HW2 7878   1.644   3.988   6.417
 2327SOL     OW 7879   4.803   3.025   4.400
 2327SOL    HW1 7880   4.830   3.115   4.365
 2327SOL    HW2 7881   4.781   2.965   4.323
 2328SOL     OW 7882   5.173   1.111   3.178
 2328SOL    HW1 7883   5.106   1.059   3.232
 2328SOL    HW2 7884   5.130   1.146   3.095
 2329SOL     OW 7885   1.006   5.556   4.174
 2329SOL    HW1 7886   1.055   5.582   4.257
 2329SOL    HW2 7887   0.964   5.466   4.188
 2330SOL     OW 7888   0.074   5.088   1.353
 2330SOL    HW1 7889   0.029   5.175   1.372
 2330SOL    HW2 7890   0.172   5.103   1.342
 2331SOL     OW 7891   0.063   4.391   5.278
 2331SOL    HW1 7892   6.994   4.417   5.231
 2331SOL    HW2 7893   0.119   4.334   5.217
 2332SOL     OW 7894   5.305   2.960   5.927
 2332SOL    HW1 7895   5.375   2.973   5.997
 2332SOL    HW2 7896   5.223   3.012   5.951
 2333SOL     OW 7897   0.963   5.108   2.697
 2333SOL    HW1 7898   0.872   5.081   2.729
 2333SOL    HW2 7899   1.007   5.165   2.766
 2334SOL     OW 7900   3.254   6.689   0.042
 2334SOL    HW1 7901   3.324   6.760   0.047
 2334SOL    HW2 7902   3.286   6.615   6.998
 2335SOL     OW 7903   6.233   0.779   3.129
 2335SOL    HW1 7904   6.189   0.822   3.050
 2335SOL    HW2 7905   6.163   0.755   3.196
 2336SOL     OW 7906   4.818   1.171   5.339
 2336SOL    HW1 7907   4.740   1.233   5.347
 2336SOL    HW2 7908   4.792   1.079   5.367
 2337SOL     OW 7909   5.715   0.768   3.352
 2337SOL    HW1 7910   5.616   0.780   3.362
 2337SOL    HW2 7911   5.762   0.847   3.389
 2338SOL     OW 7912   6.991   6.733   0.109
 2338SOL    HW1 7913   6.925   6.689   0.048
 2338SOL    HW2 7914   0.067   6.698   0.089
 2339SOL     OW 7915   3.324   3.789   6.222
 2339SOL    HW1 7916   3.365   3.747   6.141
 2339SOL    HW2 7917   3.387   3.781   6.299
 2340SOL     OW 7918   3.765   5.992   5.268
 2340SOL    HW1 7919   3.763   6.052   5.348
 2340SOL    HW2 7920   3.792   5.900   5.296
 2341SOL     OW 7921   5.499   4.945   0.706
 2341SOL    HW1 7922   5.481   4.849   0.687
 2341SOL    HW2 7923   5.598   4.961   0.708
 2342SOL     OW 7924   0.272   6.573   5.596
 2342SOL    HW1 7925   0.218   6.490   5.610
 2342SOL    HW2 7926   0.303   6.609   5.684
 2343SOL     OW 7927   0.767   6.508   1.004
 2343SOL    HW1 7928   0.842   6.496   1.069
 2343SOL    HW2 7929   0.736   6.418   0.972
 2344SOL     OW 7930   2.770   1.889   2.871
 2344SOL    HW1 7931   2.757   1.920   2.965
 2344SOL    HW2 7932   2.780   1.789   2.871
 2345SOL     OW 7933   1.404   0.496   4.539
 2345SOL    HW1 7934   1.388   0.497   4.441
 2345SOL    HW2 7935   1.437   0.586   4.569
 2346SOL     OW 7936   4.382   2.984   5.332
 2346SOL    HW1 7937   4.443   3.054   5.368
 2346SOL    HW2 7938   4.289   3.020   5.323
 2347SOL     OW 7939   1.558   3.651   2.013
 2347SOL    HW1 7940   1.501   3.617   2.088
 2347SOL    HW2 7941   1.624   3.717   2.049
 2348SOL     OW 7942   2.294   6.623   3.278
 2348SOL    HW1 7943   2.283   6.590   3.184
 2348SOL    HW2 7944   2.254   6.556   3.341
 2349SOL     OW 7945   0.003   6.495   5.677
 2349SOL    HW1 7946   0.066   6.417   5.678
 2349SOL    HW2 7947   0.056   6.580   5.671
 2350SOL     OW 7948   3.092   0.666   5.168
 2350SOL    HW1 7949   3.131   0.700   5.253
 2350SOL    HW2 7950   2.995   0.646   5.181
 2351SOL     OW 7951   2.605   5.192   3.554
 2351SOL    HW1 7952   2.542   5.220   3.481
 2351SOL    HW2 7953   2.660   5.270   3.583
 2352SOL     OW 7954   6.340   4.192   3.145
 2352SOL    HW1 7955   6.267   4.154   3.088
 2352SOL    HW2 7956   6.307   4.276   3.189
 2353SOL     OW 7957   2.561   4.109   5.585
 2353SOL    HW1 7958   2.569   4.126   5.487
 2353SOL    HW2 7959   2.640   4.150   5.632
 2354SOL     OW 7960   3.691   2.445   0.028
 2354SOL    HW1 7961   3.603   2.431   0.073
 2354SOL    HW2 7962   3.686   2.524   6.983
 2355SOL     OW 7963   0.302   6.901   1.017
 2355SOL    HW1 7964   0.248   6.843   1.077
 2355SOL    HW2 7965   0.372   6.846   0.971
 2356SOL     OW 7966   2.595   5.321   2.114
 2356SOL    HW1 7967   2.590   5.284   2.207
 2356SOL    HW2 7968   2.690   5.345   2.094
 2357SOL     OW 7969   5.303   4.831   3.508
 2357SOL    HW1 7970   5.389   4.842   3.458
 2357SOL    HW2 7971   5.248   4.914   3.498
 2358SOL     OW 7972   2.797   0.000   4.106
 2358SOL    HW1 7973   2.870   0.023   4.042
 2358SOL    HW2 7974   2.785   6.916   4.110
 2359SOL     OW 7975   2.704   1.601   5.856
 2359SOL    HW1 7976   2.667   1.688   5.824
 2359SOL    HW2 7977   2.646   1.564   5.929
 2360SOL     OW 7978   3.610   4.490   0.108
 2360SOL    HW1 7979   3.707   4.516   0.112
 2360SOL    HW2 7980   3.588   4.455   0.017
 2361SOL     OW 7981   2.851   6.924   3.086
 2361SOL    HW1 7982   2.817   6.930   3.180
 2361SOL    HW2 7983   2.951   6.927   3.086
 2362SOL     OW 7984   4.523   5.939   4.839
 2362SOL    HW1 7985   4.557   5.960   4.930
 2362SOL    HW2 7986   4.448   6.001   4.817
 2363SOL     OW 7987   4.039   1.896   6.145
 2363SOL    HW1 7988   4.004   1.978   6.101
 2363SOL    HW2 7989   4.036   1.820   6.080
 2364SOL     OW 7990   5.213   1.558   1.979
 2364SOL    HW1 7991   5.140   1.620   2.007
 2364SOL    HW2 7992   5.227   1.490   2.051
 2365SOL     OW 7993   5.369   3.991   4.361
 2365SOL    HW1 7994   5.272   3.995   4.384
 2365SOL    HW2 7995   5.400   3.896   4.365
 2366SOL     OW 7996   1.548   3.914   5.542
 2366SOL    HW1 7997   1.500   3.871   5.465
 2366SOL    HW2 7998   1.545   4.013   5.531
 2367SOL     OW 7999   1.187   3.206   5.889
 2367SOL    HW1 8000   1.232   3.195   5.801
 2367SOL    HW2 8001   1.213   3.130   5.949
 2368SOL     OW 8002   4.397   1.338   4.411
 2368SOL    HW1 8003   4.359   1.384   4.331
 2368SOL    HW2 8004   4.467   1.395   4.452
 2369SOL     OW 8005   3.781   1.711   3.330
 2369SOL    HW1 8006   3.842   1.745   3.259
 2369SOL    HW2 8007   3.688   1.743   3.312
 2370SOL     OW 8008   4.962   2.604   0.774
 2370SOL    HW1 8009   4.977   2.613   0.676
 2370SOL    HW2 8010   4.942   2.509   0.797
 2371SOL     OW 8011   0.699   0.063   2.737
 2371SOL    HW1 8012   0.798   0.077   2.745
 2371SOL    HW2 8013   0.681   6.982   2.718
 2372SOL     OW 8014   6.533   0.846   6.196
 2372SOL    HW1 8015   6.612   0.906   6.209
 2372SOL    HW2 8016   6.458   0.897   6.153
 2373SOL     OW 8017   5.893   0.919   6.518
 2373SOL    HW1 8018   5.841   0.883   6.441
 2373SOL    HW2 8019   5.917   1.015   6.499
 2374SOL     OW 8020   5.627   5.657   3.414
 2374SOL    HW1 8021   5.590   5.725   3.352
 2374SOL    HW2 8022   5.680   5.589   3.362
 2375SOL     OW 8023   0.659   0.566   3.677
 2375SOL    HW1 8024   0.692   0.475   3.653
 2375SOL    HW2 8025   0.706   0.598   3.759
 2376SOL     OW 8026   6.970   2.049   3.692
 2376SOL    HW1 8027   6.997   1.954   3.679
 2376SOL    HW2 8028   6.902   2.055   3.766
 2377SOL     OW 8029   3.353   4.171   5.954
 2377SOL    HW1 8030   3.374   4.112   5.875
 2377SOL    HW2 8031   3.366   4.119   6.038
 2378SOL     OW 8032   5.768   1.764   0.228
 2378SOL    HW1 8033   5.766   1.864   0.223
 2378SOL    HW2 8034   5.706   1.733   0.299
 2379SOL     OW 8035   6.608   4.816   0.086
 2379SOL    HW1 8036   6.552   4.739   0.116
 2379SOL    HW2 8037   6.577   4.845   7.010
 2380SOL     OW 8038   6.407   2.473   5.311
 2380SOL    HW1 8039   6.501   2.506   5.321
 2380SOL    HW2 8040   6.404   2.398   5.245
 2381SOL     OW 8041   2.323   4.753   4.952
 2381SOL    HW1 8042   2.421   4.758   4.935
 2381SOL    HW2 8043   2.306   4.765   5.050
 2382SOL     OW 8044   1.775   5.748   2.411
 2382SOL    HW1 8045   1.740   5.792   2.329
 2382SOL    HW2 8046   1.792   5.817   2.481
 2383SOL     OW 8047   5.220   5.448   5.563
 2383SOL    HW1 8048   5.130   5.493   5.563
 2383SOL    HW2 8049   5.244   5.422   5.470
 2384SOL     OW 8050   0.316   1.827   1.789
 2384SOL    HW1 8051   0.268   1.912   1.768
 2384SOL    HW2 8052   0.252   1.763   1.831
 2385SOL     OW 8053   1.099   2.049   0.263
 2385SOL    HW1 8054   1.010   2.089   0.242
 2385SOL    HW2 8055   1.090   1.988   0.342
 2386SOL     OW 8056   3.176   5.091   4.825
 2386SOL    HW1 8057   3.158   5.012   4.767
 2386SOL    HW2 8058   3.270   5.088   4.857
 2387SOL     OW 8059   6.887   2.960   4.083
 2387SOL    HW1 8060   6.853   2.874   4.120
 2387SOL    HW2 8061   6.810   3.016   4.051
 2388SOL     OW 8062   0.174   1.757   5.872
 2388SOL    HW1 8063   0.116   1.729   5.949
 2388SOL    HW2 8064   0.168   1.856   5.861
 2389SOL     OW 8065   4.996   4.399   4.507
 2389SOL    HW1 8066   5.070   4.409   4.573
 2389SOL    HW2 8067   4.910   4.430   4.548
 2390SOL     OW 8068   4.017   3.510   5.501
 2390SOL    HW1 8069   4.077   3.430   5.498
 2390SOL    HW2 8070   4.002   3.543   5.408
 2391SOL     OW 8071   3.188   3.424   6.394
 2391SOL    HW1 8072   3.194   3.337   6.346
 2391SOL    HW2 8073   3.107   3.474   6.364
 2392SOL     OW 8074   3.564   4.373   5.643
 2392SOL    HW1 8075   3.498   4.446   5.624
 2392SOL    HW2 8076   3.633   4.407   5.709
 2393SOL     OW 8077   3.737   5.609   1.757
 2393SOL    HW1 8078   3.757   5.587   1.661
 2393SOL    HW2 8079   3.688   5.696   1.761
 2394SOL     OW 8080   0.228   4.423   3.913
 2394SOL    HW1 8081   0.216   4.367   3.994
 2394SOL    HW2 8082   0.319   4.407   3.874
 2395SOL     OW 8083   0.474   2.775   0.037
 2395SOL    HW1 8084   0.486   2.676   0.032
 2395SOL    HW2 8085   0.378   2.796   0.057
 2396SOL     OW 8086   5.449   0.627   6.709
 2396SOL    HW1 8087   5.372   0.685   6.733
 2396SOL    HW2 8088   5.529   0.655   6.762
 2397SOL     OW 8089   0.270   4.196   5.870
 2397SOL    HW1 8090   0.300   4.291   5.857
 2397SOL    HW2 8091   0.186   4.194   5.924
 2398SOL     OW 8092   2.800   5.621   4.358
 2398SOL    HW1 8093   2.879   5.568   4.388
 2398SOL    HW2 8094   2.822   5.667   4.272
 2399SOL     OW 8095   3.746   2.026   3.865
 2399SOL    HW1 8096   3.703   2.013   3.776
 2399SOL    HW2 8097   3.843   2.003   3.859
 2400SOL     OW 8098   1.694   3.542   0.388
 2400SOL    HW1 8099   1.724   3.633   0.416
 2400SOL    HW2 8100   1.702   3.479   0.465
 2401SOL     OW 8101   3.735   6.807   4.135
 2401SOL    HW1 8102   3.776   6.855   4.057
 2401SOL    HW2 8103   3.647   6.849   4.157
 2402SOL     OW 8104   0.405   2.375   3.298
 2402SOL    HW1 8105   0.446   2.409   3.213
 2402SOL    HW2 8106   0.320   2.328   3.277
 2403SOL     OW 8107   3.933   3.576   1.299
 2403SOL    HW1 8108   4.018   3.596   1.251
 2403SOL    HW2 8109   3.858   3.568   1.233
 2404SOL     OW 8110   5.997   1.349   1.140
 2404SOL    HW1 8111   5.924   1.282   1.144
 2404SOL    HW2 8112   6.050   1.346   1.225
 2405SOL     OW 8113   3.040   4.973   5.702
 2405SOL    HW1 8114   3.030   5.032   5.621
 2405SOL    HW2 8115   3.010   4.881   5.680
 2406SOL     OW 8116   2.441   0.239   3.918
 2406SOL    HW1 8117   2.487   0.202   3.837
 2406SOL    HW2 8118   2.507   0.254   3.991
 2407SOL     OW 8119   4.309   2.374   3.128
 2407SOL    HW1 8120   4.356   2.415   3.050
 2407SOL    HW2 8121   4.358   2.292   3.157
 2408SOL     OW 8122   2.625   5.434   2.735
 2408SOL    HW1 8123   2.621   5.531   2.709
 2408SOL    HW2 8124   2.589   5.423   2.827
 2409SOL     OW 8125   2.595   3.302   0.899
 2409SOL    HW1 8126   2.656   3.225   0.878
 2409SOL    HW2 8127   2.560   3.341   0.813
 2410SOL     OW 8128   6.587   3.430   5.834
 2410SOL    HW1 8129   6.656   3.479   5.888
 2410SOL    HW2 8130   6.501   3.480   5.837
 2411SOL     OW 8131   2.521   3.886   6.183
 2411SOL    HW1 8132   2.449   3.885   6.114
 2411SOL    HW2 8133   2.606   3.852   6.143
 2412SOL     OW 8134   2.779   2.856   0.045
 2412SOL    HW1 8135   2.822   2.939   0.079
 2412SOL    HW2 8136   2.711   2.879   6.990
 2413SOL     OW 8137   6.283   3.439   6.884
 2413SOL    HW1 8138   6.202   3.489   6.853
 2413SOL    HW2 8139   6.270   3.409   6.979
 2414SOL     OW 8140   5.400   1.754   3.804
 2414SOL    HW1 8141   5.353   1.701   3.733
 2414SOL    HW2 8142   5.423   1.845   3.768
 2415SOL     OW 8143   2.208   0.296   0.521
 2415SOL    HW1 8144   2.230   0.214   0.575
 2415SOL    HW2 8145   2.118   0.330   0.548
 2416SOL     OW 8146   0.880   3.345   3.270
 2416SOL    HW1 8147   0.928   3.404   3.206
 2416SOL    HW2 8148   0.903   3.372   3.364
 2417SOL     OW 8149   4.543   2.363   6.755
 2417SOL    HW1 8150   4.480   2.302   6.803
 2417SOL    HW2 8151   4.520   2.458   6.775
 2418SOL     OW 8152   3.638   3.957   5.559
 2418SOL    HW1 8153   3.635   3.948   5.459
 2418SOL    HW2 8154   3.561   4.012   5.590
 2419SOL     OW 8155   2.240   6.982   4.673
 2419SOL    HW1 8156   2.266   6.902   4.729
 2419SOL    HW2 8157   2.160   6.959   4.618
 2420SOL     OW 8158   3.378   5.520   1.711
 2420SOL    HW1 8159   3.446   5.540   1.640
 2420SOL    HW2 8160   3.363   5.422   1.716
 2421SOL     OW 8161   4.135   6.729   3.766
 2421SOL    HW1 8162   4.043   6.769   3.766
 2421SOL    HW2 8163   4.172   6.730   3.859
 2422SOL     OW 8164   3.995   6.849   1.008
 2422SOL    HW1 8165   4.050   6.891   0.935
 2422SOL    HW2 8166   4.030   6.757   1.027
 2423SOL     OW 8167   1.771   5.177   1.154
 2423SOL    HW1 8168   1.776   5.252   1.220
 2423SOL    HW2 8169   1.826   5.199   1.074
 2424SOL     OW 8170   5.809   6.425   6.859
 2424SOL    HW1 8171   5.837   6.329   6.853
 2424SOL    HW2 8172   5.863   6.471   6.930
 2425SOL     OW 8173   4.780   6.334   5.672
 2425SOL    HW1 8174   4.762   6.305   5.766
 2425SOL    HW2 8175   4.878   6.343   5.657
 2426SOL     OW 8176   0.974   5.462   5.157
 2426SOL    HW1 8177   0.927   5.381   5.193
 2426SOL    HW2 8178   0.909   5.518   5.105
 2427SOL     OW 8179   4.963   6.001   6.519
 2427SOL    HW1 8180   4.970   5.921   6.459
 2427SOL    HW2 8181   4.880   5.993   6.574
 2428SOL     OW 8182   0.014   0.764   2.728
 2428SOL    HW1 8183   0.094   0.781   2.670
 2428SOL    HW2 8184   6.951   0.817   2.694
 2429SOL     OW 8185   5.530   4.466   2.526
 2429SOL    HW1 8186   5.627   4.447   2.539
 2429SOL    HW2 8187   5.480   4.446   2.610
 2430SOL     OW 8188   5.884   2.185   0.600
 2430SOL    HW1 8189   5.931   2.113   0.548
 2430SOL    HW2 8190   5.866   2.153   0.693
 2431SOL     OW 8191   5.669   1.423   1.309
 2431SOL    HW1 8192   5.694   1.374   1.392
 2431SOL    HW2 8193   5.688   1.365   1.230
 2432SOL     OW 8194   3.479   6.095   1.359
 2432SOL    HW1 8195   3.559   6.036   1.360
 2432SOL    HW2 8196   3.485   6.162   1.433
 2433SOL     OW 8197   0.709   6.204   0.354
 2433SOL    HW1 8198   0.709   6.273   0.427
 2433SOL    HW2 8199   0.796   6.156   0.355
 2434SOL     OW 8200   4.932   1.969   2.219
 2434SOL    HW1 8201   5.003   1.957   2.150
 2434SOL    HW2 8202   4.960   2.039   2.285
 2435SOL     OW 8203   5.661   5.718   0.728
 2435SOL    HW1 8204   5.565   5.692   0.739
 2435SOL    HW2 8205   5.696   5.751   0.815
 2436SOL     OW 8206   1.626   1.170   1.461
 2436SOL    HW1 8207   1.651   1.084   1.416
 2436SOL    HW2 8208   1.666   1.173   1.552
 2437SOL     OW 8209   5.623   6.111   1.729
 2437SOL    HW1 8210   5.604   6.204   1.762
 2437SOL    HW2 8211   5.688   6.067   1.790
 2438SOL     OW 8212   4.179   1.554   4.555
 2438SOL    HW1 8213   4.132   1.634   4.590
 2438SOL    HW2 8214   4.197   1.490   4.629
 2439SOL     OW 8215   0.467   5.221   6.561
 2439SOL    HW1 8216   0.388   5.164   6.541
 2439SOL    HW2 8217   0.545   5.192   6.505
 2440SOL     OW 8218   4.598   6.790   5.486
 2440SOL    HW1 8219   4.633   6.698   5.505
 2440SOL    HW2 8220   4.523   6.783   5.420
 2441SOL     OW 8221   5.930   0.976   0.107
 2441SOL    HW1 8222   5.864   1.003   0.037
 2441SOL    HW2 8223   5.888   0.983   0.198
 2442SOL     OW 8224   5.909   4.430   3.182
 2442SOL    HW1 8225   5.964   4.384   3.112
 2442SOL    HW2 8226   5.888   4.365   3.255
 2443SOL     OW 8227   2.819   1.004   6.291
 2443SOL    HW1 8228   2.908   1.045   6.309
 2443SOL    HW2 8229   2.790   0.950   6.370
 2444SOL     OW 8230   4.108   4.568   6.946
 2444SOL    HW1 8231   4.111   4.662   6.911
 2444SOL    HW2 8232   4.200   4.538   6.970
 2445SOL     OW 8233   6.037   1.321   2.079
 2445SOL    HW1 8234   6.025   1.390   2.008
 2445SOL    HW2 8235   6.131   1.286   2.075
 2446SOL     OW 8236   0.990   2.882   3.379
 2446SOL    HW1 8237   1.000   2.941   3.299
 2446SOL    HW2 8238   0.906   2.828   3.370
 2447SOL     OW 8239   2.269   0.542   1.220
 2447SOL    HW1 8240   2.308   0.533   1.128
 2447SOL    HW2 8241   2.224   0.631   1.229
 2448SOL     OW 8242   6.267   1.807   4.188
 2448SOL    HW1 8243   6.329   1.883   4.210
 2448SOL    HW2 8244   6.247   1.756   4.272
 2449SOL     OW 8245   1.348   3.149   1.628
 2449SOL    HW1 8246   1.379   3.192   1.543
 2449SOL    HW2 8247   1.368   3.209   1.705
 2450SOL     OW 8248   2.516   5.281   6.570
 2450SOL    HW1 8249   2.557   5.198   6.606
 2450SOL    HW2 8250   2.518   5.279   6.470
 2451SOL     OW 8251   1.013   0.300   3.232
 2451SOL    HW1 8252   1.071   0.220   3.220
 2451SOL    HW2 8253   1.020   0.333   3.326
 2452SOL     OW 8254   2.930   1.847   3.609
 2452SOL    HW1 8255   2.940   1.762   3.660
 2452SOL    HW2 8256   3.020   1.884   3.588
 2453SOL     OW 8257   6.917   3.372   0.843
 2453SOL    HW1 8258   7.007   3.347   0.808
 2453SOL    HW2 8259   6.928   3.425   0.928
 2454SOL     OW 8260   2.514   6.451   0.018
 2454SOL    HW1 8261   2.577   6.502   0.076
 2454SOL    HW2 8262   2.499   6.501   6.948
 2455SOL     OW 8263   4.144   1.178   0.627
 2455SOL    HW1 8264   4.234   1.215   0.605
 2455SOL    HW2 8265   4.149   1.124   0.710
 2456SOL     OW 8266   0.624   2.522   6.987
 2456SOL    HW1 8267   0.724   2.516   6.987
 2456SOL    HW2 8268   0.593   2.559   6.899
 2457SOL     OW 8269   6.380   1.295   5.387
 2457SOL    HW1 8270   6.327   1.380   5.386
 2457SOL    HW2 8271   6.377   1.253   5.296
 2458SOL     OW 8272   1.268   6.759   3.684
 2458SOL    HW1 8273   1.348   6.700   3.672
 2458SOL    HW2 8274   1.185   6.704   3.675
 2459SOL     OW 8275   3.116   6.022   5.859
 2459SOL    HW1 8276   3.070   5.955   5.916
 2459SOL    HW2 8277   3.152   5.977   5.777
 2460SOL     OW 8278   1.053   1.104   0.590
 2460SOL    HW1 8279   1.073   1.202   0.599
 2460SOL    HW2 8280   0.959   1.092   0.557
 2461SOL     OW 8281   4.923   1.032   4.275
 2461SOL    HW1 8282   4.832   1.070   4.265
 2461SOL    HW2 8283   4.917   0.946   4.326
 2462SOL     OW 8284   2.401   5.133   6.960
 2462SOL    HW1 8285   2.381   5.185   6.877
 2462SOL    HW2 8286   2.499   5.113   6.964
 2463SOL     OW 8287   6.051   1.809   0.142
 2463SOL    HW1 8288   5.956   1.796   0.171
 2463SOL    HW2 8289   6.111   1.754   0.200
 2464SOL     OW 8290   1.857   3.208   3.089
 2464SOL    HW1 8291   1.833   3.222   3.186
 2464SOL    HW2 8292   1.955   3.193   3.081
 2465SOL     OW 8293   0.368   6.587   6.534
 2465SOL    HW1 8294   0.361   6.545   6.624
 2465SOL    HW2 8295   0.437   6.660   6.536
 2466SOL     OW 8296   2.027   1.334   2.600
 2466SOL    HW1 8297   1.929   1.324   2.617
 2466SOL    HW2 8298   2.048   1.429   2.578
 2467SOL     OW 8299   4.585   1.934   5.233
 2467SOL    HW1 8300   4.680   1.959   5.210
 2467SOL    HW2 8301   4.586   1.862   5.303
 2468SOL     OW 8302   4.177   6.644   1.049
 2468SOL    HW1 8303   4.232   6.727   1.042
 2468SOL    HW2 8304   4.207   6.590   1.127
 2469SOL     OW 8305   3.905   3.263   4.844
 2469SOL    HW1 8306   3.886   3.360   4.832
 2469SOL    HW2 8307   3.905   3.240   4.941
 2470SOL     OW 8308   4.082   4.724   5.565
 2470SOL    HW1 8309   4.147   4.710   5.490
 2470SOL    HW2 8310   4.132   4.727   5.651
 2471SOL     OW 8311   3.051   6.138   0.441
 2471SOL    HW1 8312   3.003   6.185   0.367
 2471SOL    HW2 8313   3.150   6.145   0.426
 2472SOL     OW 8314   4.662   2.392   3.231
 2472SOL    HW1 8315   4.674   2.322   3.162
 2472SOL    HW2 8316   4.624   2.351   3.315
 2473SOL     OW 8317   1.441   3.860   4.633
 2473SOL    HW1 8318   1.360   3.825   4.680
 2473SOL    HW2 8319   1.439   3.831   4.538
 2474SOL     OW 8320   0.497   6.175   1.063
 2474SOL    HW1 8321   0.418   6.221   1.023
 2474SOL    HW2 8322   0.467   6.117   1.139
 2475SOL     OW 8323   4.479   0.964   2.397
 2475SOL    HW1 8324   4.535   0.882   2.391
 2475SOL    HW2 8325   4.537   1.045   2.392
 2476SOL     OW 8326   5.407   0.497   1.812
 2476SOL    HW1 8327   5.355   0.444   1.744
 2476SOL    HW2 8328   5.347   0.521   1.888
 2477SOL     OW 8329   4.520   0.886   2.893
 2477SOL    HW1 8330   4.608   0.918   2.929
 2477SOL    HW2 8331   4.453   0.960   2.899
 2478SOL     OW 8332   6.104   1.415   1.414
 2478SOL    HW1 8333   6.172   1.467   1.465
 2478SOL    HW2 8334   6.135   1.320   1.405
 2479SOL     OW 8335   1.123   2.856   2.259
 2479SOL    HW1 8336   1.057   2.846   2.185
 2479SOL    HW2 8337   1.198   2.791   2.246
 2480SOL     OW 8338   4.749   3.894   0.740
 2480SOL    HW1 8339   4.757   3.973   0.801
 2480SOL    HW2 8340   4.725   3.813   0.793
 2481SOL     OW 8341   3.822   6.225   0.670
 2481SOL    HW1 8342   3.876   6.305   0.647
 2481SOL    HW2 8343   3.725   6.249   0.669
 2482SOL     OW 8344   5.422   3.454   5.969
 2482SOL    HW1 8345   5.453   3.430   5.877
 2482SOL    HW2 8346   5.499   3.454   6.031
 2483SOL     OW 8347   1.700   1.595   0.447
 2483SOL    HW1 8348   1.610   1.604   0.405
 2483SOL    HW2 8349   1.771   1.597   0.377
 2484SOL     OW 8350   3.684   0.350   6.920
 2484SOL    HW1 8351   3.773   0.361   6.963
 2484SOL    HW2 8352   3.695   0.325   6.824
 2485SOL     OW 8353   6.034   3.268   1.527
 2485SOL    HW1 8354   5.957   3.324   1.557
 2485SOL    HW2 8355   6.001   3.197   1.465
 2486SOL     OW 8356   1.576   4.726   5.132
 2486SOL    HW1 8357   1.651   4.680   5.180
 2486SOL    HW2 8358   1.612   4.773   5.051
 2487SOL     OW 8359   4.162   6.761   0.432
 2487SOL    HW1 8360   4.227   6.759   0.356
 2487SOL    HW2 8361   4.125   6.670   0.447
 2488SOL     OW 8362   1.473   4.240   1.876
 2488SOL    HW1 8363   1.532   4.242   1.957
 2488SOL    HW2 8364   1.430   4.330   1.865
 2489SOL     OW 8365   0.835   6.336   4.315
 2489SOL    HW1 8366   0.834   6.340   4.415
 2489SOL    HW2 8367   0.771   6.266   4.284
 2490SOL     OW 8368   6.781   5.059   1.093
 2490SOL    HW1 8369   6.857   5.098   1.041
 2490SOL    HW2 8370   6.695   5.074   1.043
 2491SOL     OW 8371   2.868   4.467   6.969
 2491SOL    HW1 8372   2.874   4.547   0.014
 2491SOL    HW2 8373   2.937   4.400   6.995
 2492SOL     OW 8374   4.631   3.711   0.909
 2492SOL    HW1 8375   4.679   3.698   0.996
 2492SOL    HW2 8376   4.599   3.623   0.875
 2493SOL     OW 8377   5.664   0.236   2.019
 2493SOL    HW1 8378   5.597   0.179   1.972
 2493SOL    HW2 8379   5.722   0.180   2.078
 2494SOL     OW 8380   5.624   4.545   3.140
 2494SOL    HW1 8381   5.702   4.486   3.120
 2494SOL    HW2 8382   5.561   4.497   3.201
 2495SOL     OW 8383   5.260   6.145   4.023
 2495SOL    HW1 8384   5.234   6.130   3.927
 2495SOL    HW2 8385   5.247   6.061   4.075
 2496SOL     OW 8386   0.109   1.921   6.575
 2496SOL    HW1 8387   0.183   1.913   6.508
 2496SOL    HW2 8388   0.141   1.970   6.655
 2497SOL     OW 8389   0.062   0.264   0.900
 2497SOL    HW1 8390   0.158   0.246   0.878
 2497SOL    HW2 8391   0.048   0.254   0.999
 2498SOL     OW 8392   2.958   2.101   4.928
 2498SOL    HW1 8393   3.017   2.020   4.927
 2498SOL    HW2 8394   3.009   2.179   4.967
 2499SOL     OW 8395   5.556   2.474   2.503
 2499SOL    HW1 8396   5.604   2.551   2.545
 2499SOL    HW2 8397   5.457   2.486   2.516
 2500SOL     OW 8398   4.049   4.297   6.649
 2500SOL    HW1 8399   4.127   4.308   6.587
 2500SOL    HW2 8400   3.973   4.355   6.619
 2501SOL     OW 8401   5.167   5.632   0.521
 2501SOL    HW1 8402   5.152   5.668   0.613
 2501SOL    HW2 8403   5.083   5.586   0.490
 2502SOL     OW 8404   1.347   0.655   3.384
 2502SOL    HW1 8405   1.367   0.561   3.360
 2502SOL    HW2 8406   1.318   0.660   3.480
 2503SOL     OW 8407   2.094   6.554   4.571
 2503SOL    HW1 8408   2.183   6.557   4.617
 2503SOL    HW2 8409   2.037   6.483   4.613
 2504SOL     OW 8410   3.677   5.580   4.687
 2504SOL    HW1 8411   3.623   5.643   4.630
 2504SOL    HW2 8412   3.616   5.512   4.727
 2505SOL     OW 8413   0.274   0.112   3.233
 2505SOL    HW1 8414   0.231   0.032   3.276
 2505SOL    HW2 8415   0.372   0.094   3.222
 2506SOL     OW 8416   6.233   3.798   5.882
 2506SOL    HW1 8417   6.217   3.877   5.822
 2506SOL    HW2 8418   6.291   3.826   5.959
 2507SOL     OW 8419   6.883   3.516   0.463
 2507SOL    HW1 8420   6.838   3.427   0.462
 2507SOL    HW2 8421   6.820   3.586   0.432
 2508SOL     OW 8422   2.876   1.506   3.473
 2508SOL    HW1 8423   2.954   1.469   3.523
 2508SOL    HW2 8424   2.900   1.514   3.376
 2509SOL     OW 8425   0.011   3.967   0.965
 2509SOL    HW1 8426   0.000   3.874   0.930
 2509SOL    HW2 8427   0.086   4.012   0.917
 2510SOL     OW 8428   3.213   5.334   1.150
 2510SOL    HW1 8429   3.188   5.324   1.054
 2510SOL    HW2 8430   3.131   5.347   1.205
 2511SOL     OW 8431   3.655   1.843   4.307
 2511SOL    HW1 8432   3.564   1.802   4.299
 2511SOL    HW2 8433   3.724   1.775   4.281
 2512SOL     OW 8434   4.715   3.035   5.581
 2512SOL    HW1 8435   4.628   3.038   5.629
 2512SOL    HW2 8436   4.751   3.127   5.570
 2513SOL     OW 8437   1.959   4.202   5.168
 2513SOL    HW1 8438   2.007   4.289   5.183
 2513SOL    HW2 8439   2.014   4.144   5.108
 2514SOL     OW 8440   0.220   3.557   4.996
 2514SOL    HW1 8441   0.176   3.574   4.908
 2514SOL    HW2 8442   0.226   3.642   5.048
 2515SOL     OW 8443   1.218   0.624   1.274
 2515SOL    HW1 8444   1.251   0.613   1.180
 2515SOL    HW2 8445   1.272   0.566   1.335
 2516SOL     OW 8446   6.015   1.828   2.400
 2516SOL    HW1 8447   5.945   1.897   2.421
 2516SOL    HW2 8448   6.096   1.872   2.364
 2517SOL     OW 8449   0.924   6.757   5.857
 2517SOL    HW1 8450   1.019   6.728   5.850
 2517SOL    HW2 8451   0.876   6.734   5.773
 2518SOL     OW 8452   1.416   4.545   6.929
 2518SOL    HW1 8453   1.504   4.573   6.966
 2518SOL    HW2 8454   1.424   4.453   6.890
 2519SOL     OW 8455   4.179   6.375   2.145
 2519SOL    HW1 8456   4.191   6.291   2.093
 2519SOL    HW2 8457   4.214   6.362   2.238
 2520SOL     OW 8458   2.787   1.474   0.529
 2520SOL    HW1 8459   2.785   1.442   0.434
 2520SOL    HW2 8460   2.697   1.507   0.555
 2521SOL     OW 8461   2.269   0.943   5.500
 2521SOL    HW1 8462   2.329   1.023   5.492
 2521SOL    HW2 8463   2.174   0.971   5.483
 2522SOL     OW 8464   0.905   2.727   5.060
 2522SOL    HW1 8465   1.001   2.703   5.073
 2522SOL    HW2 8466   0.869   2.769   5.143
 2523SOL     OW 8467   0.243   3.466   1.268
 2523SOL    HW1 8468   0.253   3.565   1.252
 2523SOL    HW2 8469   0.333   3.422   1.261
 2524SOL     OW 8470   0.973   6.340   5.222
 2524SOL    HW1 8471   0.930   6.386   5.144
 2524SOL    HW2 8472   0.904   6.323   5.292
 2525SOL     OW 8473   1.214   2.410   5.755
 2525SOL    HW1 8474   1.191   2.350   5.831
 2525SOL    HW2 8475   1.312   2.408   5.739
 2526SOL     OW 8476   1.372   4.438   6.174
 2526SOL    HW1 8477   1.408   4.467   6.263
 2526SOL    HW2 8478   1.374   4.338   6.168
 2527SOL     OW 8479   5.388   5.880   5.147
 2527SOL    HW1 8480   5.443   5.926   5.077
 2527SOL    HW2 8481   5.359   5.946   5.216
 2528SOL     OW 8482   5.800   5.092   0.333
 2528SOL    HW1 8483   5.783   5.156   0.258
 2528SOL    HW2 8484   5.714   5.053   0.364
 2529SOL     OW 8485   6.792   6.015   6.518
 2529SOL    HW1 8486   6.756   5.925   6.492
 2529SOL    HW2 8487   6.852   6.005   6.598
 2530SOL     OW 8488   2.901   6.229   5.555
 2530SOL    HW1 8489   2.948   6.264   5.474
 2530SOL    HW2 8490   2.854   6.144   5.532
 2531SOL     OW 8491   5.611   5.639   4.875
 2531SOL    HW1 8492   5.541   5.581   4.833
 2531SOL    HW2 8493   5.569   5.724   4.907
 2532SOL     OW 8494   0.287   6.103   0.842
 2532SOL    HW1 8495   0.251   6.090   0.935
 2532SOL    HW2 8496   0.211   6.116   0.779
 2533SOL     OW 8497   3.071   6.833   4.335
 2533SOL    HW1 8498   3.046   6.924   4.302
 2533SOL    HW2 8499   3.128   6.788   4.267
 2534SOL     OW 8500   3.831   0.693   2.853
 2534SOL    HW1 8501   3.733   0.673   2.848
 2534SOL    HW2 8502   3.851   0.777   2.804
 2535SOL     OW 8503   3.501   2.345   5.319
 2535SOL    HW1 8504   3.500   2.442   5.345
 2535SOL    HW2 8505   3.419   2.325   5.264
 2536SOL     OW 8506   1.541   1.486   4.432
 2536SOL    HW1 8507   1.587   1.555   4.378
 2536SOL    HW2 8508   1.443   1.484   4.410
 2537SOL     OW 8509   3.569   0.342   6.015
 2537SOL    HW1 8510   3.499   0.377   5.952
 2537SOL    HW2 8511   3.578   0.243   6.003
 2538SOL     OW 8512   0.824   4.520   3.053
 2538SOL    HW1 8513   0.856   4.448   3.115
 2538SOL    HW2 8514   0.831   4.488   2.959
 2539SOL     OW 8515   6.310   0.983   4.801
 2539SOL    HW1 8516   6.348   0.971   4.710
 2539SOL    HW2 8517   6.227   0.927   4.810
 2540SOL     OW 8518   3.929   1.798   3.135
 2540SOL    HW1 8519   3.970   1.866   3.073
 2540SOL    HW2 8520   3.951   1.706   3.102
 2541SOL     OW 8521   2.873   0.429   5.122
 2541SOL    HW1 8522   2.927   0.445   5.204
 2541SOL    HW2 8523   2.838   0.516   5.087
 2542SOL     OW 8524   3.518   1.408   5.576
 2542SOL    HW1 8525   3.461   1.358   5.511
 2542SOL    HW2 8526   3.461   1.468   5.633
 2543SOL     OW 8527   1.738   1.108   3.277
 2543SOL    HW1 8528   1.642   1.105   3.248
 2543SOL    HW2 8529   1.760   1.200   3.311
 2544SOL     OW 8530   0.368   6.650   1.772
 2544SOL    HW1 8531   0.451   6.600   1.798
 2544SOL    HW2 8532   0.392   6.723   1.708
 2545SOL     OW 8533   1.085   0.037   1.978
 2545SOL    HW1 8534   1.042   0.086   2.054
 2545SOL    HW2 8535   1.102   6.957   2.005
 2546SOL     OW 8536   0.083   0.986   1.755
 2546SOL    HW1 8537   0.156   1.053   1.764
 2546SOL    HW2 8538   0.098   0.930   1.673
 2547SOL     OW 8539   5.924   5.556   0.723
 2547SOL    HW1 8540   5.845   5.617   0.739
 2547SOL    HW2 8541   5.905   5.498   0.644
 2548SOL     OW 8542   1.466   6.893   5.961
 2548SOL    HW1 8543   1.492   6.969   5.900
 2548SOL    HW2 8544   1.495   6.914   6.054
 2549SOL     OW 8545   2.193   0.623   0.678
 2549SOL    HW1 8546   2.160   0.618   0.772
 2549SOL    HW2 8547   2.266   0.556   0.665
 2550SOL     OW 8548   6.920   0.283   6.831
 2550SOL    HW1 8549   6.933   0.338   6.748
 2550SOL    HW2 8550   6.876   0.339   6.901
 2551SOL     OW 8551   2.846   5.413   0.526
 2551SOL    HW1 8552   2.939   5.431   0.558
 2551SOL    HW2 8553   2.846   5.335   0.463
 2552SOL     OW 8554   1.894   5.341   5.290
 2552SOL    HW1 8555   1.934   5.352   5.199
 2552SOL    HW2 8556   1.819   5.406   5.301
 2553SOL     OW 8557   5.104   3.108   5.657
 2553SOL    HW1 8558   5.021   3.164   5.664
 2553SOL    HW2 8559   5.078   3.013   5.638
 2554SOL     OW 8560   1.546   6.870   0.297
 2554SOL    HW1 8561   1.592   6.900   0.381
 2554SOL    HW2 8562   1.450   6.852   0.317
 2555SOL     OW 8563   5.776   6.937   5.396
 2555SOL    HW1 8564   5.840   6.967   5.326
 2555SOL    HW2 8565   5.702   7.004   5.404
 2556SOL     OW 8566   4.428   5.924   0.728
 2556SOL    HW1 8567   4.395   5.831   0.714
 2556SOL    HW2 8568   4.379   5.966   0.805
 2557SOL     OW 8569   2.498   4.011   0.044
 2557SOL    HW1 8570   2.589   4.051   0.057
 2557SOL    HW2 8571   2.451   4.059   6.984
 2558SOL     OW 8572   5.162   2.005   4.124
 2558SOL    HW1 8573   5.253   2.045   4.120
 2558SOL    HW2 8574   5.160   1.920   4.071
 2559SOL     OW 8575   0.084   3.454   3.910
 2559SOL    HW1 8576   0.148   3.394   3.959
 2559SOL    HW2 8577   0.131   3.498   3.834
 2560SOL     OW 8578   5.734   3.532   3.893
 2560SOL    HW1 8579   5.728   3.529   3.993
 2560SOL    HW2 8580   5.718   3.441   3.856
 2561SOL     OW 8581   3.292   6.094   5.402
 2561SOL    HW1 8582   3.292   6.118   5.499
 2561SOL    HW2 8583   3.382   6.116   5.363
 2562SOL     OW 8584   2.303   5.672   2.008
 2562SOL    HW1 8585   2.402   5.680   1.997
 2562SOL    HW2 8586   2.261   5.762   2.001
 2563SOL     OW 8587   4.002   2.584   0.262
 2563SOL    HW1 8588   4.045   2.496   0.243
 2563SOL    HW2 8589   4.068   2.644   0.307
 2564SOL     OW 8590   2.298   6.379   5.980
 2564SOL    HW1 8591   2.388   6.412   6.009
 2564SOL    HW2 8592   2.279   6.410   5.887
 2565SOL     OW 8593   0.824   0.325   6.911
 2565SOL    HW1 8594   0.735   0.280   6.921
 2565SOL    HW2 8595   0.897   0.257   6.919
 2566SOL     OW 8596   2.668   6.730   0.854
 2566SOL    HW1 8597   2.735   6.664   0.888
 2566SOL    HW2 8598   2.666   6.728   0.754
 2567SOL     OW 8599   0.905   1.435   1.191
 2567SOL    HW1 8600   0.819   1.413   1.145
 2567SOL    HW2 8601   0.958   1.497   1.133
 2568SOL     OW 8602   3.976   6.898   6.743
 2568SOL    HW1 8603   3.919   6.906   6.824
 2568SOL    HW2 8604   4.024   6.984   6.727
 2569SOL     OW 8605   3.264   1.517   1.929
 2569SOL    HW1 8606   3.224   1.585   1.989
 2569SOL    HW2 8607   3.357   1.495   1.960
 2570SOL     OW 8608   5.833   6.960   6.485
 2570SOL    HW1 8609   5.883   0.031   6.494
 2570SOL    HW2 8610   5.862   6.914   6.401
 2571SOL     OW 8611   2.694   4.760   6.051
 2571SOL    HW1 8612   2.771   4.786   6.109
 2571SOL    HW2 8613   2.624   4.831   6.055
 2572SOL     OW 8614   2.589   4.908   0.509
 2572SOL    HW1 8615   2.541   4.862   0.435
 2572SOL    HW2 8616   2.614   4.842   0.580
 2573SOL     OW 8617   6.632   2.583   1.844
 2573SOL    HW1 8618   6.705   2.516   1.855
 2573SOL    HW2 8619   6.656   2.647   1.770
 2574SOL     OW 8620   6.186   4.296   0.573
 2574SOL    HW1 8621   6.110   4.360   0.577
 2574SOL    HW2 8622   6.174   4.225   0.642
 2575SOL     OW 8623   4.933   5.409   1.179
 2575SOL    HW1 8624   5.015   5.388   1.126
 2575SOL    HW2 8625   4.867   5.335   1.169
 2576SOL     OW 8626   4.531   6.497   4.644
 2576SOL    HW1 8627   4.511   6.491   4.546
 2576SOL    HW2 8628   4.626   6.470   4.660
 2577SOL     OW 8629   4.337   6.553   1.794
 2577SOL    HW1 8630   4.354   6.455   1.794
 2577SOL    HW2 8631   4.290   6.579   1.879
 2578SOL     OW 8632   4.677   1.710   5.376
 2578SOL    HW1 8633   4.691   1.635   5.312
 2578SOL    HW2 8634   4.732   1.695   5.458
 2579SOL     OW 8635   1.691   6.225   3.474
 2579SOL    HW1 8636   1.593   6.212   3.461
 2579SOL    HW2 8637   1.715   6.205   3.569
 2580SOL     OW 8638   2.824   3.787   6.431
 2580SOL    HW1 8639   2.771   3.871   6.420
 2580SOL    HW2 8640   2.774   3.724   6.492
 2581SOL     OW 8641   1.132   4.948   1.224
 2581SOL    HW1 8642   1.096   5.038   1.246
 2581SOL    HW2 8643   1.223   4.956   1.184
 2582SOL     OW 8644   0.722   4.263   2.045
 2582SOL    HW1 8645   0.634   4.225   2.015
 2582SOL    HW2 8646   0.707   4.356   2.079
 2583SOL     OW 8647   1.103   1.556   6.999
 2583SOL    HW1 8648   1.128   1.611   0.064
 2583SOL    HW2 8649   1.005   1.539   6.999
 2584SOL     OW 8650   4.068   4.860   6.379
 2584SOL    HW1 8651   4.101   4.766   6.390
 2584SOL    HW2 8652   4.102   4.897   6.292
 2585SOL     OW 8653   4.105   2.918   7.010
 2585SOL    HW1 8654   4.125   2.917   0.093
 2585SOL    HW2 8655   4.107   3.013   6.976
 2586SOL     OW 8656   3.868   1.362   3.108
 2586SOL    HW1 8657   3.894   1.325   3.198
 2586SOL    HW2 8658   3.772   1.344   3.091
 2587SOL     OW 8659   0.324   0.601   2.921
 2587SOL    HW1 8660   0.326   0.640   2.829
 2587SOL    HW2 8661   0.237   0.625   2.965
 2588SOL     OW 8662   5.002   1.309   6.362
 2588SOL    HW1 8663   4.955   1.325   6.275
 2588SOL    HW2 8664   4.935   1.287   6.432
 2589SOL     OW 8665   1.161   6.500   5.922
 2589SOL    HW1 8666   1.172   6.592   5.885
 2589SOL    HW2 8667   1.236   6.442   5.890
 2590SOL     OW 8668   3.312   5.458   0.541
 2590SOL    HW1 8669   3.232   5.517   0.554
 2590SOL    HW2 8670   3.333   5.452   0.443
 2591SOL     OW 8671   6.953   4.942   3.147
 2591SOL    HW1 8672   6.897   4.925   3.228
 2591SOL    HW2 8673   6.909   4.903   3.066
 2592SOL     OW 8674   3.464   5.659   0.072
 2592SOL    HW1 8675   3.458   5.758   0.062
 2592SOL    HW2 8676   3.556   5.629   0.046
 2593SOL     OW 8677   3.802   5.663   0.238
 2593SOL    HW1 8678   3.720   5.646   0.292
 2593SOL    HW2 8679   3.873   5.703   0.296
 2594SOL     OW 8680   1.739   4.723   6.272
 2594SOL    HW1 8681   1.655   4.752   6.227
 2594SOL    HW2 8682   1.717   4.663   6.349
 2595SOL     OW 8683   0.102   0.719   3.680
 2595SOL    HW1 8684   0.093   0.740   3.777
 2595SOL    HW2 8685   0.184   0.663   3.666
 2596SOL     OW 8686   3.282   2.160   1.877
 2596SOL    HW1 8687   3.311   2.182   1.970
 2596SOL    HW2 8688   3.362   2.135   1.822
 2597SOL     OW 8689   0.533   5.089   5.723
 2597SOL    HW1 8690   0.547   5.011   5.662
 2597SOL    HW2 8691   0.459   5.146   5.689
 2598SOL     OW 8692   6.298   1.182   3.049
 2598SOL    HW1 8693   6.346   1.240   3.115
 2598SOL    HW2 8694   6.350   1.098   3.035
 2599SOL     OW 8695   1.291   6.118   1.009
 2599SOL    HW1 8696   1.313   6.204   1.055
 2599SOL    HW2 8697   1.268   6.137   0.913
 2600SOL     OW 8698   5.613   2.639   4.767
 2600SOL    HW1 8699   5.709   2.666   4.781
 2600SOL    HW2 8700   5.597   2.625   4.669
 2601SOL     OW 8701   2.308   1.448   2.224
 2601SOL    HW1 8702   2.375   1.495   2.280
 2601SOL    HW2 8703   2.305   1.490   2.133
 2602SOL     OW 8704   1.123   4.692   4.942
 2602SOL    HW1 8705   1.058   4.660   5.011
 2602SOL    HW2 8706   1.198   4.741   4.986
 2603SOL     OW 8707   3.103   0.720   3.691
 2603SOL    HW1 8708   3.187   0.745   3.644
 2603SOL    HW2 8709   3.091   0.779   3.771
 2604SOL     OW 8710   4.603   2.134   2.817
 2604SOL    HW1 8711   4.610   2.170   2.724
 2604SOL    HW2 8712   4.531   2.065   2.820
 2605SOL     OW 8713   1.975   2.790   3.477
 2605SOL    HW1 8714   1.953   2.820   3.570
 2605SOL    HW2 8715   1.946   2.860   3.412
 2606SOL     OW 8716   5.338   4.935   1.456
 2606SOL    HW1 8717   5.372   4.996   1.384
 2606SOL    HW2 8718   5.242   4.913   1.438
 2607SOL     OW 8719   1.112   1.501   2.358
 2607SOL    HW1 8720   1.077   1.576   2.302
 2607SOL    HW2 8721   1.210   1.489   2.341
 2608SOL     OW 8722   4.178   5.222   0.745
 2608SOL    HW1 8723   4.104   5.170   0.701
 2608SOL    HW2 8724   4.179   5.203   0.843
 2609SOL     OW 8725   6.681   1.014   2.113
 2609SOL    HW1 8726   6.591   1.007   2.156
 2609SOL    HW2 8727   6.727   0.925   2.118
 2610SOL     OW 8728   0.639   3.838   4.225
 2610SOL    HW1 8729   0.543   3.839   4.253
 2610SOL    HW2 8730   0.697   3.860   4.304
 2611SOL     OW 8731   3.976   5.889   0.940
 2611SOL    HW1 8732   4.036   5.810   0.954
 2611SOL    HW2 8733   4.007   5.941   0.861
 2612SOL     OW 8734   6.825   6.843   4.691
 2612SOL    HW1 8735   6.801   6.792   4.608
 2612SOL    HW2 8736   6.814   6.940   4.674
 2613SOL     OW 8737   1.794   5.688   6.104
 2613SOL    HW1 8738   1.834   5.684   6.195
 2613SOL    HW2 8739   1.697   5.710   6.110
 2614SOL     OW 8740   6.314   2.143   0.166
 2614SOL    HW1 8741   6.370   2.091   0.102
 2614SOL    HW2 8742   6.235   2.181   0.117
 2615SOL     OW 8743   0.961   2.893   2.511
 2615SOL    HW1 8744   1.013   2.846   2.440
 2615SOL    HW2 8745   0.874   2.846   2.525
 2616SOL     OW 8746   2.401   2.960   5.910
 2616SOL    HW1 8747   2.447   2.939   5.823
 2616SOL    HW2 8748   2.307   2.989   5.892
 2617SOL     OW 8749   4.326   0.333   0.592
 2617SOL    HW1 8750   4.308   0.361   0.498
 2617SOL    HW2 8751   4.412   0.282   0.595
 2618SOL     OW 8752   6.899   0.308   4.049
 2618SOL    HW1 8753   6.953   0.380   4.093
 2618SOL    HW2 8754   6.936   0.290   3.958
 2619SOL     OW 8755   4.774   1.749   1.501
 2619SOL    HW1 8756   4.764   1.836   1.454
 2619SOL    HW2 8757   4.852   1.753   1.564
 2620SOL     OW 8758   6.800   6.877   3.643
 2620SOL    HW1 8759   6.864   6.863   3.568
 2620SOL    HW2 8760   6.754   6.965   3.632
 2621SOL     OW 8761   1.142   5.484   2.088
 2621SOL    HW1 8762   1.088   5.562   2.058
 2621SOL    HW2 8763   1.172   5.498   2.182
 2622SOL     OW 8764   1.245   3.735   5.978
 2622SOL    HW1 8765   1.234   3.642   6.013
 2622SOL    HW2 8766   1.337   3.768   6.000
 2623SOL     OW 8767   0.474   0.585   5.376
 2623SOL    HW1 8768   0.532   0.547   5.304
 2623SOL    HW2 8769   0.519   0.574   5.464
 2624SOL     OW 8770   0.634   1.062   4.696
 2624SOL    HW1 8771   0.548   1.070   4.746
 2624SOL    HW2 8772   0.706   1.112   4.744
 2625SOL     OW 8773   2.527   3.668   5.826
 2625SOL    HW1 8774   2.548   3.733   5.753
 2625SOL    HW2 8775   2.535   3.575   5.791
 2626SOL     OW 8776   6.991   0.243   6.206
 2626SOL    HW1 8777   0.054   0.280   6.155
 2626SOL    HW2 8778   0.009   0.176   6.272
 2627SOL     OW 8779   1.378   1.100   6.159
 2627SOL    HW1 8780   1.311   1.107   6.085
 2627SOL    HW2 8781   1.423   1.011   6.155
 2628SOL     OW 8782   2.157   4.167   5.432
 2628SOL    HW1 8783   2.200   4.122   5.511
 2628SOL    HW2 8784   2.169   4.109   5.351
 2629SOL     OW 8785   4.154   3.398   2.364
 2629SOL    HW1 8786   4.084   3.372   2.431
 2629SOL    HW2 8787   4.115   3.465   2.301
 2630SOL     OW 8788   3.645   1.452   2.700
 2630SOL    HW1 8789   3.709   1.375   2.691
 2630SOL    HW2 8790   3.648   1.508   2.617
 2631SOL     OW 8791   5.100   0.792   6.379
 2631SOL    HW1 8792   5.068   0.786   6.474
 2631SOL    HW2 8793   5.148   0.708   6.355
 2632SOL     OW 8794   5.438   3.030   0.768
 2632SOL    HW1 8795   5.431   3.043   0.867
 2632SOL    HW2 8796   5.532   3.005   0.745
 2633SOL     OW 8797   0.165   1.307   4.505
 2633SOL    HW1 8798   0.236   1.335   4.569
 2633SOL    HW2 8799   0.169   1.208   4.493
 2634SOL     OW 8800   1.117   5.368   3.563
 2634SOL    HW1 8801   1.165   5.368   3.651
 2634SOL    HW2 8802   1.117   5.461   3.526
 2635SOL     OW 8803   0.330   6.022   4.610
 2635SOL    HW1 8804   0.347   5.933   4.653
 2635SOL    HW2 8805   0.272   6.009   4.530
 2636SOL     OW 8806   4.056   0.569   6.032
 2636SOL    HW1 8807   4.085   0.535   5.942
 2636SOL    HW2 8808   4.061   0.495   6.099
 2637SOL     OW 8809   6.161   2.159   4.025
 2637SOL    HW1 8810   6.107   2.239   4.000
 2637SOL    HW2 8811   6.158   2.092   3.950
 2638SOL     OW 8812   6.795   6.661   4.487
 2638SOL    HW1 8813   6.801   6.577   4.541
 2638SOL    HW2 8814   6.847   6.649   4.402
 2639SOL     OW 8815   6.896   6.354   0.444
 2639SOL    HW1 8816   6.875   6.421   0.515
 2639SOL    HW2 8817   6.986   6.314   0.460
 2640SOL     OW 8818   6.684   6.537   5.275
 2640SOL    HW1 8819   6.589   6.533   5.307
 2640SOL    HW2 8820   6.745   6.526   5.353
 2641SOL     OW 8821   5.384   2.464   2.128
 2641SOL    HW1 8822   5.366   2.545   2.185
 2641SOL    HW2 8823   5.297   2.428   2.093
 2642SOL     OW 8824   6.197   0.405   3.830
 2642SOL    HW1 8825   6.161   0.343   3.899
 2642SOL    HW2 8826   6.123   0.435   3.770
 2643SOL     OW 8827   1.493   3.513   3.637
 2643SOL    HW1 8828   1.561   3.547   3.571
 2643SOL    HW2 8829   1.512   3.552   3.727
 2644SOL     OW 8830   4.818   4.997   5.086
 2644SOL    HW1 8831   4.845   5.075   5.030
 2644SOL    HW2 8832   4.718   4.995   5.094
 2645SOL     OW 8833   4.343   5.334   3.773
 2645SOL    HW1 8834   4.388   5.404   3.716
 2645SOL    HW2 8835   4.397   5.250   3.771
 2646SOL     OW 8836   6.691   2.284   7.014
 2646SOL    HW1 8837   6.745   2.226   0.061
 2646SOL    HW2 8838   6.611   2.319   0.048
 2647SOL     OW 8839   6.630   0.332   1.640
 2647SOL    HW1 8840   6.682   0.248   1.625
 2647SOL    HW2 8841   6.619   0.348   1.738
 2648SOL     OW 8842   0.530   6.202   4.090
 2648SOL    HW1 8843   0.523   6.282   4.150
 2648SOL    HW2 8844   0.587   6.226   4.011
 2649SOL     OW 8845   6.454   3.344   0.974
 2649SOL    HW1 8846   6.501   3.341   0.886
 2649SOL    HW2 8847   6.357   3.324   0.960
 2650SOL     OW 8848   1.724   4.990   3.658
 2650SOL    HW1 8849   1.740   4.942   3.744
 2650SOL    HW2 8850   1.768   5.080   3.661
 2651SOL     OW 8851   2.902   1.837   1.314
 2651SOL    HW1 8852   2.971   1.902   1.347
 2651SOL    HW2 8853   2.887   1.851   1.216
 2652SOL     OW 8854   4.209   3.195   5.487
 2652SOL    HW1 8855   4.304   3.183   5.514
 2652SOL    HW2 8856   4.205   3.248   5.402
 2653SOL     OW 8857   4.523   6.684   5.904
 2653SOL    HW1 8858   4.499   6.615   5.973
 2653SOL    HW2 8859   4.439   6.721   5.864
 2654SOL     OW 8860   4.310   6.883   1.365
 2654SOL    HW1 8861   4.390   6.924   1.410
 2654SOL    HW2 8862   4.333   6.859   1.271
 2655SOL     OW 8863   5.219   5.887   4.063
 2655SOL    HW1 8864   5.236   5.803   4.011
 2655SOL    HW2 8865   5.124   5.914   4.050
 2656SOL     OW 8866   3.332   5.327   4.700
 2656SOL    HW1 8867   3.251   5.275   4.725
 2656SOL    HW2 8868   3.342   5.328   4.601
 2657SOL     OW 8869   1.677   4.152   0.099
 2657SOL    HW1 8870   1.590   4.164   0.052
 2657SOL    HW2 8871   1.683   4.215   0.176
 2658SOL     OW 8872   4.719   5.077   0.316
 2658SOL    HW1 8873   4.764   4.988   0.305
 2658SOL    HW2 8874   4.703   5.117   0.226
 2659SOL     OW 8875   4.853   3.141   4.939
 2659SOL    HW1 8876   4.900   3.089   4.868
 2659SOL    HW2 8877   4.819   3.078   5.009
 2660SOL     OW 8878   1.271   0.236   1.890
 2660SOL    HW1 8879   1.207   0.170   1.928
 2660SOL    HW2 8880   1.319   0.283   1.964
 2661SOL     OW 8881   1.875   6.548   1.354
 2661SOL    HW1 8882   1.939   6.625   1.347
 2661SOL    HW2 8883   1.922   6.469   1.393
 2662SOL     OW 8884   3.509   6.795   4.627
 2662SOL    HW1 8885   3.449   6.875   4.621
 2662SOL    HW2 8886   3.473   6.721   4.570
 2663SOL     OW 8887   4.411   4.100   6.608
 2663SOL    HW1 8888   4.362   4.174   6.561
 2663SOL    HW2 8889   4.488   4.070   6.551
 2664SOL     OW 8890   4.503   3.215   5.524
 2664SOL    HW1 8891   4.593   3.172   5.512
 2664SOL    HW2 8892   4.515   3.307   5.562
 2665SOL     OW 8893   2.572   3.471   5.358
 2665SOL    HW1 8894   2.595   3.564   5.330
 2665SOL    HW2 8895   2.643   3.436   5.419
 2666SOL     OW 8896   1.437   5.004   1.447
 2666SOL    HW1 8897   1.398   4.914   1.467
 2666SOL    HW2 8898   1.376   5.075   1.481
 2667SOL     OW 8899   1.531   5.514   3.859
 2667SOL    HW1 8900   1.619   5.466   3.863
 2667SOL    HW2 8901   1.478   5.493   3.941
 2668SOL     OW 8902   6.304   2.708   4.562
 2668SOL    HW1 8903   6.366   2.727   4.637
 2668SOL    HW2 8904   6.356   2.680   4.481
 2669SOL     OW 8905   2.801   5.376   6.135
 2669SOL    HW1 8906   2.861   5.452   6.162
 2669SOL    HW2 8907   2.856   5.303   6.094
 2670SOL     OW 8908   5.801   3.035   4.676
 2670SOL    HW1 8909   5.877   3.001   4.622
 2670SOL    HW2 8910   5.813   3.010   4.772
 2671SOL     OW 8911   4.623   5.123   6.329
 2671SOL    HW1 8912   4.535   5.081   6.305
 2671SOL    HW2 8913   4.652   5.183   6.255
 2672SOL     OW 8914   3.473   6.395   1.115
 2672SOL    HW1 8915   3.475   6.309   1.064
 2672SOL    HW2 8916   3.399   6.452   1.081
 2673SOL     OW 8917   6.274   2.314   2.180
 2673SOL    HW1 8918   6.342   2.297   2.108
 2673SOL    HW2 8919   6.189   2.346   2.137
 2674SOL     OW 8920   1.266   4.631   4.238
 2674SOL    HW1 8921   1.337   4.617   4.306
 2674SOL    HW2 8922   1.308   4.661   4.152
 2675SOL     OW 8923   6.634   6.159   3.807
 2675SOL    HW1 8924   6.603   6.188   3.898
 2675SOL    HW2 8925   6.733   6.144   3.809
 2676SOL     OW 8926   3.059   3.111   1.631
 2676SOL    HW1 8927   3.138   3.167   1.606
 2676SOL    HW2 8928   3.036   3.050   1.556
 2677SOL     OW 8929   2.528   4.739   1.102
 2677SOL    HW1 8930   2.594   4.793   1.050
 2677SOL    HW2 8931   2.446   4.725   1.047
 2678SOL     OW 8932   0.174   2.822   2.114
 2678SOL    HW1 8933   0.138   2.737   2.153
 2678SOL    HW2 8934   0.196   2.886   2.188
 2679SOL     OW 8935   1.977   4.843   2.416
 2679SOL    HW1 8936   2.004   4.854   2.320
 2679SOL    HW2 8937   2.003   4.926   2.466
 2680SOL     OW 8938   0.870   2.211   0.590
 2680SOL    HW1 8939   0.909   2.175   0.674
 2680SOL    HW2 8940   0.905   2.303   0.572
 2681SOL     OW 8941   1.541   2.100   4.526
 2681SOL    HW1 8942   1.575   2.179   4.576
 2681SOL    HW2 8943   1.615   2.035   4.510
 2682SOL     OW 8944   4.587   4.409   3.771
 2682SOL    HW1 8945   4.656   4.443   3.707
 2682SOL    HW2 8946   4.611   4.316   3.800
 2683SOL     OW 8947   2.643   4.674   2.145
 2683SOL    HW1 8948   2.628   4.766   2.181
 2683SOL    HW2 8949   2.736   4.666   2.110
 2684SOL     OW 8950   4.670   6.851   2.136
 2684SOL    HW1 8951   4.588   6.882   2.183
 2684SOL    HW2 8952   4.657   6.757   2.105
 2685SOL     OW 8953   5.450   5.425   5.743
 2685SOL    HW1 8954   5.361   5.417   5.698
 2685SOL    HW2 8955   5.510   5.482   5.687
 2686SOL     OW 8956   1.002   1.285   5.302
 2686SOL    HW1 8957   1.032   1.357   5.241
 2686SOL    HW2 8958   1.045   1.198   5.275
 2687SOL     OW 8959   4.290   5.704   0.654
 2687SOL    HW1 8960   4.310   5.691   0.557
 2687SOL    HW2 8961   4.197   5.739   0.664
 2688SOL     OW 8962   2.473   2.610   0.495
 2688SOL    HW1 8963   2.561   2.638   0.533
 2688SOL    HW2 8964   2.440   2.528   0.542
 2689SOL     OW 8965   6.465   3.588   2.084
 2689SOL    HW1 8966   6.468   3.521   2.158
 2689SOL    HW2 8967   6.525   3.665   2.107
 2690SOL     OW 8968   2.967   3.274   6.116
 2690SOL    HW1 8969   2.941   3.335   6.191
 2690SOL    HW2 8970   2.885   3.250   6.064
 2691SOL     OW 8971   0.112   4.938   3.567
 2691SOL    HW1 8972   0.100   4.839   3.579
 2691SOL    HW2 8973   0.142   4.956   3.473
 2692SOL     OW 8974   2.605   6.777   3.648
 2692SOL    HW1 8975   2.595   6.690   3.601
 2692SOL    HW2 8976   2.671   6.767   3.723
 2693SOL     OW 8977   2.897   4.778   4.052
 2693SOL    HW1 8978   2.955   4.855   4.026
 2693SOL    HW2 8979   2.937   4.693   4.016
 2694SOL     OW 8980   3.649   6.523   3.411
 2694SOL    HW1 8981   3.608   6.603   3.366
 2694SOL    HW2 8982   3.628   6.526   3.509
 2695SOL     OW 8983   5.584   0.436   2.633
 2695SOL    HW1 8984   5.547   0.528   2.622
 2695SOL    HW2 8985   5.662   0.439   2.697
 2696SOL     OW 8986   4.516   3.502   5.575
 2696SOL    HW1 8987   4.430   3.506   5.626
 2696SOL    HW2 8988   4.543   3.595   5.547
 2697SOL     OW 8989   3.391   1.554   2.696
 2697SOL    HW1 8990   3.332   1.483   2.658
 2697SOL    HW2 8991   3.468   1.511   2.744
 2698SOL     OW 8992   2.165   4.547   0.007
 2698SOL    HW1 8993   2.254   4.515   6.989
 2698SOL    HW2 8994   2.176   4.638   0.048
 2699SOL     OW 8995   2.700   5.931   0.494
 2699SOL    HW1 8996   2.632   5.877   0.544
 2699SOL    HW2 8997   2.657   5.978   0.418
 2700SOL     OW 8998   2.794   1.852   1.057
 2700SOL    HW1 8999   2.821   1.793   0.982
 2700SOL    HW2 9000   2.705   1.893   1.039
 2701SOL     OW 9001   5.258   2.358   5.881
 2701SOL    HW1 9002   5.180   2.412   5.913
 2701SOL    HW2 9003   5.278   2.382   5.786
 2702SOL     OW 9004   0.967   2.574   3.490
 2702SOL    HW1 9005   1.016   2.488   3.477
 2702SOL    HW2 9006   1.023   2.650   3.456
 2703SOL     OW 9007   1.044   5.880   1.149
 2703SOL    HW1 9008   1.053   5.785   1.181
 2703SOL    HW2 9009   1.129   5.929   1.169
 2704SOL     OW 9010   6.388   6.206   2.092
 2704SOL    HW1 9011   6.343   6.119   2.116
 2704SOL    HW2 9012   6.322   6.264   2.044
 2705SOL     OW 9013   6.167   0.370   5.227
 2705SOL    HW1 9014   6.250   0.356   5.282
 2705SOL    HW2 9015   6.101   0.423   5.279
 2706SOL     OW 9016   6.367   4.731   3.409
 2706SOL    HW1 9017   6.302   4.751   3.335
 2706SOL    HW2 9018   6.348   4.790   3.487
 2707SOL     OW 9019   3.839   6.943   3.899
 2707SOL    HW1 9020   3.878   6.865   3.850
 2707SOL    HW2 9021   3.910   7.011   3.916
 2708SOL     OW 9022   6.165   2.698   1.346
 2708SOL    HW1 9023   6.159   2.627   1.275
 2708SOL    HW2 9024   6.169   2.654   1.436
 2709SOL     OW 9025   5.345   6.902   6.713
 2709SOL    HW1 9026   5.302   6.984   6.675
 2709SOL    HW2 9027   5.437   6.925   6.746
 2710SOL     OW 9028   1.538   2.862   3.915
 2710SOL    HW1 9029   1.582   2.772   3.918
 2710SOL    HW2 9030   1.513   2.889   4.008
 2711SOL     OW 9031   3.076   0.840   3.960
 2711SOL    HW1 9032   3.174   0.840   3.980
 2711SOL    HW2 9033   3.037   0.930   3.980
 2712SOL     OW 9034   2.560   5.630   1.964
 2712SOL    HW1 9035   2.595   5.575   1.888
 2712SOL    HW2 9036   2.625   5.628   2.040
 2713SOL     OW 9037   2.686   3.567   6.526
 2713SOL    HW1 9038   2.684   3.613   6.615
 2713SOL    HW2 9039   2.593   3.547   6.497
 2714SOL     OW 9040   3.518   3.248   6.753
 2714SOL    HW1 9041   3.435   3.302   6.743
 2714SOL    HW2 9042   3.597   3.302   6.724
 2715SOL     OW 9043   5.313   2.033   0.611
 2715SOL    HW1 9044   5.307   2.129   0.585
 2715SOL    HW2 9045   5.407   2.001   0.604
 2716SOL     OW 9046   4.899   3.484   3.935
 2716SOL    HW1 9047   4.997   3.484   3.957
 2716SOL    HW2 9048   4.866   3.390   3.934
 2717SOL     OW 9049   0.774   6.916   2.123
 2717SOL    HW1 9050   0.784   6.868   2.035
 2717SOL    HW2 9051   0.716   6.862   2.184
 2718SOL     OW 9052   0.411   0.990   5.062
 2718SOL    HW1 9053   0.353   0.940   4.999
 2718SOL    HW2 9054   0.466   0.925   5.116
 2719SOL     OW 9055   1.178   4.818   1.627
 2719SOL    HW1 9056   1.141   4.911   1.618
 2719SOL    HW2 9057   1.116   4.762   1.682
 2720SOL     OW 9058   1.354   0.160   2.621
 2720SOL    HW1 9059   1.394   0.151   2.712
 2720SOL    HW2 9060   1.349   0.257   2.596
 2721SOL     OW 9061   3.292   6.143   3.241
 2721SOL    HW1 9062   3.251   6.151   3.331
 2721SOL    HW2 9063   3.222   6.155   3.170
 2722SOL     OW 9064   5.186   5.067   6.808
 2722SOL    HW1 9065   5.263   5.075   6.745
 2722SOL    HW2 9066   5.204   4.992   6.873
 2723SOL     OW 9067   1.776   5.944   6.390
 2723SOL    HW1 9068   1.826   6.017   6.343
 2723SOL    HW2 9069   1.753   5.975   6.483
 2724SOL     OW 9070   1.501   6.624   5.927
 2724SOL    HW1 9071   1.483   6.722   5.939
 2724SOL    HW2 9072   1.452   6.572   5.996
 2725SOL     OW 9073   5.343   4.239   5.141
 2725SOL    HW1 9074   5.283   4.317   5.123
 2725SOL    HW2 9075   5.402   4.260   5.220
 2726SOL     OW 9076   0.312   2.563   2.005
 2726SOL    HW1 9077   0.325   2.659   2.032
 2726SOL    HW2 9078   0.380   2.506   2.050
 2727SOL     OW 9079   1.006   4.116   4.035
 2727SOL    HW1 9080   1.098   4.146   4.007
 2727SOL    HW2 9081   0.969   4.182   4.101
 2728SOL     OW 9082   5.029   6.424   5.744
 2728SOL    HW1 9083   5.061   6.497   5.683
 2728SOL    HW2 9084   4.982   6.465   5.822
 2729SOL     OW 9085   6.658   6.410   0.606
 2729SOL    HW1 9086   6.681   6.364   0.692
 2729SOL    HW2 9087   6.646   6.342   0.534
 2730SOL     OW 9088   1.350   5.910   1.846
 2730SOL    HW1 9089   1.301   5.969   1.781
 2730SOL    HW2 9090   1.320   5.815   1.835
 2731SOL     OW 9091   2.881   3.477   3.356
 2731SOL    HW1 9092   2.851   3.502   3.264
 2731SOL    HW2 9093   2.945   3.401   3.352
 2732SOL     OW 9094   5.813   1.659   0.840
 2732SOL    HW1 9095   5.797   1.621   0.931
 2732SOL    HW2 9096   5.873   1.598   0.789
 2733SOL     OW 9097   6.628   1.538   5.490
 2733SOL    HW1 9098   6.682   1.610   5.534
 2733SOL    HW2 9099   6.562   1.580   5.427
 2734SOL     OW 9100   2.664   5.690   0.922
 2734SOL    HW1 9101   2.704   5.605   0.888
 2734SOL    HW2 9102   2.716   5.722   1.001
 2735SOL     OW 9103   1.703   2.411   2.271
 2735SOL    HW1 9104   1.710   2.407   2.171
 2735SOL    HW2 9105   1.614   2.448   2.296
 2736SOL     OW 9106   6.830   5.982   4.870
 2736SOL    HW1 9107   6.768   5.944   4.801
 2736SOL    HW2 9108   6.820   5.929   4.955
 2737SOL     OW 9109   3.006   3.628   5.525
 2737SOL    HW1 9110   2.959   3.560   5.582
 2737SOL    HW2 9111   2.963   3.630   5.435
 2738SOL     OW 9112   5.763   6.206   2.108
 2738SOL    HW1 9113   5.797   6.198   2.202
 2738SOL    HW2 9114   5.742   6.302   2.088
 2739SOL     OW 9115   1.375   4.475   0.790
 2739SOL    HW1 9116   1.366   4.395   0.850
 2739SOL    HW2 9117   1.285   4.501   0.756
 2740SOL     OW 9118   6.820   5.008   1.539
 2740SOL    HW1 9119   6.871   4.936   1.493
 2740SOL    HW2 9120   6.871   5.040   1.619
 2741SOL     OW 9121   6.425   1.231   4.589
 2741SOL    HW1 9122   6.400   1.327   4.599
 2741SOL    HW2 9123   6.365   1.188   4.521
 2742SOL     OW 9124   2.137   4.973   0.330
 2742SOL    HW1 9125   2.167   4.959   0.424
 2742SOL    HW2 9126   2.061   5.039   0.329
 2743SOL     OW 9127   0.304   4.807   2.365
 2743SOL    HW1 9128   0.205   4.817   2.371
 2743SOL    HW2 9129   0.325   4.720   2.320
 2744SOL     OW 9130   4.662   2.968   0.359
 2744SOL    HW1 9131   4.571   3.007   0.353
 2744SOL    HW2 9132   4.661   2.889   0.420
 2745SOL     OW 9133   6.987   1.032   4.852
 2745SOL    HW1 9134   0.070   1.018   4.835
 2745SOL    HW2 9135   6.962   0.993   4.940
 2746SOL     OW 9136   1.390   2.319   4.852
 2746SOL    HW1 9137   1.328   2.262   4.907
 2746SOL    HW2 9138   1.481   2.319   4.893
 2747SOL     OW 9139   4.702   5.560   6.691
 2747SOL    HW1 9140   4.666   5.479   6.645
 2747SOL    HW2 9141   4.754   5.615   6.625
 2748SOL     OW 9142   4.577   1.400   1.991
 2748SOL    HW1 9143   4.568   1.338   1.913
 2748SOL    HW2 9144   4.569   1.494   1.959
 2749SOL     OW 9145   6.525   4.656   1.042
 2749SOL    HW1 9146   6.565   4.732   1.094
 2749SOL    HW2 9147   6.458   4.608   1.098
 2750SOL     OW 9148   2.244   4.140   2.028
 2750SOL    HW1 9149   2.296   4.166   2.110
 2750SOL    HW2 9150   2.245   4.040   2.019
 2751SOL     OW 9151   0.617   2.379   1.749
 2751SOL    HW1 9152   0.641   2.378   1.652
 2751SOL    HW2 9153   0.647   2.466   1.789
 2752SOL     OW 9154   3.374   4.432   5.993
 2752SOL    HW1 9155   3.356   4.334   5.996
 2752SOL    HW2 9156   3.346   4.469   5.905
 2753SOL     OW 9157   6.789   6.663   4.928
 2753SOL    HW1 9158   6.727   6.585   4.921
 2753SOL    HW2 9159   6.777   6.723   4.848
 2754SOL     OW 9160   0.313   0.136   0.929
 2754SOL    HW1 9161   0.363   0.169   1.009
 2754SOL    HW2 9162   0.292   0.039   0.941
 2755SOL     OW 9163   3.696   6.889   2.174
 2755SOL    HW1 9164   3.786   6.907   2.213
 2755SOL    HW2 9165   3.702   6.891   2.074
 2756SOL     OW 9166   4.395   6.031   6.940
 2756SOL    HW1 9167   4.394   5.955   6.875
 2756SOL    HW2 9168   4.320   6.020   7.006
 2757SOL     OW 9169   2.114   6.559   0.248
 2757SOL    HW1 9170   2.076   6.472   0.218
 2757SOL    HW2 9171   2.076   6.583   0.338
 2758SOL     OW 9172   4.259   0.532   3.765
 2758SOL    HW1 9173   4.235   0.615   3.714
 2758SOL    HW2 9174   4.343   0.493   3.728
 2759SOL     OW 9175   5.848   6.484   5.699
 2759SOL    HW1 9176   5.914   6.518   5.766
 2759SOL    HW2 9177   5.844   6.385   5.703
 2760SOL     OW 9178   0.273   5.769   1.851
 2760SOL    HW1 9179   0.177   5.797   1.849
 2760SOL    HW2 9180   0.283   5.678   1.811
 2761SOL     OW 9181   2.202   4.675   4.296
 2761SOL    HW1 9182   2.172   4.580   4.308
 2761SOL    HW2 9183   2.122   4.732   4.277
 2762SOL     OW 9184   1.588   1.036   5.306
 2762SOL    HW1 9185   1.523   0.980   5.254
 2762SOL    HW2 9186   1.677   1.034   5.261
 2763SOL     OW 9187   5.203   1.749   3.977
 2763SOL    HW1 9188   5.276   1.760   3.910
 2763SOL    HW2 9189   5.130   1.693   3.938
 2764SOL     OW 9190   6.174   0.704   0.977
 2764SOL    HW1 9191   6.236   0.669   0.907
 2764SOL    HW2 9192   6.087   0.654   0.971
 2765SOL     OW 9193   5.536   0.350   0.854
 2765SOL    HW1 9194   5.585   0.337   0.940
 2765SOL    HW2 9195   5.455   0.407   0.870
 2766SOL     OW 9196   4.571   2.255   0.263
 2766SOL    HW1 9197   4.519   2.315   0.202
 2766SOL    HW2 9198   4.583   2.166   0.220
 2767SOL     OW 9199   6.581   5.145   6.887
 2767SOL    HW1 9200   6.627   5.059   6.866
 2767SOL    HW2 9201   6.497   5.151   6.833
 2768SOL     OW 9202   4.664   0.313   0.933
 2768SOL    HW1 9203   4.584   0.343   0.881
 2768SOL    HW2 9204   4.733   0.277   0.871
 2769SOL     OW 9205   0.749   4.289   3.997
 2769SOL    HW1 9206   0.782   4.197   3.978
 2769SOL    HW2 9207   0.727   4.336   3.912
 2770SOL     OW 9208   2.773   5.195   5.613
 2770SOL    HW1 9209   2.869   5.220   5.621
 2770SOL    HW2 9210   2.722   5.273   5.575
 2771SOL     OW 9211   6.577   0.781   3.318
 2771SOL    HW1 9212   6.580   0.799   3.417
 2771SOL    HW2 9213   6.623   0.855   3.269
 2772SOL     OW 9214   4.395   1.296   0.678
 2772SOL    HW1 9215   4.474   1.292   0.738
 2772SOL    HW2 9216   4.362   1.390   0.672
 2773SOL     OW 9217   5.989   2.316   5.361
 2773SOL    HW1 9218   5.895   2.349   5.366
 2773SOL    HW2 9219   6.016   2.276   5.449
 2774SOL     OW 9220   6.329   3.710   3.546
 2774SOL    HW1 9221   6.371   3.622   3.524
 2774SOL    HW2 9222   6.233   3.710   3.515
 2775SOL     OW 9223   6.999   5.315   6.828
 2775SOL    HW1 9224   0.079   5.288   6.842
 2775SOL    HW2 9225   6.955   5.248   6.767
 2776SOL     OW 9226   4.672   4.449   6.051
 2776SOL    HW1 9227   4.668   4.499   5.964
 2776SOL    HW2 9228   4.750   4.482   6.104
 2777SOL     OW 9229   2.562   1.038   1.692
 2777SOL    HW1 9230   2.639   0.977   1.670
 2777SOL    HW2 9231   2.519   1.069   1.607
 2778SOL     OW 9232   1.203   0.125   5.111
 2778SOL    HW1 9233   1.172   0.030   5.123
 2778SOL    HW2 9234   1.125   0.183   5.088
 2779SOL     OW 9235   4.957   6.661   0.935
 2779SOL    HW1 9236   5.020   6.586   0.953
 2779SOL    HW2 9237   4.889   6.665   1.007
 2780SOL     OW 9238   6.349   6.084   6.977
 2780SOL    HW1 9239   6.255   6.114   6.993
 2780SOL    HW2 9240   6.354   6.032   6.892
 2781SOL     OW 9241   5.993   6.198   1.816
 2781SOL    HW1 9242   5.917   6.136   1.840
 2781SOL    HW2 9243   5.956   6.281   1.774
 2782SOL     OW 9244   3.426   1.906   5.200
 2782SOL    HW1 9245   3.519   1.870   5.195
 2782SOL    HW2 9246   3.373   1.854   5.267
 2783SOL     OW 9247   5.133   3.834   4.231
 2783SOL    HW1 9248   5.164   3.780   4.309
 2783SOL    HW2 9249   5.036   3.857   4.242
 2784SOL     OW 9250   3.432   2.106   1.226
 2784SOL    HW1 9251   3.348   2.120   1.174
 2784SOL    HW2 9252   3.411   2.108   1.323
 2785SOL     OW 9253   5.700   1.904   1.082
 2785SOL    HW1 9254   5.643   1.906   1.000
 2785SOL    HW2 9255   5.650   1.944   1.158
 2786SOL     OW 9256   4.470   5.606   2.341
 2786SOL    HW1 9257   4.546   5.551   2.377
 2786SOL    HW2 9258   4.396   5.545   2.312
 2787SOL     OW 9259   3.267   1.923   6.977
 2787SOL    HW1 9260   3.360   1.955   6.999
 2787SOL    HW2 9261   3.238   1.963   6.891
 2788SOL     OW 9262   2.176   5.020   6.259
 2788SOL    HW1 9263   2.187   4.922   6.249
 2788SOL    HW2 9264   2.123   5.056   6.182
 2789SOL     OW 9265   2.251   2.228   3.531
 2789SOL    HW1 9266   2.180   2.246   3.464
 2789SOL    HW2 9267   2.235   2.283   3.613
 2790SOL     OW 9268   3.154   5.773   2.043
 2790SOL    HW1 9269   3.161   5.873   2.047
 2790SOL    HW2 9270   3.096   5.747   1.965
 2791SOL     OW 9271   1.178   4.137   3.187
 2791SOL    HW1 9272   1.127   4.208   3.235
 2791SOL    HW2 9273   1.276   4.152   3.200
 2792SOL     OW 9274   0.903   6.590   4.661
 2792SOL    HW1 9275   0.840   6.525   4.616
 2792SOL    HW2 9276   0.851   6.647   4.724
 2793SOL     OW 9277   4.879   3.569   3.381
 2793SOL    HW1 9278   4.957   3.575   3.319
 2793SOL    HW2 9279   4.878   3.649   3.441
 2794SOL     OW 9280   0.462   3.482   0.345
 2794SOL    HW1 9281   0.392   3.414   0.364
 2794SOL    HW2 9282   0.460   3.553   0.415
 2795SOL     OW 9283   1.654   3.028   0.663
 2795SOL    HW1 9284   1.739   3.081   0.660
 2795SOL    HW2 9285   1.675   2.932   0.681
 2796SOL     OW 9286   6.621   5.113   2.589
 2796SOL    HW1 9287   6.620   5.203   2.632
 2796SOL    HW2 9288   6.528   5.079   2.579
 2797SOL     OW 9289   5.539   4.844   4.537
 2797SOL    HW1 9290   5.609   4.808   4.475
 2797SOL    HW2 9291   5.579   4.916   4.594
 2798SOL     OW 9292   1.000   5.180   1.302
 2798SOL    HW1 9293   1.059   5.219   1.372
 2798SOL    HW2 9294   0.968   5.252   1.240
 2799SOL     OW 9295   6.615   6.869   0.336
 2799SOL    HW1 9296   6.603   6.769   0.339
 2799SOL    HW2 9297   6.612   6.906   0.428
 2800SOL     OW 9298   4.505   5.198   6.767
 2800SOL    HW1 9299   4.518   5.249   6.852
 2800SOL    HW2 9300   4.549   5.247   6.692
 2801SOL     OW 9301   5.604   5.338   5.019
 2801SOL    HW1 9302   5.598   5.354   4.920
 2801SOL    HW2 9303   5.661   5.408   5.061
 2802SOL     OW 9304   4.592   2.063   5.819
 2802SOL    HW1 9305   4.648   2.040   5.739
 2802SOL    HW2 9306   4.539   2.146   5.800
 2803SOL     OW 9307   3.153   5.714   6.575
 2803SOL    HW1 9308   3.155   5.802   6.529
 2803SOL    HW2 9309   3.072   5.663   6.546
 2804SOL     OW 9310   0.191   4.678   5.118
 2804SOL    HW1 9311   0.190   4.578   5.116
 2804SOL    HW2 9312   0.234   4.712   5.034
 2805SOL     OW 9313   5.098   2.510   2.191
 2805SOL    HW1 9314   5.114   2.608   2.181
 2805SOL    HW2 9315   5.000   2.492   2.189
 2806SOL     OW 9316   6.974   5.428   4.669
 2806SOL    HW1 9317   6.885   5.398   4.704
 2806SOL    HW2 9318   0.022   5.441   4.746
 2807SOL     OW 9319   4.919   5.427   3.396
 2807SOL    HW1 9320   5.003   5.394   3.352
 2807SOL    HW2 9321   4.920   5.527   3.398
 2808SOL     OW 9322   5.455   3.234   2.602
 2808SOL    HW1 9323   5.359   3.208   2.614
 2808SOL    HW2 9324   5.502   3.228   2.690
 2809SOL     OW 9325   5.668   3.146   1.098
 2809SOL    HW1 9326   5.683   3.238   1.062
 2809SOL    HW2 9327   5.582   3.109   1.062
 2810SOL     OW 9328   3.250   5.679   4.219
 2810SOL    HW1 9329   3.188   5.601   4.209
 2810SOL    HW2 9330   3.344   5.647   4.220
 2811SOL     OW 9331   1.532   1.591   3.105
 2811SOL    HW1 9332   1.607   1.620   3.165
 2811SOL    HW2 9333   1.561   1.597   3.009
 2812SOL     OW 9334   5.117   3.877   0.051
 2812SOL    HW1 9335   5.056   3.937   0.103
 2812SOL    HW2 9336   5.068   3.840   6.987
 2813SOL     OW 9337   6.930   0.139   5.823
 2813SOL    HW1 9338   6.848   0.111   5.872
 2813SOL    HW2 9339   6.935   0.239   5.820
 2814SOL     OW 9340   4.739   3.455   6.380
 2814SOL    HW1 9341   4.805   3.389   6.417
 2814SOL    HW2 9342   4.660   3.461   6.442
 2815SOL     OW 9343   6.038   0.717   5.537
 2815SOL    HW1 9344   6.107   0.758   5.477
 2815SOL    HW2 9345   6.045   0.756   5.628
 2816SOL     OW 9346   5.894   5.575   3.552
 2816SOL    HW1 9347   5.957   5.619   3.489
 2816SOL    HW2 9348   5.800   5.605   3.533
 2817SOL     OW 9349   2.828   0.289   1.046
 2817SOL    HW1 9350   2.833   0.384   1.077
 2817SOL    HW2 9351   2.735   0.255   1.058
 2818SOL     OW 9352   0.049   0.513   0.501
 2818SOL    HW1 9353   7.003   0.592   0.510
 2818SOL    HW2 9354   0.139   0.536   0.538
 2819SOL     OW 9355   0.905   1.289   1.446
 2819SOL    HW1 9356   0.920   1.361   1.380
 2819SOL    HW2 9357   0.807   1.280   1.464
 2820SOL     OW 9358   1.165   2.160   3.127
 2820SOL    HW1 9359   1.234   2.221   3.087
 2820SOL    HW2 9360   1.158   2.077   3.072
 2821SOL     OW 9361   4.024   3.385   0.234
 2821SOL    HW1 9362   4.000   3.418   0.326
 2821SOL    HW2 9363   4.034   3.285   0.236
 2822SOL     OW 9364   4.715   2.029   0.146
 2822SOL    HW1 9365   4.791   2.066   0.094
 2822SOL    HW2 9366   4.750   1.971   0.220
 2823SOL     OW 9367   3.848   6.224   0.374
 2823SOL    HW1 9368   3.940   6.192   0.396
 2823SOL    HW2 9369   3.848   6.324   0.370
 2824SOL     OW 9370   3.058   1.196   2.920
 2824SOL    HW1 9371   3.038   1.135   2.842
 2824SOL    HW2 9372   3.093   1.142   2.996
 2825SOL     OW 9373   6.734   0.376   6.646
 2825SOL    HW1 9374   6.684   0.293   6.670
 2825SOL    HW2 9375   6.807   0.354   6.582
 2826SOL     OW 9376   4.469   1.477   6.723
 2826SOL    HW1 9377   4.416   1.520   6.650
 2826SOL    HW2 9378   4.549   1.532   6.743
 2827SOL     OW 9379   6.380   0.734   5.588
 2827SOL    HW1 9380   6.316   0.681   5.645
 2827SOL    HW2 9381   6.447   0.779   5.647
 2828SOL     OW 9382   3.295   1.426   0.337
 2828SOL    HW1 9383   3.289   1.486   0.417
 2828SOL    HW2 9384   3.386   1.385   0.333
 2829SOL     OW 9385   3.466   3.537   5.691
 2829SOL    HW1 9386   3.551   3.576   5.655
 2829SOL    HW2 9387   3.410   3.610   5.731
 2830SOL     OW 9388   1.129   3.118   6.247
 2830SOL    HW1 9389   1.031   3.134   6.255
 2830SOL    HW2 9390   1.147   3.050   6.176
 2831SOL     OW 9391   0.887   5.385   3.327
 2831SOL    HW1 9392   0.934   5.321   3.387
 2831SOL    HW2 9393   0.881   5.475   3.372
 2832SOL     OW 9394   1.219   0.609   2.122
 2832SOL    HW1 9395   1.170   0.644   2.202
 2832SOL    HW2 9396   1.198   0.666   2.042
 2833SOL     OW 9397   4.287   2.198   2.223
 2833SOL    HW1 9398   4.209   2.165   2.275
 2833SOL    HW2 9399   4.259   2.222   2.130
 2834SOL     OW 9400   2.578   5.595   6.230
 2834SOL    HW1 9401   2.595   5.542   6.313
 2834SOL    HW2 9402   2.607   5.690   6.244
 2835SOL     OW 9403   6.802   0.118   1.675
 2835SOL    HW1 9404   6.754   0.030   1.677
 2835SOL    HW2 9405   6.852   0.131   1.760
 2836SOL     OW 9406   5.869   0.367   2.506
 2836SOL    HW1 9407   5.771   0.377   2.495
 2836SOL    HW2 9408   5.889   0.277   2.544
 2837SOL     OW 9409   5.262   4.167   2.929
 2837SOL    HW1 9410   5.229   4.103   2.998
 2837SOL    HW2 9411   5.201   4.246   2.924
 2838SOL     OW 9412   2.225   4.309   0.844
 2838SOL    HW1 9413   2.167   4.320   0.924
 2838SOL    HW2 9414   2.321   4.313   0.872
 2839SOL     OW 9415   6.662   1.757   1.895
 2839SOL    HW1 9416   6.745   1.738   1.947
 2839SOL    HW2 9417   6.592   1.793   1.956
 2840SOL     OW 9418   2.449   0.933   3.147
 2840SOL    HW1 9419   2.511   0.870   3.099
 2840SOL    HW2 9420   2.355   0.901   3.138
 2841SOL     OW 9421   1.041   0.668   5.840
 2841SOL    HW1 9422   1.045   0.585   5.785
 2841SOL    HW2 9423   0.961   0.665   5.901
 2842SOL     OW 9424   0.017   3.615   4.113
 2842SOL    HW1 9425   6.933   3.616   4.128
 2842SOL    HW2 9426   0.037   3.570   4.026
 2843SOL     OW 9427   2.771   1.082   2.741
 2843SOL    HW1 9428   2.696   1.017   2.743
 2843SOL    HW2 9429   2.845   1.046   2.684
 2844SOL     OW 9430   0.440   5.638   0.280
 2844SOL    HW1 9431   0.433   5.708   0.351
 2844SOL    HW2 9432   0.514   5.574   0.303
 2845SOL     OW 9433   6.571   3.252   1.427
 2845SOL    HW1 9434   6.658   3.217   1.462
 2845SOL    HW2 9435   6.503   3.255   1.500
 2846SOL     OW 9436   4.096   0.800   6.536
 2846SOL    HW1 9437   4.104   0.835   6.442
 2846SOL    HW2 9438   4.172   0.836   6.591
 2847SOL     OW 9439   4.903   3.771   3.948
 2847SOL    HW1 9440   4.994   3.790   3.911
 2847SOL    HW2 9441   4.882   3.674   3.939
 2848SOL     OW 9442   1.581   3.018   6.041
 2848SOL    HW1 9443   1.558   3.021   5.944
 2848SOL    HW2 9444   1.658   3.079   6.059
 2849SOL     OW 9445   3.584   6.501   0.539
 2849SOL    HW1 9446   3.511   6.569   0.545
 2849SOL    HW2 9447   3.588   6.448   0.624
 2850SOL     OW 9448   2.320   0.119   2.165
 2850SOL    HW1 9449   2.252   0.075   2.106
 2850SOL    HW2 9450   2.343   0.057   2.240
 2851SOL     OW 9451   6.847   1.626   5.806
 2851SOL    HW1 9452   6.780   1.565   5.848
 2851SOL    HW2 9453   6.932   1.623   5.858
 2852SOL     OW 9454   5.332   5.137   0.201
 2852SOL    HW1 9455   5.398   5.163   0.131
 2852SOL    HW2 9456   5.371   5.067   0.261
 2853SOL     OW 9457   1.952   2.801   6.846
 2853SOL    HW1 9458   2.036   2.761   6.810
 2853SOL    HW2 9459   1.971   2.843   6.935
 2854SOL     OW 9460   3.974   1.079   4.873
 2854SOL    HW1 9461   3.949   0.997   4.924
 2854SOL    HW2 9462   4.068   1.071   4.839
 2855SOL     OW 9463   2.516   1.095   6.660
 2855SOL    HW1 9464   2.559   1.150   6.588
 2855SOL    HW2 9465   2.426   1.132   6.681
 2856SOL     OW 9466   1.603   2.806   6.205
 2856SOL    HW1 9467   1.693   2.767   6.219
 2856SOL    HW2 9468   1.610   2.881   6.138
 2857SOL     OW 9469   3.169   1.460   2.389
 2857SOL    HW1 9470   3.141   1.429   2.480
 2857SOL    HW2 9471   3.229   1.392   2.348
 2858SOL     OW 9472   5.057   4.348   3.027
 2858SOL    HW1 9473   4.976   4.405   3.009
 2858SOL    HW2 9474   5.039   4.289   3.106
 2859SOL     OW 9475   5.088   2.073   0.289
 2859SOL    HW1 9476   5.185   2.092   0.278
 2859SOL    HW2 9477   5.034   2.146   0.248
 2860SOL     OW 9478   3.501   1.870   1.716
 2860SOL    HW1 9479   3.506   1.779   1.759
 2860SOL    HW2 9480   3.564   1.873   1.638
 2861SOL     OW 9481   4.050   3.712   5.878
 2861SOL    HW1 9482   3.965   3.747   5.917
 2861SOL    HW2 9483   4.128   3.758   5.921
 2862SOL     OW 9484   5.292   1.838   3.130
 2862SOL    HW1 9485   5.352   1.786   3.190
 2862SOL    HW2 9486   5.290   1.933   3.160
 2863SOL     OW 9487   4.988   1.048   6.763
 2863SOL    HW1 9488   5.042   1.132   6.756
 2863SOL    HW2 9489   4.931   1.052   6.845
 2864SOL     OW 9490   4.174   1.191   1.556
 2864SOL    HW1 9491   4.107   1.212   1.627
 2864SOL    HW2 9492   4.218   1.276   1.526
 2865SOL     OW 9493   5.024   4.148   6.537
 2865SOL    HW1 9494   5.065   4.065   6.501
 2865SOL    HW2 9495   5.059   4.166   6.629
 2866SOL     OW 9496   6.214   5.673   6.954
 2866SOL    HW1 9497   6.200   5.691   6.856
 2866SOL    HW2 9498   6.287   5.731   6.988
 2867SOL     OW 9499   5.593   3.623   2.667
 2867SOL    HW1 9500   5.505   3.666   2.688
 2867SOL    HW2 9501   5.582   3.562   2.589
 2868SOL     OW 9502   6.849   2.194   5.695
 2868SOL    HW1 9503   6.794   2.143   5.761
 2868SOL    HW2 9504   6.917   2.249   5.744
 2869SOL     OW 9505   6.710   0.561   3.254
 2869SOL    HW1 9506   6.650   0.639   3.272
 2869SOL    HW2 9507   6.665   0.498   3.190
 2870SOL     OW 9508   6.911   1.271   4.639
 2870SOL    HW1 9509   6.901   1.187   4.692
 2870SOL    HW2 9510   6.945   1.249   4.548
 2871SOL     OW 9511   0.554   1.789   0.590
 2871SOL    HW1 9512   0.616   1.732   0.537
 2871SOL    HW2 9513   0.603   1.869   0.624
 2872SOL     OW 9514   2.675   1.315   2.651
 2872SOL    HW1 9515   2.592   1.339   2.601
 2872SOL    HW2 9516   2.676   1.216   2.670
 2873SOL     OW 9517   0.125   5.049   2.858
 2873SOL    HW1 9518   0.038   5.081   2.897
 2873SOL    HW2 9519   0.179   5.128   2.830
 2874SOL     OW 9520   3.000   6.290   3.454
 2874SOL    HW1 9521   2.945   6.238   3.389
 2874SOL    HW2 9522   3.050   6.363   3.406
 2875SOL     OW 9523   4.518   6.681   0.855
 2875SOL    HW1 9524   4.482   6.741   0.927
 2875SOL    HW2 9525   4.470   6.699   0.770
 2876SOL     OW 9526   0.891   0.066   1.765
 2876SOL    HW1 9527   0.981   0.061   1.809
 2876SOL    HW2 9528   0.855   6.988   1.752
 2877SOL     OW 9529   3.147   2.543   5.367
 2877SOL    HW1 9530   3.179   2.477   5.299
 2877SOL    HW2 9531   3.149   2.635   5.327
 2878SOL     OW 9532   4.314   5.372   4.672
 2878SOL    HW1 9533   4.224   5.329   4.679
 2878SOL    HW2 9534   4.381   5.315   4.721
 2879SOL     OW 9535   4.924   4.785   0.785
 2879SOL    HW1 9536   4.891   4.735   0.704
 2879SOL    HW2 9537   4.951   4.719   0.855
 2880SOL     OW 9538   5.835   6.733   1.539
 2880SOL    HW1 9539   5.773   6.670   1.492
 2880SOL    HW2 9540   5.928   6.718   1.506
 2881SOL     OW 9541   5.166   6.049   6.691
 2881SOL    HW1 9542   5.223   5.967   6.680
 2881SOL    HW2 9543   5.080   6.036   6.641
 2882SOL     OW 9544   0.979   4.649   2.635
 2882SOL    HW1 9545   0.902   4.706   2.607
 2882SOL    HW2 9546   1.005   4.672   2.729
 2883SOL     OW 9547   6.246   0.048   3.816
 2883SOL    HW1 9548   6.336   0.060   3.774
 2883SOL    HW2 9549   6.180   0.107   3.769
 2884SOL     OW 9550   0.783   5.794   3.073
 2884SOL    HW1 9551   0.818   5.799   2.979
 2884SOL    HW2 9552   0.844   5.844   3.134
 2885SOL     OW 9553   0.483   2.964   2.236
 2885SOL    HW1 9554   0.411   3.030   2.215
 2885SOL    HW2 9555   0.565   2.987   2.183
 2886SOL     OW 9556   2.517   4.262   6.033
 2886SOL    HW1 9557   2.562   4.334   6.086
 2886SOL    HW2 9558   2.453   4.212   6.092
 2887SOL     OW 9559   0.925   0.608   4.388
 2887SOL    HW1 9560   0.833   0.572   4.367
 2887SOL    HW2 9561   0.973   0.627   4.302
 2888SOL     OW 9562   0.986   4.315   7.007
 2888SOL    HW1 9563   0.904   4.270   0.026
 2888SOL    HW2 9564   1.029   4.368   0.066
 2889SOL     OW 9565   2.111   0.014   2.020
 2889SOL    HW1 9566   2.070   0.078   1.955
 2889SOL    HW2 9567   2.044   7.004   2.089
 2890SOL     OW 9568   2.274   0.009   0.639
 2890SOL    HW1 9569   2.274   6.927   0.666
 2890SOL    HW2 9570   2.317   0.018   0.549
 2891SOL     OW 9571   1.458   4.162   3.236
 2891SOL    HW1 9572   1.509   4.216   3.303
 2891SOL    HW2 9573   1.520   4.133   3.163
 2892SOL     OW 9574   5.674   3.715   6.701
 2892SOL    HW1 9575   5.601   3.711   6.769
 2892SOL    HW2 9576   5.751   3.767   6.737
 2893SOL     OW 9577   0.388   6.371   4.518
 2893SOL    HW1 9578   0.382   6.470   4.535
 2893SOL    HW2 9579   0.445   6.329   4.588
 2894SOL     OW 9580   3.005   3.113   0.852
 2894SOL    HW1 9581   2.959   3.173   0.786
 2894SOL    HW2 9582   3.025   3.025   0.809
 2895SOL     OW 9583   4.517   2.499   6.091
 2895SOL    HW1 9584   4.431   2.509   6.042
 2895SOL    HW2 9585   4.569   2.583   6.084
 2896SOL     OW 9586   4.076   5.403   6.408
 2896SOL    HW1 9587   4.107   5.342   6.335
 2896SOL    HW2 9588   4.006   5.464   6.372
 2897SOL     OW 9589   3.538   4.908   3.453
 2897SOL    HW1 9590   3.511   4.909   3.357
 2897SOL    HW2 9591   3.458   4.922   3.511
 2898SOL     OW 9592   3.837   5.806   4.258
 2898SOL    HW1 9593   3.888   5.807   4.344
 2898SOL    HW2 9594   3.858   5.722   4.208
 2899SOL     OW 9595   0.668   1.703   0.856
 2899SOL    HW1 9596   0.590   1.729   0.798
 2899SOL    HW2 9597   0.662   1.606   0.878
 2900SOL     OW 9598   2.367   4.866   5.505
 2900SOL    HW1 9599   2.434   4.891   5.435
 2900SOL    HW2 9600   2.412   4.816   5.578
 2901SOL     OW 9601   2.241   6.432   3.439
 2901SOL    HW1 9602   2.280   6.440   3.530
 2901SOL    HW2 9603   2.234   6.336   3.413
 2902SOL     OW 9604   4.866   6.533   1.717
 2902SOL    HW1 9605   4.878   6.447   1.667
 2902SOL    HW2 9606   4.768   6.550   1.729
 2903SOL     OW 9607   3.134   1.040   0.574
 2903SOL    HW1 9608   3.164   0.947   0.550
 2903SOL    HW2 9609   3.111   1.090   0.491
 2904SOL     OW 9610   2.276   3.843   5.321
 2904SOL    HW1 9611   2.247   3.782   5.248
 2904SOL    HW2 9612   2.344   3.907   5.286
 2905SOL     OW 9613   1.154   2.327   3.534
 2905SOL    HW1 9614   1.225   2.264   3.566
 2905SOL    HW2 9615   1.093   2.350   3.610
 2906SOL     OW 9616   4.735   5.853   2.648
 2906SOL    HW1 9617   4.785   5.938   2.631
 2906SOL    HW2 9618   4.783   5.777   2.603
 2907SOL     OW 9619   0.517   1.576   4.030
 2907SOL    HW1 9620   0.553   1.629   3.952
 2907SOL    HW2 9621   0.456   1.634   4.084
 2908SOL     OW 9622   4.914   0.000   4.708
 2908SOL    HW1 9623   4.991   6.959   4.678
 2908SOL    HW2 9624   4.923   0.092   4.671
 2909SOL     OW 9625   1.025   6.609   3.341
 2909SOL    HW1 9626   1.114   6.589   3.301
 2909SOL    HW2 9627   0.996   6.701   3.315
 2910SOL     OW 9628   4.975   6.737   4.880
 2910SOL    HW1 9629   4.877   6.754   4.872
 2910SOL    HW2 9630   5.018   6.811   4.932
 2911SOL     OW 9631   1.880   5.458   3.348
 2911SOL    HW1 9632   1.913   5.479   3.256
 2911SOL    HW2 9633   1.920   5.523   3.413
 2912SOL     OW 9634   4.572   0.141   6.731
 2912SOL    HW1 9635   4.524   0.101   6.810
 2912SOL    HW2 9636   4.637   0.209   6.763
 2913SOL     OW 9637   2.491   4.449   3.050
 2913SOL    HW1 9638   2.556   4.525   3.055
 2913SOL    HW2 9639   2.458   4.427   3.142
 2914SOL     OW 9640   6.044   6.564   5.852
 2914SOL    HW1 9641   6.013   6.550   5.945
 2914SOL    HW2 9642   6.143   6.580   5.852
 2915SOL     OW 9643   5.671   1.867   5.142
 2915SOL    HW1 9644   5.701   1.919   5.222
 2915SOL    HW2 9645   5.698   1.915   5.058
 2916SOL     OW 9646   6.896   6.286   6.540
 2916SOL    HW1 9647   6.868   6.361   6.480
 2916SOL    HW2 9648   6.843   6.204   6.517
 2917SOL     OW 9649   3.670   6.702   2.380
 2917SOL    HW1 9650   3.674   6.732   2.475
 2917SOL    HW2 9651   3.676   6.782   2.320
 2918SOL     OW 9652   6.705   4.038   4.129
 2918SOL    HW1 9653   6.709   4.074   4.036
 2918SOL    HW2 9654   6.781   4.075   4.182
 2919SOL     OW 9655   6.928   0.975   0.871
 2919SOL    HW1 9656   6.949   1.037   0.946
 2919SOL    HW2 9657   6.948   0.881   0.899
 2920SOL     OW 9658   2.818   2.212   1.818
 2920SOL    HW1 9659   2.835   2.293   1.874
 2920SOL    HW2 9660   2.816   2.130   1.876
 2921SOL     OW 9661   1.288   1.037   2.956
 2921SOL    HW1 9662   1.268   0.982   3.037
 2921SOL    HW2 9663   1.233   1.003   2.879
 2922SOL     OW 9664   4.868   0.061   0.830
 2922SOL    HW1 9665   4.788   0.024   0.783
 2922SOL    HW2 9666   4.950   0.045   0.775
 2923SOL     OW 9667   6.911   4.957   2.086
 2923SOL    HW1 9668   6.893   4.859   2.091
 2923SOL    HW2 9669   6.825   5.007   2.090
 2924SOL     OW 9670   0.171   2.025   6.856
 2924SOL    HW1 9671   0.205   1.970   6.932
 2924SOL    HW2 9672   0.093   2.079   6.885
 2925SOL     OW 9673   4.763   1.002   2.948
 2925SOL    HW1 9674   4.764   1.063   2.868
 2925SOL    HW2 9675   4.856   0.987   2.980
 2926SOL     OW 9676   6.654   1.339   4.529
 2926SOL    HW1 9677   6.724   1.319   4.598
 2926SOL    HW2 9678   6.569   1.292   4.552
 2927SOL     OW 9679   1.061   2.142   2.772
 2927SOL    HW1 9680   0.995   2.070   2.794
 2927SOL    HW2 9681   1.035   2.185   2.685
 2928SOL     OW 9682   0.059   2.116   6.233
 2928SOL    HW1 9683   0.149   2.081   6.258
 2928SOL    HW2 9684   0.069   2.191   6.168
 2929SOL     OW 9685   0.449   1.325   6.695
 2929SOL    HW1 9686   0.415   1.408   6.738
 2929SOL    HW2 9687   0.430   1.327   6.597
 2930SOL     OW 9688   4.476   6.283   5.099
 2930SOL    HW1 9689   4.564   6.323   5.070
 2930SOL    HW2 9690   4.421   6.263   5.018
 2931SOL     OW 9691   5.320   5.241   0.609
 2931SOL    HW1 9692   5.238   5.278   0.654
 2931SOL    HW2 9693   5.400   5.292   0.639
 2932SOL     OW 9694   0.671   5.285   1.038
 2932SOL    HW1 9695   0.593   5.230   1.068
 2932SOL    HW2 9696   0.729   5.231   0.977
 2933SOL     OW 9697   6.202   4.394   3.255
 2933SOL    HW1 9698   6.293   4.432   3.237
 2933SOL    HW2 9699   6.136   4.469   3.263
 2934SOL     OW 9700   4.742   1.325   0.375
 2934SOL    HW1 9701   4.667   1.388   0.355
 2934SOL    HW2 9702   4.810   1.332   0.302
 2935SOL     OW 9703   6.465   3.041   1.267
 2935SOL    HW1 9704   6.489   3.130   1.306
 2935SOL    HW2 9705   6.399   2.995   1.327
 2936SOL     OW 9706   3.877   5.301   2.031
 2936SOL    HW1 9707   3.792   5.328   1.987
 2936SOL    HW2 9708   3.908   5.374   2.092
 2937SOL     OW 9709   3.875   4.580   0.071
 2937SOL    HW1 9710   3.888   4.667   0.119
 2937SOL    HW2 9711   3.953   4.565   0.009
 2938SOL     OW 9712   4.852   4.521   6.247
 2938SOL    HW1 9713   4.789   4.595   6.270
 2938SOL    HW2 9714   4.865   4.463   6.328
 2939SOL     OW 9715   1.045   0.604   3.863
 2939SOL    HW1 9716   1.056   0.509   3.893
 2939SOL    HW2 9717   0.948   0.627   3.859
 2940SOL     OW 9718   5.578   5.934   6.414
 2940SOL    HW1 9719   5.533   5.945   6.326
 2940SOL    HW2 9720   5.537   5.995   6.481
 2941SOL     OW 9721   2.320   2.849   4.277
 2941SOL    HW1 9722   2.275   2.936   4.298
 2941SOL    HW2 9723   2.250   2.782   4.250
 2942SOL     OW 9724   3.306   2.452   1.313
 2942SOL    HW1 9725   3.230   2.487   1.258
 2942SOL    HW2 9726   3.357   2.529   1.351
 2943SOL     OW 9727   5.381   4.578   3.344
 2943SOL    HW1 9728   5.368   4.593   3.246
 2943SOL    HW2 9729   5.319   4.506   3.375
 2944SOL     OW 9730   2.965   5.618   5.639
 2944SOL    HW1 9731   2.977   5.520   5.628
 2944SOL    HW2 9732   2.869   5.638   5.660
 2945SOL     OW 9733   3.673   4.033   3.558
 2945SOL    HW1 9734   3.600   4.047   3.491
 2945SOL    HW2 9735   3.661   4.095   3.635
 2946SOL     OW 9736   0.718   5.737   0.139
 2946SOL    HW1 9737   0.627   5.700   0.119
 2946SOL    HW2 9738   0.709   5.819   0.197
 2947SOL     OW 9739   0.399   3.445   6.974
 2947SOL    HW1 9740   0.441   3.480   6.891
 2947SOL    HW2 9741   0.470   3.423   0.026
 2948SOL     OW 9742   0.100   4.591   5.668
 2948SOL    HW1 9743   0.147   4.651   5.732
 2948SOL    HW2 9744   0.104   4.629   5.576
 2949SOL     OW 9745   2.677   5.635   0.455
 2949SOL    HW1 9746   2.728   5.550   0.472
 2949SOL    HW2 9747   2.735   5.713   0.478
 2950SOL     OW 9748   4.857   3.770   4.504
 2950SOL    HW1 9749   4.847   3.757   4.406
 2950SOL    HW2 9750   4.855   3.868   4.525
 2951SOL     OW 9751   5.829   1.560   1.086
 2951SOL    HW1 9752   5.909   1.504   1.110
 2951SOL    HW2 9753   5.820   1.634   1.153
 2952SOL     OW 9754   0.959   5.492   5.549
 2952SOL    HW1 9755   0.995   5.500   5.642
 2952SOL    HW2 9756   1.004   5.416   5.503
 2953SOL     OW 9757   5.340   3.371   3.052
 2953SOL    HW1 9758   5.247   3.341   3.072
 2953SOL    HW2 9759   5.386   3.302   2.996
 2954SOL     OW 9760   0.457   5.590   1.564
 2954SOL    HW1 9761   0.550   5.570   1.532
 2954SOL    HW2 9762   0.402   5.623   1.487
 2955SOL     OW 9763   0.619   4.073   1.598
 2955SOL    HW1 9764   0.675   3.995   1.624
 2955SOL    HW2 9765   0.560   4.048   1.521
 2956SOL     OW 9766   6.235   6.388   3.331
 2956SOL    HW1 9767   6.174   6.368   3.254
 2956SOL    HW2 9768   6.188   6.371   3.417
 2957SOL     OW 9769   6.188   3.080   1.637
 2957SOL    HW1 9770   6.124   3.139   1.588
 2957SOL    HW2 9771   6.155   3.064   1.730
 2958SOL     OW 9772   2.633   4.603   4.430
 2958SOL    HW1 9773   2.672   4.669   4.366
 2958SOL    HW2 9774   2.702   4.581   4.500
 2959SOL     OW 9775   4.487   5.063   0.465
 2959SOL    HW1 9776   4.422   5.029   0.398
 2959SOL    HW2 9777   4.577   5.073   0.423
 2960SOL     OW 9778   4.286   6.830   6.125
 2960SOL    HW1 9779   4.367   6.886   6.107
 2960SOL    HW2 9780   4.260   6.839   6.221
 2961SOL     OW 9781   4.771   2.619   4.173
 2961SOL    HW1 9782   4.710   2.551   4.132
 2961SOL    HW2 9783   4.866   2.598   4.149
 2962SOL     OW 9784   4.547   1.016   3.219
 2962SOL    HW1 9785   4.457   0.973   3.222
 2962SOL    HW2 9786   4.546   1.093   3.155
 2963SOL     OW 9787   1.930   1.198   5.668
 2963SOL    HW1 9788   1.854   1.156   5.718
 2963SOL    HW2 9789   1.896   1.274   5.613
 2964SOL     OW 9790   0.062   0.210   2.760
 2964SOL    HW1 9791   0.054   0.203   2.860
 2964SOL    HW2 9792   0.113   0.293   2.737
 2965SOL     OW 9793   6.630   0.635   4.821
 2965SOL    HW1 9794   6.670   0.627   4.912
 2965SOL    HW2 9795   6.678   0.707   4.770
 2966SOL     OW 9796   6.181   5.757   4.080
 2966SOL    HW1 9797   6.222   5.670   4.053
 2966SOL    HW2 9798   6.209   5.828   4.015
 2967SOL     OW 9799   5.986   1.854   4.432
 2967SOL    HW1 9800   6.033   1.803   4.504
 2967SOL    HW2 9801   5.982   1.951   4.456
 2968SOL     OW 9802   0.867   3.056   6.354
 2968SOL    HW1 9803   0.833   2.975   6.307
 2968SOL    HW2 9804   0.827   3.138   6.313
 2969SOL     OW 9805   6.025   0.904   4.793
 2969SOL    HW1 9806   6.031   0.804   4.786
 2969SOL    HW2 9807   5.987   0.929   4.881
 2970SOL     OW 9808   0.945   4.268   5.963
 2970SOL    HW1 9809   0.937   4.252   6.062
 2970SOL    HW2 9810   0.909   4.189   5.914
 2971SOL     OW 9811   5.989   3.281   6.340
 2971SOL    HW1 9812   6.002   3.325   6.251
 2971SOL    HW2 9813   6.071   3.295   6.396
 2972SOL     OW 9814   6.412   4.266   6.323
 2972SOL    HW1 9815   6.323   4.235   6.288
 2972SOL    HW2 9816   6.468   4.299   6.246
 2973SOL     OW 9817   5.636   1.016   4.369
 2973SOL    HW1 9818   5.563   0.949   4.384
 2973SOL    HW2 9819   5.716   0.970   4.330
 2974SOL     OW 9820   0.439   3.878   2.508
 2974SOL    HW1 9821   0.532   3.914   2.499
 2974SOL    HW2 9822   0.407   3.892   2.602
 2975SOL     OW 9823   0.001   2.314   5.286
 2975SOL    HW1 9824   6.922   2.300   5.253
 2975SOL    HW2 9825   0.053   2.229   5.276
 2976SOL     OW 9826   4.066   2.232   3.081
 2976SOL    HW1 9827   4.043   2.239   2.984
 2976SOL    HW2 9828   4.153   2.279   3.098
 2977SOL     OW 9829   1.646   6.845   3.850
 2977SOL    HW1 9830   1.551   6.838   3.879
 2977SOL    HW2 9831   1.704   6.794   3.913
 2978SOL     OW 9832   4.387   4.603   6.650
 2978SOL    HW1 9833   4.464   4.577   6.708
 2978SOL    HW2 9834   4.408   4.689   6.603
 2979SOL     OW 9835   4.694   0.403   4.194
 2979SOL    HW1 9836   4.631   0.452   4.255
 2979SOL    HW2 9837   4.759   0.351   4.249
 2980SOL     OW 9838   1.306   6.152   3.774
 2980SOL    HW1 9839   1.348   6.137   3.864
 2980SOL    HW2 9840   1.261   6.068   3.745
 2981SOL     OW 9841   1.866   1.517   6.142
 2981SOL    HW1 9842   1.822   1.593   6.094
 2981SOL    HW2 9843   1.822   1.432   6.116
 2982SOL     OW 9844   3.830   6.027   3.225
 2982SOL    HW1 9845   3.887   5.954   3.190
 2982SOL    HW2 9846   3.848   6.111   3.174
 2983SOL     OW 9847   1.009   1.242   4.052
 2983SOL    HW1 9848   0.982   1.184   3.975
 2983SOL    HW2 9849   0.927   1.281   4.094
 2984SOL     OW 9850   5.130   5.318   1.860
 2984SOL    HW1 9851   5.083   5.393   1.814
 2984SOL    HW2 9852   5.086   5.300   1.948
 2985SOL     OW 9853   1.515   2.303   5.737
 2985SOL    HW1 9854   1.483   2.208   5.741
 2985SOL    HW2 9855   1.615   2.304   5.730
 2986SOL     OW 9856   2.191   3.984   6.306
 2986SOL    HW1 9857   2.277   3.935   6.315
 2986SOL    HW2 9858   2.186   4.058   6.373
 2987SOL     OW 9859   5.684   1.368   3.967
 2987SOL    HW1 9860   5.764   1.355   4.026
 2987SOL    HW2 9861   5.627   1.441   4.005
 2988SOL     OW 9862   0.484   6.806   3.046
 2988SOL    HW1 9863   0.415   6.879   3.048
 2988SOL    HW2 9864   0.450   6.729   2.992
 2989SOL     OW 9865   6.701   5.774   0.273
 2989SOL    HW1 9866   6.750   5.784   0.360
 2989SOL    HW2 9867   6.666   5.863   0.244
 2990SOL     OW 9868   4.391   1.728   4.518
 2990SOL    HW1 9869   4.470   1.680   4.480
 2990SOL    HW2 9870   4.312   1.666   4.518
 2991SOL     OW 9871   6.563   4.035   6.098
 2991SOL    HW1 9872   6.582   4.125   6.137
 2991SOL    HW2 9873   6.625   4.019   6.022
 2992SOL     OW 9874   2.178   5.049   5.784
 2992SOL    HW1 9875   2.123   5.127   5.753
 2992SOL    HW2 9876   2.275   5.070   5.775
 2993SOL     OW 9877   0.342   5.175   1.355
 2993SOL    HW1 9878   0.402   5.184   1.435
 2993SOL    HW2 9879   0.307   5.265   1.329
 2994SOL     OW 9880   3.799   6.715   0.203
 2994SOL    HW1 9881   3.769   6.763   0.286
 2994SOL    HW2 9882   3.898   6.729   0.191
 2995SOL     OW 9883   1.783   3.500   6.669
 2995SOL    HW1 9884   1.794   3.432   6.597
 2995SOL    HW2 9885   1.790   3.592   6.630
 2996SOL     OW 9886   1.934   0.088   4.211
 2996SOL    HW1 9887   1.980   7.015   4.200
 2996SOL    HW2 9888   1.965   0.150   4.138
 2997SOL     OW 9889   5.222   0.740   2.357
 2997SOL    HW1 9890   5.189   0.814   2.417
 2997SOL    HW2 9891   5.252   0.779   2.270
 2998SOL     OW 9892   5.019   0.545   4.381
 2998SOL    HW1 9893   5.022   0.527   4.283
 2998SOL    HW2 9894   5.086   0.487   4.428
 2999SOL     OW 9895   3.410   4.959   4.002
 2999SOL    HW1 9896   3.482   4.916   4.056
 2999SOL    HW2 9897   3.393   5.051   4.037
 3000SOL     OW 9898   2.037   3.884   6.774
 3000SOL    HW1 9899   2.047   3.795   6.819
 3000SOL    HW2 9900   1.978   3.943   6.829
 3001SOL     OW 9901   5.768   5.723   6.374
 3001SOL    HW1 9902   5.771   5.727   6.274
 3001SOL    HW2 9903   5.719   5.804   6.409
 3002SOL     OW 9904   3.855   6.979   6.035
 3002SOL    HW1 9905   3.913   6.915   5.985
 3002SOL    HW2 9906   3.900   0.052   6.042
 3003SOL     OW 9907   2.191   6.999   0.071
 3003SOL    HW1 9908   2.273   0.041   0.079
 3003SOL    HW2 9909   2.217   6.903   0.063
 3004SOL     OW 9910   1.389   5.061   3.420
 3004SOL    HW1 9911   1.425   4.973   3.450
 3004SOL    HW2 9912   1.447   5.098   3.348
 3005SOL     OW 9913   3.036   2.071   6.983
 3005SOL    HW1 9914   2.979   2.133   0.022
 3005SOL    HW2 9915   3.044   1.983   0.016
 3006SOL     OW 9916   4.783   2.525   6.459
 3006SOL    HW1 9917   4.785   2.578   6.544
 3006SOL    HW2 9918   4.822   2.434   6.475
 3007SOL     OW 9919   5.727   5.244   1.596
 3007SOL    HW1 9920   5.822   5.272   1.613
 3007SOL    HW2 9921   5.723   5.189   1.513
 3008SOL     OW 9922   3.663   0.683   6.440
 3008SOL    HW1 9923   3.608   0.650   6.363
 3008SOL    HW2 9924   3.619   0.658   6.526
 3009SOL     OW 9925   0.741   0.678   2.747
 3009SOL    HW1 9926   0.716   0.600   2.689
 3009SOL    HW2 9927   0.829   0.660   2.791
 3010SOL     OW 9928   3.139   6.331   3.954
 3010SOL    HW1 9929   3.191   6.246   3.957
 3010SOL    HW2 9930   3.056   6.318   3.901
 3011SOL     OW 9931   5.202   1.283   1.065
 3011SOL    HW1 9932   5.199   1.344   0.986
 3011SOL    HW2 9933   5.266   1.319   1.133
 3012SOL     OW 9934   0.954   3.730   5.062
 3012SOL    HW1 9935   0.954   3.695   5.156
 3012SOL    HW2 9936   1.043   3.770   5.041
 3013SOL     OW 9937   5.400   5.605   5.104
 3013SOL    HW1 9938   5.385   5.703   5.114
 3013SOL    HW2 9939   5.495   5.583   5.127
 3014SOL     OW 9940   4.934   2.986   4.714
 3014SOL    HW1 9941   5.028   2.959   4.735
 3014SOL    HW2 9942   4.888   2.911   4.667
 3015SOL     OW 9943   2.526   2.060   0.212
 3015SOL    HW1 9944   2.533   2.039   0.310
 3015SOL    HW2 9945   2.521   1.975   0.160
 3016SOL     OW 9946   2.858   5.735   4.122
 3016SOL    HW1 9947   2.843   5.758   4.026
 3016SOL    HW2 9948   2.925   5.799   4.161
 3017SOL     OW 9949   0.717   5.512   1.518
 3017SOL    HW1 9950   0.714   5.459   1.433
 3017SOL    HW2 9951   0.789   5.477   1.577
 3018SOL     OW 9952   2.222   6.832   5.629
 3018SOL    HW1 9953   2.128   6.864   5.629
 3018SOL    HW2 9954   2.225   6.734   5.649
 3019SOL     OW 9955   1.684   0.285   0.104
 3019SOL    HW1 9956   1.728   0.204   0.064
 3019SOL    HW2 9957   1.616   0.256   0.172
 3020SOL     OW 9958   4.114   3.599   2.141
 3020SOL    HW1 9959   4.182   3.655   2.188
 3020SOL    HW2 9960   4.109   3.626   2.045
 3021SOL     OW 9961   3.459   0.233   0.003
 3021SOL    HW1 9962   3.537   0.271   6.969
 3021SOL    HW2 9963   3.452   0.276   0.093
 3022SOL     OW 9964   3.953   4.927   4.750
 3022SOL    HW1 9965   3.906   4.840   4.738
 3022SOL    HW2 9966   3.892   4.993   4.794
 3023SOL     OW 9967   4.558   0.250   2.872
 3023SOL    HW1 9968   4.569   0.151   2.862
 3023SOL    HW2 9969   4.470   0.277   2.835
 3024SOL     OW 9970   4.354   6.277   5.631
 3024SOL    HW1 9971   4.364   6.273   5.532
 3024SOL    HW2 9972   4.258   6.297   5.654
 3025SOL     OW 9973   3.593   1.494   0.179
 3025SOL    HW1 9974   3.643   1.554   0.242
 3025SOL    HW2 9975   3.626   1.509   0.086
 3026SOL     OW 9976   1.415   1.428   0.884
 3026SOL    HW1 9977   1.398   1.490   0.961
 3026SOL    HW2 9978   1.360   1.455   0.806
 3027SOL     OW 9979   4.007   0.354   2.348
 3027SOL    HW1 9980   4.085   0.405   2.384
 3027SOL    HW2 9981   4.018   0.257   2.371
 3028SOL     OW 9982   1.456   3.927   5.838
 3028SOL    HW1 9983   1.511   3.914   5.756
 3028SOL    HW2 9984   1.496   4.000   5.894
 3029SOL     OW 9985   0.327   3.371   4.678
 3029SOL    HW1 9986   0.232   3.339   4.676
 3029SOL    HW2 9987   0.388   3.295   4.655
 3030SOL     OW 9988   0.912   2.211   5.945
 3030SOL    HW1 9989   1.005   2.225   5.976
 3030SOL    HW2 9990   0.909   2.134   5.881
 3031SOL     OW 9991   0.670   2.773   0.818
 3031SOL    HW1 9992   0.647   2.745   0.911
 3031SOL    HW2 9993   0.645   2.869   0.806
 3032SOL     OW 9994   4.434   6.301   1.848
 3032SOL    HW1 9995   4.495   6.286   1.926
 3032SOL    HW2 9996   4.484   6.283   1.763
 3033SOL     OW 9997   6.926   2.029   1.858
 3033SOL    HW1 9998   6.827   2.031   1.843
 3033SOL    HW2 9999   6.947   1.964   1.931
 3034SOL     OW10000   1.733   5.258   3.492
 3034SOL    HW110001   1.799   5.219   3.556
 3034SOL    HW210002   1.781   5.317   3.427
 3035SOL     OW10003   0.166   3.296   0.751
 3035SOL    HW110004   0.198   3.244   0.672
 3035SOL    HW210005   0.245   3.327   0.804
 3036SOL     OW10006   1.817   2.550   6.814
 3036SOL    HW110007   1.781   2.543   6.721
 3036SOL    HW210008   1.860   2.640   6.827
 3037SOL     OW10009   1.062   5.853   4.881
 3037SOL    HW110010   1.102   5.943   4.864
 3037SOL    HW210011   0.998   5.859   4.958
 3038SOL     OW10012   5.735   5.687   6.080
 3038SOL    HW110013   5.665   5.666   6.011
 3038SOL    HW210014   5.824   5.694   6.035
 3039SOL     OW10015   6.978   3.987   1.396
 3039SOL    HW110016   0.031   3.987   1.322
 3039SOL    HW210017   6.979   4.076   1.442
 3040SOL     OW10018   4.356   3.312   6.136
 3040SOL    HW110019   4.386   3.219   6.158
 3040SOL    HW210020   4.256   3.314   6.130
 3041SOL     OW10021   2.164   3.117   4.869
 3041SOL    HW110022   2.241   3.081   4.921
 3041SOL    HW210023   2.156   3.067   4.782
 3042SOL     OW10024   5.089   6.081   2.017
 3042SOL    HW110025   5.086   6.035   2.105
 3042SOL    HW210026   5.163   6.149   2.017
 3043SOL     OW10027   0.863   5.889   1.769
 3043SOL    HW110028   0.898   5.860   1.680
 3043SOL    HW210029   0.771   5.853   1.782
 3044SOL     OW10030   3.077   3.752   6.111
 3044SOL    HW110031   3.168   3.781   6.141
 3044SOL    HW210032   3.033   3.700   6.185
 3045SOL     OW10033   4.712   1.384   2.952
 3045SOL    HW110034   4.778   1.318   2.916
 3045SOL    HW210035   4.660   1.424   2.877
 3046SOL     OW10036   2.673   1.590   6.715
 3046SOL    HW110037   2.584   1.544   6.714
 3046SOL    HW210038   2.671   1.668   6.651
 3047SOL     OW10039   4.937   0.337   2.333
 3047SOL    HW110040   4.975   0.294   2.250
 3047SOL    HW210041   5.009   0.390   2.378
 3048SOL     OW10042   3.841   2.323   1.647
 3048SOL    HW110043   3.794   2.352   1.563
 3048SOL    HW210044   3.779   2.335   1.725
 3049SOL     OW10045   0.849   6.422   1.718
 3049SOL    HW110046   0.846   6.324   1.733
 3049SOL    HW210047   0.944   6.454   1.726
 3050SOL     OW10048   2.896   0.668   2.306
 3050SOL    HW110049   2.859   0.649   2.215
 3050SOL    HW210050   2.925   0.764   2.311
 3051SOL     OW10051   2.068   3.993   0.229
 3051SOL    HW110052   2.167   3.999   0.234
 3051SOL    HW210053   2.028   4.083   0.246
 3052SOL     OW10054   5.262   0.109   2.344
 3052SOL    HW110055   5.193   0.147   2.405
 3052SOL    HW210056   5.353   0.121   2.385
 3053SOL     OW10057   0.195   1.675   6.929
 3053SOL    HW110058   0.214   1.732   7.009
 3053SOL    HW210059   0.281   1.650   6.885
 3054SOL     OW10060   6.787   2.298   1.562
 3054SOL    HW110061   6.798   2.213   1.511
 3054SOL    HW210062   6.696   2.303   1.602
 3055SOL     OW10063   5.175   6.979   4.089
 3055SOL    HW110064   5.116   7.003   4.167
 3055SOL    HW210065   5.123   6.924   4.024
 3056SOL     OW10066   6.031   1.310   5.224
 3056SOL    HW110067   6.098   1.372   5.263
 3056SOL    HW210068   6.004   1.342   5.133
 3057SOL     OW10069   3.861   6.163   3.508
 3057SOL    HW110070   3.896   6.085   3.457
 3057SOL    HW210071   3.887   6.155   3.604
 3058SOL     OW10072   6.750   5.473   0.647
 3058SOL    HW110073   6.663   5.514   0.676
 3058SOL    HW210074   6.826   5.532   0.674
 3059SOL     OW10075   2.632   2.480   4.215
 3059SOL    HW110076   2.567   2.419   4.171
 3059SOL    HW210077   2.584   2.542   4.277
 3060SOL     OW10078   0.660   5.927   0.330
 3060SOL    HW110079   0.655   6.027   0.330
 3060SOL    HW210080   0.580   5.890   0.378
 3061SOL     OW10081   5.386   0.426   5.643
 3061SOL    HW110082   5.392   0.521   5.674
 3061SOL    HW210083   5.376   0.366   5.723
 3062SOL     OW10084   1.314   6.722   6.677
 3062SOL    HW110085   1.365   6.794   6.630
 3062SOL    HW210086   1.365   6.636   6.671
 3063SOL     OW10087   2.846   5.276   1.356
 3063SOL    HW110088   2.811   5.199   1.409
 3063SOL    HW210089   2.928   5.313   1.400
 3064SOL     OW10090   5.334   4.008   3.745
 3064SOL    HW110091   5.369   3.917   3.725
 3064SOL    HW210092   5.405   4.062   3.792
 3065SOL     OW10093   2.143   0.882   0.341
 3065SOL    HW110094   2.190   0.888   0.253
 3065SOL    HW210095   2.205   0.910   0.414
 3066SOL     OW10096   4.744   5.216   1.154
 3066SOL    HW110097   4.799   5.140   1.190
 3066SOL    HW210098   4.680   5.180   1.085
 3067SOL     OW10099   3.714   2.159   4.585
 3067SOL    HW110100   3.689   2.219   4.509
 3067SOL    HW210101   3.633   2.142   4.641
 3068SOL     OW10102   6.071   6.622   1.500
 3068SOL    HW110103   6.087   6.562   1.421
 3068SOL    HW210104   6.151   6.619   1.560
 3069SOL     OW10105   6.567   6.276   1.850
 3069SOL    HW110106   6.650   6.329   1.872
 3069SOL    HW210107   6.520   6.253   1.935
 3070SOL     OW10108   1.017   0.997   1.941
 3070SOL    HW110109   0.933   0.988   1.888
 3070SOL    HW210110   1.002   1.059   2.017
 3071SOL     OW10111   6.225   5.826   2.991
 3071SOL    HW110112   6.204   5.924   2.990
 3071SOL    HW210113   6.142   5.773   2.973
 3072SOL     OW10114   1.127   0.247   0.206
 3072SOL    HW110115   1.076   0.280   0.285
 3072SOL    HW210116   1.102   0.301   0.125
 3073SOL     OW10117   6.862   3.037   4.974
 3073SOL    HW110118   6.904   2.958   4.930
 3073SOL    HW210119   6.869   3.116   4.913
 3074SOL     OW10120   5.438   3.634   0.669
 3074SOL    HW110121   5.444   3.700   0.744
 3074SOL    HW210122   5.476   3.675   0.586
 3075SOL     OW10123   2.455   5.912   1.661
 3075SOL    HW110124   2.430   5.993   1.714
 3075SOL    HW210125   2.445   5.931   1.564
 3076SOL     OW10126   0.018   0.873   4.299
 3076SOL    HW110127   6.977   0.814   4.356
 3076SOL    HW210128   0.106   0.828   4.281
 3077SOL     OW10129   4.574   5.296   2.774
 3077SOL    HW110130   4.636   5.322   2.849
 3077SOL    HW210131   4.479   5.316   2.801
 3078SOL     OW10132   1.094   3.383   1.827
 3078SOL    HW110133   1.076   3.464   1.883
 3078SOL    HW210134   1.179   3.396   1.775
 3079SOL     OW10135   2.439   2.006   4.812
 3079SOL    HW110136   2.437   2.051   4.722
 3079SOL    HW210137   2.479   1.915   4.802
 3080SOL     OW10138   5.104   3.608   3.210
 3080SOL    HW110139   5.077   3.634   3.117
 3080SOL    HW210140   5.204   3.612   3.217
 3081SOL     OW10141   0.710   2.425   5.940
 3081SOL    HW110142   0.791   2.464   5.983
 3081SOL    HW210143   0.722   2.326   5.931
 3082SOL     OW10144   3.097   0.060   4.120
 3082SOL    HW110145   3.051   0.147   4.103
 3082SOL    HW210146   3.195   0.076   4.129
 3083SOL     OW10147   4.385   6.670   3.325
 3083SOL    HW110148   4.389   6.761   3.284
 3083SOL    HW210149   4.303   6.662   3.382
 3084SOL     OW10150   5.089   4.151   4.412
 3084SOL    HW110151   5.186   4.172   4.401
 3084SOL    HW210152   5.035   4.233   4.396
 3085SOL     OW10153   0.383   4.883   1.374
 3085SOL    HW110154   0.355   4.845   1.462
 3085SOL    HW210155   0.433   4.968   1.388
 3086SOL     OW10156   3.840   2.138   2.223
 3086SOL    HW110157   3.791   2.187   2.296
 3086SOL    HW210158   3.783   2.138   2.141
 3087SOL     OW10159   0.827   5.116   3.905
 3087SOL    HW110160   0.803   5.151   3.815
 3087SOL    HW210161   0.871   5.188   3.959
 3088SOL     OW10162   2.499   4.964   6.018
 3088SOL    HW110163   2.519   4.932   5.925
 3088SOL    HW210164   2.426   5.032   6.015
 3089SOL     OW10165   1.496   3.494   0.227
 3089SOL    HW110166   1.573   3.523   0.285
 3089SOL    HW210167   1.468   3.402   0.251
 3090SOL     OW10168   2.088   1.677   1.928
 3090SOL    HW110169   2.038   1.597   1.959
 3090SOL    HW210170   2.031   1.759   1.940
 3091SOL     OW10171   1.075   0.046   0.767
 3091SOL    HW110172   0.982   0.028   0.738
 3091SOL    HW210173   1.078   0.054   0.867
 3092SOL     OW10174   4.769   6.671   0.705
 3092SOL    HW110175   4.720   6.683   0.792
 3092SOL    HW210176   4.854   6.621   0.721
 3093SOL     OW10177   5.068   6.181   5.840
 3093SOL    HW110178   5.028   6.201   5.930
 3093SOL    HW210179   5.062   6.262   5.782
 3094SOL     OW10180   2.229   6.502   4.313
 3094SOL    HW110181   2.247   6.596   4.345
 3094SOL    HW210182   2.142   6.471   4.350
 3095SOL     OW10183   2.108   5.042   5.152
 3095SOL    HW110184   2.059   4.955   5.161
 3095SOL    HW210185   2.049   5.108   5.106
 3096SOL     OW10186   1.302   6.548   4.870
 3096SOL    HW110187   1.302   6.616   4.797
 3096SOL    HW210188   1.214   6.547   4.916
 3097SOL     OW10189   0.135   2.687   0.846
 3097SOL    HW110190   0.126   2.658   0.941
 3097SOL    HW210191   0.209   2.755   0.840
 3098SOL     OW10192   3.234   3.203   0.706
 3098SOL    HW110193   3.234   3.142   0.785
 3098SOL    HW210194   3.183   3.286   0.729
 3099SOL     OW10195   0.754   6.625   3.519
 3099SOL    HW110196   0.741   6.673   3.432
 3099SOL    HW210197   0.851   6.627   3.544
 3100SOL     OW10198   6.383   6.707   4.804
 3100SOL    HW110199   6.374   6.609   4.817
 3100SOL    HW210200   6.298   6.745   4.768
 3101SOL     OW10201   4.881   6.561   5.921
 3101SOL    HW110202   4.875   6.629   5.848
 3101SOL    HW210203   4.795   6.560   5.973
 3102SOL     OW10204   0.406   5.042   2.484
 3102SOL    HW110205   0.346   4.968   2.451
 3102SOL    HW210206   0.437   5.021   2.576
 3103SOL     OW10207   3.783   0.742   1.901
 3103SOL    HW110208   3.700   0.705   1.942
 3103SOL    HW210209   3.848   0.765   1.973
 3104SOL     OW10210   5.381   6.452   4.908
 3104SOL    HW110211   5.305   6.392   4.884
 3104SOL    HW210212   5.434   6.473   4.825
 3105SOL     OW10213   6.142   4.373   1.824
 3105SOL    HW110214   6.136   4.287   1.875
 3105SOL    HW210215   6.182   4.356   1.734
 3106SOL     OW10216   5.612   1.421   2.685
 3106SOL    HW110217   5.625   1.517   2.661
 3106SOL    HW210218   5.616   1.365   2.602
 3107SOL     OW10219   4.131   0.782   4.163
 3107SOL    HW110220   4.136   0.845   4.241
 3107SOL    HW210221   4.181   0.698   4.186
 3108SOL     OW10222   0.998   0.406   4.563
 3108SOL    HW110223   1.000   0.482   4.497
 3108SOL    HW210224   1.083   0.405   4.615
 3109SOL     OW10225   5.282   6.295   1.969
 3109SOL    HW110226   5.345   6.250   2.032
 3109SOL    HW210227   5.331   6.364   1.917
 3110SOL     OW10228   1.734   1.794   3.834
 3110SOL    HW110229   1.743   1.815   3.737
 3110SOL    HW210230   1.817   1.820   3.882
 3111SOL     OW10231   6.281   6.138   3.947
 3111SOL    HW110232   6.316   6.063   3.891
 3111SOL    HW210233   6.354   6.174   4.005
 3112SOL     OW10234   5.259   2.650   6.176
 3112SOL    HW110235   5.190   2.617   6.111
 3112SOL    HW210236   5.318   2.575   6.204
 3113SOL     OW10237   1.954   6.223   4.070
 3113SOL    HW110238   2.024   6.235   4.000
 3113SOL    HW210239   1.908   6.135   4.057
 3114SOL     OW10240   4.041   2.107   7.006
 3114SOL    HW110241   3.979   2.076   6.934
 3114SOL    HW210242   4.005   2.189   0.035
 3115SOL     OW10243   4.150   3.113   6.340
 3115SOL    HW110244   4.224   3.080   6.399
 3115SOL    HW210245   4.093   3.177   6.392
 3116SOL     OW10246   0.196   3.210   0.462
 3116SOL    HW110247   0.229   3.259   0.381
 3116SOL    HW210248   0.145   3.129   0.433
 3117SOL     OW10249   4.260   3.348   5.264
 3117SOL    HW110250   4.337   3.411   5.256
 3117SOL    HW210251   4.215   3.337   5.176
 3118SOL     OW10252   0.501   4.414   0.681
 3118SOL    HW110253   0.454   4.347   0.739
 3118SOL    HW210254   0.504   4.503   0.727
 3119SOL     OW10255   1.791   3.338   5.496
 3119SOL    HW110256   1.851   3.377   5.426
 3119SOL    HW210257   1.728   3.409   5.529
 3120SOL     OW10258   2.811   6.803   3.827
 3120SOL    HW110259   2.892   6.859   3.812
 3120SOL    HW210260   2.780   6.813   3.922
 3121SOL     OW10261   0.101   1.509   2.852
 3121SOL    HW110262   0.144   1.586   2.805
 3121SOL    HW210263   0.071   1.441   2.785
 3122SOL     OW10264   3.261   6.180   6.043
 3122SOL    HW110265   3.278   6.268   5.997
 3122SOL    HW210266   3.198   6.125   5.989
 3123SOL     OW10267   3.901   1.217   4.221
 3123SOL    HW110268   3.958   1.297   4.242
 3123SOL    HW210269   3.881   1.215   4.123
 3124SOL     OW10270   4.357   6.343   4.852
 3124SOL    HW110271   4.271   6.344   4.800
 3124SOL    HW210272   4.423   6.405   4.809
 3125SOL     OW10273   6.753   2.065   5.017
 3125SOL    HW110274   6.677   2.003   5.033
 3125SOL    HW210275   6.796   2.044   4.929
 3126SOL     OW10276   4.398   4.504   6.292
 3126SOL    HW110277   4.421   4.427   6.232
 3126SOL    HW210278   4.470   4.516   6.360
 3127SOL     OW10279   0.826   3.193   3.703
 3127SOL    HW110280   0.845   3.270   3.642
 3127SOL    HW210281   0.751   3.138   3.665
 3128SOL     OW10282   1.795   0.600   6.533
 3128SOL    HW110283   1.827   0.525   6.475
 3128SOL    HW210284   1.849   0.682   6.514
 3129SOL     OW10285   0.487   4.097   6.506
 3129SOL    HW110286   0.433   4.012   6.502
 3129SOL    HW210287   0.578   4.080   6.469
 3130SOL     OW10288   1.468   4.513   1.858
 3130SOL    HW110289   1.483   4.518   1.957
 3130SOL    HW210290   1.555   4.528   1.811
 3131SOL     OW10291   6.808   2.795   1.742
 3131SOL    HW110292   6.851   2.786   1.832
 3131SOL    HW210293   6.852   2.869   1.691
 3132SOL     OW10294   4.205   5.006   5.793
 3132SOL    HW110295   4.280   4.973   5.850
 3132SOL    HW210296   4.136   4.935   5.785
 3133SOL     OW10297   3.359   2.093   3.767
 3133SOL    HW110298   3.404   2.042   3.694
 3133SOL    HW210299   3.359   2.039   3.851
 3134SOL     OW10300   4.590   4.055   1.435
 3134SOL    HW110301   4.618   4.096   1.522
 3134SOL    HW210302   4.564   4.128   1.371
 3135SOL     OW10303   5.204   1.088   5.481
 3135SOL    HW110304   5.125   1.031   5.458
 3135SOL    HW210305   5.197   1.118   5.576
 3136SOL     OW10306   5.205   0.613   0.158
 3136SOL    HW110307   5.134   0.642   0.223
 3136SOL    HW210308   5.210   0.679   0.083
 3137SOL     OW10309   6.684   0.274   3.403
 3137SOL    HW110310   6.744   0.351   3.423
 3137SOL    HW210311   6.618   0.301   3.333
 3138SOL     OW10312   6.582   2.762   3.959
 3138SOL    HW110313   6.657   2.741   4.022
 3138SOL    HW210314   6.518   2.685   3.957
 3139SOL     OW10315   4.856   6.925   0.530
 3139SOL    HW110316   4.792   6.918   0.606
 3139SOL    HW210317   4.929   6.857   0.541
 3140SOL     OW10318   5.956   6.961   6.817
 3140SOL    HW110319   5.931   0.016   6.750
 3140SOL    HW210320   5.946   6.870   6.776
 3141SOL     OW10321   0.390   5.567   6.250
 3141SOL    HW110322   0.369   5.644   6.310
 3141SOL    HW210323   0.441   5.600   6.171
 3142SOL     OW10324   4.818   6.302   1.565
 3142SOL    HW110325   4.861   6.213   1.583
 3142SOL    HW210326   4.720   6.297   1.586
 3143SOL     OW10327   6.959   2.223   6.967
 3143SOL    HW110328   6.873   2.250   6.923
 3143SOL    HW210329   6.949   2.233   0.051
 3144SOL     OW10330   3.672   4.036   1.065
 3144SOL    HW110331   3.695   4.096   0.989
 3144SOL    HW210332   3.748   4.034   1.130
 3145SOL     OW10333   1.774   5.094   2.169
 3145SOL    HW110334   1.873   5.085   2.161
 3145SOL    HW210335   1.749   5.116   2.263
 3146SOL     OW10336   1.315   6.920   2.892
 3146SOL    HW110337   1.385   6.861   2.933
 3146SOL    HW210338   1.340   0.001   2.906
 3147SOL     OW10339   3.078   5.384   0.175
 3147SOL    HW110340   3.103   5.453   0.107
 3147SOL    HW210341   3.146   5.312   0.176
 3148SOL     OW10342   5.145   6.031   5.041
 3148SOL    HW110343   5.176   5.991   5.128
 3148SOL    HW210344   5.143   5.959   4.971
 3149SOL     OW10345   2.917   0.506   5.440
 3149SOL    HW110346   2.994   0.520   5.502
 3149SOL    HW210347   2.883   0.595   5.409
 3150SOL     OW10348   6.802   6.099   4.403
 3150SOL    HW110349   6.855   6.080   4.320
 3150SOL    HW210350   6.865   6.125   4.477
 3151SOL     OW10351   4.118   1.206   6.282
 3151SOL    HW110352   4.032   1.208   6.332
 3151SOL    HW210353   4.189   1.165   6.338
 3152SOL     OW10354   1.061   5.424   0.882
 3152SOL    HW110355   1.038   5.389   0.791
 3152SOL    HW210356   1.158   5.448   0.884
 3153SOL     OW10357   6.215   4.603   1.960
 3153SOL    HW110358   6.195   4.515   1.916
 3153SOL    HW210359   6.301   4.640   1.923
 3154SOL     OW10360   6.722   1.782   0.599
 3154SOL    HW110361   6.673   1.758   0.516
 3154SOL    HW210362   6.712   1.880   0.617
 3155SOL     OW10363   6.244   5.122   1.209
 3155SOL    HW110364   6.168   5.185   1.223
 3155SOL    HW210365   6.330   5.174   1.208
 3156SOL     OW10366   2.886   3.352   3.626
 3156SOL    HW110367   2.929   3.269   3.589
 3156SOL    HW210368   2.843   3.403   3.552
 3157SOL     OW10369   1.763   2.624   4.939
 3157SOL    HW110370   1.706   2.702   4.915
 3157SOL    HW210371   1.820   2.647   5.018
 3158SOL     OW10372   4.211   0.052   2.113
 3158SOL    HW110373   4.135   0.001   2.152
 3158SOL    HW210374   4.179   0.142   2.084
 3159SOL     OW10375   5.428   1.092   0.462
 3159SOL    HW110376   5.424   0.995   0.438
 3159SOL    HW210377   5.508   1.134   0.419
 3160SOL     OW10378   0.220   6.375   5.249
 3160SOL    HW110379   0.126   6.401   5.271
 3160SOL    HW210380   0.281   6.452   5.271
 3161SOL     OW10381   1.710   1.858   3.553
 3161SOL    HW110382   1.645   1.838   3.480
 3161SOL    HW210383   1.776   1.926   3.521
 3162SOL     OW10384   1.095   6.305   0.608
 3162SOL    HW110385   1.096   6.404   0.622
 3162SOL    HW210386   1.163   6.262   0.668
 3163SOL     OW10387   3.944   2.249   6.772
 3163SOL    HW110388   4.013   2.297   6.826
 3163SOL    HW210389   3.956   2.272   6.675
 3164SOL     OW10390   4.202   4.003   1.446
 3164SOL    HW110391   4.215   4.016   1.544
 3164SOL    HW210392   4.280   3.952   1.409
 3165SOL     OW10393   1.280   5.633   1.488
 3165SOL    HW110394   1.201   5.655   1.545
 3165SOL    HW210395   1.348   5.705   1.497
 3166SOL     OW10396   4.345   1.060   6.440
 3166SOL    HW110397   4.391   1.011   6.365
 3166SOL    HW210398   4.323   0.996   6.513
 3167SOL     OW10399   0.022   4.373   1.461
 3167SOL    HW110400   0.079   4.450   1.489
 3167SOL    HW210401   6.957   4.367   1.522
 3168SOL     OW10402   5.252   2.687   0.059
 3168SOL    HW110403   5.256   2.786   0.064
 3168SOL    HW210404   5.171   2.654   0.109
 3169SOL     OW10405   1.608   3.149   5.176
 3169SOL    HW110406   1.610   3.067   5.119
 3169SOL    HW210407   1.677   3.142   5.248
 3170SOL     OW10408   4.532   0.871   1.102
 3170SOL    HW110409   4.565   0.787   1.144
 3170SOL    HW210410   4.434   0.879   1.116
 3171SOL     OW10411   0.305   6.198   1.481
 3171SOL    HW110412   0.271   6.281   1.525
 3171SOL    HW210413   0.383   6.162   1.532
 3172SOL     OW10414   0.359   5.295   5.840
 3172SOL    HW110415   0.355   5.216   5.902
 3172SOL    HW210416   0.274   5.299   5.787
 3173SOL     OW10417   3.126   2.137   1.174
 3173SOL    HW110418   3.071   2.215   1.204
 3173SOL    HW210419   3.114   2.124   1.076
 3174SOL     OW10420   2.834   2.726   6.383
 3174SOL    HW110421   2.756   2.733   6.321
 3174SOL    HW210422   2.919   2.739   6.331
 3175SOL     OW10423   0.228   6.621   0.473
 3175SOL    HW110424   0.218   6.522   0.459
 3175SOL    HW210425   0.236   6.639   0.571
 3176SOL     OW10426   2.011   5.062   4.790
 3176SOL    HW110427   2.082   5.128   4.765
 3176SOL    HW210428   2.052   4.972   4.802
 3177SOL     OW10429   4.806   4.825   5.311
 3177SOL    HW110430   4.799   4.872   5.399
 3177SOL    HW210431   4.810   4.893   5.237
 3178SOL     OW10432   6.836   2.613   1.186
 3178SOL    HW110433   6.829   2.670   1.269
 3178SOL    HW210434   6.855   2.518   1.212
 3179SOL     OW10435   2.032   2.646   2.314
 3179SOL    HW110436   2.006   2.556   2.350
 3179SOL    HW210437   2.016   2.648   2.215
 3180SOL     OW10438   4.641   0.288   0.340
 3180SOL    HW110439   4.673   0.259   0.431
 3180SOL    HW210440   4.663   0.385   0.327
 3181SOL     OW10441   1.158   1.279   2.950
 3181SOL    HW110442   1.136   1.330   3.034
 3181SOL    HW210443   1.195   1.190   2.974
 3182SOL     OW10444   1.628   1.316   5.660
 3182SOL    HW110445   1.585   1.233   5.627
 3182SOL    HW210446   1.702   1.343   5.598
 3183SOL     OW10447   5.022   3.924   1.324
 3183SOL    HW110448   5.074   3.839   1.330
 3183SOL    HW210449   4.924   3.904   1.320
 3184SOL     OW10450   2.244   2.427   2.843
 3184SOL    HW110451   2.294   2.341   2.853
 3184SOL    HW210452   2.286   2.481   2.770
 3185SOL     OW10453   5.881   0.727   6.686
 3185SOL    HW110454   5.845   0.791   6.618
 3185SOL    HW210455   5.965   0.684   6.650
 3186SOL     OW10456   3.490   1.574   3.102
 3186SOL    HW110457   3.482   1.656   3.157
 3186SOL    HW210458   3.575   1.577   3.049
 3187SOL     OW10459   4.392   4.436   0.356
 3187SOL    HW110460   4.329   4.379   0.409
 3187SOL    HW210461   4.382   4.417   0.259
 3188SOL     OW10462   3.405   6.155   4.304
 3188SOL    HW110463   3.389   6.063   4.268
 3188SOL    HW210464   3.501   6.166   4.327
 3189SOL     OW10465   2.423   0.719   2.652
 3189SOL    HW110466   2.388   0.690   2.563
 3189SOL    HW210467   2.394   0.653   2.722
 3190SOL     OW10468   0.634   6.139   1.661
 3190SOL    HW110469   0.692   6.138   1.743
 3190SOL    HW210470   0.538   6.129   1.689
 3191SOL     OW10471   3.867   6.698   0.725
 3191SOL    HW110472   3.951   6.741   0.759
 3191SOL    HW210473   3.891   6.616   0.674
 3192SOL     OW10474   0.223   2.460   1.313
 3192SOL    HW110475   0.252   2.461   1.409
 3192SOL    HW210476   0.171   2.376   1.295
 3193SOL     OW10477   4.194   1.710   5.842
 3193SOL    HW110478   4.142   1.792   5.818
 3193SOL    HW210479   4.255   1.730   5.919
 3194SOL     OW10480   0.925   2.609   6.022
 3194SOL    HW110481   0.977   2.665   6.087
 3194SOL    HW210482   0.936   2.646   5.930
 3195SOL     OW10483   2.293   2.874   2.574
 3195SOL    HW110484   2.303   2.959   2.524
 3195SOL    HW210485   2.292   2.797   2.510
 3196SOL     OW10486   6.989   0.566   4.861
 3196SOL    HW110487   6.931   0.488   4.835
 3196SOL    HW210488   6.951   0.610   4.943
 3197SOL     OW10489   1.962   5.595   3.606
 3197SOL    HW110490   2.047   5.639   3.580
 3197SOL    HW210491   1.905   5.659   3.658
 3198SOL     OW10492   6.198   2.666   6.060
 3198SOL    HW110493   6.283   2.672   6.112
 3198SOL    HW210494   6.134   2.605   6.107
 3199SOL     OW10495   4.453   2.777   1.683
 3199SOL    HW110496   4.367   2.727   1.670
 3199SOL    HW210497   4.434   2.865   1.726
 3200SOL     OW10498   6.952   1.767   2.002
 3200SOL    HW110499   6.942   1.673   2.036
 3200SOL    HW210500   0.007   1.814   2.056
 3201SOL     OW10501   5.157   4.381   4.718
 3201SOL    HW110502   5.256   4.371   4.728
 3201SOL    HW210503   5.115   4.385   4.809
 3202SOL     OW10504   1.105   4.660   1.854
 3202SOL    HW110505   1.008   4.670   1.832
 3202SOL    HW210506   1.137   4.571   1.821
 3203SOL     OW10507   5.348   1.008   1.132
 3203SOL    HW110508   5.412   1.027   1.207
 3203SOL    HW210509   5.377   1.059   1.050
 3204SOL     OW10510   4.727   5.595   1.820
 3204SOL    HW110511   4.738   5.689   1.852
 3204SOL    HW210512   4.736   5.532   1.897
 3205SOL     OW10513   0.327   3.829   6.491
 3205SOL    HW110514   0.252   3.763   6.498
 3205SOL    HW210515   0.397   3.794   6.428
 3206SOL     OW10516   6.853   6.724   5.834
 3206SOL    HW110517   6.831   6.781   5.755
 3206SOL    HW210518   6.925   6.659   5.809
 3207SOL     OW10519   0.241   1.642   6.599
 3207SOL    HW110520   0.241   1.649   6.499
 3207SOL    HW210521   0.191   1.719   6.638
 3208SOL     OW10522   5.055   6.387   6.142
 3208SOL    HW110523   4.988   6.458   6.118
 3208SOL    HW210524   5.147   6.425   6.134
 3209SOL     OW10525   3.104   5.564   3.705
 3209SOL    HW110526   3.173   5.528   3.768
 3209SOL    HW210527   3.136   5.553   3.611
 3210SOL     OW10528   0.750   3.991   2.085
 3210SOL    HW110529   0.747   3.960   1.990
 3210SOL    HW210530   0.772   4.089   2.088
 3211SOL     OW10531   2.441   3.865   0.880
 3211SOL    HW110532   2.464   3.806   0.957
 3211SOL    HW210533   2.345   3.893   0.886
 3212SOL     OW10534   3.930   1.506   6.405
 3212SOL    HW110535   3.994   1.539   6.334
 3212SOL    HW210536   3.904   1.583   6.464
 3213SOL     OW10537   6.106   5.343   3.122
 3213SOL    HW110538   6.156   5.285   3.187
 3213SOL    HW210539   6.014   5.361   3.157
 3214SOL     OW10540   4.853   5.860   0.481
 3214SOL    HW110541   4.773   5.873   0.540
 3214SOL    HW210542   4.831   5.792   0.411
 3215SOL     OW10543   6.990   3.514   1.294
 3215SOL    HW110544   6.949   3.426   1.319
 3215SOL    HW210545   0.073   3.503   1.281
 3216SOL     OW10546   4.974   5.509   2.083
 3216SOL    HW110547   5.036   5.431   2.091
 3216SOL    HW210548   4.879   5.477   2.090
 3217SOL     OW10549   0.878   5.144   2.284
 3217SOL    HW110550   0.810   5.086   2.329
 3217SOL    HW210551   0.970   5.117   2.313
 3218SOL     OW10552   4.216   6.374   3.561
 3218SOL    HW110553   4.124   6.381   3.521
 3218SOL    HW210554   4.233   6.279   3.589
 3219SOL     OW10555   0.063   1.141   3.403
 3219SOL    HW110556   0.123   1.070   3.440
 3219SOL    HW210557   0.079   1.227   3.451
 3220SOL     OW10558   6.186   5.205   5.789
 3220SOL    HW110559   6.172   5.277   5.857
 3220SOL    HW210560   6.277   5.216   5.749
 3221SOL     OW10561   3.162   6.611   1.936
 3221SOL    HW110562   3.205   6.683   1.990
 3221SOL    HW210563   3.073   6.587   1.976
 3222SOL     OW10564   4.791   1.873   3.553
 3222SOL    HW110565   4.736   1.866   3.470
 3222SOL    HW210566   4.734   1.851   3.632
 3223SOL     OW10567   1.841   5.192   6.709
 3223SOL    HW110568   1.745   5.197   6.734
 3223SOL    HW210569   1.897   5.233   6.782
 3224SOL     OW10570   4.349   4.752   6.217
 3224SOL    HW110571   4.369   4.656   6.238
 3224SOL    HW210572   4.253   4.761   6.191
 3225SOL     OW10573   4.215   2.549   5.525
 3225SOL    HW110574   4.169   2.484   5.587
 3225SOL    HW210575   4.188   2.642   5.549
 3226SOL     OW10576   1.358   1.607   4.667
 3226SOL    HW110577   1.376   1.542   4.741
 3226SOL    HW210578   1.331   1.556   4.585
 3227SOL     OW10579   3.099   1.917   6.370
 3227SOL    HW110580   3.002   1.910   6.391
 3227SOL    HW210581   3.145   1.832   6.396
 3228SOL     OW10582   5.162   3.332   4.147
 3228SOL    HW110583   5.196   3.420   4.113
 3228SOL    HW210584   5.189   3.259   4.084
 3229SOL     OW10585   3.360   1.558   5.755
 3229SOL    HW110586   3.387   1.569   5.851
 3229SOL    HW210587   3.262   1.570   5.745
 3230SOL     OW10588   0.733   2.798   4.147
 3230SOL    HW110589   0.705   2.861   4.074
 3230SOL    HW210590   0.833   2.799   4.155
 3231SOL     OW10591   3.386   6.045   2.254
 3231SOL    HW110592   3.434   6.125   2.292
 3231SOL    HW210593   3.301   6.030   2.304
 3232SOL     OW10594   4.344   5.312   4.147
 3232SOL    HW110595   4.384   5.319   4.055
 3232SOL    HW210596   4.416   5.312   4.215
 3233SOL     OW10597   1.915   3.342   1.060
 3233SOL    HW110598   1.915   3.442   1.052
 3233SOL    HW210599   1.972   3.315   1.138
 3234SOL     OW10600   0.269   2.654   0.382
 3234SOL    HW110601   0.305   2.713   0.454
 3234SOL    HW210602   0.317   2.566   0.384
 3235SOL     OW10603   5.415   6.006   1.910
 3235SOL    HW110604   5.364   5.923   1.885
 3235SOL    HW210605   5.474   6.033   1.834
 3236SOL     OW10606   1.701   3.171   1.603
 3236SOL    HW110607   1.616   3.223   1.592
 3236SOL    HW210608   1.710   3.140   1.698
 3237SOL     OW10609   5.443   1.096   3.704
 3237SOL    HW110610   5.510   1.035   3.664
 3237SOL    HW210611   5.460   1.190   3.673
 3238SOL     OW10612   0.120   4.971   6.841
 3238SOL    HW110613   0.157   4.952   6.932
 3238SOL    HW210614   0.137   4.893   6.781
 3239SOL     OW10615   6.186   1.089   0.479
 3239SOL    HW110616   6.220   1.169   0.528
 3239SOL    HW210617   6.226   1.085   0.388
 3240SOL     OW10618   1.248   6.502   5.147
 3240SOL    HW110619   1.174   6.534   5.087
 3240SOL    HW210620   1.223   6.517   5.242
 3241SOL     OW10621   5.653   1.513   4.596
 3241SOL    HW110622   5.671   1.431   4.542
 3241SOL    HW210623   5.554   1.530   4.599
 3242SOL     OW10624   3.250   4.579   0.713
 3242SOL    HW110625   3.157   4.572   0.675
 3242SOL    HW210626   3.255   4.527   0.798
 3243SOL     OW10627   5.717   5.507   0.256
 3243SOL    HW110628   5.652   5.553   0.316
 3243SOL    HW210629   5.799   5.562   0.246
 3244SOL     OW10630   4.705   4.987   6.785
 3244SOL    HW110631   4.625   5.043   6.764
 3244SOL    HW210632   4.788   5.036   6.759
 3245SOL     OW10633   4.913   2.597   5.508
 3245SOL    HW110634   4.882   2.538   5.433
 3245SOL    HW210635   4.965   2.542   5.573
 3246SOL     OW10636   6.539   0.384   3.157
 3246SOL    HW110637   6.572   0.305   3.107
 3246SOL    HW210638   6.488   0.444   3.095
 3247SOL     OW10639   0.330   5.242   2.795
 3247SOL    HW110640   0.419   5.281   2.769
 3247SOL    HW210641   0.257   5.303   2.764
 3248SOL     OW10642   5.521   3.810   1.733
 3248SOL    HW110643   5.576   3.838   1.654
 3248SOL    HW210644   5.548   3.718   1.762
 3249SOL     OW10645   4.298   4.241   5.782
 3249SOL    HW110646   4.208   4.272   5.750
 3249SOL    HW210647   4.302   4.141   5.778
 3250SOL     OW10648   5.581   0.063   3.405
 3250SOL    HW110649   5.628   6.999   3.365
 3250SOL    HW210650   5.484   0.041   3.417
 3251SOL     OW10651   4.239   0.969   2.253
 3251SOL    HW110652   4.334   0.950   2.274
 3251SOL    HW210653   4.215   0.927   2.165
 3252SOL     OW10654   3.270   1.217   2.165
 3252SOL    HW110655   3.238   1.131   2.127
 3252SOL    HW210656   3.207   1.290   2.140
 3253SOL     OW10657   4.895   3.324   2.449
 3253SOL    HW110658   4.896   3.270   2.365
 3253SOL    HW210659   4.862   3.268   2.524
 3254SOL     OW10660   3.433   5.102   4.917
 3254SOL    HW110661   3.456   5.192   4.953
 3254SOL    HW210662   3.511   5.066   4.865
 3255SOL     OW10663   4.427   5.856   1.341
 3255SOL    HW110664   4.394   5.800   1.264
 3255SOL    HW210665   4.473   5.798   1.407
 3256SOL     OW10666   5.390   0.346   6.462
 3256SOL    HW110667   5.453   0.351   6.540
 3256SOL    HW210668   5.438   0.306   6.383
 3257SOL     OW10669   0.814   1.993   1.385
 3257SOL    HW110670   0.721   2.008   1.352
 3257SOL    HW210671   0.879   2.033   1.320
 3258SOL     OW10672   4.563   5.867   2.404
 3258SOL    HW110673   4.512   5.781   2.397
 3258SOL    HW210674   4.618   5.867   2.487
 3259SOL     OW10675   4.760   5.817   4.415
 3259SOL    HW110676   4.723   5.847   4.503
 3259SOL    HW210677   4.754   5.891   4.348
 3260SOL     OW10678   1.962   2.321   1.304
 3260SOL    HW110679   2.043   2.296   1.250
 3260SOL    HW210680   1.917   2.399   1.261
 3261SOL     OW10681   4.308   6.292   0.488
 3261SOL    HW110682   4.378   6.340   0.435
 3261SOL    HW210683   4.352   6.236   0.558
 3262SOL     OW10684   4.031   1.691   2.763
 3262SOL    HW110685   3.998   1.768   2.818
 3262SOL    HW210686   3.987   1.694   2.673
 3263SOL     OW10687   5.011   0.293   3.846
 3263SOL    HW110688   4.972   0.382   3.823
 3263SOL    HW210689   5.073   0.264   3.773
 3264SOL     OW10690   0.853   4.779   6.815
 3264SOL    HW110691   0.767   4.731   6.799
 3264SOL    HW210692   0.888   4.755   6.906
 3265SOL     OW10693   4.348   2.265   6.364
 3265SOL    HW110694   4.421   2.325   6.397
 3265SOL    HW210695   4.360   2.249   6.266
 3266SOL     OW10696   0.639   2.402   0.642
 3266SOL    HW110697   0.596   2.360   0.562
 3266SOL    HW210698   0.723   2.351   0.664
 3267SOL     OW10699   3.533   2.299   1.033
 3267SOL    HW110700   3.487   2.246   1.104
 3267SOL    HW210701   3.482   2.292   0.947
 3268SOL     OW10702   0.786   3.579   6.706
 3268SOL    HW110703   0.857   3.519   6.669
 3268SOL    HW210704   0.743   3.535   6.785
 3269SOL     OW10705   4.110   5.151   2.012
 3269SOL    HW110706   4.027   5.201   2.038
 3269SOL    HW210707   4.136   5.089   2.086
 3270SOL     OW10708   1.308   5.751   4.907
 3270SOL    HW110709   1.214   5.780   4.891
 3270SOL    HW210710   1.354   5.737   4.819
 3271SOL     OW10711   5.567   2.775   2.552
 3271SOL    HW110712   5.542   2.790   2.647
 3271SOL    HW210713   5.663   2.798   2.537
 3272SOL     OW10714   3.748   5.464   0.897
 3272SOL    HW110715   3.666   5.475   0.841
 3272SOL    HW210716   3.801   5.385   0.863
 3273SOL     OW10717   0.720   6.361   2.174
 3273SOL    HW110718   0.800   6.328   2.225
 3273SOL    HW210719   0.661   6.413   2.236
 3274SOL     OW10720   3.630   2.213   6.937
 3274SOL    HW110721   3.664   2.306   6.948
 3274SOL    HW210722   3.679   2.167   6.863
 3275SOL     OW10723   1.833   0.579   6.897
 3275SOL    HW110724   1.764   0.521   6.853
 3275SOL    HW210725   1.868   0.533   6.979
 3276SOL     OW10726   3.331   4.985   6.575
 3276SOL    HW110727   3.353   5.083   6.575
 3276SOL    HW210728   3.343   4.948   6.483
 3277SOL     OW10729   5.912   0.401   6.237
 3277SOL    HW110730   5.873   0.394   6.329
 3277SOL    HW210731   6.007   0.368   6.239
 3278SOL     OW10732   6.554   0.922   5.711
 3278SOL    HW110733   6.611   0.904   5.792
 3278SOL    HW210734   6.496   1.002   5.728
 3279SOL     OW10735   0.470   0.931   1.176
 3279SOL    HW110736   0.458   0.857   1.109
 3279SOL    HW210737   0.387   0.938   1.232
 3280SOL     OW10738   2.559   5.750   5.947
 3280SOL    HW110739   2.460   5.758   5.935
 3280SOL    HW210740   2.580   5.666   5.998
 3281SOL     OW10741   1.890   5.253   0.903
 3281SOL    HW110742   1.983   5.288   0.896
 3281SOL    HW210743   1.880   5.175   0.841
 3282SOL     OW10744   2.322   5.435   4.201
 3282SOL    HW110745   2.310   5.507   4.132
 3282SOL    HW210746   2.358   5.475   4.285
 3283SOL     OW10747   3.166   1.715   2.085
 3283SOL    HW110748   3.115   1.733   2.168
 3283SOL    HW210749   3.135   1.777   2.013
 3284SOL     OW10750   6.465   6.905   6.331
 3284SOL    HW110751   6.382   6.957   6.310
 3284SOL    HW210752   6.542   6.968   6.344
 3285SOL     OW10753   7.006   2.632   3.325
 3285SOL    HW110754   6.990   2.608   3.229
 3285SOL    HW210755   6.966   2.562   3.384
 3286SOL     OW10756   4.035   3.178   4.009
 3286SOL    HW110757   4.014   3.202   4.103
 3286SOL    HW210758   3.972   3.106   3.978
 3287SOL     OW10759   1.230   5.856   0.420
 3287SOL    HW110760   1.177   5.836   0.503
 3287SOL    HW210761   1.226   5.778   0.358
 3288SOL     OW10762   1.005   5.589   6.728
 3288SOL    HW110763   0.929   5.641   6.768
 3288SOL    HW210764   1.074   5.571   6.798
 3289SOL     OW10765   1.812   6.502   5.623
 3289SOL    HW110766   1.894   6.555   5.646
 3289SOL    HW210767   1.814   6.415   5.671
 3290SOL     OW10768   0.635   6.841   1.887
 3290SOL    HW110769   0.596   6.862   1.797
 3290SOL    HW210770   0.676   6.750   1.885
 3291SOL     OW10771   0.928   6.818   6.581
 3291SOL    HW110772   0.982   6.847   6.660
 3291SOL    HW210773   0.839   6.784   6.612
 3292SOL     OW10774   0.699   1.300   0.240
 3292SOL    HW110775   0.673   1.341   0.327
 3292SOL    HW210776   0.624   1.245   0.204
 3293SOL     OW10777   6.617   2.109   3.298
 3293SOL    HW110778   6.684   2.066   3.238
 3293SOL    HW210779   6.613   2.207   3.279
 3294SOL     OW10780   0.208   0.325   6.087
 3294SOL    HW110781   0.180   0.408   6.038
 3294SOL    HW210782   0.296   0.294   6.053
 3295SOL     OW10783   2.445   2.454   0.923
 3295SOL    HW110784   2.354   2.466   0.962
 3295SOL    HW210785   2.495   2.541   0.927
 3296SOL     OW10786   2.030   6.438   1.026
 3296SOL    HW110787   2.022   6.389   1.112
 3296SOL    HW210788   1.974   6.393   0.956
 3297SOL     OW10789   2.773   1.590   4.414
 3297SOL    HW110790   2.872   1.572   4.413
 3297SOL    HW210791   2.733   1.564   4.326
 3298SOL     OW10792   6.361   2.882   2.937
 3298SOL    HW110793   6.410   2.806   2.895
 3298SOL    HW210794   6.265   2.858   2.947
 3299SOL     OW10795   2.468   6.798   3.935
 3299SOL    HW110796   2.447   6.871   3.871
 3299SOL    HW210797   2.414   6.717   3.913
 3300SOL     OW10798   0.411   0.125   5.944
 3300SOL    HW110799   0.391   0.064   6.021
 3300SOL    HW210800   0.508   0.119   5.921
 3301SOL     OW10801   1.973   4.144   3.505
 3301SOL    HW110802   2.035   4.205   3.554
 3301SOL    HW210803   1.956   4.180   3.413
 3302SOL     OW10804   1.063   5.213   4.579
 3302SOL    HW110805   1.149   5.240   4.620
 3302SOL    HW210806   0.992   5.209   4.649
 3303SOL     OW10807   3.384   2.778   1.932
 3303SOL    HW110808   3.378   2.725   2.016
 3303SOL    HW210809   3.296   2.824   1.915
 3304SOL     OW10810   1.877   4.878   3.086
 3304SOL    HW110811   1.895   4.781   3.101
 3304SOL    HW210812   1.789   4.903   3.125
 3305SOL     OW10813   2.445   1.993   2.791
 3305SOL    HW110814   2.529   2.023   2.746
 3305SOL    HW210815   2.464   1.912   2.846
 3306SOL     OW10816   2.243   4.641   3.729
 3306SOL    HW110817   2.185   4.718   3.703
 3306SOL    HW210818   2.216   4.608   3.820
 3307SOL     OW10819   0.140   6.395   6.583
 3307SOL    HW110820   0.048   6.358   6.574
 3307SOL    HW210821   0.198   6.356   6.511
 3308SOL     OW10822   4.546   5.897   6.614
 3308SOL    HW110823   4.626   5.929   6.665
 3308SOL    HW210824   4.575   5.864   6.524
 3309SOL     OW10825   0.756   5.304   2.556
 3309SOL    HW110826   0.852   5.331   2.545
 3309SOL    HW210827   0.751   5.207   2.577
 3310SOL     OW10828   6.730   3.884   3.040
 3310SOL    HW110829   6.713   3.963   2.982
 3310SOL    HW210830   6.801   3.827   2.999
 3311SOL     OW10831   2.929   5.204   0.867
 3311SOL    HW110832   3.016   5.251   0.853
 3311SOL    HW210833   2.918   5.131   0.800
 3312SOL     OW10834   2.758   4.033   6.439
 3312SOL    HW110835   2.670   4.030   6.393
 3312SOL    HW210836   2.761   4.112   6.501
 3313SOL     OW10837   0.923   5.624   2.795
 3313SOL    HW110838   0.852   5.611   2.864
 3313SOL    HW210839   1.000   5.674   2.835
 3314SOL     OW10840   1.896   2.412   5.200
 3314SOL    HW110841   1.835   2.404   5.279
 3314SOL    HW210842   1.911   2.509   5.179
 3315SOL     OW10843   6.853   2.435   4.277
 3315SOL    HW110844   6.924   2.366   4.266
 3315SOL    HW210845   6.772   2.409   4.224
 3316SOL     OW10846   3.732   1.380   5.353
 3316SOL    HW110847   3.659   1.385   5.420
 3316SOL    HW210848   3.702   1.422   5.267
 3317SOL     OW10849   4.654   2.723   1.854
 3317SOL    HW110850   4.644   2.815   1.891
 3317SOL    HW210851   4.586   2.707   1.783
 3318SOL     OW10852   2.832   0.202   6.966
 3318SOL    HW110853   2.748   0.221   6.916
 3318SOL    HW210854   2.910   0.214   6.905
 3319SOL     OW10855   6.539   6.679   3.612
 3319SOL    HW110856   6.549   6.609   3.683
 3319SOL    HW210857   6.621   6.737   3.611
 3320SOL     OW10858   5.672   1.271   5.897
 3320SOL    HW110859   5.736   1.346   5.881
 3320SOL    HW210860   5.583   1.294   5.857
 3321SOL     OW10861   3.147   2.926   1.907
 3321SOL    HW110862   3.079   2.952   1.838
 3321SOL    HW210863   3.169   3.005   1.964
 3322SOL     OW10864   5.053   1.957   1.720
 3322SOL    HW110865   5.144   1.978   1.686
 3322SOL    HW210866   5.037   1.858   1.716
 3323SOL     OW10867   2.107   4.209   6.462
 3323SOL    HW110868   2.147   4.185   6.550
 3323SOL    HW210869   2.076   4.304   6.465
 3324SOL     OW10870   0.761   3.877   6.930
 3324SOL    HW110871   0.682   3.870   6.992
 3324SOL    HW210872   0.803   3.787   6.918
 3325SOL     OW10873   2.007   3.226   0.048
 3325SOL    HW110874   1.967   3.264   6.980
 3325SOL    HW210875   2.011   3.297   0.118
 3326SOL     OW10876   5.366   1.520   1.522
 3326SOL    HW110877   5.408   1.493   1.436
 3326SOL    HW210878   5.346   1.618   1.520
 3327SOL     OW10879   2.414   6.504   0.764
 3327SOL    HW110880   2.504   6.547   0.762
 3327SOL    HW210881   2.377   6.507   0.857
 3328SOL     OW10882   4.818   1.406   2.433
 3328SOL    HW110883   4.876   1.334   2.470
 3328SOL    HW210884   4.845   1.494   2.472
 3329SOL     OW10885   4.691   0.269   5.218
 3329SOL    HW110886   4.750   0.301   5.144
 3329SOL    HW210887   4.614   0.218   5.179
 3330SOL     OW10888   5.634   6.577   2.286
 3330SOL    HW110889   5.715   6.627   2.318
 3330SOL    HW210890   5.596   6.523   2.361
 3331SOL     OW10891   1.755   3.310   2.604
 3331SOL    HW110892   1.832   3.325   2.665
 3331SOL    HW210893   1.671   3.345   2.646
 3332SOL     OW10894   6.082   4.097   0.413
 3332SOL    HW110895   6.127   4.058   0.492
 3332SOL    HW210896   6.143   4.161   0.367
 3333SOL     OW10897   2.890   3.335   6.841
 3333SOL    HW110898   2.805   3.332   6.788
 3333SOL    HW210899   2.896   3.421   6.890
 3334SOL     OW10900   1.972   3.071   1.968
 3334SOL    HW110901   1.890   3.046   1.916
 3334SOL    HW210902   2.022   3.142   1.918
 3335SOL     OW10903   4.631   5.558   5.972
 3335SOL    HW110904   4.620   5.632   5.906
 3335SOL    HW210905   4.595   5.473   5.933
 3336SOL     OW10906   2.274   0.135   4.197
 3336SOL    HW110907   2.266   0.174   4.105
 3336SOL    HW210908   2.273   0.035   4.191
 3337SOL     OW10909   3.758   3.162   2.258
 3337SOL    HW110910   3.788   3.207   2.174
 3337SOL    HW210911   3.746   3.064   2.242
 3338SOL     OW10912   0.406   2.235   1.799
 3338SOL    HW110913   0.480   2.297   1.774
 3338SOL    HW210914   0.323   2.260   1.749
 3339SOL     OW10915   2.193   0.204   5.794
 3339SOL    HW110916   2.203   0.303   5.779
 3339SOL    HW210917   2.098   0.184   5.817
 3340SOL     OW10918   4.729   0.607   4.000
 3340SOL    HW110919   4.724   0.534   4.068
 3340SOL    HW210920   4.822   0.613   3.963
 3341SOL     OW10921   2.466   4.538   3.584
 3341SOL    HW110922   2.536   4.607   3.603
 3341SOL    HW210923   2.378   4.570   3.617
 3342SOL     OW10924   0.191   0.414   2.602
 3342SOL    HW110925   0.176   0.354   2.523
 3342SOL    HW210926   0.102   0.448   2.634
 3343SOL     OW10927   5.287   5.232   6.216
 3343SOL    HW110928   5.221   5.307   6.216
 3343SOL    HW210929   5.350   5.244   6.138
 3344SOL     OW10930   6.463   2.901   3.359
 3344SOL    HW110931   6.434   2.806   3.373
 3344SOL    HW210932   6.385   2.956   3.330
 3345SOL     OW10933   0.709   4.051   6.376
 3345SOL    HW110934   0.721   3.963   6.329
 3345SOL    HW210935   0.720   4.125   6.310
 3346SOL     OW10936   1.728   1.320   6.668
 3346SOL    HW110937   1.742   1.226   6.698
 3346SOL    HW210938   1.654   1.323   6.601
 3347SOL     OW10939   1.687   2.538   6.566
 3347SOL    HW110940   1.595   2.499   6.561
 3347SOL    HW210941   1.684   2.634   6.538
 3348SOL     OW10942   4.330   3.769   5.319
 3348SOL    HW110943   4.371   3.683   5.290
 3348SOL    HW210944   4.280   3.756   5.404
 3349SOL     OW10945   2.400   5.134   3.739
 3349SOL    HW110946   2.465   5.165   3.670
 3349SOL    HW210947   2.443   5.066   3.797
 3350SOL     OW10948   0.731   3.108   5.835
 3350SOL    HW110949   0.723   3.020   5.789
 3350SOL    HW210950   0.667   3.173   5.793
 3351SOL     OW10951   5.547   1.128   1.336
 3351SOL    HW110952   5.534   1.112   1.434
 3351SOL    HW210953   5.598   1.051   1.296
 3352SOL     OW10954   5.183   2.294   0.684
 3352SOL    HW110955   5.191   2.358   0.608
 3352SOL    HW210956   5.105   2.233   0.669
 3353SOL     OW10957   1.997   0.128   0.332
 3353SOL    HW110958   1.970   0.144   0.237
 3353SOL    HW210959   2.093   0.152   0.344
 3354SOL     OW10960   3.821   2.820   5.250
 3354SOL    HW110961   3.842   2.723   5.241
 3354SOL    HW210962   3.760   2.834   5.328
 3355SOL     OW10963   2.270   1.769   5.892
 3355SOL    HW110964   2.171   1.776   5.882
 3355SOL    HW210965   2.312   1.857   5.872
 3356SOL     OW10966   0.596   6.283   6.572
 3356SOL    HW110967   0.646   6.356   6.525
 3356SOL    HW210968   0.578   6.310   6.666
 3357SOL     OW10969   3.549   3.341   1.843
 3357SOL    HW110970   3.614   3.382   1.908
 3357SOL    HW210971   3.574   3.367   1.750
 3358SOL     OW10972   5.506   1.303   3.328
 3358SOL    HW110973   5.458   1.216   3.311
 3358SOL    HW210974   5.452   1.359   3.391
 3359SOL     OW10975   0.391   5.340   3.573
 3359SOL    HW110976   0.391   5.275   3.497
 3359SOL    HW210977   0.297   5.368   3.593
 3360SOL     OW10978   0.913   2.274   6.531
 3360SOL    HW110979   0.977   2.320   6.470
 3360SOL    HW210980   0.961   2.243   6.613
 3361SOL     OW10981   0.787   0.643   3.924
 3361SOL    HW110982   0.724   0.578   3.968
 3361SOL    HW210983   0.790   0.727   3.978
 3362SOL     OW10984   4.032   1.558   3.052
 3362SOL    HW110985   3.995   1.592   2.965
 3362SOL    HW210986   3.984   1.474   3.077
 3363SOL     OW10987   6.741   3.695   1.775
 3363SOL    HW110988   6.765   3.632   1.850
 3363SOL    HW210989   6.683   3.647   1.709
 3364SOL     OW10990   1.748   4.569   2.903
 3364SOL    HW110991   1.781   4.533   2.816
 3364SOL    HW210992   1.820   4.621   2.948
 3365SOL     OW10993   1.489   2.441   4.458
 3365SOL    HW110994   1.491   2.342   4.446
 3365SOL    HW210995   1.482   2.463   4.555
 3366SOL     OW10996   6.425   3.968   3.991
 3366SOL    HW110997   6.465   3.943   4.079
 3366SOL    HW210998   6.369   3.893   3.957
 3367SOL     OW10999   3.533   3.429   3.668
 3367SOL    HW111000   3.563   3.505   3.725
 3367SOL    HW211001   3.574   3.344   3.701
 3368SOL     OW11002   0.612   5.690   6.579
 3368SOL    HW111003   0.683   5.721   6.515
 3368SOL    HW211004   0.544   5.762   6.591
 3369SOL     OW11005   4.555   1.687   1.682
 3369SOL    HW111006   4.477   1.749   1.671
 3369SOL    HW211007   4.637   1.730   1.644
 3370SOL     OW11008   5.805   6.646   1.912
 3370SOL    HW111009   5.835   6.719   1.973
 3370SOL    HW211010   5.803   6.680   1.818
 3371SOL     OW11011   2.239   3.883   1.928
 3371SOL    HW111012   2.305   3.811   1.906
 3371SOL    HW211013   2.183   3.902   1.847
 3372SOL     OW11014   6.760   2.381   0.476
 3372SOL    HW111015   6.735   2.477   0.490
 3372SOL    HW211016   6.678   2.328   0.454
 3373SOL     OW11017   0.465   2.135   3.156
 3373SOL    HW111018   0.517   2.211   3.195
 3373SOL    HW211019   0.431   2.077   3.231
 3374SOL     OW11020   1.385   0.463   3.981
 3374SOL    HW111021   1.345   0.423   4.063
 3374SOL    HW211022   1.364   0.561   3.978
 3375SOL     OW11023   6.586   4.716   0.402
 3375SOL    HW111024   6.654   4.649   0.430
 3375SOL    HW211025   6.502   4.704   0.454
 3376SOL     OW11026   3.002   3.523   5.007
 3376SOL    HW111027   3.016   3.499   4.911
 3376SOL    HW211028   3.086   3.506   5.059
 3377SOL     OW11029   6.376   4.812   4.217
 3377SOL    HW111030   6.345   4.735   4.161
 3377SOL    HW211031   6.335   4.897   4.183
 3378SOL     OW11032   0.571   0.155   6.960
 3378SOL    HW111033   0.556   0.105   6.875
 3378SOL    HW211034   0.483   0.189   6.994
 3379SOL     OW11035   0.937   2.805   4.668
 3379SOL    HW111036   1.001   2.811   4.591
 3379SOL    HW211037   0.971   2.862   4.743
 3380SOL     OW11038   4.058   5.560   5.363
 3380SOL    HW111039   4.039   5.464   5.388
 3380SOL    HW211040   4.103   5.563   5.274
 3381SOL     OW11041   6.996   3.142   1.485
 3381SOL    HW111042   6.939   3.185   1.415
 3381SOL    HW211043   0.078   3.153   1.460
 3382SOL     OW11044   0.390   3.300   0.966
 3382SOL    HW111045   0.440   3.352   1.036
 3382SOL    HW211046   0.292   3.304   0.985
 3383SOL     OW11047   3.593   5.584   0.401
 3383SOL    HW111048   3.612   5.497   0.446
 3383SOL    HW211049   3.494   5.595   0.390
 3384SOL     OW11050   2.805   4.400   0.660
 3384SOL    HW111051   2.748   4.471   0.703
 3384SOL    HW211052   2.890   4.442   0.627
 3385SOL     OW11053   6.363   3.251   3.830
 3385SOL    HW111054   6.274   3.246   3.876
 3385SOL    HW211055   6.428   3.192   3.877
 3386SOL     OW11056   6.251   4.696   6.936
 3386SOL    HW111057   6.180   4.658   6.875
 3386SOL    HW211058   6.237   4.794   6.945
 3387SOL     OW11059   4.833   0.548   3.078
 3387SOL    HW111060   4.808   0.538   3.175
 3387SOL    HW211061   4.895   0.626   3.068
 3388SOL     OW11062   5.132   4.283   2.254
 3388SOL    HW111063   5.220   4.257   2.293
 3388SOL    HW211064   5.133   4.380   2.230
 3389SOL     OW11065   6.697   5.363   6.785
 3389SOL    HW111066   6.643   5.446   6.800
 3389SOL    HW211067   6.662   5.290   6.843
 3390SOL     OW11068   4.266   6.525   6.394
 3390SOL    HW111069   4.272   6.461   6.318
 3390SOL    HW211070   4.357   6.537   6.435
 3391SOL     OW11071   5.201   2.085   3.237
 3391SOL    HW111072   5.126   2.127   3.186
 3391SOL    HW211073   5.165   2.012   3.295
 3392SOL     OW11074   3.224   6.745   4.128
 3392SOL    HW111075   3.301   6.803   4.154
 3392SOL    HW211076   3.204   6.757   4.031
 3393SOL     OW11077   5.354   6.810   0.236
 3393SOL    HW111078   5.369   6.900   0.196
 3393SOL    HW211079   5.378   6.812   0.333
 3394SOL     OW11080   3.951   5.068   0.674
 3394SOL    HW111081   4.021   4.996   0.671
 3394SOL    HW211082   3.865   5.032   0.637
 3395SOL     OW11083   4.956   1.748   3.248
 3395SOL    HW111084   4.930   1.652   3.249
 3395SOL    HW211085   4.944   1.785   3.156
 3396SOL     OW11086   5.430   1.222   4.247
 3396SOL    HW111087   5.514   1.209   4.195
 3396SOL    HW211088   5.365   1.149   4.226
 3397SOL     OW11089   3.008   5.517   6.238
 3397SOL    HW111090   2.971   5.572   6.312
 3397SOL    HW211091   3.030   5.576   6.160
 3398SOL     OW11092   0.762   0.182   5.431
 3398SOL    HW111093   0.854   0.200   5.466
 3398SOL    HW211094   0.700   0.166   5.508
 3399SOL     OW11095   6.557   4.933   2.956
 3399SOL    HW111096   6.578   4.867   3.027
 3399SOL    HW211097   6.477   4.987   2.982
 3400SOL     OW11098   6.360   3.490   6.566
 3400SOL    HW111099   6.310   3.408   6.539
 3400SOL    HW211100   6.400   3.477   6.656
 3401SOL     OW11101   6.093   3.542   6.227
 3401SOL    HW111102   6.042   3.580   6.150
 3401SOL    HW211103   6.146   3.464   6.197
 3402SOL     OW11104   6.317   5.435   0.581
 3402SOL    HW111105   6.334   5.459   0.485
 3402SOL    HW211106   6.224   5.400   0.590
 3403SOL     OW11107   5.076   5.557   6.451
 3403SOL    HW111108   5.078   5.470   6.401
 3403SOL    HW211109   5.050   5.631   6.388
 3404SOL     OW11110   4.898   3.084   6.842
 3404SOL    HW111111   4.895   3.182   6.824
 3404SOL    HW211112   4.929   3.068   6.936
 3405SOL     OW11113   5.543   4.767   6.099
 3405SOL    HW111114   5.627   4.713   6.103
 3405SOL    HW211115   5.544   4.835   6.172
 3406SOL     OW11116   2.148   3.474   2.391
 3406SOL    HW111117   2.132   3.544   2.321
 3406SOL    HW211118   2.157   3.517   2.481
 3407SOL     OW11119   2.670   4.368   0.291
 3407SOL    HW111120   2.668   4.311   0.209
 3407SOL    HW211121   2.765   4.383   0.319
 3408SOL     OW11122   4.336   2.378   4.846
 3408SOL    HW111123   4.395   2.298   4.853
 3408SOL    HW211124   4.295   2.396   4.936
 3409SOL     OW11125   3.302   6.201   0.714
 3409SOL    HW111126   3.281   6.162   0.625
 3409SOL    HW211127   3.238   6.276   0.734
 3410SOL     OW11128   5.540   6.395   3.049
 3410SOL    HW111129   5.458   6.441   3.081
 3410SOL    HW211130   5.527   6.363   2.955
 3411SOL     OW11131   0.015   2.639   0.319
 3411SOL    HW111132   0.107   2.628   0.356
 3411SOL    HW211133   0.015   2.616   0.222
 3412SOL     OW11134   5.130   3.719   1.073
 3412SOL    HW111135   5.091   3.656   1.005
 3412SOL    HW211136   5.191   3.668   1.134
 3413SOL     OW11137   6.312   2.507   6.901
 3413SOL    HW111138   6.361   2.479   6.984
 3413SOL    HW211139   6.219   2.470   6.903
 3414SOL     OW11140   3.758   2.095   5.743
 3414SOL    HW111141   3.714   2.172   5.697
 3414SOL    HW211142   3.688   2.034   5.780
 3415SOL     OW11143   2.286   2.205   3.955
 3415SOL    HW111144   2.262   2.108   3.961
 3415SOL    HW211145   2.262   2.240   3.864
 3416SOL     OW11146   5.945   0.210   6.663
 3416SOL    HW111147   5.905   0.243   6.577
 3416SOL    HW211148   5.895   0.250   6.740
 3417SOL     OW11149   0.038   6.623   2.626
 3417SOL    HW111150   0.070   6.543   2.575
 3417SOL    HW211151   0.103   6.698   2.615
 3418SOL     OW11152   3.750   5.870   3.723
 3418SOL    HW111153   3.744   5.964   3.757
 3418SOL    HW211154   3.724   5.806   3.796
 3419SOL     OW11155   3.816   5.525   5.873
 3419SOL    HW111156   3.795   5.444   5.928
 3419SOL    HW211157   3.912   5.549   5.885
 3420SOL     OW11158   5.434   2.945   4.136
 3420SOL    HW111159   5.475   2.869   4.087
 3420SOL    HW211160   5.502   2.986   4.198
 3421SOL     OW11161   5.575   1.743   3.208
 3421SOL    HW111162   5.569   1.715   3.304
 3421SOL    HW211163   5.597   1.841   3.204
 3422SOL     OW11164   2.391   0.815   0.508
 3422SOL    HW111165   2.385   0.717   0.491
 3422SOL    HW211166   2.434   0.831   0.596
 3423SOL     OW11167   0.634   4.002   5.741
 3423SOL    HW111168   0.697   3.958   5.677
 3423SOL    HW211169   0.540   3.989   5.711
 3424SOL     OW11170   3.425   0.388   1.349
 3424SOL    HW111171   3.364   0.329   1.403
 3424SOL    HW211172   3.424   0.358   1.254
 3425SOL     OW11173   4.400   5.013   1.885
 3425SOL    HW111174   4.411   4.914   1.873
 3425SOL    HW211175   4.360   5.052   1.803
 3426SOL     OW11176   4.966   3.013   0.790
 3426SOL    HW111177   4.876   3.055   0.775
 3426SOL    HW211178   5.026   3.035   0.713
 3427SOL     OW11179   0.738   1.919   2.249
 3427SOL    HW111180   0.709   1.924   2.153
 3427SOL    HW211181   0.686   1.847   2.295
 3428SOL     OW11182   4.624   4.474   6.458
 3428SOL    HW111183   4.673   4.529   6.525
 3428SOL    HW211184   4.686   4.407   6.418
 3429SOL     OW11185   0.624   1.112   1.309
 3429SOL    HW111186   0.573   1.031   1.280
 3429SOL    HW211187   0.705   1.123   1.251
 3430SOL     OW11188   2.071   5.173   6.056
 3430SOL    HW111189   1.972   5.186   6.061
 3430SOL    HW211190   2.092   5.110   5.981
 3431SOL     OW11191   1.976   6.517   2.263
 3431SOL    HW111192   2.053   6.458   2.290
 3431SOL    HW211193   1.980   6.534   2.165
 3432SOL     OW11194   2.049   4.961   6.520
 3432SOL    HW111195   2.089   4.878   6.558
 3432SOL    HW211196   2.070   4.967   6.422
 3433SOL     OW11197   1.703   1.233   6.075
 3433SOL    HW111198   1.733   1.211   6.168
 3433SOL    HW211199   1.632   1.302   6.078
 3434SOL     OW11200   3.018   1.908   1.899
 3434SOL    HW111201   3.072   1.893   1.817
 3434SOL    HW211202   2.920   1.908   1.876
 3435SOL     OW11203   2.727   1.118   6.935
 3435SOL    HW111204   2.694   1.101   0.013
 3435SOL    HW211205   2.653   1.156   6.880
 3436SOL     OW11206   3.708   5.484   0.046
 3436SOL    HW111207   3.725   5.538   0.129
 3436SOL    HW211208   3.779   5.503   6.993
 3437SOL     OW11209   1.420   0.026   5.458
 3437SOL    HW111210   1.406   6.957   5.510
 3437SOL    HW211211   1.426   0.005   5.360
 3438SOL     OW11212   0.470   4.325   1.255
 3438SOL    HW111213   0.568   4.308   1.246
 3438SOL    HW211214   0.442   4.310   1.349
 3439SOL     OW11215   3.275   5.869   3.643
 3439SOL    HW111216   3.178   5.855   3.623
 3439SOL    HW211217   3.300   5.814   3.722
 3440SOL     OW11218   4.167   3.475   3.493
 3440SOL    HW111219   4.118   3.560   3.473
 3440SOL    HW211220   4.265   3.494   3.500
 3441SOL     OW11221   0.580   6.395   6.863
 3441SOL    HW111222   0.487   6.431   6.862
 3441SOL    HW211223   0.610   6.381   6.957
 3442SOL     OW11224   3.171   3.726   0.672
 3442SOL    HW111225   3.138   3.668   0.598
 3442SOL    HW211226   3.170   3.675   0.758
 3443SOL     OW11227   3.613   5.526   2.445
 3443SOL    HW111228   3.647   5.447   2.497
 3443SOL    HW211229   3.549   5.494   2.375
 3444SOL     OW11230   5.164   4.811   1.826
 3444SOL    HW111231   5.113   4.848   1.904
 3444SOL    HW211232   5.122   4.725   1.796
 3445SOL     OW11233   0.461   5.228   3.837
 3445SOL    HW111234   0.548   5.258   3.875
 3445SOL    HW211235   0.456   5.255   3.741
 3446SOL     OW11236   5.749   0.618   1.335
 3446SOL    HW111237   5.690   0.612   1.254
 3446SOL    HW211238   5.710   0.684   1.399
 3447SOL     OW11239   5.273   0.853   6.812
 3447SOL    HW111240   5.248   0.938   6.858
 3447SOL    HW211241   5.195   0.792   6.811
 3448SOL     OW11242   2.500   6.638   5.760
 3448SOL    HW111243   2.411   6.594   5.748
 3448SOL    HW211244   2.546   6.596   5.839
 3449SOL     OW11245   5.900   5.021   5.167
 3449SOL    HW111246   5.984   5.006   5.220
 3449SOL    HW211247   5.831   4.956   5.197
 3450SOL     OW11248   1.459   1.026   6.608
 3450SOL    HW111249   1.425   0.947   6.558
 3450SOL    HW211250   1.430   1.019   6.704
 3451SOL     OW11251   1.566   5.743   0.570
 3451SOL    HW111252   1.548   5.703   0.480
 3451SOL    HW211253   1.493   5.717   0.633
 3452SOL     OW11254   5.964   0.649   5.916
 3452SOL    HW111255   5.878   0.682   5.878
 3452SOL    HW211256   5.966   0.667   6.015
 3453SOL     OW11257   5.236   6.013   6.319
 3453SOL    HW111258   5.228   6.084   6.390
 3453SOL    HW211259   5.147   5.994   6.280
 3454SOL     OW11260   1.294   3.303   4.004
 3454SOL    HW111261   1.211   3.357   3.989
 3454SOL    HW211262   1.323   3.312   4.099
 3455SOL     OW11263   2.523   1.738   4.710
 3455SOL    HW111264   2.472   1.672   4.656
 3455SOL    HW211265   2.616   1.747   4.674
 3456SOL     OW11266   4.398   4.535   2.091
 3456SOL    HW111267   4.444   4.464   2.037
 3456SOL    HW211268   4.316   4.497   2.133
 3457SOL     OW11269   3.995   5.158   5.055
 3457SOL    HW111270   3.981   5.257   5.051
 3457SOL    HW211271   4.083   5.135   5.014
 3458SOL     OW11272   4.659   1.948   2.084
 3458SOL    HW111273   4.663   2.023   2.019
 3458SOL    HW211274   4.747   1.941   2.132
 3459SOL     OW11275   5.234   2.051   3.570
 3459SOL    HW111276   5.163   2.021   3.507
 3459SOL    HW211277   5.324   2.037   3.530
 3460SOL     OW11278   2.926   1.880   5.650
 3460SOL    HW111279   3.022   1.871   5.621
 3460SOL    HW211280   2.901   1.800   5.705
 3461SOL     OW11281   5.845   4.335   6.754
 3461SOL    HW111282   5.845   4.355   6.656
 3461SOL    HW211283   5.911   4.394   6.800
 3462SOL     OW11284   1.304   3.698   5.658
 3462SOL    HW111285   1.311   3.796   5.679
 3462SOL    HW211286   1.296   3.646   5.743
 3463SOL     OW11287   0.737   4.303   1.180
 3463SOL    HW111288   0.835   4.322   1.172
 3463SOL    HW211289   0.704   4.265   1.093
 3464SOL     OW11290   0.432   4.358   6.376
 3464SOL    HW111291   0.500   4.409   6.324
 3464SOL    HW211292   0.476   4.282   6.423
 3465SOL     OW11293   2.370   1.617   1.993
 3465SOL    HW111294   2.283   1.666   1.989
 3465SOL    HW211295   2.392   1.582   1.902
 3466SOL     OW11296   6.756   5.683   6.270
 3466SOL    HW111297   6.728   5.587   6.263
 3466SOL    HW211298   6.706   5.728   6.344
 3467SOL     OW11299   1.797   1.736   0.052
 3467SOL    HW111300   1.788   1.637   0.042
 3467SOL    HW211301   1.706   1.777   0.055
 3468SOL     OW11302   3.137   5.215   2.920
 3468SOL    HW111303   3.172   5.121   2.919
 3468SOL    HW211304   3.040   5.214   2.947
 3469SOL     OW11305   6.389   2.174   4.192
 3469SOL    HW111306   6.295   2.167   4.158
 3469SOL    HW211307   6.408   2.268   4.220
 3470SOL     OW11308   0.402   5.274   0.787
 3470SOL    HW111309   0.351   5.252   0.870
 3470SOL    HW211310   0.422   5.372   0.785
 3471SOL     OW11311   4.408   5.014   5.351
 3471SOL    HW111312   4.448   4.995   5.441
 3471SOL    HW211313   4.447   5.099   5.315
 3472SOL     OW11314   2.546   0.914   3.686
 3472SOL    HW111315   2.630   0.950   3.727
 3472SOL    HW211316   2.567   0.871   3.599
 3473SOL     OW11317   5.469   1.767   6.129
 3473SOL    HW111318   5.386   1.786   6.075
 3473SOL    HW211319   5.542   1.735   6.069
 3474SOL     OW11320   3.066   5.052   1.548
 3474SOL    HW111321   3.036   5.147   1.532
 3474SOL    HW211322   3.052   5.029   1.644
 3475SOL     OW11323   1.211   6.602   4.077
 3475SOL    HW111324   1.136   6.536   4.082
 3475SOL    HW211325   1.296   6.558   4.106
 3476SOL     OW11326   3.628   0.064   4.387
 3476SOL    HW111327   3.579   0.138   4.431
 3476SOL    HW211328   3.708   0.101   4.339
 3477SOL     OW11329   3.127   5.574   1.358
 3477SOL    HW111330   3.118   5.673   1.361
 3477SOL    HW211331   3.199   5.548   1.294
 3478SOL     OW11332   2.423   6.334   5.535
 3478SOL    HW111333   2.338   6.381   5.559
 3478SOL    HW211334   2.497   6.400   5.525
 3479SOL     OW11335   0.572   0.197   3.210
 3479SOL    HW111336   0.601   0.274   3.267
 3479SOL    HW211337   0.562   0.228   3.115
 3480SOL     OW11338   6.773   1.305   4.141
 3480SOL    HW111339   6.690   1.249   4.153
 3480SOL    HW211340   6.796   1.309   4.044
 3481SOL     OW11341   4.350   6.906   6.543
 3481SOL    HW111342   4.445   6.882   6.521
 3481SOL    HW211343   4.350   6.981   6.609
 3482SOL     OW11344   5.467   1.594   1.110
 3482SOL    HW111345   5.558   1.631   1.091
 3482SOL    HW211346   5.399   1.641   1.054
 3483SOL     OW11347   2.909   0.623   1.001
 3483SOL    HW111348   2.830   0.603   0.943
 3483SOL    HW211349   2.946   0.713   0.977
 3484SOL     OW11350   3.004   3.471   2.855
 3484SOL    HW111351   3.002   3.422   2.768
 3484SOL    HW211352   3.098   3.502   2.873
 3485SOL     OW11353   1.365   0.986   4.975
 3485SOL    HW111354   1.293   0.953   5.036
 3485SOL    HW211355   1.408   1.067   5.015
 3486SOL     OW11356   3.770   1.588   2.187
 3486SOL    HW111357   3.765   1.491   2.165
 3486SOL    HW211358   3.718   1.606   2.271
 3487SOL     OW11359   5.388   1.635   6.777
 3487SOL    HW111360   5.432   1.612   6.864
 3487SOL    HW211361   5.458   1.662   6.711
 3488SOL     OW11362   5.660   3.203   4.254
 3488SOL    HW111363   5.640   3.263   4.332
 3488SOL    HW211364   5.713   3.124   4.285
 3489SOL     OW11365   3.464   6.724   0.614
 3489SOL    HW111366   3.386   6.787   0.620
 3489SOL    HW211367   3.499   6.706   0.706
 3490SOL     OW11368   4.568   4.641   0.399
 3490SOL    HW111369   4.510   4.560   0.400
 3490SOL    HW211370   4.527   4.710   0.339
 3491SOL     OW11371   6.845   2.688   5.999
 3491SOL    HW111372   6.819   2.777   5.963
 3491SOL    HW211373   6.934   2.696   6.045
 3492SOL     OW11374   0.986   5.581   0.160
 3492SOL    HW111375   0.940   5.502   0.201
 3492SOL    HW211376   0.918   5.653   0.143
 3493SOL     OW11377   5.724   5.293   0.114
 3493SOL    HW111378   5.723   5.366   0.182
 3493SOL    HW211379   5.686   5.328   0.028
 3494SOL     OW11380   4.084   0.033   0.409
 3494SOL    HW111381   4.043   0.062   0.495
 3494SOL    HW211382   4.062   6.952   0.392
 3495SOL     OW11383   4.189   4.691   2.564
 3495SOL    HW111384   4.287   4.675   2.579
 3495SOL    HW211385   4.169   4.687   2.466
 3496SOL     OW11386   1.099   3.242   1.324
 3496SOL    HW111387   1.078   3.311   1.255
 3496SOL    HW211388   1.058   3.269   1.411
 3497SOL     OW11389   4.098   0.663   2.962
 3497SOL    HW111390   4.097   0.566   2.985
 3497SOL    HW211391   4.018   0.684   2.906
 3498SOL     OW11392   3.130   2.154   0.903
 3498SOL    HW111393   3.117   2.068   0.853
 3498SOL    HW211394   3.221   2.190   0.885
 3499SOL     OW11395   6.697   3.381   4.603
 3499SOL    HW111396   6.734   3.454   4.660
 3499SOL    HW211397   6.608   3.408   4.567
 3500SOL     OW11398   6.605   4.335   6.115
 3500SOL    HW111399   6.560   4.396   6.049
 3500SOL    HW211400   6.655   4.390   6.182
 3501SOL     OW11401   6.993   4.820   4.677
 3501SOL    HW111402   6.932   4.900   4.672
 3501SOL    HW211403   0.073   4.850   4.668
 3502SOL     OW11404   0.420   2.017   2.233
 3502SOL    HW111405   0.450   2.107   2.201
 3502SOL    HW211406   0.483   1.947   2.199
 3503SOL     OW11407   4.813   5.623   5.260
 3503SOL    HW111408   4.805   5.722   5.271
 3503SOL    HW211409   4.898   5.602   5.212
 3504SOL     OW11410   2.900   3.456   1.032
 3504SOL    HW111411   2.962   3.516   1.082
 3504SOL    HW211412   2.829   3.511   0.988
 3505SOL     OW11413   5.146   5.575   4.979
 3505SOL    HW111414   5.234   5.575   5.026
 3505SOL    HW211415   5.132   5.663   4.934
 3506SOL     OW11416   4.217   5.645   5.113
 3506SOL    HW111417   4.262   5.652   5.024
 3506SOL    HW211418   4.280   5.675   5.184
 3507SOL     OW11419   1.745   1.010   6.704
 3507SOL    HW111420   1.741   0.950   6.785
 3507SOL    HW211421   1.652   1.029   6.673
 3508SOL     OW11422   4.828   2.382   6.935
 3508SOL    HW111423   4.786   2.373   6.845
 3508SOL    HW211424   4.854   2.292   6.970
 3509SOL     OW11425   5.960   5.873   0.005
 3509SOL    HW111426   5.968   5.950   0.068
 3509SOL    HW211427   6.031   5.879   6.949
 3510SOL     OW11428   1.963   2.376   2.329
 3510SOL    HW111429   1.866   2.394   2.317
 3510SOL    HW211430   1.975   2.292   2.382
 3511SOL     OW11431   1.495   3.170   6.865
 3511SOL    HW111432   1.547   3.177   6.780
 3511SOL    HW211433   1.503   3.256   6.916
 3512SOL     OW11434   1.044   4.371   0.351
 3512SOL    HW111435   0.951   4.407   0.359
 3512SOL    HW211436   1.048   4.281   0.395
 3513SOL     OW11437   6.373   4.624   0.544
 3513SOL    HW111438   6.342   4.713   0.577
 3513SOL    HW211439   6.404   4.569   0.621
 3514SOL     OW11440   0.496   6.849   1.624
 3514SOL    HW111441   0.577   6.874   1.571
 3514SOL    HW211442   0.426   6.920   1.612
 3515SOL     OW11443   3.331   5.774   2.712
 3515SOL    HW111444   3.249   5.821   2.744
 3515SOL    HW211445   3.306   5.711   2.638
 3516SOL     OW11446   3.407   0.709   0.835
 3516SOL    HW111447   3.403   0.611   0.854
 3516SOL    HW211448   3.426   0.759   0.919
 3517SOL     OW11449   0.669   0.856   0.493
 3517SOL    HW111450   0.710   0.792   0.428
 3517SOL    HW211451   0.580   0.885   0.459
 3518SOL     OW11452   5.301   3.651   6.114
 3518SOL    HW111453   5.354   3.576   6.074
 3518SOL    HW211454   5.211   3.617   6.142
 3519SOL     OW11455   1.172   0.140   6.508
 3519SOL    HW111456   1.218   0.145   6.597
 3519SOL    HW211457   1.209   0.064   6.455
 3520SOL     OW11458   3.650   4.346   1.337
 3520SOL    HW111459   3.748   4.330   1.319
 3520SOL    HW211460   3.631   4.444   1.331
 3521SOL     OW11461   5.200   3.230   1.324
 3521SOL    HW111462   5.180   3.151   1.266
 3521SOL    HW211463   5.267   3.288   1.278
 3522SOL     OW11464   3.154   5.293   1.990
 3522SOL    HW111465   3.074   5.333   1.946
 3522SOL    HW211466   3.204   5.363   2.040
 3523SOL     OW11467   3.073   4.702   5.279
 3523SOL    HW111468   3.015   4.631   5.238
 3523SOL    HW211469   3.049   4.791   5.240
 3524SOL     OW11470   2.445   0.921   0.779
 3524SOL    HW111471   2.403   0.999   0.825
 3524SOL    HW211472   2.544   0.927   0.786
 3525SOL     OW11473   0.407   3.260   2.036
 3525SOL    HW111474   0.445   3.306   2.116
 3525SOL    HW211475   0.480   3.240   1.971
 3526SOL     OW11476   1.592   0.810   3.395
 3526SOL    HW111477   1.553   0.718   3.399
 3526SOL    HW211478   1.658   0.814   3.319
 3527SOL     OW11479   5.146   2.798   6.399
 3527SOL    HW111480   5.174   2.721   6.343
 3527SOL    HW211481   5.140   2.881   6.343
 3528SOL     OW11482   0.954   5.941   3.257
 3528SOL    HW111483   0.934   5.982   3.346
 3528SOL    HW211484   1.053   5.928   3.248
 3529SOL     OW11485   3.967   6.611   5.633
 3529SOL    HW111486   3.926   6.646   5.717
 3529SOL    HW211487   4.013   6.524   5.652
 3530SOL     OW11488   2.877   6.087   2.736
 3530SOL    HW111489   2.784   6.086   2.699
 3530SOL    HW211490   2.906   6.181   2.751
 3531SOL     OW11491   5.650   3.978   0.317
 3531SOL    HW111492   5.664   3.963   0.219
 3531SOL    HW211493   5.697   4.061   0.345
 3532SOL     OW11494   2.470   0.771   6.996
 3532SOL    HW111495   2.555   0.795   0.028
 3532SOL    HW211496   2.490   0.735   6.905
 3533SOL     OW11497   1.008   2.162   3.359
 3533SOL    HW111498   1.055   2.231   3.415
 3533SOL    HW211499   1.045   2.163   3.266
 3534SOL     OW11500   6.024   1.669   5.201
 3534SOL    HW111501   5.974   1.610   5.138
 3534SOL    HW211502   6.028   1.762   5.164
 3535SOL     OW11503   6.630   5.941   6.912
 3535SOL    HW111504   6.707   5.878   6.900
 3535SOL    HW211505   6.625   6.003   6.833
 3536SOL     OW11506   1.663   3.323   3.302
 3536SOL    HW111507   1.603   3.370   3.238
 3536SOL    HW211508   1.608   3.278   3.372
 3537SOL     OW11509   2.666   5.037   1.080
 3537SOL    HW111510   2.653   5.130   1.047
 3537SOL    HW211511   2.761   5.009   1.064
 3538SOL     OW11512   3.313   0.678   4.110
 3538SOL    HW111513   3.340   0.587   4.142
 3538SOL    HW211514   3.333   0.745   4.182
 3539SOL     OW11515   6.071   3.400   5.136
 3539SOL    HW111516   6.126   3.338   5.193
 3539SOL    HW211517   6.029   3.348   5.062
 3540SOL     OW11518   1.869   3.295   6.840
 3540SOL    HW111519   1.804   3.223   6.815
 3540SOL    HW211520   1.841   3.381   6.798
 3541SOL     OW11521   2.621   2.639   6.975
 3541SOL    HW111522   2.590   2.585   0.039
 3541SOL    HW211523   2.705   2.687   7.000
 3542SOL     OW11524   5.658   2.734   0.435
 3542SOL    HW111525   5.756   2.713   0.431
 3542SOL    HW211526   5.621   2.703   0.523
 3543SOL     OW11527   1.213   3.332   3.203
 3543SOL    HW111528   1.193   3.276   3.283
 3543SOL    HW211529   1.151   3.410   3.200
 3544SOL     OW11530   3.053   4.299   0.057
 3544SOL    HW111531   3.021   4.205   0.043
 3544SOL    HW211532   3.153   4.302   0.049
 3545SOL     OW11533   3.618   5.324   0.544
 3545SOL    HW111534   3.567   5.358   0.623
 3545SOL    HW211535   3.573   5.242   0.508
 3546SOL     OW11536   6.511   4.507   3.189
 3546SOL    HW111537   6.587   4.517   3.125
 3546SOL    HW211538   6.432   4.558   3.156
 3547SOL     OW11539   6.840   3.097   4.414
 3547SOL    HW111540   6.881   3.175   4.368
 3547SOL    HW211541   6.777   3.050   4.352
 3548SOL     OW11542   4.832   1.201   5.896
 3548SOL    HW111543   4.857   1.241   5.985
 3548SOL    HW211544   4.788   1.270   5.839
 3549SOL     OW11545   2.016   5.221   6.488
 3549SOL    HW111546   2.096   5.163   6.503
 3549SOL    HW211547   1.962   5.226   6.572
 3550SOL     OW11548   5.291   2.041   4.983
 3550SOL    HW111549   5.192   2.026   4.980
 3550SOL    HW211550   5.310   2.126   5.033
 3551SOL     OW11551   3.120   1.648   5.275
 3551SOL    HW111552   3.023   1.629   5.292
 3551SOL    HW211553   3.130   1.742   5.243
 3552SOL     OW11554   6.371   5.475   1.808
 3552SOL    HW111555   6.330   5.387   1.785
 3552SOL    HW211556   6.466   5.476   1.778
 3553SOL     OW11557   3.149   5.968   6.489
 3553SOL    HW111558   3.238   6.009   6.509
 3553SOL    HW211559   3.091   6.034   6.441
 3554SOL     OW11560   3.481   3.850   0.886
 3554SOL    HW111561   3.539   3.909   0.942
 3554SOL    HW211562   3.535   3.809   0.812
 3555SOL     OW11563   1.939   2.167   4.663
 3555SOL    HW111564   1.980   2.203   4.579
 3555SOL    HW211565   2.010   2.127   4.720
 3556SOL     OW11566   3.513   0.972   4.745
 3556SOL    HW111567   3.609   0.985   4.772
 3556SOL    HW211568   3.481   1.053   4.697
 3557SOL     OW11569   0.398   0.583   2.631
 3557SOL    HW111570   0.314   0.548   2.590
 3557SOL    HW211571   0.448   0.508   2.674
 3558SOL     OW11572   2.396   6.051   0.630
 3558SOL    HW111573   2.318   6.031   0.689
 3558SOL    HW211574   2.381   6.010   0.540
 3559SOL     OW11575   2.752   6.551   4.906
 3559SOL    HW111576   2.661   6.531   4.942
 3559SOL    HW211577   2.752   6.642   4.864
 3560SOL     OW11578   1.759   4.865   4.262
 3560SOL    HW111579   1.854   4.897   4.259
 3560SOL    HW211580   1.731   4.855   4.357
 3561SOL     OW11581   6.000   4.118   5.392
 3561SOL    HW111582   5.980   4.091   5.298
 3561SOL    HW211583   5.919   4.104   5.449
 3562SOL     OW11584   3.260   1.619   4.028
 3562SOL    HW111585   3.334   1.577   3.976
 3562SOL    HW211586   3.200   1.547   4.064
 3563SOL     OW11587   5.978   2.525   6.142
 3563SOL    HW111588   5.907   2.480   6.087
 3563SOL    HW211589   6.044   2.456   6.174
 3564SOL     OW11590   0.442   5.015   2.749
 3564SOL    HW111591   0.376   5.088   2.767
 3564SOL    HW211592   0.521   5.026   2.809
 3565SOL     OW11593   3.527   4.942   2.844
 3565SOL    HW111594   3.616   4.958   2.887
 3565SOL    HW211595   3.540   4.926   2.746
 3566SOL     OW11596   6.666   0.974   5.465
 3566SOL    HW111597   6.621   0.934   5.385
 3566SOL    HW211598   6.619   0.944   5.548
 3567SOL     OW11599   0.430   3.136   6.114
 3567SOL    HW111600   0.447   3.062   6.050
 3567SOL    HW211601   0.444   3.104   6.207
 3568SOL     OW11602   6.707   3.891   5.614
 3568SOL    HW111603   6.626   3.836   5.633
 3568SOL    HW211604   6.788   3.834   5.622
 3569SOL     OW11605   1.880   1.710   5.654
 3569SOL    HW111606   1.924   1.661   5.578
 3569SOL    HW211607   1.835   1.645   5.714
 3570SOL     OW11608   5.076   0.389   5.803
 3570SOL    HW111609   5.093   0.393   5.901
 3570SOL    HW211610   5.050   0.295   5.778
 3571SOL     OW11611   0.209   5.898   6.984
 3571SOL    HW111612   0.287   5.837   6.970
 3571SOL    HW211613   0.143   5.855   0.030
 3572SOL     OW11614   5.547   3.978   4.064
 3572SOL    HW111615   5.528   4.069   4.029
 3572SOL    HW211616   5.492   3.961   4.146
 3573SOL     OW11617   0.613   4.006   4.022
 3573SOL    HW111618   0.533   4.062   4.044
 3573SOL    HW211619   0.641   3.955   4.103
 3574SOL     OW11620   0.571   4.915   0.154
 3574SOL    HW111621   0.574   5.014   0.170
 3574SOL    HW211622   0.589   4.896   0.058
 3575SOL     OW11623   5.419   5.384   3.367
 3575SOL    HW111624   5.459   5.387   3.459
 3575SOL    HW211625   5.484   5.342   3.304
 3576SOL     OW11626   1.517   1.739   5.882
 3576SOL    HW111627   1.560   1.760   5.795
 3576SOL    HW211628   1.444   1.672   5.868
 3577SOL     OW11629   1.233   2.604   6.498
 3577SOL    HW111630   1.225   2.610   6.597
 3577SOL    HW211631   1.275   2.687   6.462
 3578SOL     OW11632   3.663   3.509   6.694
 3578SOL    HW111633   3.715   3.593   6.679
 3578SOL    HW211634   3.676   3.447   6.616
 3579SOL     OW11635   0.271   3.845   4.584
 3579SOL    HW111636   0.171   3.839   4.593
 3579SOL    HW211637   0.313   3.780   4.648
 3580SOL     OW11638   6.148   1.422   0.919
 3580SOL    HW111639   6.083   1.388   0.987
 3580SOL    HW211640   6.240   1.419   0.956
 3581SOL     OW11641   6.472   0.448   3.867
 3581SOL    HW111642   6.524   0.362   3.877
 3581SOL    HW211643   6.392   0.432   3.809
 3582SOL     OW11644   0.654   2.448   6.476
 3582SOL    HW111645   0.702   2.388   6.539
 3582SOL    HW211646   0.713   2.469   6.399
 3583SOL     OW11647   0.778   4.073   6.759
 3583SOL    HW111648   0.693   4.116   6.727
 3583SOL    HW211649   0.757   4.011   6.834
 3584SOL     OW11650   6.381   5.938   6.328
 3584SOL    HW111651   6.383   6.021   6.384
 3584SOL    HW211652   6.394   5.962   6.232
 3585SOL     OW11653   3.344   5.115   6.093
 3585SOL    HW111654   3.321   5.179   6.165
 3585SOL    HW211655   3.329   5.158   6.004
 3586SOL     OW11656   6.712   2.510   5.570
 3586SOL    HW111657   6.707   2.554   5.481
 3586SOL    HW211658   6.785   2.551   5.624
 3587SOL     OW11659   2.567   5.620   0.175
 3587SOL    HW111660   2.574   5.685   0.099
 3587SOL    HW211661   2.618   5.655   0.253
 3588SOL     OW11662   0.743   2.886   5.668
 3588SOL    HW111663   0.821   2.825   5.672
 3588SOL    HW211664   0.660   2.836   5.693
 3589SOL     OW11665   3.645   0.872   4.103
 3589SOL    HW111666   3.696   0.848   4.185
 3589SOL    HW211667   3.560   0.918   4.130
 3590SOL     OW11668   0.164   4.253   6.436
 3590SOL    HW111669   0.263   4.249   6.453
 3590SOL    HW211670   0.138   4.175   6.379
 3591SOL     OW11671   4.918   3.639   6.590
 3591SOL    HW111672   4.837   3.692   6.614
 3591SOL    HW211673   4.979   3.632   6.669
 3592SOL     OW11674   5.687   3.534   3.406
 3592SOL    HW111675   5.640   3.517   3.319
 3592SOL    HW211676   5.659   3.465   3.472
 3593SOL     OW11677   2.382   6.297   4.419
 3593SOL    HW111678   2.367   6.388   4.382
 3593SOL    HW211679   2.474   6.291   4.456
 3594SOL     OW11680   3.973   1.040   2.176
 3594SOL    HW111681   3.945   0.947   2.199
 3594SOL    HW211682   4.072   1.049   2.190
 3595SOL     OW11683   2.061   6.451   6.098
 3595SOL    HW111684   2.154   6.451   6.064
 3595SOL    HW211685   2.053   6.515   6.175
 3596SOL     OW11686   6.818   1.575   2.921
 3596SOL    HW111687   6.903   1.527   2.898
 3596SOL    HW211688   6.741   1.514   2.906
 3597SOL     OW11689   2.782   6.254   5.144
 3597SOL    HW111690   2.876   6.239   5.113
 3597SOL    HW211691   2.778   6.336   5.201
 3598SOL     OW11692   1.275   0.528   5.669
 3598SOL    HW111693   1.311   0.621   5.668
 3598SOL    HW211694   1.280   0.492   5.762
 3599SOL     OW11695   0.611   1.827   5.786
 3599SOL    HW111696   0.689   1.775   5.819
 3599SOL    HW211697   0.588   1.798   5.693
 3600SOL     OW11698   6.989   3.695   0.872
 3600SOL    HW111699   6.947   3.661   0.788
 3600SOL    HW211700   6.929   3.675   0.950
 3601SOL     OW11701   6.501   4.032   0.731
 3601SOL    HW111702   6.436   3.980   0.676
 3601SOL    HW211703   6.570   3.969   0.768
 3602SOL     OW11704   1.853   1.452   1.140
 3602SOL    HW111705   1.905   1.380   1.186
 3602SOL    HW211706   1.915   1.516   1.096
 3603SOL     OW11707   3.584   6.239   3.937
 3603SOL    HW111708   3.578   6.214   3.840
 3603SOL    HW211709   3.584   6.338   3.945
 3604SOL     OW11710   6.686   4.139   3.882
 3604SOL    HW111711   6.616   4.211   3.881
 3604SOL    HW211712   6.714   4.119   3.788
 3605SOL     OW11713   6.067   4.775   5.878
 3605SOL    HW111714   6.057   4.693   5.821
 3605SOL    HW211715   5.976   4.810   5.902
 3606SOL     OW11716   6.472   4.893   5.495
 3606SOL    HW111717   6.572   4.886   5.491
 3606SOL    HW211718   6.446   4.989   5.505
 3607SOL     OW11719   5.156   6.467   0.903
 3607SOL    HW111720   5.244   6.457   0.856
 3607SOL    HW211721   5.157   6.412   0.986
 3608SOL     OW11722   6.780   1.925   2.226
 3608SOL    HW111723   6.695   1.887   2.263
 3608SOL    HW211724   6.843   1.850   2.206
 3609SOL     OW11725   0.127   0.626   4.582
 3609SOL    HW111726   0.183   0.636   4.664
 3609SOL    HW211727   0.097   0.531   4.573
 3610SOL     OW11728   0.722   0.516   5.403
 3610SOL    HW111729   0.789   0.490   5.472
 3610SOL    HW211730   0.705   0.614   5.409
 3611SOL     OW11731   3.835   4.661   5.615
 3611SOL    HW111732   3.783   4.670   5.531
 3611SOL    HW211733   3.932   4.678   5.597
 3612SOL     OW11734   6.825   6.940   5.656
 3612SOL    HW111735   6.874   0.002   5.697
 3612SOL    HW211736   6.729   6.963   5.645
 3613SOL     OW11737   5.354   5.314   1.301
 3613SOL    HW111738   5.287   5.252   1.341
 3613SOL    HW211739   5.369   5.290   1.205
 3614SOL     OW11740   3.658   3.206   3.796
 3614SOL    HW111741   3.664   3.108   3.811
 3614SOL    HW211742   3.750   3.246   3.799
 3615SOL     OW11743   5.959   6.523   6.100
 3615SOL    HW111744   5.979   6.560   6.191
 3615SOL    HW211745   5.900   6.443   6.108
 3616SOL     OW11746   6.804   1.477   6.391
 3616SOL    HW111747   6.790   1.390   6.345
 3616SOL    HW211748   6.720   1.505   6.437
 3617SOL     OW11749   5.277   1.302   6.487
 3617SOL    HW111750   5.198   1.255   6.447
 3617SOL    HW211751   5.255   1.398   6.500
 3618SOL     OW11752   1.705   1.977   5.789
 3618SOL    HW111753   1.749   1.916   5.854
 3618SOL    HW211754   1.742   2.070   5.799
 3619SOL     OW11755   6.034   2.465   3.610
 3619SOL    HW111756   6.076   2.556   3.614
 3619SOL    HW211757   5.938   2.474   3.584
 3620SOL     OW11758   5.987   5.494   5.527
 3620SOL    HW111759   5.901   5.459   5.563
 3620SOL    HW211760   6.030   5.425   5.469
 3621SOL     OW11761   2.699   2.100   5.717
 3621SOL    HW111762   2.789   2.058   5.728
 3621SOL    HW211763   2.698   2.155   5.633
 3622SOL     OW11764   2.656   2.110   3.170
 3622SOL    HW111765   2.706   2.141   3.250
 3622SOL    HW211766   2.673   2.012   3.157
 3623SOL     OW11767   5.954   5.884   3.965
 3623SOL    HW111768   5.931   5.978   3.990
 3623SOL    HW211769   6.034   5.855   4.017
 3624SOL     OW11770   2.193   6.798   2.280
 3624SOL    HW111771   2.104   6.840   2.264
 3624SOL    HW211772   2.195   6.708   2.237
 3625SOL     OW11773   6.235   3.359   0.146
 3625SOL    HW111774   6.264   3.264   0.137
 3625SOL    HW211775   6.137   3.362   0.165
 3626SOL     OW11776   1.529   3.741   5.316
 3626SOL    HW111777   1.507   3.663   5.374
 3626SOL    HW211778   1.625   3.737   5.288
 3627SOL     OW11779   3.978   3.007   3.646
 3627SOL    HW111780   4.045   3.077   3.619
 3627SOL    HW211781   3.945   2.959   3.564
 3628SOL     OW11782   1.735   0.197   1.429
 3628SOL    HW111783   1.720   0.194   1.528
 3628SOL    HW211784   1.831   0.176   1.409
 3629SOL     OW11785   6.092   2.408   4.358
 3629SOL    HW111786   6.187   2.438   4.369
 3629SOL    HW211787   6.090   2.318   4.314
 3630SOL     OW11788   5.761   2.954   3.227
 3630SOL    HW111789   5.849   2.995   3.203
 3630SOL    HW211790   5.699   3.024   3.261
 3631SOL     OW11791   1.945   6.856   3.791
 3631SOL    HW111792   1.913   6.949   3.807
 3631SOL    HW211793   1.957   6.842   3.693
 3632SOL     OW11794   5.091   0.374   0.386
 3632SOL    HW111795   5.077   0.380   0.288
 3632SOL    HW211796   5.088   0.466   0.426
 3633SOL     OW11797   3.126   1.488   6.000
 3633SOL    HW111798   3.128   1.543   5.916
 3633SOL    HW211799   3.220   1.472   6.031
 3634SOL     OW11800   0.721   5.587   5.450
 3634SOL    HW111801   0.646   5.527   5.475
 3634SOL    HW211802   0.806   5.552   5.488
 3635SOL     OW11803   2.660   6.977   5.551
 3635SOL    HW111804   2.687   0.049   5.592
 3635SOL    HW211805   2.568   6.986   5.512
 3636SOL     OW11806   1.049   6.033   6.449
 3636SOL    HW111807   0.968   6.016   6.504
 3636SOL    HW211808   1.041   5.984   6.362
 3637SOL     OW11809   6.442   2.166   1.589
 3637SOL    HW111810   6.430   2.077   1.546
 3637SOL    HW211811   6.448   2.237   1.519
 3638SOL     OW11812   0.246   4.373   4.639
 3638SOL    HW111813   0.244   4.454   4.580
 3638SOL    HW211814   0.286   4.296   4.589
 3639SOL     OW11815   3.856   3.768   0.922
 3639SOL    HW111816   3.830   3.679   0.958
 3639SOL    HW211817   3.897   3.823   0.995
 3640SOL     OW11818   3.687   6.984   6.699
 3640SOL    HW111819   3.730   0.059   6.706
 3640SOL    HW211820   3.608   6.990   6.638
 3641SOL     OW11821   4.711   2.875   4.177
 3641SOL    HW111822   4.745   2.781   4.186
 3641SOL    HW211823   4.623   2.884   4.224
 3642SOL     OW11824   4.850   0.927   0.211
 3642SOL    HW111825   4.792   0.974   0.278
 3642SOL    HW211826   4.883   0.993   0.144
 3643SOL     OW11827   2.890   5.626   5.182
 3643SOL    HW111828   2.883   5.725   5.194
 3643SOL    HW211829   2.985   5.598   5.197
 3644SOL     OW11830   6.850   1.327   1.452
 3644SOL    HW111831   6.896   1.413   1.476
 3644SOL    HW211832   6.767   1.347   1.400
 3645SOL     OW11833   6.449   1.341   3.970
 3645SOL    HW111834   6.491   1.430   3.987
 3645SOL    HW211835   6.365   1.352   3.917
 3646SOL     OW11836   6.700   4.574   6.300
 3646SOL    HW111837   6.646   4.650   6.265
 3646SOL    HW211838   6.647   4.523   6.368
 3647SOL     OW11839   2.301   3.456   0.100
 3647SOL    HW111840   2.374   3.454   0.031
 3647SOL    HW211841   2.298   3.547   0.141
 3648SOL     OW11842   3.053   5.259   3.247
 3648SOL    HW111843   3.066   5.250   3.346
 3648SOL    HW211844   3.128   5.314   3.209
 3649SOL     OW11845   4.836   3.003   1.697
 3649SOL    HW111846   4.756   3.012   1.757
 3649SOL    HW211847   4.916   3.040   1.742
 3650SOL     OW11848   0.244   5.304   6.919
 3650SOL    HW111849   0.237   5.333   7.015
 3650SOL    HW211850   0.296   5.218   6.915
 3651SOL     OW11851   0.423   6.230   2.978
 3651SOL    HW111852   0.371   6.182   3.048
 3651SOL    HW211853   0.494   6.170   2.941
 3652SOL     OW11854   5.661   6.134   3.235
 3652SOL    HW111855   5.755   6.126   3.202
 3652SOL    HW211856   5.607   6.187   3.170
 3653SOL     OW11857   6.821   0.493   3.513
 3653SOL    HW111858   6.745   0.531   3.565
 3653SOL    HW211859   6.829   0.542   3.426
 3654SOL     OW11860   1.941   6.823   0.462
 3654SOL    HW111861   1.946   6.903   0.521
 3654SOL    HW211862   1.962   6.849   0.368
 3655SOL     OW11863   1.525   0.197   3.598
 3655SOL    HW111864   1.476   0.284   3.600
 3655SOL    HW211865   1.510   0.148   3.684
 3656SOL     OW11866   1.401   3.373   1.787
 3656SOL    HW111867   1.445   3.385   1.876
 3656SOL    HW211868   1.458   3.414   1.715
 3657SOL     OW11869   4.962   5.654   6.171
 3657SOL    HW111870   4.874   5.607   6.179
 3657SOL    HW211871   5.002   5.636   6.082
 3658SOL     OW11872   1.653   5.928   3.739
 3658SOL    HW111873   1.684   6.023   3.745
 3658SOL    HW211874   1.729   5.867   3.763
 3659SOL     OW11875   2.359   3.450   5.676
 3659SOL    HW111876   2.313   3.387   5.612
 3659SOL    HW211877   2.457   3.431   5.676
 3660SOL     OW11878   4.726   0.046   3.093
 3660SOL    HW111879   4.769   0.126   3.051
 3660SOL    HW211880   4.649   0.075   3.149
 3661SOL     OW11881   4.644   1.860   6.011
 3661SOL    HW111882   4.630   1.929   5.940
 3661SOL    HW211883   4.694   1.901   6.088
 3662SOL     OW11884   4.764   0.826   3.224
 3662SOL    HW111885   4.705   0.899   3.189
 3662SOL    HW211886   4.710   0.766   3.284
 3663SOL     OW11887   2.287   2.155   0.655
 3663SOL    HW111888   2.326   2.246   0.640
 3663SOL    HW211889   2.202   2.147   0.603
 3664SOL     OW11890   4.540   2.054   1.446
 3664SOL    HW111891   4.481   2.071   1.367
 3664SOL    HW211892   4.609   1.985   1.421
 3665SOL     OW11893   1.360   6.098   5.892
 3665SOL    HW111894   1.334   6.189   5.861
 3665SOL    HW211895   1.444   6.070   5.846
 3666SOL     OW11896   2.021   3.734   2.946
 3666SOL    HW111897   1.993   3.659   2.886
 3666SOL    HW211898   2.099   3.781   2.906
 3667SOL     OW11899   6.701   0.721   0.727
 3667SOL    HW111900   6.691   0.820   0.719
 3667SOL    HW211901   6.681   0.693   0.821
 3668SOL     OW11902   1.599   0.663   2.159
 3668SOL    HW111903   1.696   0.681   2.175
 3668SOL    HW211904   1.545   0.737   2.199
 3669SOL     OW11905   6.033   1.012   4.098
 3669SOL    HW111906   6.057   1.000   4.001
 3669SOL    HW211907   6.098   0.961   4.155
 3670SOL     OW11908   2.568   4.088   0.392
 3670SOL    HW111909   2.564   4.138   0.479
 3670SOL    HW211910   2.592   4.152   0.319
 3671SOL     OW11911   6.284   0.043   4.105
 3671SOL    HW111912   6.197   0.061   4.150
 3671SOL    HW211913   6.270   0.033   4.007
 3672SOL     OW11914   5.248   1.789   1.534
 3672SOL    HW111915   5.165   1.812   1.484
 3672SOL    HW211916   5.308   1.869   1.538
 3673SOL     OW11917   3.710   0.197   5.701
 3673SOL    HW111918   3.630   0.172   5.755
 3673SOL    HW211919   3.760   0.114   5.676
 3674SOL     OW11920   0.324   0.281   4.757
 3674SOL    HW111921   0.365   0.282   4.848
 3674SOL    HW211922   0.265   0.201   4.748
 3675SOL     OW11923   1.703   3.083   4.804
 3675SOL    HW111924   1.778   3.064   4.868
 3675SOL    HW211925   1.691   3.182   4.795
 3676SOL     OW11926   4.599   4.776   4.694
 3676SOL    HW111927   4.542   4.760   4.613
 3676SOL    HW211928   4.574   4.711   4.765
 3677SOL     OW11929   1.919   6.758   3.519
 3677SOL    HW111930   1.821   6.767   3.535
 3677SOL    HW211931   1.947   6.664   3.534
 3678SOL     OW11932   0.960   3.697   3.551
 3678SOL    HW111933   0.954   3.787   3.507
 3678SOL    HW211934   0.975   3.709   3.649
 3679SOL     OW11935   2.060   0.788   3.299
 3679SOL    HW111936   2.090   0.811   3.206
 3679SOL    HW211937   2.133   0.810   3.364
 3680SOL     OW11938   5.889   1.919   3.150
 3680SOL    HW111939   5.877   1.859   3.229
 3680SOL    HW211940   5.986   1.944   3.142
 3681SOL     OW11941   0.868   0.755   4.626
 3681SOL    HW111942   0.893   0.694   4.550
 3681SOL    HW211943   0.914   0.843   4.614
 3682SOL     OW11944   5.404   2.534   6.889
 3682SOL    HW111945   5.350   2.507   6.810
 3682SOL    HW211946   5.357   2.607   6.939
 3683SOL     OW11947   6.903   6.515   3.774
 3683SOL    HW111948   6.867   6.597   3.820
 3683SOL    HW211949   6.840   6.486   3.702
 3684SOL     OW11950   1.522   3.654   6.791
 3684SOL    HW111951   1.497   3.634   6.697
 3684SOL    HW211952   1.471   3.734   6.824
 3685SOL     OW11953   6.462   6.651   6.510
 3685SOL    HW111954   6.401   6.726   6.487
 3685SOL    HW211955   6.541   6.686   6.561
 3686SOL     OW11956   6.620   5.917   3.704
 3686SOL    HW111957   6.616   6.014   3.725
 3686SOL    HW211958   6.552   5.895   3.634
 3687SOL     OW11959   3.733   6.448   5.943
 3687SOL    HW111960   3.832   6.429   5.945
 3687SOL    HW211961   3.694   6.426   6.033
 3688SOL     OW11962   0.535   3.398   6.468
 3688SOL    HW111963   0.541   3.309   6.512
 3688SOL    HW211964   0.511   3.386   6.371
 3689SOL     OW11965   1.639   0.782   6.900
 3689SOL    HW111966   1.710   0.711   6.902
 3689SOL    HW211967   1.667   0.858   6.958
 3690SOL     OW11968   4.355   0.259   6.083
 3690SOL    HW111969   4.397   0.208   6.158
 3690SOL    HW211970   4.269   0.299   6.114
 3691SOL     OW11971   2.889   2.232   0.116
 3691SOL    HW111972   2.960   2.295   0.150
 3691SOL    HW211973   2.800   2.261   0.150
 3692SOL     OW11974   0.602   5.938   4.987
 3692SOL    HW111975   0.604   5.843   5.019
 3692SOL    HW211976   0.638   5.943   4.894
 3693SOL     OW11977   2.300   2.740   2.854
 3693SOL    HW111978   2.353   2.670   2.807
 3693SOL    HW211979   2.304   2.826   2.803
 3694SOL     OW11980   1.914   5.653   3.126
 3694SOL    HW111981   1.975   5.654   3.047
 3694SOL    HW211982   1.832   5.600   3.103
 3695SOL     OW11983   6.231   2.578   2.731
 3695SOL    HW111984   6.269   2.610   2.644
 3695SOL    HW211985   6.131   2.577   2.726
 3696SOL     OW11986   3.480   5.826   5.225
 3696SOL    HW111987   3.553   5.875   5.178
 3696SOL    HW211988   3.392   5.862   5.195
 3697SOL     OW11989   0.374   5.768   3.234
 3697SOL    HW111990   0.360   5.859   3.196
 3697SOL    HW211991   0.285   5.729   3.259
 3698SOL     OW11992   3.064   6.787   5.124
 3698SOL    HW111993   3.065   6.722   5.048
 3698SOL    HW211994   2.985   6.770   5.182
 3699SOL     OW11995   6.915   3.354   3.063
 3699SOL    HW111996   6.883   3.376   2.971
 3699SOL    HW211997   6.884   3.262   3.088
 3700SOL     OW11998   0.258   0.555   4.816
 3700SOL    HW111999   0.255   0.456   4.804
 3700SOL    HW212000   0.166   0.590   4.835
 3701SOL     OW12001   0.719   0.704   3.418
 3701SOL    HW112002   0.667   0.633   3.465
 3701SOL    HW212003   0.817   0.688   3.432
 3702SOL     OW12004   5.522   6.449   2.499
 3702SOL    HW112005   5.462   6.401   2.563
 3702SOL    HW212006   5.617   6.441   2.530
 3703SOL     OW12007   4.672   2.202   6.591
 3703SOL    HW112008   4.663   2.107   6.622
 3703SOL    HW212009   4.625   2.263   6.656
 3704SOL     OW12010   3.046   0.968   1.580
 3704SOL    HW112011   3.073   1.000   1.490
 3704SOL    HW212012   3.100   0.888   1.604
 3705SOL     OW12013   5.312   5.665   4.208
 3705SOL    HW112014   5.287   5.758   4.183
 3705SOL    HW212015   5.412   5.656   4.207
 3706SOL     OW12016   1.257   3.299   5.138
 3706SOL    HW112017   1.351   3.334   5.140
 3706SOL    HW212018   1.204   3.348   5.069
 3707SOL     OW12019   6.271   3.546   5.306
 3707SOL    HW112020   6.208   3.504   5.241
 3707SOL    HW212021   6.268   3.645   5.296
 3708SOL     OW12022   6.414   0.729   5.962
 3708SOL    HW112023   6.502   0.765   5.995
 3708SOL    HW212024   6.349   0.726   6.038
 3709SOL     OW12025   4.061   0.608   0.307
 3709SOL    HW112026   4.019   0.644   0.390
 3709SOL    HW212027   4.129   0.539   0.331
 3710SOL     OW12028   0.139   5.957   0.440
 3710SOL    HW112029   0.094   5.870   0.416
 3710SOL    HW212030   0.122   6.024   0.368
 3711SOL     OW12031   6.753   6.469   2.031
 3711SOL    HW112032   6.732   6.531   2.107
 3711SOL    HW212033   6.813   6.396   2.064
 3712SOL     OW12034   6.565   6.273   6.965
 3712SOL    HW112035   6.481   6.225   6.937
 3712SOL    HW212036   6.637   6.205   6.982
 3713SOL     OW12037   1.814   6.210   4.494
 3713SOL    HW112038   1.751   6.204   4.572
 3713SOL    HW212039   1.845   6.118   4.470
 3714SOL     OW12040   4.844   5.329   5.431
 3714SOL    HW112041   4.936   5.290   5.440
 3714SOL    HW212042   4.850   5.429   5.440
 3715SOL     OW12043   6.042   3.912   3.792
 3715SOL    HW112044   5.954   3.871   3.818
 3715SOL    HW212045   6.114   3.878   3.852
 3716SOL     OW12046   5.854   6.473   5.395
 3716SOL    HW112047   5.779   6.419   5.356
 3716SOL    HW212048   5.830   6.499   5.488
 3717SOL     OW12049   5.592   5.395   6.096
 3717SOL    HW112050   5.562   5.490   6.090
 3717SOL    HW212051   5.527   5.336   6.049
 3718SOL     OW12052   2.070   0.601   6.239
 3718SOL    HW112053   2.024   0.690   6.244
 3718SOL    HW212054   2.083   0.575   6.144
 3719SOL     OW12055   5.730   4.694   1.004
 3719SOL    HW112056   5.821   4.673   0.970
 3719SOL    HW212057   5.733   4.780   1.056
 3720SOL     OW12058   6.380   2.068   5.382
 3720SOL    HW112059   6.309   2.124   5.426
 3720SOL    HW212060   6.424   2.011   5.451
 3721SOL     OW12061   5.101   4.760   1.464
 3721SOL    HW112062   5.045   4.733   1.386
 3721SOL    HW212063   5.153   4.681   1.497
 3722SOL     OW12064   6.194   6.805   2.140
 3722SOL    HW112065   6.168   6.719   2.095
 3722SOL    HW212066   6.182   6.881   2.077
 3723SOL     OW12067   6.157   6.622   1.929
 3723SOL    HW112068   6.068   6.666   1.916
 3723SOL    HW212069   6.222   6.657   1.862
 3724SOL     OW12070   1.813   5.213   5.905
 3724SOL    HW112071   1.748   5.163   5.848
 3724SOL    HW212072   1.770   5.238   5.991
 3725SOL     OW12073   5.406   5.647   0.845
 3725SOL    HW112074   5.415   5.633   0.943
 3725SOL    HW212075   5.327   5.706   0.827
 3726SOL     OW12076   6.515   5.596   0.717
 3726SOL    HW112077   6.480   5.671   0.774
 3726SOL    HW212078   6.438   5.539   0.687
 3727SOL     OW12079   0.080   2.690   6.117
 3727SOL    HW112080   0.171   2.723   6.142
 3727SOL    HW212081   0.059   2.606   6.167
 3728SOL     OW12082   1.593   3.902   0.160
 3728SOL    HW112083   1.651   3.833   0.117
 3728SOL    HW212084   1.604   3.989   0.112
 3729SOL     OW12085   1.562   2.273   3.627
 3729SOL    HW112086   1.635   2.253   3.693
 3729SOL    HW212087   1.488   2.206   3.639
 3730SOL     OW12088   2.572   5.277   6.296
 3730SOL    HW112089   2.515   5.223   6.234
 3730SOL    HW212090   2.653   5.309   6.248
 3731SOL     OW12091   4.231   0.116   0.948
 3731SOL    HW112092   4.211   0.113   0.850
 3731SOL    HW212093   4.149   0.144   0.998
 3732SOL     OW12094   1.442   2.443   6.484
 3732SOL    HW112095   1.383   2.518   6.512
 3732SOL    HW212096   1.408   2.357   6.522
 3733SOL     OW12097   1.452   3.723   1.654
 3733SOL    HW112098   1.363   3.680   1.667
 3733SOL    HW212099   1.522   3.672   1.705
 3734SOL     OW12100   4.287   1.305   1.887
 3734SOL    HW112101   4.346   1.264   1.817
 3734SOL    HW212102   4.308   1.403   1.894
 3735SOL     OW12103   2.123   0.952   3.536
 3735SOL    HW112104   2.175   1.017   3.481
 3735SOL    HW212105   2.183   0.878   3.566
 3736SOL     OW12106   6.493   2.691   1.228
 3736SOL    HW112107   6.533   2.653   1.312
 3736SOL    HW212108   6.483   2.790   1.238
 3737SOL     OW12109   5.327   0.587   3.050
 3737SOL    HW112110   5.349   0.585   3.147
 3737SOL    HW212111   5.375   0.664   3.007
 3738SOL     OW12112   0.209   5.652   2.365
 3738SOL    HW112113   0.207   5.559   2.400
 3738SOL    HW212114   0.169   5.714   2.433
 3739SOL     OW12115   2.204   4.737   1.276
 3739SOL    HW112116   2.230   4.827   1.242
 3739SOL    HW212117   2.273   4.705   1.341
 3740SOL     OW12118   4.807   0.175   0.529
 3740SOL    HW112119   4.887   0.232   0.510
 3740SOL    HW212120   4.824   0.081   0.499
 3741SOL     OW12121   4.602   3.168   1.318
 3741SOL    HW112122   4.689   3.172   1.368
 3741SOL    HW212123   4.545   3.096   1.357
 3742SOL     OW12124   2.661   2.342   6.172
 3742SOL    HW112125   2.618   2.409   6.232
 3742SOL    HW212126   2.691   2.263   6.226
 3743SOL     OW12127   5.175   4.428   1.219
 3743SOL    HW112128   5.144   4.336   1.243
 3743SOL    HW212129   5.180   4.436   1.119
 3744SOL     OW12130   0.293   5.821   2.820
 3744SOL    HW112131   0.322   5.731   2.788
 3744SOL    HW212132   0.318   5.890   2.752
 3745SOL     OW12133   3.545   4.879   2.540
 3745SOL    HW112134   3.615   4.817   2.575
 3745SOL    HW212135   3.553   4.885   2.440
 3746SOL     OW12136   5.058   1.824   2.721
 3746SOL    HW112137   5.011   1.766   2.654
 3746SOL    HW212138   5.104   1.767   2.789
 3747SOL     OW12139   3.358   6.980   5.617
 3747SOL    HW112140   3.454   6.952   5.610
 3747SOL    HW212141   3.351   0.064   5.605
 3748SOL     OW12142   5.075   0.840   1.369
 3748SOL    HW112143   5.073   0.846   1.269
 3748SOL    HW212144   5.111   0.925   1.407
 3749SOL     OW12145   1.903   6.673   4.254
 3749SOL    HW112146   1.820   6.722   4.279
 3749SOL    HW212147   1.893   6.576   4.276
 3750SOL     OW12148   1.680   3.901   0.896
 3750SOL    HW112149   1.654   3.973   0.832
 3750SOL    HW212150   1.687   3.814   0.847
 3751SOL     OW12151   6.428   3.343   2.545
 3751SOL    HW112152   6.527   3.341   2.562
 3751SOL    HW212153   6.406   3.420   2.485
 3752SOL     OW12154   4.995   0.495   6.183
 3752SOL    HW112155   4.987   0.580   6.131
 3752SOL    HW212156   5.081   0.494   6.233
 3753SOL     OW12157   6.250   0.696   5.164
 3753SOL    HW112158   6.321   0.642   5.208
 3753SOL    HW212159   6.257   0.792   5.193
 3754SOL     OW12160   2.542   0.387   1.837
 3754SOL    HW112161   2.616   0.391   1.904
 3754SOL    HW212162   2.459   0.426   1.876
 3755SOL     OW12163   3.900   5.412   5.119
 3755SOL    HW112164   3.800   5.414   5.121
 3755SOL    HW212165   3.935   5.394   5.211
 3756SOL     OW12166   2.390   5.617   6.809
 3756SOL    HW112167   2.312   5.671   6.843
 3756SOL    HW212168   2.474   5.648   6.855
 3757SOL     OW12169   6.272   5.218   1.721
 3757SOL    HW112170   6.366   5.216   1.686
 3757SOL    HW212171   6.256   5.138   1.778
 3758SOL     OW12172   2.161   1.384   4.138
 3758SOL    HW112173   2.100   1.306   4.125
 3758SOL    HW212174   2.166   1.437   4.053
 3759SOL     OW12175   4.785   0.556   4.885
 3759SOL    HW112176   4.824   0.476   4.931
 3759SOL    HW212177   4.742   0.615   4.952
 3760SOL     OW12178   1.160   1.639   3.564
 3760SOL    HW112179   1.081   1.586   3.595
 3760SOL    HW212180   1.241   1.611   3.615
 3761SOL     OW12181   6.561   0.617   5.143
 3761SOL    HW112182   6.604   0.706   5.127
 3761SOL    HW212183   6.523   0.614   5.235
 3762SOL     OW12184   1.715   4.223   1.337
 3762SOL    HW112185   1.658   4.303   1.319
 3762SOL    HW212186   1.665   4.158   1.395
 3763SOL     OW12187   6.504   4.233   0.510
 3763SOL    HW112188   6.529   4.189   0.596
 3763SOL    HW212189   6.430   4.299   0.526
 3764SOL     OW12190   1.858   6.576   2.500
 3764SOL    HW112191   1.899   6.555   2.411
 3764SOL    HW212192   1.843   6.491   2.550
 3765SOL     OW12193   5.970   1.203   0.843
 3765SOL    HW112194   6.049   1.259   0.868
 3765SOL    HW212195   5.951   1.215   0.746
 3766SOL     OW12196   2.419   2.316   4.152
 3766SOL    HW112197   2.341   2.350   4.204
 3766SOL    HW212198   2.388   2.284   4.062
 3767SOL     OW12199   3.034   3.956   6.515
 3767SOL    HW112200   2.940   3.928   6.496
 3767SOL    HW212201   3.080   3.884   6.567
 3768SOL     OW12202   0.778   0.411   5.017
 3768SOL    HW112203   0.779   0.453   4.926
 3768SOL    HW212204   0.710   0.457   5.074
 3769SOL     OW12205   6.444   5.334   5.229
 3769SOL    HW112206   6.401   5.267   5.290
 3769SOL    HW212207   6.383   5.354   5.152
 3770SOL     OW12208   1.071   1.036   6.947
 3770SOL    HW112209   1.131   0.969   6.989
 3770SOL    HW212210   1.118   1.125   6.943
 3771SOL     OW12211   5.673   4.610   6.720
 3771SOL    HW112212   5.765   4.574   6.737
 3771SOL    HW212213   5.620   4.606   6.804
 3772SOL     OW12214   0.477   0.747   0.219
 3772SOL    HW112215   0.424   0.678   0.268
 3772SOL    HW212216   0.574   0.734   0.238
 3773SOL     OW12217   6.430   3.108   5.667
 3773SOL    HW112218   6.497   3.165   5.620
 3773SOL    HW212219   6.344   3.158   5.678
 3774SOL     OW12220   5.598   5.526   1.698
 3774SOL    HW112221   5.665   5.588   1.657
 3774SOL    HW212222   5.506   5.565   1.690
 3775SOL     OW12223   4.087   4.803   3.944
 3775SOL    HW112224   4.170   4.808   4.000
 3775SOL    HW212225   4.108   4.754   3.859
 3776SOL     OW12226   3.941   2.401   6.496
 3776SOL    HW112227   3.947   2.475   6.562
 3776SOL    HW212228   3.959   2.436   6.404
 3777SOL     OW12229   2.239   5.808   4.193
 3777SOL    HW112230   2.323   5.769   4.154
 3777SOL    HW212231   2.162   5.747   4.173
 3778SOL     OW12232   2.239   5.713   3.521
 3778SOL    HW112233   2.330   5.746   3.494
 3778SOL    HW212234   2.188   5.688   3.439
 3779SOL     OW12235   0.520   5.027   0.796
 3779SOL    HW112236   0.606   5.023   0.846
 3779SOL    HW212237   0.499   5.122   0.772
 3780SOL     OW12238   6.933   3.879   3.982
 3780SOL    HW112239   6.847   3.896   4.032
 3780SOL    HW212240   6.956   3.782   3.989
 3781SOL     OW12241   0.577   0.437   4.009
 3781SOL    HW112242   0.485   0.412   3.979
 3781SOL    HW212243   0.595   0.397   4.099
 3782SOL     OW12244   3.419   6.633   2.252
 3782SOL    HW112245   3.512   6.658   2.278
 3782SOL    HW212246   3.380   6.705   2.196
 3783SOL     OW12247   6.727   5.839   4.138
 3783SOL    HW112248   6.750   5.927   4.180
 3783SOL    HW212249   6.744   5.844   4.040
 3784SOL     OW12250   5.306   2.544   2.609
 3784SOL    HW112251   5.365   2.536   2.689
 3784SOL    HW212252   5.306   2.639   2.577
 3785SOL     OW12253   1.664   3.354   4.761
 3785SOL    HW112254   1.578   3.366   4.712
 3785SOL    HW212255   1.695   3.443   4.796
 3786SOL     OW12256   2.214   4.059   3.240
 3786SOL    HW112257   2.153   3.990   3.202
 3786SOL    HW212258   2.274   4.096   3.169
 3787SOL     OW12259   5.482   0.729   2.574
 3787SOL    HW112260   5.386   0.744   2.595
 3787SOL    HW212261   5.499   0.748   2.477
 3788SOL     OW12262   5.993   4.352   5.032
 3788SOL    HW112263   6.026   4.431   5.083
 3788SOL    HW212264   5.990   4.374   4.934
 3789SOL     OW12265   0.164   3.633   3.020
 3789SOL    HW112266   0.211   3.556   3.063
 3789SOL    HW212267   0.177   3.715   3.075
 3790SOL     OW12268   0.690   5.100   6.304
 3790SOL    HW112269   0.626   5.172   6.278
 3790SOL    HW212270   0.657   5.011   6.271
 3791SOL     OW12271   5.173   1.829   6.754
 3791SOL    HW112272   5.226   1.747   6.737
 3791SOL    HW212273   5.203   1.902   6.692
 3792SOL     OW12274   1.260   1.490   4.397
 3792SOL    HW112275   1.262   1.434   4.314
 3792SOL    HW212276   1.166   1.517   4.416
 3793SOL     OW12277   5.547   6.368   1.845
 3793SOL    HW112278   5.617   6.387   1.913
 3793SOL    HW212279   5.488   6.448   1.833
 3794SOL     OW12280   2.809   3.283   1.736
 3794SOL    HW112281   2.715   3.315   1.746
 3794SOL    HW212282   2.817   3.191   1.774
 3795SOL     OW12283   3.821   4.846   1.316
 3795SOL    HW112284   3.745   4.782   1.301
 3795SOL    HW212285   3.817   4.919   1.249
 3796SOL     OW12286   4.229   1.680   1.357
 3796SOL    HW112287   4.201   1.704   1.450
 3796SOL    HW212288   4.150   1.685   1.296
 3797SOL     OW12289   0.929   3.644   3.017
 3797SOL    HW112290   0.862   3.581   2.976
 3797SOL    HW212291   0.898   3.738   3.003
 3798SOL     OW12292   3.073   6.266   2.110
 3798SOL    HW112293   3.154   6.324   2.105
 3798SOL    HW212294   2.991   6.322   2.097
 3799SOL     OW12295   0.180   2.573   3.595
 3799SOL    HW112296   0.248   2.617   3.537
 3799SOL    HW212297   0.178   2.475   3.577
 3800SOL     OW12298   4.941   2.159   4.025
 3800SOL    HW112299   5.021   2.109   4.057
 3800SOL    HW212300   4.900   2.109   3.948
 3801SOL     OW12301   5.319   6.576   2.273
 3801SOL    HW112302   5.409   6.599   2.235
 3801SOL    HW212303   5.325   6.573   2.372
 3802SOL     OW12304   0.426   1.090   2.352
 3802SOL    HW112305   0.386   1.011   2.400
 3802SOL    HW212306   0.498   1.058   2.290
 3803SOL     OW12307   3.824   3.373   3.483
 3803SOL    HW112308   3.747   3.423   3.442
 3803SOL    HW212309   3.851   3.419   3.568
 3804SOL     OW12310   4.102   1.189   3.628
 3804SOL    HW112311   4.132   1.133   3.551
 3804SOL    HW212312   4.012   1.160   3.657
 3805SOL     OW12313   1.719   2.535   1.957
 3805SOL    HW112314   1.684   2.587   1.879
 3805SOL    HW212315   1.658   2.459   1.976
 3806SOL     OW12316   3.196   3.806   5.792
 3806SOL    HW112317   3.220   3.827   5.697
 3806SOL    HW212318   3.139   3.878   5.829
 3807SOL     OW12319   2.160   5.250   3.811
 3807SOL    HW112320   2.145   5.187   3.886
 3807SOL    HW212321   2.247   5.229   3.767
 3808SOL     OW12322   4.388   1.090   6.932
 3808SOL    HW112323   4.392   1.089   6.832
 3808SOL    HW212324   4.293   1.088   6.961
 3809SOL     OW12325   5.452   2.828   1.454
 3809SOL    HW112326   5.510   2.752   1.424
 3809SOL    HW212327   5.369   2.831   1.398
 3810SOL     OW12328   6.158   2.529   3.336
 3810SOL    HW112329   6.184   2.520   3.433
 3810SOL    HW212330   6.136   2.625   3.316
 3811SOL     OW12331   0.429   6.495   4.825
 3811SOL    HW112332   0.429   6.400   4.794
 3811SOL    HW212333   0.481   6.502   4.911
 3812SOL     OW12334   3.232   4.567   5.763
 3812SOL    HW112335   3.180   4.526   5.688
 3812SOL    HW212336   3.310   4.617   5.725
 3813SOL     OW12337   5.513   3.824   0.465
 3813SOL    HW112338   5.566   3.868   0.393
 3813SOL    HW212339   5.469   3.893   0.522
 3814SOL     OW12340   0.042   6.707   4.605
 3814SOL    HW112341   6.968   6.752   4.618
 3814SOL    HW212342   0.028   6.610   4.585
 3815SOL     OW12343   3.952   3.070   1.032
 3815SOL    HW112344   3.953   3.091   0.935
 3815SOL    HW212345   4.005   3.139   1.082
 3816SOL     OW12346   0.957   5.227   6.153
 3816SOL    HW112347   0.879   5.244   6.093
 3816SOL    HW212348   0.926   5.180   6.235
 3817SOL     OW12349   4.868   4.033   2.505
 3817SOL    HW112350   4.844   4.057   2.411
 3817SOL    HW212351   4.967   4.040   2.517
 3818SOL     OW12352   6.980   1.053   1.125
 3818SOL    HW112353   0.013   1.123   1.177
 3818SOL    HW212354   6.997   0.963   1.165
 3819SOL     OW12355   5.792   4.702   2.819
 3819SOL    HW112356   5.698   4.671   2.807
 3819SOL    HW212357   5.855   4.631   2.787
 3820SOL     OW12358   5.841   6.889   3.639
 3820SOL    HW112359   5.917   6.824   3.631
 3820SOL    HW212360   5.768   6.862   3.577
 3821SOL     OW12361   1.218   0.801   1.926
 3821SOL    HW112362   1.135   0.855   1.941
 3821SOL    HW212363   1.295   0.862   1.906
 3822SOL     OW12364   2.121   6.683   6.898
 3822SOL    HW112365   2.186   6.721   6.964
 3822SOL    HW212366   2.031   6.725   6.912
 3823SOL     OW12367   4.041   3.371   6.148
 3823SOL    HW112368   3.952   3.337   6.116
 3823SOL    HW212369   4.058   3.338   6.241
 3824SOL     OW12370   0.925   2.380   0.790
 3824SOL    HW112371   0.890   2.462   0.745
 3824SOL    HW212372   1.024   2.376   0.780
 3825SOL     OW12373   0.888   4.829   0.240
 3825SOL    HW112374   0.984   4.801   0.242
 3825SOL    HW212375   0.883   4.928   0.224
 3826SOL     OW12376   0.287   3.738   1.328
 3826SOL    HW112377   0.267   3.827   1.288
 3826SOL    HW212378   0.225   3.722   1.405
 3827SOL     OW12379   1.078   1.377   1.654
 3827SOL    HW112380   0.994   1.339   1.613
 3827SOL    HW212381   1.091   1.471   1.622
 3828SOL     OW12382   3.601   3.902   4.041
 3828SOL    HW112383   3.599   4.001   4.028
 3828SOL    HW212384   3.618   3.881   4.137
 3829SOL     OW12385   0.319   4.811   2.024
 3829SOL    HW112386   0.245   4.758   2.065
 3829SOL    HW212387   0.405   4.761   2.032
 3830SOL     OW12388   0.241   1.270   5.470
 3830SOL    HW112389   0.255   1.228   5.380
 3830SOL    HW212390   0.316   1.335   5.488
 3831SOL     OW12391   4.387   2.422   2.504
 3831SOL    HW112392   4.428   2.412   2.414
 3831SOL    HW212393   4.446   2.478   2.562
 3832SOL     OW12394   6.966   0.487   2.299
 3832SOL    HW112395   6.966   0.587   2.304
 3832SOL    HW212396   6.872   0.453   2.309
 3833SOL     OW12397   0.372   5.773   6.682
 3833SOL    HW112398   0.309   5.731   6.748
 3833SOL    HW212399   0.371   5.872   6.693
 3834SOL     OW12400   3.752   4.679   0.462
 3834SOL    HW112401   3.667   4.632   0.484
 3834SOL    HW212402   3.746   4.774   0.493
 3835SOL     OW12403   3.915   6.192   5.462
 3835SOL    HW112404   3.887   6.280   5.424
 3835SOL    HW212405   4.004   6.167   5.425
 3836SOL     OW12406   6.542   5.186   5.842
 3836SOL    HW112407   6.586   5.100   5.869
 3836SOL    HW212408   6.556   5.255   5.912
 3837SOL     OW12409   4.763   4.939   5.569
 3837SOL    HW112410   4.698   5.014   5.556
 3837SOL    HW212411   4.728   4.876   5.639
 3838SOL     OW12412   1.018   2.651   3.872
 3838SOL    HW112413   0.931   2.672   3.828
 3838SOL    HW212414   1.090   2.708   3.834
 3839SOL     OW12415   5.368   1.698   2.725
 3839SOL    HW112416   5.404   1.678   2.816
 3839SOL    HW212417   5.443   1.725   2.665
 3840SOL     OW12418   2.895   1.525   6.507
 3840SOL    HW112419   2.882   1.427   6.488
 3840SOL    HW212420   2.852   1.547   6.595
 3841SOL     OW12421   0.431   3.461   4.235
 3841SOL    HW112422   0.383   3.500   4.313
 3841SOL    HW212423   0.528   3.450   4.258
 3842SOL     OW12424   2.368   2.633   3.410
 3842SOL    HW112425   2.320   2.687   3.479
 3842SOL    HW212426   2.309   2.621   3.331
 3843SOL     OW12427   5.202   3.611   2.492
 3843SOL    HW112428   5.112   3.655   2.489
 3843SOL    HW212429   5.197   3.522   2.445
 3844SOL     OW12430   1.283   2.966   6.069
 3844SOL    HW112431   1.372   3.013   6.070
 3844SOL    HW212432   1.285   2.890   6.133
 3845SOL     OW12433   3.130   4.722   5.999
 3845SOL    HW112434   3.092   4.682   6.082
 3845SOL    HW212435   3.143   4.651   5.930
 3846SOL     OW12436   1.346   4.364   3.485
 3846SOL    HW112437   1.318   4.271   3.510
 3846SOL    HW212438   1.399   4.361   3.401
 3847SOL     OW12439   5.540   2.938   4.420
 3847SOL    HW112440   5.505   2.978   4.504
 3847SOL    HW212441   5.480   2.864   4.390
 3848SOL     OW12442   4.783   4.500   3.030
 3848SOL    HW112443   4.802   4.578   3.090
 3848SOL    HW212444   4.766   4.418   3.086
 3849SOL     OW12445   1.122   1.673   6.488
 3849SOL    HW112446   1.025   1.682   6.464
 3849SOL    HW212447   1.163   1.599   6.436
 3850SOL     OW12448   3.056   3.414   1.721
 3850SOL    HW112449   2.975   3.355   1.718
 3850SOL    HW212450   3.116   3.385   1.795
 3851SOL     OW12451   0.397   4.138   3.219
 3851SOL    HW112452   0.474   4.073   3.220
 3851SOL    HW212453   0.311   4.088   3.211
 3852SOL     OW12454   4.235   6.451   3.868
 3852SOL    HW112455   4.158   6.511   3.887
 3852SOL    HW212456   4.300   6.496   3.806
 3853SOL     OW12457   0.948   3.989   3.259
 3853SOL    HW112458   1.042   4.021   3.244
 3853SOL    HW212459   0.914   3.947   3.175
 3854SOL     OW12460   1.697   2.432   2.991
 3854SOL    HW112461   1.727   2.380   3.071
 3854SOL    HW212462   1.719   2.529   3.004
 3855SOL     OW12463   4.916   6.433   6.598
 3855SOL    HW112464   4.843   6.418   6.665
 3855SOL    HW212465   4.894   6.383   6.514
 3856SOL     OW12466   0.096   0.460   5.644
 3856SOL    HW112467   0.074   0.381   5.701
 3856SOL    HW212468   0.131   0.429   5.556
 3857SOL     OW12469   0.574   6.005   6.574
 3857SOL    HW112470   0.588   6.105   6.575
 3857SOL    HW212471   0.651   5.961   6.621
 3858SOL     OW12472   2.448   0.994   5.797
 3858SOL    HW112473   2.372   0.965   5.854
 3858SOL    HW212474   2.412   1.038   5.714
 3859SOL     OW12475   6.501   1.232   1.434
 3859SOL    HW112476   6.487   1.200   1.528
 3859SOL    HW212477   6.515   1.153   1.374
 3860SOL     OW12478   1.654   1.679   4.280
 3860SOL    HW112479   1.615   1.754   4.228
 3860SOL    HW212480   1.731   1.712   4.334
 3861SOL     OW12481   4.292   5.601   4.151
 3861SOL    HW112482   4.325   5.507   4.150
 3861SOL    HW212483   4.237   5.618   4.069
 3862SOL     OW12484   0.761   1.095   4.252
 3862SOL    HW112485   0.699   1.073   4.176
 3862SOL    HW212486   0.753   1.192   4.275
 3863SOL     OW12487   6.045   2.327   0.116
 3863SOL    HW112488   6.044   2.233   0.080
 3863SOL    HW212489   6.044   2.392   0.039
 3864SOL     OW12490   2.162   1.201   5.819
 3864SOL    HW112491   2.178   1.106   5.846
 3864SOL    HW212492   2.071   1.208   5.777
 3865SOL     OW12493   3.959   1.099   1.085
 3865SOL    HW112494   3.867   1.111   1.122
 3865SOL    HW212495   4.014   1.046   1.150
 3866SOL     OW12496   3.986   0.211   0.223
 3866SOL    HW112497   4.039   0.150   0.280
 3866SOL    HW212498   3.901   0.236   0.269
 3867SOL     OW12499   0.533   5.866   3.701
 3867SOL    HW112500   0.471   5.789   3.686
 3867SOL    HW212501   0.558   5.870   3.798
 3868SOL     OW12502   2.789   0.609   0.135
 3868SOL    HW112503   2.784   0.690   0.076
 3868SOL    HW212504   2.862   0.621   0.203
 3869SOL     OW12505   5.977   3.286   4.371
 3869SOL    HW112506   5.957   3.347   4.295
 3869SOL    HW212507   5.987   3.193   4.338
 3870SOL     OW12508   6.488   6.609   0.056
 3870SOL    HW112509   6.495   6.515   0.021
 3870SOL    HW212510   6.523   6.612   0.150
 3871SOL     OW12511   4.128   1.094   3.264
 3871SOL    HW112512   4.200   1.072   3.198
 3871SOL    HW212513   4.109   1.192   3.260
 3872SOL     OW12514   3.622   2.869   3.795
 3872SOL    HW112515   3.635   2.815   3.712
 3872SOL    HW212516   3.527   2.864   3.825
 3873SOL     OW12517   6.476   4.077   1.643
 3873SOL    HW112518   6.448   4.164   1.602
 3873SOL    HW212519   6.562   4.048   1.603
 3874SOL     OW12520   4.781   5.998   6.754
 3874SOL    HW112521   4.832   5.933   6.810
 3874SOL    HW212522   4.731   6.062   6.814
 3875SOL     OW12523   2.205   3.082   2.430
 3875SOL    HW112524   2.224   3.076   2.332
 3875SOL    HW212525   2.106   3.081   2.445
 3876SOL     OW12526   3.629   5.558   1.123
 3876SOL    HW112527   3.652   5.504   1.204
 3876SOL    HW212528   3.686   5.529   1.046
 3877SOL     OW12529   5.788   2.521   0.851
 3877SOL    HW112530   5.763   2.435   0.896
 3877SOL    HW212531   5.856   2.570   0.906
 3878SOL     OW12532   3.781   6.668   4.362
 3878SOL    HW112533   3.782   6.729   4.442
 3878SOL    HW212534   3.751   6.719   4.282
 3879SOL     OW12535   5.962   5.100   1.004
 3879SOL    HW112536   6.055   5.109   0.968
 3879SOL    HW212537   5.923   5.191   1.020
 3880SOL     OW12538   5.889   5.022   4.515
 3880SOL    HW112539   5.803   5.069   4.498
 3880SOL    HW212540   5.875   4.946   4.579
 3881SOL     OW12541   1.615   3.147   1.871
 3881SOL    HW112542   1.656   3.220   1.926
 3881SOL    HW212543   1.517   3.142   1.890
 3882SOL     OW12544   1.271   1.274   5.715
 3882SOL    HW112545   1.190   1.293   5.660
 3882SOL    HW212546   1.314   1.189   5.684
 3883SOL     OW12547   4.765   1.180   2.720
 3883SOL    HW112548   4.779   1.093   2.673
 3883SOL    HW212549   4.837   1.244   2.696
 3884SOL     OW12550   1.114   5.616   2.426
 3884SOL    HW112551   1.213   5.619   2.437
 3884SOL    HW212552   1.077   5.535   2.472
 3885SOL     OW12553   5.551   6.301   2.794
 3885SOL    HW112554   5.466   6.296   2.741
 3885SOL    HW212555   5.600   6.214   2.786
 3886SOL     OW12556   5.984   5.130   4.896
 3886SOL    HW112557   6.047   5.092   4.963
 3886SOL    HW212558   5.896   5.083   4.903
 3887SOL     OW12559   0.581   0.757   6.783
 3887SOL    HW112560   0.614   0.677   6.733
 3887SOL    HW212561   0.495   0.734   6.829
 3888SOL     OW12562   6.793   0.393   4.693
 3888SOL    HW112563   6.756   0.485   4.702
 3888SOL    HW212564   6.741   0.343   4.623
 3889SOL     OW12565   0.197   3.991   0.209
 3889SOL    HW112566   0.100   4.017   0.210
 3889SOL    HW212567   0.253   4.072   0.193
 3890SOL     OW12568   5.951   5.575   3.834
 3890SOL    HW112569   5.986   5.668   3.829
 3890SOL    HW212570   5.936   5.540   3.741
 3891SOL     OW12571   6.125   4.587   4.368
 3891SOL    HW112572   6.100   4.609   4.274
 3891SOL    HW212573   6.092   4.659   4.429
 3892SOL     OW12574   6.784   2.349   1.889
 3892SOL    HW112575   6.794   2.262   1.841
 3892SOL    HW212576   6.873   2.396   1.892
 3893SOL     OW12577   4.416   4.771   0.200
 3893SOL    HW112578   4.403   4.723   0.113
 3893SOL    HW212579   4.343   4.746   0.264
 3894SOL     OW12580   3.547   1.712   0.783
 3894SOL    HW112581   3.635   1.670   0.764
 3894SOL    HW212582   3.481   1.642   0.808
 3895SOL     OW12583   1.545   0.844   4.820
 3895SOL    HW112584   1.500   0.902   4.887
 3895SOL    HW212585   1.534   0.748   4.845
 3896SOL     OW12586   6.826   0.566   6.020
 3896SOL    HW112587   6.819   0.666   6.016
 3896SOL    HW212588   6.817   0.536   6.115
 3897SOL     OW12589   3.280   5.385   2.765
 3897SOL    HW112590   3.235   5.456   2.710
 3897SOL    HW212591   3.218   5.307   2.776
 3898SOL     OW12592   2.859   3.628   5.302
 3898SOL    HW112593   2.843   3.561   5.230
 3898SOL    HW212594   2.773   3.677   5.321
 3899SOL     OW12595   5.713   6.726   5.115
 3899SOL    HW112596   5.675   6.727   5.208
 3899SOL    HW212597   5.642   6.751   5.050
 3900SOL     OW12598   5.177   3.500   3.768
 3900SOL    HW112599   5.083   3.533   3.758
 3900SOL    HW212600   5.181   3.403   3.743
 3901SOL     OW12601   2.947   0.519   5.797
 3901SOL    HW112602   3.013   0.532   5.723
 3901SOL    HW212603   2.861   0.484   5.760
 3902SOL     OW12604   5.349   3.617   1.913
 3902SOL    HW112605   5.421   3.667   1.961
 3902SOL    HW212606   5.389   3.565   1.837
 3903SOL     OW12607   3.774   5.964   6.637
 3903SOL    HW112608   3.709   5.978   6.563
 3903SOL    HW212609   3.752   6.025   6.713
 3904SOL     OW12610   2.113   1.351   5.031
 3904SOL    HW112611   2.082   1.290   4.958
 3904SOL    HW212612   2.109   1.302   5.118
 3905SOL     OW12613   0.354   0.355   6.342
 3905SOL    HW112614   0.285   0.343   6.271
 3905SOL    HW212615   0.335   0.438   6.394
 3906SOL     OW12616   4.697   4.747   6.321
 3906SOL    HW112617   4.731   4.834   6.356
 3906SOL    HW212618   4.610   4.725   6.366
 3907SOL     OW12619   5.836   6.912   4.736
 3907SOL    HW112620   5.790   6.924   4.825
 3907SOL    HW212621   5.812   6.823   4.698
 3908SOL     OW12622   1.187   2.019   1.112
 3908SOL    HW112623   1.119   1.949   1.089
 3908SOL    HW212624   1.277   1.990   1.080
 3909SOL     OW12625   0.425   5.105   5.371
 3909SOL    HW112626   0.469   5.046   5.438
 3909SOL    HW212627   0.372   5.050   5.307
 3910SOL     OW12628   3.767   3.562   1.647
 3910SOL    HW112629   3.730   3.481   1.600
 3910SOL    HW212630   3.691   3.616   1.683
 3911SOL     OW12631   4.897   1.114   0.017
 3911SOL    HW112632   4.816   1.173   0.019
 3911SOL    HW212633   4.971   1.157   0.068
 3912SOL     OW12634   4.453   0.070   5.827
 3912SOL    HW112635   4.469   0.123   5.744
 3912SOL    HW212636   4.420   0.130   5.900
 3913SOL     OW12637   2.111   6.878   5.932
 3913SOL    HW112638   2.065   6.911   6.015
 3913SOL    HW212639   2.166   6.951   5.893
 3914SOL     OW12640   3.793   1.488   0.633
 3914SOL    HW112641   3.834   1.504   0.723
 3914SOL    HW212642   3.863   1.460   0.569
 3915SOL     OW12643   3.545   5.622   2.716
 3915SOL    HW112644   3.489   5.705   2.715
 3915SOL    HW212645   3.596   5.615   2.631
 3916SOL     OW12646   1.551   5.824   4.217
 3916SOL    HW112647   1.529   5.798   4.123
 3916SOL    HW212648   1.511   5.757   4.280
 3917SOL     OW12649   0.720   5.046   6.948
 3917SOL    HW112650   0.732   4.961   6.897
 3917SOL    HW212651   0.791   5.053   0.004
 3918SOL     OW12652   4.647   0.054   2.633
 3918SOL    HW112653   4.689   0.138   2.667
 3918SOL    HW212654   4.600   0.073   2.547
 3919SOL     OW12655   2.302   5.816   6.167
 3919SOL    HW112656   2.314   5.717   6.161
 3919SOL    HW212657   2.274   5.852   6.077
 3920SOL     OW12658   2.712   2.862   0.315
 3920SOL    HW112659   2.719   2.850   0.216
 3920SOL    HW212660   2.698   2.959   0.337
 3921SOL     OW12661   6.860   3.249   1.286
 3921SOL    HW112662   6.899   3.195   1.212
 3921SOL    HW212663   6.777   3.295   1.254
 3922SOL     OW12664   6.100   4.184   2.014
 3922SOL    HW112665   6.196   4.154   2.011
 3922SOL    HW212666   6.084   4.234   2.099
 3923SOL     OW12667   6.872   1.999   6.762
 3923SOL    HW112668   6.947   1.966   6.704
 3923SOL    HW212669   6.897   1.990   6.858
 3924SOL     OW12670   1.046   5.296   2.899
 3924SOL    HW112671   0.983   5.274   2.973
 3924SOL    HW212672   1.077   5.391   2.909
 3925SOL     OW12673   3.707   4.979   0.596
 3925SOL    HW112674   3.679   5.011   0.506
 3925SOL    HW212675   3.626   4.969   0.654
 3926SOL     OW12676   6.488   5.488   3.136
 3926SOL    HW112677   6.413   5.461   3.076
 3926SOL    HW212678   6.466   5.461   3.230
 3927SOL     OW12679   6.667   3.274   3.532
 3927SOL    HW112680   6.648   3.276   3.434
 3927SOL    HW212681   6.760   3.309   3.548
 3928SOL     OW12682   2.994   5.966   6.185
 3928SOL    HW112683   2.982   6.064   6.167
 3928SOL    HW212684   2.933   5.939   6.260
 3929SOL     OW12685   0.623   1.862   6.125
 3929SOL    HW112686   0.638   1.812   6.040
 3929SOL    HW212687   0.710   1.885   6.167
 3930SOL     OW12688   2.349   1.752   4.027
 3930SOL    HW112689   2.432   1.806   4.037
 3930SOL    HW212690   2.319   1.719   4.116
 3931SOL     OW12691   1.808   2.027   2.573
 3931SOL    HW112692   1.901   2.059   2.553
 3931SOL    HW212693   1.743   2.079   2.517
 3932SOL     OW12694   1.701   3.914   2.737
 3932SOL    HW112695   1.655   3.898   2.651
 3932SOL    HW212696   1.686   3.836   2.798
 3933SOL     OW12697   1.733   6.457   0.029
 3933SOL    HW112698   1.706   6.517   0.104
 3933SOL    HW212699   1.833   6.455   0.023
 3934SOL     OW12700   6.981   0.726   0.964
 3934SOL    HW112701   6.975   0.688   1.057
 3934SOL    HW212702   6.992   0.652   0.898
 3935SOL     OW12703   2.416   0.112   0.110
 3935SOL    HW112704   2.502   0.065   0.130
 3935SOL    HW212705   2.387   0.164   0.190
 3936SOL     OW12706   6.689   5.174   5.585
 3936SOL    HW112707   6.647   5.215   5.666
 3936SOL    HW212708   6.703   5.077   5.600
 3937SOL     OW12709   6.907   0.427   1.832
 3937SOL    HW112710   6.887   0.334   1.865
 3937SOL    HW212711   6.860   0.493   1.890
 3938SOL     OW12712   0.190   1.876   3.595
 3938SOL    HW112713   0.136   1.811   3.542
 3938SOL    HW212714   0.247   1.931   3.533
 3939SOL     OW12715   2.589   1.909   1.677
 3939SOL    HW112716   2.598   2.006   1.654
 3939SOL    HW212717   2.493   1.882   1.675
 3940SOL     OW12718   4.061   5.422   2.502
 3940SOL    HW112719   4.144   5.369   2.482
 3940SOL    HW212720   4.073   5.516   2.472
 3941SOL     OW12721   4.997   1.860   6.529
 3941SOL    HW112722   4.959   1.887   6.441
 3941SOL    HW212723   5.058   1.782   6.517
 3942SOL     OW12724   0.538   0.673   6.202
 3942SOL    HW112725   0.499   0.662   6.110
 3942SOL    HW212726   0.566   0.583   6.237
 3943SOL     OW12727   0.990   3.726   2.597
 3943SOL    HW112728   1.027   3.815   2.624
 3943SOL    HW212729   0.985   3.721   2.497
 3944SOL     OW12730   5.778   3.159   5.447
 3944SOL    HW112731   5.682   3.132   5.445
 3944SOL    HW212732   5.806   3.176   5.542
 3945SOL     OW12733   0.768   2.361   2.080
 3945SOL    HW112734   0.830   2.437   2.102
 3945SOL    HW212735   0.795   2.321   1.993
 3946SOL     OW12736   5.508   5.604   5.940
 3946SOL    HW112737   5.508   5.530   5.873
 3946SOL    HW212738   5.425   5.659   5.930
 3947SOL     OW12739   6.301   5.475   1.278
 3947SOL    HW112740   6.367   5.400   1.277
 3947SOL    HW212741   6.208   5.438   1.277
 3948SOL     OW12742   1.001   5.586   1.650
 3948SOL    HW112743   0.959   5.496   1.657
 3948SOL    HW212744   1.028   5.618   1.741
 3949SOL     OW12745   6.383   0.553   3.034
 3949SOL    HW112746   6.374   0.636   3.089
 3949SOL    HW212747   6.359   0.572   2.939
 3950SOL     OW12748   2.858   4.106   1.746
 3950SOL    HW112749   2.782   4.070   1.692
 3950SOL    HW212750   2.860   4.206   1.739
 3951SOL     OW12751   6.754   6.739   1.069
 3951SOL    HW112752   6.690   6.739   0.993
 3951SOL    HW212753   6.818   6.815   1.060
 3952SOL     OW12754   6.296   3.843   2.819
 3952SOL    HW112755   6.354   3.805   2.747
 3952SOL    HW212756   6.350   3.858   2.902
 3953SOL     OW12757   3.805   4.298   0.626
 3953SOL    HW112758   3.819   4.221   0.688
 3953SOL    HW212759   3.708   4.323   0.626
 3954SOL     OW12760   5.715   5.513   5.159
 3954SOL    HW112761   5.669   5.576   5.221
 3954SOL    HW212762   5.798   5.556   5.123
 3955SOL     OW12763   3.227   5.341   5.864
 3955SOL    HW112764   3.302   5.289   5.825
 3955SOL    HW212765   3.263   5.415   5.921
 3956SOL     OW12766   0.275   0.885   2.662
 3956SOL    HW112767   0.301   0.872   2.567
 3956SOL    HW212768   0.351   0.859   2.722
 3957SOL     OW12769   4.580   6.683   3.766
 3957SOL    HW112770   4.585   6.621   3.687
 3957SOL    HW212771   4.579   6.778   3.734
 3958SOL     OW12772   5.674   0.853   6.317
 3958SOL    HW112773   5.667   0.869   6.219
 3958SOL    HW212774   5.637   0.931   6.367
 3959SOL     OW12775   3.754   5.823   1.090
 3959SOL    HW112776   3.714   5.731   1.097
 3959SOL    HW212777   3.832   5.821   1.028
 3960SOL     OW12778   4.205   1.241   6.698
 3960SOL    HW112779   4.217   1.313   6.630
 3960SOL    HW212780   4.234   1.274   6.788
 3961SOL     OW12781   6.142   2.361   1.950
 3961SOL    HW112782   6.085   2.280   1.967
 3961SOL    HW212783   6.201   2.343   1.871
 3962SOL     OW12784   2.753   4.740   6.875
 3962SOL    HW112785   2.827   4.758   6.809
 3962SOL    HW212786   2.734   4.824   6.926
 3963SOL     OW12787   4.700   4.430   4.499
 3963SOL    HW112788   4.759   4.372   4.443
 3963SOL    HW212789   4.696   4.522   4.460
 3964SOL     OW12790   3.993   4.819   3.575
 3964SOL    HW112791   4.008   4.727   3.611
 3964SOL    HW212792   3.939   4.814   3.491
 3965SOL     OW12793   4.720   3.102   6.010
 3965SOL    HW112794   4.666   3.159   5.947
 3965SOL    HW212795   4.663   3.071   6.085
 3966SOL     OW12796   5.462   5.997   1.046
 3966SOL    HW112797   5.510   6.068   0.993
 3966SOL    HW212798   5.365   6.001   1.026
 3967SOL     OW12799   1.495   4.066   2.450
 3967SOL    HW112800   1.591   4.094   2.450
 3967SOL    HW212801   1.456   4.083   2.359
 3968SOL     OW12802   5.183   0.144   1.167
 3968SOL    HW112803   5.157   0.047   1.159
 3968SOL    HW212804   5.143   0.195   1.090
 3969SOL     OW12805   1.793   3.697   2.465
 3969SOL    HW112806   1.828   3.652   2.548
 3969SOL    HW212807   1.694   3.711   2.474
 3970SOL     OW12808   5.705   5.784   3.922
 3970SOL    HW112809   5.801   5.810   3.935
 3970SOL    HW212810   5.668   5.832   3.842
 3971SOL     OW12811   2.564   5.224   1.676
 3971SOL    HW112812   2.545   5.320   1.698
 3971SOL    HW212813   2.550   5.168   1.757
 3972SOL     OW12814   1.086   5.341   0.620
 3972SOL    HW112815   1.142   5.263   0.645
 3972SOL    HW212816   1.145   5.417   0.591
 3973SOL     OW12817   0.887   4.531   5.894
 3973SOL    HW112818   0.908   4.435   5.909
 3973SOL    HW212819   0.953   4.570   5.829
 3974SOL     OW12820   1.256   1.144   4.429
 3974SOL    HW112821   1.176   1.092   4.400
 3974SOL    HW212822   1.247   1.170   4.525
 3975SOL     OW12823   5.439   0.525   5.900
 3975SOL    HW112824   5.526   0.509   5.855
 3975SOL    HW212825   5.451   0.594   5.972
 3976SOL     OW12826   1.236   6.091   2.022
 3976SOL    HW112827   1.294   6.168   1.996
 3976SOL    HW212828   1.262   6.010   1.969
 3977SOL     OW12829   2.863   4.374   5.537
 3977SOL    HW112830   2.844   4.472   5.525
 3977SOL    HW212831   2.959   4.356   5.517
 3978SOL     OW12832   5.735   6.363   4.950
 3978SOL    HW112833   5.756   6.439   4.888
 3978SOL    HW212834   5.819   6.327   4.988
 3979SOL     OW12835   3.108   5.927   0.725
 3979SOL    HW112836   3.022   5.976   0.733
 3979SOL    HW212837   3.141   5.901   0.816
 3980SOL     OW12838   0.452   5.729   0.018
 3980SOL    HW112839   0.456   5.694   0.112
 3980SOL    HW212840   0.486   5.660   6.970
 3981SOL     OW12841   2.113   1.528   0.648
 3981SOL    HW112842   2.038   1.474   0.686
 3981SOL    HW212843   2.092   1.625   0.658
 3982SOL     OW12844   2.067   0.457   4.278
 3982SOL    HW112845   2.128   0.525   4.237
 3982SOL    HW212846   2.021   0.405   4.205
 3983SOL     OW12847   5.034   5.357   4.624
 3983SOL    HW112848   5.076   5.368   4.714
 3983SOL    HW212849   4.978   5.274   4.623
 3984SOL     OW12850   6.869   0.931   2.570
 3984SOL    HW112851   6.810   0.931   2.651
 3984SOL    HW212852   6.851   1.012   2.515
 3985SOL     OW12853   3.344   4.600   6.204
 3985SOL    HW112854   3.372   4.543   6.127
 3985SOL    HW212855   3.342   4.696   6.175
 3986SOL     OW12856   6.682   1.793   3.290
 3986SOL    HW112857   6.655   1.697   3.298
 3986SOL    HW212858   6.644   1.845   3.366
 3987SOL     OW12859   2.826   5.239   3.972
 3987SOL    HW112860   2.881   5.219   4.053
 3987SOL    HW212861   2.784   5.155   3.937
 3988SOL     OW12862   4.115   3.628   6.838
 3988SOL    HW112863   4.017   3.645   6.824
 3988SOL    HW212864   4.168   3.687   6.778
 3989SOL     OW12865   6.743   2.649   0.142
 3989SOL    HW112866   6.729   2.655   0.240
 3989SOL    HW212867   6.698   2.727   0.097
 3990SOL     OW12868   5.312   2.284   3.047
 3990SOL    HW112869   5.290   2.227   3.126
 3990SOL    HW212870   5.268   2.246   2.965
 3991SOL     OW12871   5.953   0.987   1.994
 3991SOL    HW112872   6.001   0.902   1.972
 3991SOL    HW212873   5.990   1.062   1.939
 3992SOL     OW12874   3.373   2.265   6.839
 3992SOL    HW112875   3.295   2.244   6.898
 3992SOL    HW212876   3.458   2.240   6.886
 3993SOL     OW12877   1.305   1.716   2.856
 3993SOL    HW112878   1.360   1.794   2.827
 3993SOL    HW212879   1.289   1.721   2.955
 3994SOL     OW12880   0.404   1.277   6.447
 3994SOL    HW112881   0.328   1.252   6.387
 3994SOL    HW212882   0.468   1.335   6.397
 3995SOL     OW12883   1.920   3.927   5.194
 3995SOL    HW112884   2.006   3.891   5.157
 3995SOL    HW212885   1.925   4.027   5.198
 3996SOL     OW12886   1.223   0.926   4.176
 3996SOL    HW112887   1.201   0.951   4.082
 3996SOL    HW212888   1.320   0.943   4.193
 3997SOL     OW12889   4.918   1.377   3.712
 3997SOL    HW112890   4.900   1.345   3.805
 3997SOL    HW212891   4.974   1.310   3.663
 3998SOL     OW12892   4.520   1.229   3.074
 3998SOL    HW112893   4.438   1.286   3.080
 3998SOL    HW212894   4.591   1.277   3.023
 3999SOL     OW12895   5.767   3.661   3.644
 3999SOL    HW112896   5.757   3.597   3.720
 3999SOL    HW212897   5.748   3.613   3.558
 4000SOL     OW12898   3.007   5.628   3.173
 4000SOL    HW112899   3.057   5.704   3.132
 4000SOL    HW212900   2.913   5.656   3.192
 4001SOL     OW12901   2.680   2.404   3.952
 4001SOL    HW112902   2.665   2.442   4.043
 4001SOL    HW212903   2.594   2.403   3.902
 4002SOL     OW12904   2.243   2.956   0.849
 4002SOL    HW112905   2.161   2.999   0.888
 4002SOL    HW212906   2.226   2.934   0.753
 4003SOL     OW12907   3.117   5.818   4.404
 4003SOL    HW112908   3.154   5.747   4.344
 4003SOL    HW212909   3.095   5.777   4.493
 4004SOL     OW12910   5.461   2.104   3.849
 4004SOL    HW112911   5.465   2.063   3.941
 4004SOL    HW212912   5.377   2.159   3.841
 4005SOL     OW12913   4.840   6.021   0.876
 4005SOL    HW112914   4.904   6.056   0.807
 4005SOL    HW212915   4.766   6.086   0.888
 4006SOL     OW12916   3.604   5.644   3.269
 4006SOL    HW112917   3.626   5.725   3.324
 4006SOL    HW212918   3.689   5.603   3.236
 4007SOL     OW12919   0.716   2.304   1.419
 4007SOL    HW112920   0.776   2.240   1.466
 4007SOL    HW212921   0.687   2.265   1.332
 4008SOL     OW12922   3.433   1.786   3.685
 4008SOL    HW112923   3.451   1.702   3.635
 4008SOL    HW212924   3.345   1.780   3.732
 4009SOL     OW12925   5.381   3.406   1.246
 4009SOL    HW112926   5.451   3.452   1.301
 4009SOL    HW212927   5.400   3.422   1.149
 4010SOL     OW12928   2.296   2.719   1.725
 4010SOL    HW112929   2.229   2.779   1.770
 4010SOL    HW212930   2.272   2.623   1.745
 4011SOL     OW12931   0.122   0.572   1.817
 4011SOL    HW112932   0.041   0.522   1.788
 4011SOL    HW212933   0.096   0.646   1.879
 4012SOL     OW12934   4.024   5.580   1.323
 4012SOL    HW112935   4.052   5.553   1.231
 4012SOL    HW212936   3.982   5.503   1.370
 4013SOL     OW12937   2.808   6.931   6.922
 4013SOL    HW112938   2.811   0.012   6.949
 4013SOL    HW212939   2.877   6.880   6.974
 4014SOL     OW12940   4.063   5.967   3.394
 4014SOL    HW112941   4.146   5.983   3.448
 4014SOL    HW212942   4.076   6.003   3.301
 4015SOL     OW12943   4.874   5.039   6.387
 4015SOL    HW112944   4.947   5.045   6.319
 4015SOL    HW212945   4.787   5.065   6.346
 4016SOL     OW12946   2.425   5.678   6.551
 4016SOL    HW112947   2.340   5.673   6.499
 4016SOL    HW212948   2.411   5.636   6.641
 4017SOL     OW12949   0.194   6.045   1.093
 4017SOL    HW112950   0.109   5.992   1.099
 4017SOL    HW212951   0.261   6.007   1.156
 4018SOL     OW12952   5.074   5.927   3.434
 4018SOL    HW112953   5.109   5.916   3.527
 4018SOL    HW212954   5.104   6.015   3.397
 4019SOL     OW12955   5.880   3.933   3.139
 4019SOL    HW112956   5.814   3.873   3.183
 4019SOL    HW212957   5.971   3.891   3.142
 4020SOL     OW12958   5.400   2.113   5.844
 4020SOL    HW112959   5.377   2.205   5.874
 4020SOL    HW212960   5.316   2.065   5.817
 4021SOL     OW12961   3.835   3.756   6.222
 4021SOL    HW112962   3.750   3.786   6.264
 4021SOL    HW212963   3.820   3.741   6.124
 4022SOL     OW12964   4.140   0.096   0.043
 4022SOL    HW112965   4.073   0.154   0.088
 4022SOL    HW212966   4.203   0.059   0.112
 4023SOL     OW12967   5.948   2.241   4.870
 4023SOL    HW112968   5.869   2.301   4.856
 4023SOL    HW212969   5.995   2.267   4.954
 4024SOL     OW12970   3.930   6.424   3.718
 4024SOL    HW112971   3.951   6.412   3.621
 4024SOL    HW212972   3.891   6.340   3.754
 4025SOL     OW12973   0.976   6.104   4.084
 4025SOL    HW112974   0.946   6.018   4.043
 4025SOL    HW212975   0.902   6.141   4.141
 4026SOL     OW12976   6.384   5.903   4.536
 4026SOL    HW112977   6.396   5.806   4.514
 4026SOL    HW212978   6.473   5.948   4.541
 4027SOL     OW12979   3.704   4.028   2.027
 4027SOL    HW112980   3.722   4.092   1.953
 4027SOL    HW212981   3.677   3.939   1.988
 4028SOL     OW12982   1.141   2.399   3.799
 4028SOL    HW112983   1.227   2.444   3.822
 4028SOL    HW212984   1.065   2.459   3.823
 4029SOL     OW12985   1.465   4.165   6.238
 4029SOL    HW112986   1.447   4.104   6.316
 4029SOL    HW212987   1.414   4.131   6.158
 4030SOL     OW12988   1.497   2.019   6.115
 4030SOL    HW112989   1.446   1.981   6.038
 4030SOL    HW212990   1.507   2.118   6.103
 4031SOL     OW12991   4.603   6.105   2.845
 4031SOL    HW112992   4.590   6.204   2.847
 4031SOL    HW212993   4.678   6.082   2.783
 4032SOL     OW12994   5.911   0.217   2.911
 4032SOL    HW112995   5.881   0.187   3.002
 4032SOL    HW212996   5.993   0.273   2.920
 4033SOL     OW12997   3.605   2.872   3.294
 4033SOL    HW112998   3.690   2.883   3.346
 4033SOL    HW212999   3.527   2.899   3.351
 4034SOL     OW13000   5.437   1.934   5.420
 4034SOL    HW113001   5.502   1.960   5.348
 4034SOL    HW213002   5.355   1.895   5.378
 4035SOL     OW13003   6.461   4.345   1.335
 4035SOL    HW113004   6.391   4.279   1.306
 4035SOL    HW213005   6.550   4.318   1.298
 4036SOL     OW13006   5.245   6.592   3.157
 4036SOL    HW113007   5.258   6.552   3.248
 4036SOL    HW213008   5.296   6.679   3.151
 4037SOL     OW13009   1.576   2.473   0.651
 4037SOL    HW113010   1.674   2.483   0.637
 4037SOL    HW213011   1.527   2.516   0.574
 4038SOL     OW13012   4.705   4.920   2.305
 4038SOL    HW113013   4.666   4.865   2.231
 4038SOL    HW213014   4.785   4.872   2.343
 4039SOL     OW13015   5.145   5.158   1.393
 4039SOL    HW113016   5.100   5.093   1.332
 4039SOL    HW213017   5.094   5.166   1.478
 4040SOL     OW13018   2.754   6.415   0.336
 4040SOL    HW113019   2.730   6.484   0.268
 4040SOL    HW213020   2.824   6.452   0.397
 4041SOL     OW13021   1.856   5.565   2.149
 4041SOL    HW113022   1.803   5.482   2.131
 4041SOL    HW213023   1.798   5.633   2.195
 4042SOL     OW13024   6.149   4.564   2.394
 4042SOL    HW113025   6.148   4.658   2.360
 4042SOL    HW213026   6.198   4.561   2.481
 4043SOL     OW13027   5.772   2.319   3.918
 4043SOL    HW113028   5.691   2.359   3.874
 4043SOL    HW213029   5.753   2.224   3.942
 4044SOL     OW13030   5.631   0.860   4.847
 4044SOL    HW113031   5.670   0.945   4.813
 4044SOL    HW213032   5.553   0.880   4.907
 4045SOL     OW13033   2.831   4.261   6.276
 4045SOL    HW113034   2.924   4.297   6.282
 4045SOL    HW213035   2.820   4.186   6.342
 4046SOL     OW13036   0.803   1.991   3.438
 4046SOL    HW113037   0.737   2.063   3.460
 4046SOL    HW213038   0.889   2.033   3.408
 4047SOL     OW13039   2.112   3.281   0.796
 4047SOL    HW113040   2.172   3.243   0.726
 4047SOL    HW213041   2.164   3.344   0.853
 4048SOL     OW13042   5.869   1.208   1.794
 4048SOL    HW113043   5.952   1.182   1.745
 4048SOL    HW213044   5.791   1.155   1.759
 4049SOL     OW13045   6.292   6.090   6.664
 4049SOL    HW113046   6.378   6.133   6.693
 4049SOL    HW213047   6.257   6.136   6.583
 4050SOL     OW13048   1.264   6.807   0.043
 4050SOL    HW113049   1.295   6.748   0.118
 4050SOL    HW213050   1.236   6.750   6.981
 4051SOL     OW13051   2.929   3.571   0.011
 4051SOL    HW113052   2.894   3.620   0.091
 4051SOL    HW213053   2.992   3.631   6.976
 4052SOL     OW13054   1.060   6.831   1.152
 4052SOL    HW113055   1.033   6.865   1.062
 4052SOL    HW213056   1.119   6.899   1.196
 4053SOL     OW13057   3.378   4.991   3.720
 4053SOL    HW113058   3.402   4.951   3.808
 4053SOL    HW213059   3.357   5.089   3.732
 4054SOL     OW13060   2.063   3.252   0.432
 4054SOL    HW113061   2.146   3.231   0.381
 4054SOL    HW213062   2.013   3.325   0.386
 4055SOL     OW13063   2.656   3.128   5.629
 4055SOL    HW113064   2.719   3.101   5.555
 4055SOL    HW213065   2.562   3.117   5.598
 4056SOL     OW13066   4.346   3.235   6.670
 4056SOL    HW113067   4.266   3.176   6.668
 4056SOL    HW213068   4.393   3.227   6.758
 4057SOL     OW13069   4.830   3.346   0.418
 4057SOL    HW113070   4.834   3.407   0.339
 4057SOL    HW213071   4.879   3.387   0.494
 4058SOL     OW13072   1.500   1.228   4.537
 4058SOL    HW113073   1.511   1.327   4.534
 4058SOL    HW213074   1.425   1.201   4.476
 4059SOL     OW13075   2.360   2.279   3.213
 4059SOL    HW113076   2.395   2.291   3.120
 4059SOL    HW213077   2.398   2.196   3.253
 4060SOL     OW13078   3.631   4.987   5.281
 4060SOL    HW113079   3.697   4.978   5.206
 4060SOL    HW213080   3.542   4.953   5.251
 4061SOL     OW13081   3.372   4.460   1.527
 4061SOL    HW113082   3.314   4.380   1.538
 4061SOL    HW213083   3.446   4.458   1.594
 4062SOL     OW13084   4.161   1.598   3.323
 4062SOL    HW113085   4.094   1.642   3.263
 4062SOL    HW213086   4.246   1.650   3.321
 4063SOL     OW13087   4.375   6.245   5.951
 4063SOL    HW113088   4.324   6.162   5.972
 4063SOL    HW213089   4.360   6.271   5.855
 4064SOL     OW13090   2.142   6.595   2.571
 4064SOL    HW113091   2.170   6.688   2.547
 4064SOL    HW213092   2.047   6.580   2.543
 4065SOL     OW13093   0.838   0.104   0.506
 4065SOL    HW113094   0.818   0.052   0.422
 4065SOL    HW213095   0.847   0.201   0.483
 4066SOL     OW13096   5.336   4.774   2.208
 4066SOL    HW113097   5.421   4.736   2.245
 4066SOL    HW213098   5.358   4.845   2.142
 4067SOL     OW13099   5.761   1.893   2.669
 4067SOL    HW113100   5.768   1.964   2.599
 4067SOL    HW213101   5.811   1.922   2.751
 4068SOL     OW13102   4.884   0.277   4.585
 4068SOL    HW113103   4.897   0.302   4.489
 4068SOL    HW213104   4.830   0.347   4.631
 4069SOL     OW13105   4.459   3.463   0.072
 4069SOL    HW113106   4.365   3.495   0.081
 4069SOL    HW213107   4.520   3.524   0.124
 4070SOL     OW13108   2.001   3.382   2.753
 4070SOL    HW113109   2.071   3.400   2.685
 4070SOL    HW213110   2.027   3.301   2.806
 4071SOL     OW13111   1.381   1.370   4.814
 4071SOL    HW113112   1.480   1.356   4.817
 4071SOL    HW213113   1.335   1.284   4.832
 4072SOL     OW13114   2.071   6.864   4.148
 4072SOL    HW113115   2.010   6.790   4.177
 4072SOL    HW213116   2.166   6.834   4.156
 4073SOL     OW13117   2.197   5.486   5.903
 4073SOL    HW113118   2.106   5.457   5.934
 4073SOL    HW213119   2.258   5.495   5.982
 4074SOL     OW13120   0.628   3.244   1.861
 4074SOL    HW113121   0.601   3.149   1.874
 4074SOL    HW213122   0.614   3.271   1.766
 4075SOL     OW13123   4.923   2.061   2.731
 4075SOL    HW113124   4.966   1.971   2.727
 4075SOL    HW213125   4.843   2.057   2.791
 4076SOL     OW13126   2.512   4.175   5.339
 4076SOL    HW113127   2.591   4.221   5.297
 4076SOL    HW213128   2.475   4.107   5.275
 4077SOL     OW13129   2.730   6.139   0.975
 4077SOL    HW113130   2.694   6.048   0.993
 4077SOL    HW213131   2.701   6.169   0.884
 4078SOL     OW13132   5.769   5.283   2.234
 4078SOL    HW113133   5.744   5.330   2.318
 4078SOL    HW213134   5.723   5.194   2.231
 4079SOL     OW13135   1.710   0.530   3.296
 4079SOL    HW113136   1.708   0.614   3.241
 4079SOL    HW213137   1.746   0.455   3.241
 4080SOL     OW13138   3.078   3.728   6.859
 4080SOL    HW113139   3.064   3.747   6.762
 4080SOL    HW213140   3.174   3.704   6.876
 4081SOL     OW13141   1.981   0.842   4.664
 4081SOL    HW113142   1.962   0.781   4.587
 4081SOL    HW213143   2.043   0.796   4.728
 4082SOL     OW13144   1.692   1.689   6.639
 4082SOL    HW113145   1.636   1.606   6.642
 4082SOL    HW213146   1.643   1.760   6.589
 4083SOL     OW13147   5.916   4.391   3.831
 4083SOL    HW113148   5.879   4.383   3.738
 4083SOL    HW213149   5.841   4.408   3.895
 4084SOL     OW13150   4.812   3.002   3.216
 4084SOL    HW113151   4.739   2.967   3.275
 4084SOL    HW213152   4.834   3.096   3.242
 4085SOL     OW13153   2.596   5.284   1.022
 4085SOL    HW113154   2.557   5.327   1.103
 4085SOL    HW213155   2.588   5.345   0.944
 4086SOL     OW13156   0.262   5.059   0.168
 4086SOL    HW113157   0.258   4.969   0.125
 4086SOL    HW213158   0.189   5.067   0.236
 4087SOL     OW13159   2.973   0.953   2.586
 4087SOL    HW113160   3.066   0.919   2.573
 4087SOL    HW213161   2.908   0.888   2.545
 4088SOL     OW13162   6.387   1.103   5.857
 4088SOL    HW113163   6.311   1.065   5.909
 4088SOL    HW213164   6.458   1.135   5.919
 4089SOL     OW13165   0.205   5.293   4.547
 4089SOL    HW113166   0.128   5.354   4.528
 4089SOL    HW213167   0.192   5.207   4.498
 4090SOL     OW13168   1.882   6.345   5.098
 4090SOL    HW113169   1.878   6.248   5.119
 4090SOL    HW213170   1.853   6.398   5.177
 4091SOL     OW13171   0.982   5.138   0.144
 4091SOL    HW113172   1.042   5.097   0.075
 4091SOL    HW213173   1.036   5.198   0.203
 4092SOL     OW13174   4.912   3.298   4.628
 4092SOL    HW113175   4.899   3.333   4.720
 4092SOL    HW213176   4.917   3.198   4.630
 4093SOL     OW13177   5.788   6.011   1.925
 4093SOL    HW113178   5.785   6.080   1.998
 4093SOL    HW213179   5.790   5.920   1.965
 4094SOL     OW13180   0.993   4.828   6.567
 4094SOL    HW113181   0.960   4.908   6.518
 4094SOL    HW213182   0.950   4.824   6.657
 4095SOL     OW13183   0.737   3.437   0.405
 4095SOL    HW113184   0.785   3.459   0.490
 4095SOL    HW213185   0.641   3.463   0.413
 4096SOL     OW13186   2.260   1.199   6.316
 4096SOL    HW113187   2.354   1.202   6.281
 4096SOL    HW213188   2.197   1.232   6.245
 4097SOL     OW13189   6.127   4.364   5.377
 4097SOL    HW113190   6.227   4.367   5.372
 4097SOL    HW213191   6.097   4.272   5.401
 4098SOL     OW13192   1.911   2.983   1.569
 4098SOL    HW113193   1.882   2.943   1.656
 4098SOL    HW213194   1.870   3.073   1.558
 4099SOL     OW13195   3.784   5.074   0.014
 4099SOL    HW113196   3.746   5.045   6.941
 4099SOL    HW213197   3.881   5.096   0.002
 4100SOL     OW13198   1.143   0.736   3.611
 4100SOL    HW113199   1.099   0.696   3.692
 4100SOL    HW213200   1.232   0.775   3.637
 4101SOL     OW13201   6.781   0.983   6.264
 4101SOL    HW113202   6.862   0.996   6.206
 4101SOL    HW213203   6.806   0.930   6.344
 4102SOL     OW13204   1.937   0.694   0.797
 4102SOL    HW113205   2.009   0.698   0.728
 4102SOL    HW213206   1.866   0.630   0.767
 4103SOL     OW13207   6.945   0.128   2.183
 4103SOL    HW113208   6.951   0.093   2.276
 4103SOL    HW213209   7.011   0.203   2.171
 4104SOL     OW13210   0.384   5.192   3.057
 4104SOL    HW113211   0.298   5.177   3.107
 4104SOL    HW213212   0.364   5.212   2.961
 4105SOL     OW13213   4.901   1.295   1.909
 4105SOL    HW113214   4.863   1.387   1.918
 4105SOL    HW213215   4.827   1.229   1.899
 4106SOL     OW13216   6.924   2.403   3.843
 4106SOL    HW113217   6.942   2.307   3.866
 4106SOL    HW213218   6.965   2.463   3.911
 4107SOL     OW13219   0.345   6.050   6.703
 4107SOL    HW113220   0.355   6.113   6.780
 4107SOL    HW213221   0.414   6.071   6.634
 4108SOL     OW13222   0.759   5.706   4.213
 4108SOL    HW113223   0.839   5.651   4.239
 4108SOL    HW213224   0.783   5.766   4.137
 4109SOL     OW13225   5.882   5.947   3.618
 4109SOL    HW113226   5.843   5.999   3.694
 4109SOL    HW213227   5.947   5.881   3.653
 4110SOL     OW13228   3.946   2.892   6.400
 4110SOL    HW113229   3.990   2.981   6.410
 4110SOL    HW213230   3.998   2.836   6.337
 4111SOL     OW13231   5.764   5.032   6.181
 4111SOL    HW113232   5.746   5.125   6.213
 4111SOL    HW213233   5.697   4.970   6.222
 4112SOL     OW13234   5.277   0.038   4.856
 4112SOL    HW113235   5.368   0.077   4.870
 4112SOL    HW213236   5.212   0.112   4.835
 4113SOL     OW13237   4.237   5.107   4.961
 4113SOL    HW113238   4.283   5.040   4.902
 4113SOL    HW213239   4.303   5.178   4.989
 4114SOL     OW13240   6.188   1.031   3.328
 4114SOL    HW113241   6.154   0.988   3.245
 4114SOL    HW213242   6.261   1.095   3.305
 4115SOL     OW13243   2.559   4.747   3.259
 4115SOL    HW113244   2.606   4.699   3.333
 4115SOL    HW213245   2.554   4.844   3.280
 4116SOL     OW13246   5.383   2.727   3.559
 4116SOL    HW113247   5.345   2.637   3.581
 4116SOL    HW213248   5.461   2.716   3.497
 4117SOL     OW13249   1.448   1.905   2.689
 4117SOL    HW113250   1.404   1.993   2.704
 4117SOL    HW213251   1.449   1.884   2.591
 4118SOL     OW13252   6.562   6.708   6.145
 4118SOL    HW113253   6.554   6.731   6.048
 4118SOL    HW213254   6.529   6.785   6.200
 4119SOL     OW13255   3.247   0.790   3.090
 4119SOL    HW113256   3.347   0.796   3.099
 4119SOL    HW213257   3.211   0.877   3.056
 4120SOL     OW13258   4.270   1.586   6.291
 4120SOL    HW113259   4.305   1.582   6.197
 4120SOL    HW213260   4.224   1.673   6.305
 4121SOL     OW13261   6.543   6.613   2.316
 4121SOL    HW113262   6.639   6.642   2.319
 4121SOL    HW213263   6.539   6.513   2.313
 4122SOL     OW13264   0.752   6.327   4.878
 4122SOL    HW113265   0.833   6.272   4.856
 4122SOL    HW213266   0.714   6.365   4.793
 4123SOL     OW13267   4.395   5.624   4.666
 4123SOL    HW113268   4.352   5.534   4.672
 4123SOL    HW213269   4.401   5.664   4.757
 4124SOL     OW13270   6.656   6.502   1.191
 4124SOL    HW113271   6.566   6.459   1.197
 4124SOL    HW213272   6.654   6.575   1.123
 4125SOL     OW13273   4.770   2.845   2.713
 4125SOL    HW113274   4.753   2.867   2.809
 4125SOL    HW213275   4.846   2.780   2.707
 4126SOL     OW13276   1.703   3.026   2.147
 4126SOL    HW113277   1.714   2.927   2.151
 4126SOL    HW213278   1.641   3.056   2.219
 4127SOL     OW13279   4.256   2.225   4.627
 4127SOL    HW113280   4.281   2.143   4.679
 4127SOL    HW213281   4.276   2.306   4.682
 4128SOL     OW13282   0.469   2.958   1.775
 4128SOL    HW113283   0.533   2.903   1.828
 4128SOL    HW213284   0.455   2.916   1.685
 4129SOL     OW13285   3.433   1.628   0.495
 4129SOL    HW113286   3.462   1.701   0.434
 4129SOL    HW213287   3.362   1.663   0.557
 4130SOL     OW13288   6.193   2.684   0.878
 4130SOL    HW113289   6.095   2.667   0.889
 4130SOL    HW213290   6.211   2.782   0.883
 4131SOL     OW13291   6.596   0.730   2.340
 4131SOL    HW113292   6.555   0.725   2.431
 4131SOL    HW213293   6.677   0.790   2.343
 4132SOL     OW13294   6.035   3.923   4.126
 4132SOL    HW113295   5.993   3.895   4.213
 4132SOL    HW213296   6.122   3.968   4.144
 4133SOL     OW13297   4.632   6.300   1.246
 4133SOL    HW113298   4.732   6.303   1.254
 4133SOL    HW213299   4.602   6.206   1.229
 4134SOL     OW13300   2.511   3.472   0.691
 4134SOL    HW113301   2.562   3.540   0.638
 4134SOL    HW213302   2.414   3.478   0.666
 4135SOL     OW13303   0.357   2.315   2.856
 4135SOL    HW113304   0.431   2.326   2.923
 4135SOL    HW213305   0.344   2.218   2.837
 4136SOL     OW13306   1.181   3.690   1.675
 4136SOL    HW113307   1.172   3.617   1.608
 4136SOL    HW213308   1.092   3.711   1.715
 4137SOL     OW13309   1.133   2.749   0.324
 4137SOL    HW113310   1.134   2.688   0.245
 4137SOL    HW213311   1.164   2.840   0.296
 4138SOL     OW13312   4.281   4.966   1.180
 4138SOL    HW113313   4.228   4.903   1.236
 4138SOL    HW213314   4.342   5.019   1.239
 4139SOL     OW13315   1.158   2.117   3.895
 4139SOL    HW113316   1.085   2.060   3.858
 4139SOL    HW213317   1.135   2.214   3.882
 4140SOL     OW13318   3.383   2.007   4.062
 4140SOL    HW113319   3.299   2.028   4.112
 4140SOL    HW213320   3.460   2.056   4.102
 4141SOL     OW13321   4.727   0.227   0.081
 4141SOL    HW113322   4.689   0.241   0.172
 4141SOL    HW213323   4.818   0.185   0.089
 4142SOL     OW13324   6.883   4.215   1.899
 4142SOL    HW113325   6.786   4.228   1.922
 4142SOL    HW213326   6.906   4.118   1.904
 4143SOL     OW13327   5.207   3.331   0.865
 4143SOL    HW113328   5.171   3.265   0.800
 4143SOL    HW213329   5.136   3.356   0.930
 4144SOL     OW13330   5.331   1.600   0.282
 4144SOL    HW113331   5.293   1.626   0.370
 4144SOL    HW213332   5.345   1.501   0.280
 4145SOL     OW13333   1.289   6.156   0.743
 4145SOL    HW113334   1.365   6.217   0.763
 4145SOL    HW213335   1.310   6.103   0.661
 4146SOL     OW13336   6.149   0.442   4.254
 4146SOL    HW113337   6.203   0.389   4.320
 4146SOL    HW213338   6.208   0.509   4.209
 4147SOL     OW13339   5.849   4.592   6.080
 4147SOL    HW113340   5.891   4.605   6.170
 4147SOL    HW213341   5.791   4.510   6.082
 4148SOL     OW13342   2.848   0.236   5.465
 4148SOL    HW113343   2.847   0.331   5.435
 4148SOL    HW213344   2.767   0.189   5.430
 4149SOL     OW13345   0.298   3.382   1.681
 4149SOL    HW113346   0.346   3.468   1.664
 4149SOL    HW213347   0.206   3.402   1.717
 4150SOL     OW13348   6.868   2.110   5.370
 4150SOL    HW113349   6.956   2.083   5.331
 4150SOL    HW213350   6.798   2.043   5.345
 4151SOL     OW13351   1.778   0.298   5.168
 4151SOL    HW113352   1.806   0.390   5.194
 4151SOL    HW213353   1.730   0.256   5.245
 4152SOL     OW13354   4.035   5.886   1.918
 4152SOL    HW113355   3.994   5.957   1.975
 4152SOL    HW213356   3.993   5.888   1.827
 4153SOL     OW13357   6.940   5.048   1.823
 4153SOL    HW113358   6.938   5.004   1.913
 4153SOL    HW213359   6.898   5.139   1.830
 4154SOL     OW13360   0.601   5.533   3.471
 4154SOL    HW113361   0.588   5.436   3.494
 4154SOL    HW213362   0.603   5.544   3.372
 4155SOL     OW13363   6.801   2.096   1.364
 4155SOL    HW113364   6.879   2.105   1.302
 4155SOL    HW213365   6.719   2.128   1.318
 4156SOL     OW13366   6.609   5.199   5.061
 4156SOL    HW113367   6.551   5.161   4.989
 4156SOL    HW213368   6.552   5.250   5.126
 4157SOL     OW13369   5.949   6.054   2.881
 4157SOL    HW113370   5.970   6.089   2.972
 4157SOL    HW213371   5.851   6.038   2.873
 4158SOL     OW13372   2.015   2.590   1.997
 4158SOL    HW113373   2.079   2.519   1.968
 4158SOL    HW213374   1.922   2.563   1.972
 4159SOL     OW13375   2.778   2.154   3.404
 4159SOL    HW113376   2.797   2.062   3.437
 4159SOL    HW213377   2.762   2.214   3.483
 4160SOL     OW13378   5.733   0.301   0.114
 4160SOL    HW113379   5.817   0.250   0.132
 4160SOL    HW213380   5.661   0.270   0.175
 4161SOL     OW13381   1.698   2.155   1.705
 4161SOL    HW113382   1.630   2.228   1.715
 4161SOL    HW213383   1.767   2.183   1.638
 4162SOL     OW13384   6.312   5.656   1.514
 4162SOL    HW113385   6.312   5.614   1.605
 4162SOL    HW213386   6.321   5.584   1.445
 4163SOL     OW13387   5.806   1.400   3.081
 4163SOL    HW113388   5.730   1.345   3.046
 4163SOL    HW213389   5.834   1.466   3.012
 4164SOL     OW13390   0.874   6.988   5.621
 4164SOL    HW113391   0.785   6.950   5.647
 4164SOL    HW213392   0.914   6.932   5.549
 4165SOL     OW13393   4.538   6.964   6.105
 4165SOL    HW113394   4.563   0.033   6.057
 4165SOL    HW213395   4.544   6.886   6.042
 4166SOL     OW13396   5.732   1.337   1.549
 4166SOL    HW113397   5.777   1.417   1.588
 4166SOL    HW213398   5.792   1.257   1.560
 4167SOL     OW13399   2.914   5.207   6.336
 4167SOL    HW113400   2.901   5.134   6.269
 4167SOL    HW213401   2.894   5.295   6.294
 4168SOL     OW13402   6.967   4.267   0.567
 4168SOL    HW113403   6.977   4.169   0.579
 4168SOL    HW213404   6.998   4.293   0.475
 4169SOL     OW13405   5.980   3.813   5.269
 4169SOL    HW113406   5.925   3.730   5.280
 4169SOL    HW213407   5.940   3.871   5.198
 4170SOL     OW13408   4.754   2.852   4.949
 4170SOL    HW113409   4.683   2.795   4.991
 4170SOL    HW213410   4.725   2.880   4.858
 4171SOL     OW13411   0.901   5.394   1.092
 4171SOL    HW113412   0.806   5.373   1.073
 4171SOL    HW213413   0.953   5.396   1.006
 4172SOL     OW13414   2.372   2.867   0.416
 4172SOL    HW113415   2.404   2.774   0.431
 4172SOL    HW213416   2.450   2.926   0.392
 4173SOL     OW13417   4.950   2.856   5.544
 4173SOL    HW113418   4.932   2.759   5.533
 4173SOL    HW213419   4.863   2.907   5.537
 4174SOL     OW13420   5.135   1.555   2.339
 4174SOL    HW113421   5.203   1.510   2.282
 4174SOL    HW213422   5.134   1.512   2.430
 4175SOL     OW13423   1.735   4.376   4.954
 4175SOL    HW113424   1.737   4.364   4.855
 4175SOL    HW213425   1.803   4.445   4.980
 4176SOL     OW13426   4.269   6.805   1.683
 4176SOL    HW113427   4.315   6.722   1.714
 4176SOL    HW213428   4.203   6.783   1.611
 4177SOL     OW13429   5.409   4.587   5.202
 4177SOL    HW113430   5.311   4.565   5.206
 4177SOL    HW213431   5.460   4.524   5.261
 4178SOL     OW13432   4.295   0.187   3.094
 4178SOL    HW113433   4.229   0.132   3.044
 4178SOL    HW213434   4.255   0.277   3.113
 4179SOL     OW13435   5.284   3.938   3.322
 4179SOL    HW113436   5.360   3.985   3.278
 4179SOL    HW213437   5.309   3.843   3.338
 4180SOL     OW13438   4.858   2.936   1.023
 4180SOL    HW113439   4.904   2.963   0.938
 4180SOL    HW213440   4.859   2.837   1.032
 4181SOL     OW13441   5.010   0.800   6.636
 4181SOL    HW113442   5.009   0.732   6.708
 4181SOL    HW213443   5.037   0.889   6.674
 4182SOL     OW13444   0.635   5.086   3.109
 4182SOL    HW113445   0.554   5.138   3.082
 4182SOL    HW213446   0.626   4.992   3.077
 4183SOL     OW13447   2.839   1.181   0.534
 4183SOL    HW113448   2.850   1.229   0.447
 4183SOL    HW213449   2.873   1.237   0.609
 4184SOL     OW13450   3.747   0.378   2.275
 4184SOL    HW113451   3.843   0.365   2.301
 4184SOL    HW213452   3.726   0.319   2.197
 4185SOL     OW13453   0.808   3.880   3.032
 4185SOL    HW113454   0.805   3.948   2.958
 4185SOL    HW213455   0.720   3.878   3.079
 4186SOL     OW13456   2.136   5.951   6.380
 4186SOL    HW113457   2.163   5.907   6.295
 4186SOL    HW213458   2.212   5.947   6.445
 4187SOL     OW13459   2.409   3.081   6.271
 4187SOL    HW113460   2.472   3.037   6.207
 4187SOL    HW213461   2.342   3.014   6.302
 4188SOL     OW13462   5.410   0.906   5.010
 4188SOL    HW113463   5.448   0.991   5.045
 4188SOL    HW213464   5.351   0.925   4.931
 4189SOL     OW13465   3.716   4.897   4.415
 4189SOL    HW113466   3.633   4.857   4.453
 4189SOL    HW213467   3.719   4.879   4.317
 4190SOL     OW13468   0.604   6.873   0.741
 4190SOL    HW113469   0.606   6.853   0.839
 4190SOL    HW213470   0.645   6.963   0.725
 4191SOL     OW13471   5.501   3.913   4.990
 4191SOL    HW113472   5.583   3.933   5.043
 4191SOL    HW213473   5.525   3.858   4.910
 4192SOL     OW13474   0.996   1.346   2.597
 4192SOL    HW113475   1.000   1.402   2.679
 4192SOL    HW213476   1.027   1.400   2.518
 4193SOL     OW13477   5.197   0.599   0.517
 4193SOL    HW113478   5.203   0.698   0.504
 4193SOL    HW213479   5.210   0.578   0.614
 4194SOL     OW13480   4.913   0.254   4.307
 4194SOL    HW113481   4.933   0.160   4.333
 4194SOL    HW213482   4.971   0.280   4.230
 4195SOL     OW13483   4.071   5.092   1.744
 4195SOL    HW113484   4.077   5.133   1.835
 4195SOL    HW213485   3.990   5.127   1.697
 4196SOL     OW13486   6.850   2.431   2.884
 4196SOL    HW113487   6.889   2.366   2.949
 4196SOL    HW213488   6.753   2.411   2.872
 4197SOL     OW13489   4.418   5.305   5.626
 4197SOL    HW113490   4.429   5.392   5.577
 4197SOL    HW213491   4.321   5.281   5.632
 4198SOL     OW13492   6.391   1.666   1.202
 4198SOL    HW113493   6.316   1.721   1.239
 4198SOL    HW213494   6.450   1.724   1.146
 4199SOL     OW13495   1.142   2.209   5.382
 4199SOL    HW113496   1.198   2.147   5.438
 4199SOL    HW213497   1.092   2.271   5.442
 4200SOL     OW13498   2.832   0.534   6.376
 4200SOL    HW113499   2.773   0.559   6.453
 4200SOL    HW213500   2.795   0.454   6.330
 4201SOL     OW13501   6.318   0.113   3.483
 4201SOL    HW113502   6.401   0.064   3.457
 4201SOL    HW213503   6.249   0.048   3.512
 4202SOL     OW13504   2.352   5.514   6.111
 4202SOL    HW113505   2.292   5.478   6.183
 4202SOL    HW213506   2.440   5.539   6.150
 4203SOL     OW13507   4.836   4.475   0.459
 4203SOL    HW113508   4.755   4.493   0.404
 4203SOL    HW213509   4.849   4.549   0.525
 4204SOL     OW13510   3.860   3.517   4.776
 4204SOL    HW113511   3.890   3.607   4.808
 4204SOL    HW213512   3.852   3.518   4.676
 4205SOL     OW13513   4.270   6.071   4.785
 4205SOL    HW113514   4.219   6.077   4.699
 4205SOL    HW213515   4.282   6.162   4.824
 4206SOL     OW13516   6.267   1.665   5.079
 4206SOL    HW113517   6.178   1.674   5.123
 4206SOL    HW213518   6.275   1.731   5.005
 4207SOL     OW13519   2.110   2.854   1.914
 4207SOL    HW113520   2.052   2.932   1.938
 4207SOL    HW213521   2.070   2.771   1.952
 4208SOL     OW13522   0.154   3.366   5.286
 4208SOL    HW113523   0.152   3.462   5.314
 4208SOL    HW213524   0.128   3.358   5.190
 4209SOL     OW13525   6.866   6.199   3.454
 4209SOL    HW113526   6.860   6.195   3.354
 4209SOL    HW213527   6.947   6.148   3.484
 4210SOL     OW13528   3.041   3.027   2.864
 4210SOL    HW113529   3.003   2.946   2.910
 4210SOL    HW213530   3.138   3.036   2.887
 4211SOL     OW13531   3.926   0.389   5.193
 4211SOL    HW113532   3.885   0.368   5.282
 4211SOL    HW213533   3.998   0.323   5.173
 4212SOL     OW13534   6.244   1.729   2.993
 4212SOL    HW113535   6.247   1.642   2.944
 4212SOL    HW213536   6.336   1.752   3.026
 4213SOL     OW13537   2.845   0.357   2.296
 4213SOL    HW113538   2.813   0.433   2.239
 4213SOL    HW213539   2.879   0.393   2.383
 4214SOL     OW13540   0.328   5.616   5.521
 4214SOL    HW113541   0.323   5.517   5.511
 4214SOL    HW213542   0.276   5.644   5.602
 4215SOL     OW13543   5.116   6.929   5.406
 4215SOL    HW113544   5.110   6.995   5.332
 4215SOL    HW213545   5.158   6.972   5.486
 4216SOL     OW13546   1.557   0.868   2.787
 4216SOL    HW113547   1.572   0.952   2.735
 4216SOL    HW213548   1.508   0.802   2.731
 4217SOL     OW13549   1.162   0.959   2.710
 4217SOL    HW113550   1.062   0.955   2.710
 4217SOL    HW213551   1.199   0.878   2.664
 4218SOL     OW13552   3.339   0.802   1.560
 4218SOL    HW113553   3.402   0.724   1.554
 4218SOL    HW213554   3.356   0.864   1.484
 4219SOL     OW13555   4.646   5.975   4.596
 4219SOL    HW113556   4.632   5.952   4.693
 4219SOL    HW213557   4.559   5.972   4.548
 4220SOL     OW13558   6.373   3.065   2.537
 4220SOL    HW113559   6.373   3.165   2.540
 4220SOL    HW213560   6.418   3.035   2.453
 4221SOL     OW13561   5.518   4.267   5.793
 4221SOL    HW113562   5.529   4.181   5.744
 4221SOL    HW213563   5.523   4.249   5.892
 4222SOL     OW13564   6.554   1.341   2.448
 4222SOL    HW113565   6.574   1.327   2.545
 4222SOL    HW213566   6.468   1.296   2.425
 4223SOL     OW13567   3.215   3.986   0.783
 4223SOL    HW113568   3.174   3.897   0.764
 4223SOL    HW213569   3.303   3.973   0.829
 4224SOL     OW13570   5.639   5.168   4.453
 4224SOL    HW113571   5.573   5.125   4.515
 4224SOL    HW213572   5.678   5.249   4.497
 4225SOL     OW13573   1.892   2.725   5.150
 4225SOL    HW113574   1.936   2.813   5.133
 4225SOL    HW213575   1.849   2.726   5.241
 4226SOL     OW13576   0.791   6.327   2.956
 4226SOL    HW113577   0.725   6.264   2.997
 4226SOL    HW213578   0.860   6.274   2.907
 4227SOL     OW13579   3.509   5.574   1.995
 4227SOL    HW113580   3.561   5.494   1.964
 4227SOL    HW213581   3.449   5.605   1.921
 4228SOL     OW13582   0.648   6.299   5.855
 4228SOL    HW113583   0.603   6.313   5.767
 4228SOL    HW213584   0.667   6.388   5.897
 4229SOL     OW13585   4.727   6.017   5.847
 4229SOL    HW113586   4.811   5.966   5.831
 4229SOL    HW213587   4.748   6.113   5.863
 4230SOL     OW13588   1.810   6.257   3.095
 4230SOL    HW113589   1.852   6.307   3.170
 4230SOL    HW213590   1.711   6.255   3.107
 4231SOL     OW13591   5.015   7.005   6.135
 4231SOL    HW113592   4.928   0.002   6.089
 4231SOL    HW213593   5.046   6.911   6.126
 4232SOL     OW13594   1.364   4.429   3.010
 4232SOL    HW113595   1.461   4.409   3.018
 4232SOL    HW213596   1.315   4.346   2.983
 4233SOL     OW13597   6.310   0.698   4.875
 4233SOL    HW113598   6.404   0.701   4.840
 4233SOL    HW213599   6.311   0.718   4.973
 4234SOL     OW13600   1.923   5.096   5.425
 4234SOL    HW113601   2.017   5.074   5.450
 4234SOL    HW213602   1.922   5.178   5.367
 4235SOL     OW13603   6.342   4.095   5.824
 4235SOL    HW113604   6.309   4.069   5.915
 4235SOL    HW213605   6.441   4.080   5.818
 4236SOL     OW13606   6.167   3.897   2.098
 4236SOL    HW113607   6.235   3.854   2.038
 4236SOL    HW213608   6.081   3.908   2.048
 4237SOL     OW13609   6.067   5.159   4.003
 4237SOL    HW113610   5.972   5.140   4.029
 4237SOL    HW213611   6.085   5.257   4.012
 4238SOL     OW13612   1.765   6.557   3.110
 4238SOL    HW113613   1.849   6.520   3.070
 4238SOL    HW213614   1.686   6.515   3.068
 4239SOL     OW13615   4.861   1.508   3.206
 4239SOL    HW113616   4.934   1.516   3.138
 4239SOL    HW213617   4.774   1.490   3.159
 4240SOL     OW13618   2.112   5.665   0.431
 4240SOL    HW113619   2.205   5.674   0.467
 4240SOL    HW213620   2.095   5.571   0.402
 4241SOL     OW13621   5.524   1.119   0.890
 4241SOL    HW113622   5.441   1.147   0.841
 4241SOL    HW213623   5.590   1.194   0.889
 4242SOL     OW13624   3.125   2.184   4.408
 4242SOL    HW113625   3.038   2.232   4.422
 4242SOL    HW213626   3.129   2.149   4.315
 4243SOL     OW13627   5.459   2.505   2.813
 4243SOL    HW113628   5.495   2.597   2.832
 4243SOL    HW213629   5.506   2.439   2.871
 4244SOL     OW13630   4.200   4.405   1.482
 4244SOL    HW113631   4.165   4.312   1.491
 4244SOL    HW213632   4.252   4.430   1.563
 4245SOL     OW13633   6.545   1.865   6.025
 4245SOL    HW113634   6.595   1.783   6.052
 4245SOL    HW213635   6.507   1.910   6.107
 4246SOL     OW13636   6.665   3.579   2.816
 4246SOL    HW113637   6.620   3.521   2.884
 4246SOL    HW213638   6.755   3.606   2.850
 4247SOL     OW13639   2.494   5.875   3.617
 4247SOL    HW113640   2.467   5.835   3.704
 4247SOL    HW213641   2.519   5.971   3.630
 4248SOL     OW13642   3.402   1.130   3.699
 4248SOL    HW113643   3.475   1.153   3.635
 4248SOL    HW213644   3.427   1.048   3.750
 4249SOL     OW13645   6.922   2.779   4.859
 4249SOL    HW113646   6.928   2.716   4.781
 4249SOL    HW213647   6.991   2.754   4.927
 4250SOL     OW13648   6.363   4.308   2.663
 4250SOL    HW113649   6.387   4.405   2.652
 4250SOL    HW213650   6.444   4.257   2.693
 4251SOL     OW13651   5.992   4.663   0.924
 4251SOL    HW113652   6.062   4.713   0.976
 4251SOL    HW213653   6.018   4.567   0.916
 4252SOL     OW13654   6.081   6.315   5.335
 4252SOL    HW113655   6.003   6.373   5.355
 4252SOL    HW213656   6.163   6.354   5.377
 4253SOL     OW13657   3.276   6.549   0.893
 4253SOL    HW113658   3.351   6.572   0.831
 4253SOL    HW213659   3.195   6.525   0.839
 4254SOL     OW13660   0.845   2.553   2.254
 4254SOL    HW113661   0.780   2.487   2.291
 4254SOL    HW213662   0.935   2.537   2.295
 4255SOL     OW13663   5.720   3.821   3.336
 4255SOL    HW113664   5.650   3.845   3.404
 4255SOL    HW213665   5.742   3.724   3.344
 4256SOL     OW13666   1.451   0.190   0.580
 4256SOL    HW113667   1.459   0.273   0.636
 4256SOL    HW213668   1.356   0.179   0.551
 4257SOL     OW13669   3.476   0.354   3.820
 4257SOL    HW113670   3.532   0.271   3.816
 4257SOL    HW213671   3.484   0.396   3.910
 4258SOL     OW13672   5.371   6.216   1.516
 4258SOL    HW113673   5.326   6.191   1.602
 4258SOL    HW213674   5.470   6.208   1.526
 4259SOL     OW13675   2.757   0.824   6.987
 4259SOL    HW113676   2.747   0.919   0.000
 4259SOL    HW213677   2.842   0.813   6.937
 4260SOL     OW13678   4.649   0.158   6.290
 4260SOL    HW113679   4.727   0.128   6.345
 4260SOL    HW213680   4.564   0.126   6.331
 4261SOL     OW13681   1.662   0.169   1.699
 4261SOL    HW113682   1.644   0.261   1.735
 4261SOL    HW213683   1.716   0.118   1.766
 4262SOL     OW13684   0.491   4.142   5.088
 4262SOL    HW113685   0.544   4.214   5.043
 4262SOL    HW213686   0.486   4.160   5.186
 4263SOL     OW13687   2.633   6.350   3.374
 4263SOL    HW113688   2.648   6.423   3.441
 4263SOL    HW213689   2.631   6.390   3.282
 4264SOL     OW13690   0.303   2.601   2.873
 4264SOL    HW113691   0.311   2.502   2.870
 4264SOL    HW213692   0.273   2.629   2.965
 4265SOL     OW13693   5.456   1.431   0.791
 4265SOL    HW113694   5.419   1.359   0.732
 4265SOL    HW213695   5.554   1.415   0.805
 4266SOL     OW13696   1.915   4.837   0.188
 4266SOL    HW113697   1.992   4.898   0.174
 4266SOL    HW213698   1.833   4.877   0.147
 4267SOL     OW13699   1.979   3.631   4.525
 4267SOL    HW113700   1.995   3.689   4.604
 4267SOL    HW213701   1.897   3.576   4.540
 4268SOL     OW13702   1.294   6.286   6.253
 4268SOL    HW113703   1.292   6.285   6.353
 4268SOL    HW213704   1.203   6.262   6.217
 4269SOL     OW13705   2.285   1.023   1.871
 4269SOL    HW113706   2.342   0.941   1.873
 4269SOL    HW213707   2.325   1.094   1.929
 4270SOL     OW13708   3.835   3.391   3.811
 4270SOL    HW113709   3.932   3.370   3.824
 4270SOL    HW213710   3.826   3.481   3.768
 4271SOL     OW13711   0.357   1.434   0.045
 4271SOL    HW113712   0.355   1.455   6.962
 4271SOL    HW213713   0.263   1.434   0.081
 4272SOL     OW13714   0.398   3.328   4.986
 4272SOL    HW113715   0.330   3.402   4.986
 4272SOL    HW213716   0.466   3.345   4.915
 4273SOL     OW13717   4.859   5.895   5.297
 4273SOL    HW113718   4.911   5.878   5.381
 4273SOL    HW213719   4.827   5.990   5.296
 4274SOL     OW13720   1.773   0.064   1.938
 4274SOL    HW113721   1.745   0.105   2.024
 4274SOL    HW213722   1.867   0.089   1.917
 4275SOL     OW13723   6.559   1.080   4.789
 4275SOL    HW113724   6.475   1.045   4.829
 4275SOL    HW213725   6.538   1.131   4.705
 4276SOL     OW13726   1.921   4.881   3.843
 4276SOL    HW113727   1.965   4.839   3.923
 4276SOL    HW213728   1.981   4.949   3.803
 4277SOL     OW13729   6.311   4.576   4.080
 4277SOL    HW113730   6.357   4.503   4.131
 4277SOL    HW213731   6.303   4.550   3.984
 4278SOL     OW13732   0.567   0.713   4.356
 4278SOL    HW113733   0.593   0.623   4.389
 4278SOL    HW213734   0.610   0.783   4.413
 4279SOL     OW13735   3.755   6.829   5.000
 4279SOL    HW113736   3.821   6.902   4.979
 4279SOL    HW213737   3.662   6.863   4.982
 4280SOL     OW13738   5.206   0.617   5.791
 4280SOL    HW113739   5.137   0.546   5.802
 4280SOL    HW213740   5.281   0.600   5.855
 4281SOL     OW13741   0.970   5.321   3.992
 4281SOL    HW113742   1.060   5.365   3.987
 4281SOL    HW213743   0.912   5.355   3.919
 4282SOL     OW13744   3.434   3.706   6.497
 4282SOL    HW113745   3.451   3.636   6.427
 4282SOL    HW213746   3.520   3.753   6.518
 4283SOL     OW13747   2.640   0.807   3.353
 4283SOL    HW113748   2.724   0.787   3.402
 4283SOL    HW213749   2.648   0.895   3.305
 4284SOL     OW13750   4.474   5.053   1.381
 4284SOL    HW113751   4.499   5.109   1.460
 4284SOL    HW213752   4.548   4.989   1.360
 4285SOL     OW13753   0.621   0.897   6.007
 4285SOL    HW113754   0.636   0.930   6.100
 4285SOL    HW213755   0.525   0.874   5.994
 4286SOL     OW13756   4.758   6.063   6.260
 4286SOL    HW113757   4.698   6.119   6.202
 4286SOL    HW213758   4.809   6.122   6.322
 4287SOL     OW13759   5.659   1.472   6.826
 4287SOL    HW113760   5.593   1.463   6.751
 4287SOL    HW213761   5.731   1.536   6.799
 4288SOL     OW13762   1.475   6.018   3.525
 4288SOL    HW113763   1.546   5.973   3.581
 4288SOL    HW213764   1.385   5.993   3.560
 4289SOL     OW13765   6.660   3.373   0.751
 4289SOL    HW113766   6.753   3.387   0.785
 4289SOL    HW213767   6.663   3.313   0.670
 4290SOL     OW13768   2.098   6.990   2.854
 4290SOL    HW113769   2.113   0.069   2.883
 4290SOL    HW213770   2.000   6.969   2.858
 4291SOL     OW13771   3.918   3.940   1.211
 4291SOL    HW113772   3.899   3.887   1.294
 4291SOL    HW213773   4.016   3.938   1.192
 4292SOL     OW13774   6.357   4.755   6.287
 4292SOL    HW113775   6.423   4.768   6.213
 4292SOL    HW213776   6.268   4.792   6.260
 4293SOL     OW13777   1.072   3.391   0.887
 4293SOL    HW113778   1.066   3.293   0.903
 4293SOL    HW213779   1.146   3.411   0.823
 4294SOL     OW13780   3.121   2.924   0.009
 4294SOL    HW113781   3.073   2.865   6.959
 4294SOL    HW213782   3.061   2.999   0.035
 4295SOL     OW13783   4.034   5.794   4.507
 4295SOL    HW113784   4.011   5.785   4.604
 4295SOL    HW213785   4.088   5.714   4.479
 4296SOL     OW13786   4.467   0.685   0.541
 4296SOL    HW113787   4.401   0.733   0.599
 4296SOL    HW213788   4.436   0.686   0.446
 4297SOL     OW13789   5.488   1.031   6.722
 4297SOL    HW113790   5.447   1.109   6.770
 4297SOL    HW213791   5.453   0.946   6.761
 4298SOL     OW13792   3.213   5.578   0.016
 4298SOL    HW113793   3.167   5.659   6.993
 4298SOL    HW213794   3.310   5.598   0.029
 4299SOL     OW13795   1.232   2.984   0.271
 4299SOL    HW113796   1.254   3.017   0.363
 4299SOL    HW213797   1.298   3.022   0.206
 4300SOL     OW13798   3.833   0.901   0.212
 4300SOL    HW113799   3.879   0.972   0.264
 4300SOL    HW213800   3.738   0.894   0.242
 4301SOL     OW13801   3.507   1.977   0.884
 4301SOL    HW113802   3.496   1.882   0.856
 4301SOL    HW213803   3.596   1.989   0.929
 4302SOL     OW13804   1.199   6.844   5.566
 4302SOL    HW113805   1.282   6.805   5.525
 4302SOL    HW213806   1.168   6.921   5.510
 4303SOL     OW13807   5.861   4.688   4.136
 4303SOL    HW113808   5.784   4.658   4.081
 4303SOL    HW213809   5.940   4.706   4.076
 4304SOL     OW13810   3.115   4.005   3.247
 4304SOL    HW113811   3.202   4.014   3.200
 4304SOL    HW213812   3.057   3.940   3.199
 4305SOL     OW13813   6.430   0.583   4.556
 4305SOL    HW113814   6.473   0.536   4.633
 4305SOL    HW213815   6.447   0.531   4.472
 4306SOL     OW13816   6.648   3.545   6.728
 4306SOL    HW113817   6.644   3.507   6.636
 4306SOL    HW213818   6.679   3.475   6.792
 4307SOL     OW13819   4.578   3.316   5.904
 4307SOL    HW113820   4.657   3.377   5.909
 4307SOL    HW213821   4.512   3.342   5.975
 4308SOL     OW13822   5.517   5.547   6.408
 4308SOL    HW113823   5.456   5.585   6.338
 4308SOL    HW213824   5.612   5.566   6.383
 4309SOL     OW13825   1.287   1.574   0.623
 4309SOL    HW113826   1.192   1.552   0.602
 4309SOL    HW213827   1.290   1.644   0.694
 4310SOL     OW13828   1.696   2.692   3.152
 4310SOL    HW113829   1.631   2.623   3.184
 4310SOL    HW213830   1.687   2.774   3.207
 4311SOL     OW13831   1.891   5.778   3.838
 4311SOL    HW113832   1.983   5.799   3.804
 4311SOL    HW213833   1.893   5.690   3.886
 4312SOL     OW13834   1.286   4.877   0.601
 4312SOL    HW113835   1.223   4.923   0.538
 4312SOL    HW213836   1.316   4.942   0.672
 4313SOL     OW13837   4.811   1.498   1.344
 4313SOL    HW113838   4.781   1.591   1.367
 4313SOL    HW213839   4.771   1.471   1.256
 4314SOL     OW13840   5.725   1.571   4.252
 4314SOL    HW113841   5.710   1.603   4.345
 4314SOL    HW213842   5.823   1.575   4.231
 4315SOL     OW13843   2.695   6.719   1.994
 4315SOL    HW113844   2.629   6.646   1.980
 4315SOL    HW213845   2.647   6.805   2.011
 4316SOL     OW13846   5.103   6.910   1.079
 4316SOL    HW113847   5.197   6.910   1.045
 4316SOL    HW213848   5.057   6.825   1.050
 4317SOL     OW13849   3.893   1.857   5.070
 4317SOL    HW113850   3.971   1.825   5.017
 4317SOL    HW213851   3.925   1.906   5.151
 4318SOL     OW13852   0.878   3.603   3.806
 4318SOL    HW113853   0.792   3.652   3.819
 4318SOL    HW213854   0.860   3.505   3.803
 4319SOL     OW13855   2.205   2.846   0.094
 4319SOL    HW113856   2.208   2.935   0.049
 4319SOL    HW213857   2.231   2.856   0.190
 4320SOL     OW13858   6.139   6.165   2.284
 4320SOL    HW113859   6.207   6.170   2.358
 4320SOL    HW213860   6.103   6.257   2.266
 4321SOL     OW13861   6.690   6.420   5.016
 4321SOL    HW113862   6.745   6.336   5.009
 4321SOL    HW213863   6.692   6.453   5.110
 4322SOL     OW13864   6.240   2.050   6.843
 4322SOL    HW113865   6.223   2.086   6.751
 4322SOL    HW213866   6.154   2.049   6.894
 4323SOL     OW13867   5.044   4.192   1.356
 4323SOL    HW113868   5.050   4.092   1.350
 4323SOL    HW213869   4.973   4.217   1.422
 4324SOL     OW13870   5.644   4.018   6.105
 4324SOL    HW113871   5.670   3.939   6.159
 4324SOL    HW213872   5.564   3.995   6.048
 4325SOL     OW13873   2.326   0.933   1.411
 4325SOL    HW113874   2.324   1.031   1.393
 4325SOL    HW213875   2.413   0.895   1.380
 4326SOL     OW13876   5.337   3.340   5.127
 4326SOL    HW113877   5.421   3.317   5.176
 4326SOL    HW213878   5.258   3.313   5.182
 4327SOL     OW13879   6.000   5.338   2.125
 4327SOL    HW113880   5.914   5.332   2.176
 4327SOL    HW213881   6.016   5.253   2.075
 4328SOL     OW13882   4.307   3.478   5.739
 4328SOL    HW113883   4.359   3.393   5.752
 4328SOL    HW213884   4.209   3.457   5.743
 4329SOL     OW13885   4.023   1.905   5.319
 4329SOL    HW113886   4.114   1.943   5.300
 4329SOL    HW213887   4.032   1.828   5.383
 4330SOL     OW13888   2.800   0.702   5.118
 4330SOL    HW113889   2.710   0.727   5.084
 4330SOL    HW213890   2.812   0.738   5.210
 4331SOL     OW13891   5.112   2.937   0.443
 4331SOL    HW113892   5.024   2.982   0.432
 4331SOL    HW213893   5.098   2.841   0.466
 4332SOL     OW13894   5.281   4.650   2.506
 4332SOL    HW113895   5.308   4.703   2.426
 4332SOL    HW213896   5.182   4.658   2.520
 4333SOL     OW13897   4.173   0.517   5.146
 4333SOL    HW113898   4.139   0.493   5.237
 4333SOL    HW213899   4.147   0.611   5.125
 4334SOL     OW13900   1.643   1.973   2.935
 4334SOL    HW113901   1.595   1.944   2.853
 4334SOL    HW213902   1.710   1.904   2.962
 4335SOL     OW13903   3.488   3.726   2.814
 4335SOL    HW113904   3.483   3.806   2.754
 4335SOL    HW213905   3.569   3.671   2.790
 4336SOL     OW13906   1.623   6.898   6.175
 4336SOL    HW113907   1.693   6.960   6.211
 4336SOL    HW213908   1.649   6.804   6.195
 4337SOL     OW13909   0.741   4.742   0.439
 4337SOL    HW113910   0.787   4.698   0.517
 4337SOL    HW213911   0.806   4.750   0.363
 4338SOL     OW13912   5.158   5.523   4.445
 4338SOL    HW113913   5.106   5.478   4.517
 4338SOL    HW213914   5.164   5.463   4.366
 4339SOL     OW13915   6.444   3.077   5.156
 4339SOL    HW113916   6.371   3.125   5.205
 4339SOL    HW213917   6.533   3.105   5.194
 4340SOL     OW13918   6.260   4.273   1.581
 4340SOL    HW113919   6.329   4.338   1.550
 4340SOL    HW213920   6.231   4.215   1.505
 4341SOL     OW13921   0.350   6.074   2.197
 4341SOL    HW113922   0.359   5.980   2.162
 4341SOL    HW213923   0.257   6.087   2.233
 4342SOL     OW13924   6.271   3.553   4.258
 4342SOL    HW113925   6.178   3.514   4.253
 4342SOL    HW213926   6.265   3.653   4.256
 4343SOL     OW13927   2.515   6.143   6.199
 4343SOL    HW113928   2.424   6.107   6.179
 4343SOL    HW213929   2.583   6.084   6.155
 4344SOL     OW13930   1.701   5.491   3.092
 4344SOL    HW113931   1.625   5.485   3.156
 4344SOL    HW213932   1.757   5.409   3.099
 4345SOL     OW13933   1.967   2.963   5.057
 4345SOL    HW113934   2.048   2.974   4.998
 4345SOL    HW213935   1.985   3.005   5.146
 4346SOL     OW13936   1.775   3.345   2.029
 4346SOL    HW113937   1.829   3.427   2.009
 4346SOL    HW213938   1.683   3.371   2.057
 4347SOL     OW13939   5.602   6.844   2.949
 4347SOL    HW113940   5.562   6.798   2.869
 4347SOL    HW213941   5.690   6.883   2.923
 4348SOL     OW13942   6.918   4.284   3.004
 4348SOL    HW113943   7.009   4.253   2.976
 4348SOL    HW213944   6.891   4.236   3.087
 4349SOL     OW13945   6.799   2.234   2.501
 4349SOL    HW113946   6.884   2.271   2.539
 4349SOL    HW213947   6.820   2.184   2.417
 4350SOL     OW13948   5.194   2.164   3.813
 4350SOL    HW113949   5.107   2.140   3.857
 4350SOL    HW213950   5.191   2.138   3.716
 4351SOL     OW13951   1.779   6.669   1.055
 4351SOL    HW113952   1.798   6.767   1.054
 4351SOL    HW213953   1.838   6.625   1.123
 4352SOL     OW13954   0.706   2.814   2.454
 4352SOL    HW113955   0.684   2.871   2.375
 4352SOL    HW213956   0.696   2.718   2.430
 4353SOL     OW13957   3.398   3.312   0.084
 4353SOL    HW113958   3.455   3.233   0.109
 4353SOL    HW213959   3.442   3.362   0.010
 4354SOL     OW13960   2.619   6.977   5.924
 4354SOL    HW113961   2.524   6.994   5.896
 4354SOL    HW213962   2.628   6.883   5.956
 4355SOL     OW13963   3.274   0.148   2.421
 4355SOL    HW113964   3.356   0.124   2.370
 4355SOL    HW213965   3.199   0.166   2.357
 4356SOL     OW13966   4.848   4.088   0.929
 4356SOL    HW113967   4.918   4.016   0.932
 4356SOL    HW213968   4.887   4.173   0.966
 4357SOL     OW13969   5.995   0.185   0.137
 4357SOL    HW113970   6.006   0.202   0.039
 4357SOL    HW213971   6.066   0.121   0.168
 4358SOL     OW13972   6.904   6.522   6.939
 4358SOL    HW113973   6.973   6.572   6.886
 4358SOL    HW213974   6.857   6.458   6.879
 4359SOL     OW13975   2.145   2.244   6.266
 4359SOL    HW113976   2.204   2.257   6.346
 4359SOL    HW213977   2.175   2.163   6.216
 4360SOL     OW13978   1.409   2.213   3.976
 4360SOL    HW113979   1.373   2.298   4.014
 4360SOL    HW213980   1.335   2.161   3.933
 4361SOL     OW13981   2.828   3.391   1.482
 4361SOL    HW113982   2.876   3.478   1.493
 4361SOL    HW213983   2.819   3.347   1.571
 4362SOL     OW13984   6.335   5.042   3.038
 4362SOL    HW113985   6.310   5.096   3.118
 4362SOL    HW213986   6.256   4.989   3.007
 4363SOL     OW13987   4.876   2.707   7.005
 4363SOL    HW113988   4.914   2.741   6.918
 4363SOL    HW213989   4.819   2.779   0.031
 4364SOL     OW13990   3.251   3.571   5.439
 4364SOL    HW113991   3.160   3.578   5.480
 4364SOL    HW213992   3.297   3.660   5.444
 4365SOL     OW13993   2.224   2.437   1.799
 4365SOL    HW113994   2.192   2.430   1.705
 4365SOL    HW213995   2.297   2.371   1.814
 4366SOL     OW13996   5.804   6.016   0.381
 4366SOL    HW113997   5.780   6.099   0.431
 4366SOL    HW213998   5.848   6.040   0.295
 4367SOL     OW13999   2.213   4.479   4.910
 4367SOL    HW114000   2.263   4.562   4.886
 4367SOL    HW214001   2.177   4.487   5.003
 4368SOL     OW14002   4.005   4.574   0.748
 4368SOL    HW114003   4.060   4.500   0.787
 4368SOL    HW214004   3.917   4.538   0.718
 4369SOL     OW14005   3.721   5.613   4.015
 4369SOL    HW114006   3.682   5.570   3.934
 4369SOL    HW214007   3.784   5.549   4.060
 4370SOL     OW14008   5.051   5.108   2.956
 4370SOL    HW114009   5.103   5.190   2.936
 4370SOL    HW214010   5.087   5.066   3.040
 4371SOL     OW14011   0.608   1.323   1.456
 4371SOL    HW114012   0.513   1.355   1.456
 4371SOL    HW214013   0.614   1.235   1.410
 4372SOL     OW14014   3.981   1.250   2.822
 4372SOL    HW114015   4.081   1.248   2.824
 4372SOL    HW214016   3.948   1.327   2.875
 4373SOL     OW14017   0.220   2.336   6.906
 4373SOL    HW114018   0.125   2.305   6.910
 4373SOL    HW214019   0.254   2.349   7.000
 4374SOL     OW14020   1.236   2.040   2.328
 4374SOL    HW114021   1.179   1.978   2.274
 4374SOL    HW214022   1.315   1.990   2.364
 4375SOL     OW14023   3.837   0.633   3.140
 4375SOL    HW114024   3.895   0.554   3.157
 4375SOL    HW214025   3.843   0.660   3.044
 4376SOL     OW14026   6.303   6.831   2.848
 4376SOL    HW114027   6.394   6.871   2.835
 4376SOL    HW214028   6.248   6.845   2.766
 4377SOL     OW14029   5.222   4.188   0.730
 4377SOL    HW114030   5.127   4.159   0.721
 4377SOL    HW214031   5.226   4.279   0.770
 4378SOL     OW14032   2.142   1.252   2.824
 4378SOL    HW114033   2.106   1.290   2.739
 4378SOL    HW214034   2.077   1.186   2.862
 4379SOL     OW14035   2.083   0.927   2.591
 4379SOL    HW114036   2.150   0.997   2.565
 4379SOL    HW214037   2.022   0.964   2.661
 4380SOL     OW14038   1.649   6.658   2.697
 4380SOL    HW114039   1.605   6.703   2.620
 4380SOL    HW214040   1.745   6.639   2.675
 4381SOL     OW14041   0.851   6.055   5.331
 4381SOL    HW114042   0.939   6.054   5.379
 4381SOL    HW214043   0.777   6.046   5.398
 4382SOL     OW14044   1.041   3.513   5.248
 4382SOL    HW114045   1.031   3.572   5.327
 4382SOL    HW214046   0.958   3.458   5.237
 4383SOL     OW14047   0.519   3.096   0.106
 4383SOL    HW114048   0.599   3.037   0.105
 4383SOL    HW214049   0.471   3.087   0.194
 4384SOL     OW14050   5.865   0.477   4.632
 4384SOL    HW114051   5.936   0.518   4.690
 4384SOL    HW214052   5.875   0.510   4.538
 4385SOL     OW14053   4.793   2.603   4.801
 4385SOL    HW114054   4.796   2.640   4.894
 4385SOL    HW214055   4.699   2.604   4.768
 4386SOL     OW14056   1.793   3.403   5.972
 4386SOL    HW114057   1.711   3.396   5.916
 4386SOL    HW214058   1.845   3.484   5.945
 4387SOL     OW14059   6.585   2.578   1.440
 4387SOL    HW114060   6.568   2.644   1.513
 4387SOL    HW214061   6.683   2.564   1.429
 4388SOL     OW14062   4.092   1.961   5.851
 4388SOL    HW114063   4.147   2.028   5.901
 4388SOL    HW214064   4.031   2.008   5.787
 4389SOL     OW14065   6.109   3.384   1.226
 4389SOL    HW114066   6.167   3.423   1.298
 4389SOL    HW214067   6.062   3.303   1.262
 4390SOL     OW14068   3.625   6.722   1.723
 4390SOL    HW114069   3.705   6.665   1.705
 4390SOL    HW214070   3.549   6.665   1.754
 4391SOL     OW14071   2.109   5.911   0.010
 4391SOL    HW114072   2.131   5.824   6.982
 4391SOL    HW214073   2.103   5.898   0.109
 4392SOL     OW14074   0.800   2.465   5.189
 4392SOL    HW114075   0.847   2.545   5.153
 4392SOL    HW214076   0.715   2.451   5.140
 4393SOL     OW14077   6.425   1.010   1.621
 4393SOL    HW114078   6.392   0.917   1.636
 4393SOL    HW214079   6.474   1.042   1.702
 4394SOL     OW14080   6.843   5.754   2.467
 4394SOL    HW114081   6.771   5.816   2.500
 4394SOL    HW214082   6.918   5.753   2.532
 4395SOL     OW14083   1.840   0.540   2.002
 4395SOL    HW114084   1.761   0.588   2.039
 4395SOL    HW214085   1.921   0.598   2.009
 4396SOL     OW14086   1.851   1.402   3.689
 4396SOL    HW114087   1.752   1.404   3.674
 4396SOL    HW214088   1.871   1.424   3.784
 4397SOL     OW14089   1.866   2.486   4.192
 4397SOL    HW114090   1.787   2.425   4.205
 4397SOL    HW214091   1.941   2.434   4.152
 4398SOL     OW14092   1.143   3.464   5.969
 4398SOL    HW114093   1.050   3.497   5.986
 4398SOL    HW214094   1.139   3.366   5.947
 4399SOL     OW14095   3.505   6.097   2.605
 4399SOL    HW114096   3.410   6.069   2.602
 4399SOL    HW214097   3.538   6.114   2.512
 4400SOL     OW14098   2.297   6.758   4.813
 4400SOL    HW114099   2.276   6.755   4.911
 4400SOL    HW214100   2.325   6.667   4.783
 4401SOL     OW14101   3.054   6.970   5.552
 4401SOL    HW114102   2.982   6.922   5.601
 4401SOL    HW214103   3.074   0.042   5.598
 4402SOL     OW14104   1.623   0.174   2.788
 4402SOL    HW114105   1.691   0.231   2.743
 4402SOL    HW214106   1.624   0.082   2.748
 4403SOL     OW14107   0.827   6.989   0.263
 4403SOL    HW114108   0.791   0.053   0.214
 4403SOL    HW214109   0.812   6.906   0.208
 4404SOL     OW14110   1.726   6.249   5.755
 4404SOL    HW114111   1.740   6.215   5.662
 4404SOL    HW214112   1.686   6.176   5.811
 4405SOL     OW14113   2.014   4.646   1.637
 4405SOL    HW114114   2.003   4.556   1.595
 4405SOL    HW214115   1.933   4.702   1.618
 4406SOL     OW14116   0.869   2.617   0.723
 4406SOL    HW114117   0.887   2.673   0.642
 4406SOL    HW214118   0.773   2.628   0.750
 4407SOL     OW14119   6.712   5.487   1.456
 4407SOL    HW114120   6.743   5.407   1.404
 4407SOL    HW214121   6.786   5.555   1.459
 4408SOL     OW14122   2.409   0.300   0.343
 4408SOL    HW114123   2.401   0.377   0.280
 4408SOL    HW214124   2.334   0.303   0.409
 4409SOL     OW14125   4.325   1.578   1.995
 4409SOL    HW114126   4.425   1.589   1.991
 4409SOL    HW214127   4.281   1.660   1.959
 4410SOL     OW14128   0.719   4.574   0.096
 4410SOL    HW114129   0.630   4.611   0.072
 4410SOL    HW214130   0.786   4.648   0.101
 4411SOL     OW14131   3.633   4.164   4.898
 4411SOL    HW114132   3.629   4.067   4.922
 4411SOL    HW214133   3.713   4.182   4.841
 4412SOL     OW14134   4.798   5.988   4.217
 4412SOL    HW114135   4.714   6.033   4.185
 4412SOL    HW214136   4.866   5.990   4.144
 4413SOL     OW14137   5.781   4.941   4.016
 4413SOL    HW114138   5.806   4.855   4.062
 4413SOL    HW214139   5.719   4.992   4.075
 4414SOL     OW14140   3.306   5.898   1.209
 4414SOL    HW114141   3.346   5.808   1.222
 4414SOL    HW214142   3.370   5.968   1.242
 4415SOL     OW14143   4.479   2.927   6.943
 4415SOL    HW114144   4.418   2.884   6.877
 4415SOL    HW214145   4.455   3.023   6.954
 4416SOL     OW14146   4.264   1.976   4.031
 4416SOL    HW114147   4.350   1.952   3.986
 4416SOL    HW214148   4.277   1.974   4.130
 4417SOL     OW14149   6.021   3.626   3.873
 4417SOL    HW114150   5.923   3.616   3.889
 4417SOL    HW214151   6.044   3.586   3.783
 4418SOL     OW14152   6.253   1.491   2.850
 4418SOL    HW114153   6.218   1.506   2.758
 4418SOL    HW214154   6.211   1.409   2.889
 4419SOL     OW14155   6.327   0.328   5.454
 4419SOL    HW114156   6.422   0.297   5.456
 4419SOL    HW214157   6.266   0.249   5.449
 4420SOL     OW14158   4.012   1.580   2.048
 4420SOL    HW114159   4.089   1.641   2.068
 4420SOL    HW214160   3.929   1.616   2.092
 4421SOL     OW14161   1.910   1.826   4.920
 4421SOL    HW114162   1.993   1.860   4.877
 4421SOL    HW214163   1.837   1.895   4.912
 4422SOL     OW14164   1.173   4.577   6.563
 4422SOL    HW114165   1.123   4.664   6.558
 4422SOL    HW214166   1.149   4.530   6.648
 4423SOL     OW14167   0.224   3.645   5.338
 4423SOL    HW114168   0.261   3.695   5.416
 4423SOL    HW214169   0.264   3.680   5.254
 4424SOL     OW14170   5.319   0.515   4.427
 4424SOL    HW114171   5.310   0.550   4.334
 4424SOL    HW214172   5.281   0.422   4.431
 4425SOL     OW14173   3.297   5.002   0.517
 4425SOL    HW114174   3.358   5.032   0.444
 4425SOL    HW214175   3.203   4.995   0.483
 4426SOL     OW14176   0.977   1.095   3.772
 4426SOL    HW114177   0.967   1.174   3.711
 4426SOL    HW214178   0.899   1.034   3.759
 4427SOL     OW14179   5.703   0.015   2.568
 4427SOL    HW114180   5.727   6.937   2.542
 4427SOL    HW214181   5.682   0.018   2.666
 4428SOL     OW14182   4.125   0.767   3.888
 4428SOL    HW114183   4.154   0.671   3.887
 4428SOL    HW214184   4.136   0.804   3.980
 4429SOL     OW14185   3.109   6.922   2.302
 4429SOL    HW114186   3.098   0.006   2.313
 4429SOL    HW214187   3.022   6.876   2.324
 4430SOL     OW14188   5.364   4.865   5.232
 4430SOL    HW114189   5.309   4.896   5.154
 4430SOL    HW214190   5.408   4.778   5.209
 4431SOL     OW14191   2.901   0.770   2.818
 4431SOL    HW114192   2.852   0.804   2.898
 4431SOL    HW214193   2.969   0.702   2.847
 4432SOL     OW14194   2.628   3.307   6.231
 4432SOL    HW114195   2.662   3.285   6.140
 4432SOL    HW214196   2.540   3.261   6.245
 4433SOL     OW14197   6.521   2.694   4.345
 4433SOL    HW114198   6.588   2.668   4.414
 4433SOL    HW214199   6.513   2.794   4.342
 4434SOL     OW14200   5.769   1.690   2.970
 4434SOL    HW114201   5.682   1.720   3.010
 4434SOL    HW214202   5.829   1.769   2.958
 4435SOL     OW14203   4.100   3.274   1.106
 4435SOL    HW114204   4.153   3.314   1.031
 4435SOL    HW214205   4.160   3.223   1.167
 4436SOL     OW14206   4.536   1.012   1.704
 4436SOL    HW114207   4.567   0.992   1.797
 4436SOL    HW214208   4.603   0.979   1.638
 4437SOL     OW14209   1.288   2.923   2.524
 4437SOL    HW114210   1.368   2.983   2.526
 4437SOL    HW214211   1.220   2.961   2.461
 4438SOL     OW14212   4.577   6.891   6.385
 4438SOL    HW114213   4.577   6.907   6.286
 4438SOL    HW214214   4.652   6.943   6.427
 4439SOL     OW14215   0.153   4.612   1.519
 4439SOL    HW114216   0.112   4.695   1.557
 4439SOL    HW214217   0.252   4.614   1.533
 4440SOL     OW14218   3.049   4.739   0.500
 4440SOL    HW114219   3.067   4.774   0.592
 4440SOL    HW214220   3.040   4.639   0.504
 4441SOL     OW14221   6.928   1.720   1.686
 4441SOL    HW114222   6.828   1.713   1.692
 4441SOL    HW214223   6.966   1.731   1.778
 4442SOL     OW14224   1.614   5.004   4.657
 4442SOL    HW114225   1.554   4.955   4.721
 4442SOL    HW214226   1.691   4.945   4.632
 4443SOL     OW14227   1.547   3.304   5.877
 4443SOL    HW114228   1.563   3.360   5.796
 4443SOL    HW214229   1.548   3.207   5.852
 4444SOL     OW14230   3.708   3.772   6.862
 4444SOL    HW114231   3.746   3.726   6.942
 4444SOL    HW214232   3.624   3.819   6.888
 4445SOL     OW14233   1.436   6.357   0.328
 4445SOL    HW114234   1.417   6.453   0.308
 4445SOL    HW214235   1.382   6.328   0.407
 4446SOL     OW14236   5.075   2.035   0.844
 4446SOL    HW114237   5.088   2.129   0.876
 4446SOL    HW214238   5.161   2.001   0.806
 4447SOL     OW14239   6.284   4.046   5.112
 4447SOL    HW114240   6.196   4.071   5.072
 4447SOL    HW214241   6.357   4.071   5.049
 4448SOL     OW14242   2.241   5.449   1.085
 4448SOL    HW114243   2.223   5.362   1.130
 4448SOL    HW214244   2.332   5.482   1.109
 4449SOL     OW14245   5.203   1.081   6.182
 4449SOL    HW114246   5.219   1.072   6.280
 4449SOL    HW214247   5.105   1.083   6.164
 4450SOL     OW14248   3.523   2.011   6.272
 4450SOL    HW114249   3.437   2.061   6.256
 4450SOL    HW214250   3.505   1.933   6.332
 4451SOL     OW14251   4.888   5.109   4.582
 4451SOL    HW114252   4.813   5.172   4.602
 4451SOL    HW214253   4.894   5.039   4.653
 4452SOL     OW14254   5.665   5.693   4.411
 4452SOL    HW114255   5.749   5.748   4.402
 4452SOL    HW214256   5.617   5.720   4.494
 4453SOL     OW14257   1.472   2.904   1.687
 4453SOL    HW114258   1.449   2.993   1.645
 4453SOL    HW214259   1.420   2.893   1.771
 4454SOL     OW14260   1.398   1.740   6.943
 4454SOL    HW114261   1.359   1.723   6.852
 4454SOL    HW214262   1.410   1.653   6.991
 4455SOL     OW14263   5.613   5.568   5.557
 4455SOL    HW114264   5.586   5.528   5.469
 4455SOL    HW214265   5.652   5.659   5.542
 4456SOL     OW14266   2.706   6.270   2.952
 4456SOL    HW114267   2.635   6.257   2.882
 4456SOL    HW214268   2.790   6.300   2.908
 4457SOL     OW14269   3.498   1.418   3.349
 4457SOL    HW114270   3.515   1.444   3.254
 4457SOL    HW214271   3.400   1.399   3.362
 4458SOL     OW14272   2.527   3.400   1.198
 4458SOL    HW114273   2.545   3.377   1.102
 4458SOL    HW214274   2.535   3.317   1.253
 4459SOL     OW14275   4.008   2.174   4.517
 4459SOL    HW114276   3.954   2.251   4.550
 4459SOL    HW214277   4.101   2.178   4.555
 4460SOL     OW14278   1.026   2.978   0.601
 4460SOL    HW114279   1.093   2.945   0.668
 4460SOL    HW214280   0.996   2.901   0.544
 4461SOL     OW14281   1.707   0.790   1.030
 4461SOL    HW114282   1.719   0.790   0.931
 4461SOL    HW214283   1.762   0.863   1.071
 4462SOL     OW14284   5.930   5.010   2.364
 4462SOL    HW114285   5.960   4.946   2.294
 4462SOL    HW214286   5.831   5.018   2.363
 4463SOL     OW14287   4.626   1.254   0.829
 4463SOL    HW114288   4.691   1.323   0.862
 4463SOL    HW214289   4.581   1.210   0.906
 4464SOL     OW14290   0.423   5.844   0.466
 4464SOL    HW114291   0.445   5.838   0.563
 4464SOL    HW214292   0.331   5.882   0.455
 4465SOL     OW14293   3.511   5.508   0.728
 4465SOL    HW114294   3.429   5.498   0.672
 4465SOL    HW214295   3.507   5.594   0.779
 4466SOL     OW14296   0.869   1.966   2.817
 4466SOL    HW114297   0.809   1.891   2.845
 4466SOL    HW214298   0.827   2.053   2.844
 4467SOL     OW14299   2.069   5.092   3.147
 4467SOL    HW114300   2.124   5.105   3.065
 4467SOL    HW214301   2.018   5.006   3.140
 4468SOL     OW14302   1.608   4.104   0.734
 4468SOL    HW114303   1.511   4.112   0.711
 4468SOL    HW214304   1.629   4.166   0.811
 4469SOL     OW14305   3.316   0.689   1.203
 4469SOL    HW114306   3.267   0.607   1.174
 4469SOL    HW214307   3.406   0.664   1.239
 4470SOL     OW14308   0.708   1.577   2.495
 4470SOL    HW114309   0.701   1.479   2.475
 4470SOL    HW214310   0.721   1.590   2.593
 4471SOL     OW14311   0.889   2.951   6.921
 4471SOL    HW114312   0.962   3.017   6.938
 4471SOL    HW214313   0.926   2.871   6.874
 4472SOL     OW14314   0.288   2.393   1.582
 4472SOL    HW114315   0.190   2.400   1.600
 4472SOL    HW214316   0.334   2.475   1.616
 4473SOL     OW14317   5.820   3.013   4.335
 4473SOL    HW114318   5.734   2.962   4.345
 4473SOL    HW214319   5.891   2.969   4.389
 4474SOL     OW14320   3.402   6.549   1.790
 4474SOL    HW114321   3.327   6.583   1.847
 4474SOL    HW214322   3.403   6.449   1.792
 4475SOL     OW14323   1.313   3.782   1.932
 4475SOL    HW114324   1.313   3.783   1.832
 4475SOL    HW214325   1.405   3.763   1.966
 4476SOL     OW14326   6.392   1.113   3.545
 4476SOL    HW114327   6.461   1.120   3.616
 4476SOL    HW214328   6.328   1.039   3.568
 4477SOL     OW14329   1.886   0.601   4.892
 4477SOL    HW114330   1.915   0.508   4.914
 4477SOL    HW214331   1.905   0.661   4.969
 4478SOL     OW14332   2.637   6.655   2.487
 4478SOL    HW114333   2.729   6.620   2.505
 4478SOL    HW214334   2.605   6.706   2.567
 4479SOL     OW14335   0.139   2.049   1.706
 4479SOL    HW114336   0.117   2.017   1.614
 4479SOL    HW214337   0.055   2.062   1.758
 4480SOL     OW14338   6.967   3.912   4.824
 4480SOL    HW114339   6.960   4.011   4.827
 4480SOL    HW214340   7.008   3.879   4.909
 4481SOL     OW14341   2.362   5.034   5.067
 4481SOL    HW114342   2.356   5.042   4.968
 4481SOL    HW214343   2.271   5.044   5.107
 4482SOL     OW14344   2.087   3.070   5.277
 4482SOL    HW114345   2.142   2.994   5.312
 4482SOL    HW214346   2.147   3.147   5.257
 4483SOL     OW14347   6.868   2.459   2.162
 4483SOL    HW114348   6.775   2.491   2.142
 4483SOL    HW214349   6.863   2.370   2.207
 4484SOL     OW14350   3.171   2.385   6.650
 4484SOL    HW114351   3.158   2.457   6.582
 4484SOL    HW214352   3.241   2.413   6.715
 4485SOL     OW14353   5.746   2.379   4.752
 4485SOL    HW114354   5.747   2.351   4.656
 4485SOL    HW214355   5.727   2.477   4.758
 4486SOL     OW14356   6.387   5.307   4.707
 4486SOL    HW114357   6.409   5.316   4.609
 4486SOL    HW214358   6.308   5.247   4.718
 4487SOL     OW14359   3.006   2.761   6.841
 4487SOL    HW114360   2.938   2.690   6.860
 4487SOL    HW214361   2.994   2.794   6.747
 4488SOL     OW14362   1.169   3.378   4.882
 4488SOL    HW114363   1.184   3.333   4.794
 4488SOL    HW214364   1.209   3.470   4.879
 4489SOL     OW14365   4.408   5.354   4.990
 4489SOL    HW114366   4.387   5.449   4.966
 4489SOL    HW214367   4.488   5.324   4.938
 4490SOL     OW14368   5.430   2.125   1.227
 4490SOL    HW114369   5.332   2.133   1.245
 4490SOL    HW214370   5.461   2.032   1.251
 4491SOL     OW14371   0.315   3.544   3.657
 4491SOL    HW114372   0.383   3.562   3.586
 4491SOL    HW214373   0.356   3.556   3.747
 4492SOL     OW14374   6.097   3.437   1.872
 4492SOL    HW114375   6.035   3.378   1.820
 4492SOL    HW214376   6.053   3.463   1.959
 4493SOL     OW14377   5.160   6.284   4.880
 4493SOL    HW114378   5.162   6.209   4.946
 4493SOL    HW214379   5.135   6.249   4.790
 4494SOL     OW14380   0.244   0.819   6.026
 4494SOL    HW114381   0.219   0.819   5.929
 4494SOL    HW214382   0.283   0.730   6.051
 4495SOL     OW14383   4.633   0.318   3.935
 4495SOL    HW114384   4.654   0.346   4.029
 4495SOL    HW214385   4.712   0.271   3.896
 4496SOL     OW14386   5.348   6.099   0.758
 4496SOL    HW114387   5.427   6.094   0.820
 4496SOL    HW214388   5.363   6.173   0.692
 4497SOL     OW14389   4.398   2.026   6.500
 4497SOL    HW114390   4.463   2.030   6.577
 4497SOL    HW214391   4.381   2.119   6.466
 4498SOL     OW14392   6.680   4.779   6.575
 4498SOL    HW114393   6.762   4.722   6.572
 4498SOL    HW214394   6.687   4.852   6.507
 4499SOL     OW14395   6.192   3.110   3.424
 4499SOL    HW114396   6.282   3.110   3.466
 4499SOL    HW214397   6.201   3.118   3.325
 4500SOL     OW14398   3.550   3.958   6.025
 4500SOL    HW114399   3.580   4.053   6.033
 4500SOL    HW214400   3.629   3.899   6.006
 4501SOL     OW14401   6.591   3.343   2.971
 4501SOL    HW114402   6.650   3.263   2.963
 4501SOL    HW214403   6.495   3.316   2.960
 4502SOL     OW14404   0.990   3.650   6.958
 4502SOL    HW114405   0.993   3.639   6.858
 4502SOL    HW214406   1.033   3.571   7.001
 4503SOL     OW14407   3.795   6.877   1.887
 4503SOL    HW114408   3.732   6.842   1.816
 4503SOL    HW214409   3.882   6.828   1.880
 4504SOL     OW14410   0.311   1.741   4.135
 4504SOL    HW114411   0.338   1.816   4.075
 4504SOL    HW214412   0.225   1.764   4.180
 4505SOL     OW14413   6.467   4.683   1.845
 4505SOL    HW114414   6.492   4.769   1.800
 4505SOL    HW214415   6.521   4.672   1.928
 4506SOL     OW14416   4.986   2.892   3.500
 4506SOL    HW114417   4.996   2.841   3.415
 4506SOL    HW214418   5.074   2.893   3.548
 4507SOL     OW14419   6.887   3.423   3.582
 4507SOL    HW114420   6.909   3.513   3.619
 4507SOL    HW214421   6.870   3.430   3.484
 4508SOL     OW14422   1.434   4.863   6.740
 4508SOL    HW114423   1.359   4.895   6.684
 4508SOL    HW214424   1.398   4.818   6.822
 4509SOL     OW14425   4.996   1.958   3.413
 4509SOL    HW114426   4.922   1.949   3.479
 4509SOL    HW214427   4.982   1.894   3.338
 4510SOL     OW14428   4.077   1.476   4.285
 4510SOL    HW114429   4.106   1.471   4.381
 4510SOL    HW214430   4.157   1.470   4.225
 4511SOL     OW14431   6.121   3.684   6.750
 4511SOL    HW114432   6.190   3.737   6.702
 4511SOL    HW214433   6.040   3.740   6.765
 4512SOL     OW14434   3.371   0.852   5.624
 4512SOL    HW114435   3.371   0.943   5.582
 4512SOL    HW214436   3.465   0.817   5.628
 4513SOL     OW14437   1.235   5.592   6.541
 4513SOL    HW114438   1.267   5.682   6.514
 4513SOL    HW214439   1.255   5.526   6.469
 4514SOL     OW14440   3.357   2.556   5.961
 4514SOL    HW114441   3.270   2.539   5.913
 4514SOL    HW214442   3.432   2.517   5.908
 4515SOL     OW14443   6.010   2.019   5.392
 4515SOL    HW114444   6.035   2.103   5.345
 4515SOL    HW214445   6.071   1.945   5.364
 4516SOL     OW14446   2.540   0.173   6.860
 4516SOL    HW114447   2.497   0.239   6.798
 4516SOL    HW214448   2.475   0.146   6.930
 4517SOL     OW14449   4.976   6.836   6.639
 4517SOL    HW114450   5.034   6.795   6.709
 4517SOL    HW214451   4.983   6.783   6.554
 4518SOL     OW14452   0.293   6.472   2.282
 4518SOL    HW114453   0.385   6.511   2.276
 4518SOL    HW214454   0.264   6.440   2.191
 4519SOL     OW14455   5.351   6.673   0.653
 4519SOL    HW114456   5.281   6.737   0.684
 4519SOL    HW214457   5.427   6.671   0.719
 4520SOL     OW14458   4.188   5.694   6.443
 4520SOL    HW114459   4.279   5.670   6.477
 4520SOL    HW214460   4.119   5.654   6.503
 4521SOL     OW14461   5.456   2.150   5.573
 4521SOL    HW114462   5.445   2.114   5.665
 4521SOL    HW214463   5.453   2.075   5.507
 4522SOL     OW14464   5.659   4.589   3.452
 4522SOL    HW114465   5.574   4.604   3.400
 4522SOL    HW214466   5.726   4.658   3.428
 4523SOL     OW14467   1.197   4.130   0.016
 4523SOL    HW114468   1.192   4.031   0.027
 4523SOL    HW214469   1.107   4.170   0.031
 4524SOL     OW14470   6.326   3.583   2.430
 4524SOL    HW114471   6.409   3.638   2.435
 4524SOL    HW214472   6.249   3.636   2.466
 4525SOL     OW14473   3.947   2.096   5.521
 4525SOL    HW114474   3.874   2.109   5.588
 4525SOL    HW214475   3.926   2.016   5.465
 4526SOL     OW14476   6.294   0.253   6.952
 4526SOL    HW114477   6.253   0.165   6.974
 4526SOL    HW214478   6.393   0.246   6.957
 4527SOL     OW14479   6.775   6.802   2.538
 4527SOL    HW114480   6.849   6.855   2.580
 4527SOL    HW214481   6.748   6.728   2.600
 4528SOL     OW14482   4.346   0.864   6.622
 4528SOL    HW114483   4.364   0.867   6.720
 4528SOL    HW214484   4.413   0.805   6.577
 4529SOL     OW14485   2.186   1.310   5.325
 4529SOL    HW114486   2.276   1.267   5.320
 4529SOL    HW214487   2.186   1.379   5.398
 4530SOL     OW14488   2.226   5.393   3.110
 4530SOL    HW114489   2.187   5.335   3.182
 4530SOL    HW214490   2.244   5.337   3.029
 4531SOL     OW14491   0.666   2.780   6.278
 4531SOL    HW114492   0.607   2.715   6.230
 4531SOL    HW214493   0.727   2.731   6.340
 4532SOL     OW14494   6.329   1.054   2.597
 4532SOL    HW114495   6.321   1.112   2.515
 4532SOL    HW214496   6.246   0.999   2.607
 4533SOL     OW14497   2.283   0.544   2.799
 4533SOL    HW114498   2.305   0.464   2.742
 4533SOL    HW214499   2.285   0.518   2.895
 4534SOL     OW14500   5.114   2.988   5.312
 4534SOL    HW114501   5.101   2.942   5.400
 4534SOL    HW214502   5.087   2.926   5.238
 4535SOL     OW14503   3.847   1.146   1.921
 4535SOL    HW114504   3.880   1.135   2.015
 4535SOL    HW214505   3.753   1.114   1.914
 4536SOL     OW14506   3.408   1.732   4.903
 4536SOL    HW114507   3.427   1.634   4.898
 4536SOL    HW214508   3.315   1.745   4.937
 4537SOL     OW14509   4.247   3.293   1.394
 4537SOL    HW114510   4.290   3.321   1.480
 4537SOL    HW214511   4.309   3.311   1.318
 4538SOL     OW14512   2.742   0.549   2.072
 4538SOL    HW114513   2.657   0.540   2.124
 4538SOL    HW214514   2.772   0.459   2.042
 4539SOL     OW14515   3.161   5.604   5.341
 4539SOL    HW114516   3.172   5.692   5.388
 4539SOL    HW214517   3.184   5.530   5.405
 4540SOL     OW14518   2.213   1.239   0.682
 4540SOL    HW114519   2.163   1.185   0.614
 4540SOL    HW214520   2.183   1.334   0.678
 4541SOL     OW14521   5.104   1.563   6.831
 4541SOL    HW114522   5.072   1.656   6.847
 4541SOL    HW214523   5.201   1.565   6.806
 4542SOL     OW14524   0.074   2.420   1.972
 4542SOL    HW114525   0.008   2.446   2.043
 4542SOL    HW214526   0.156   2.477   1.981
 4543SOL     OW14527   4.892   2.288   1.123
 4543SOL    HW114528   4.963   2.275   1.053
 4543SOL    HW214529   4.816   2.341   1.084
 4544SOL     OW14530   3.608   5.232   0.134
 4544SOL    HW114531   3.642   5.324   0.113
 4544SOL    HW214532   3.673   5.164   0.100
 4545SOL     OW14533   6.930   3.275   4.795
 4545SOL    HW114534   6.857   3.293   4.729
 4545SOL    HW214535   7.013   3.247   4.747
 4546SOL     OW14536   3.114   6.475   4.173
 4546SOL    HW114537   3.123   6.434   4.082
 4546SOL    HW214538   3.176   6.554   4.180
 4547SOL     OW14539   6.316   1.338   0.546
 4547SOL    HW114540   6.335   1.432   0.574
 4547SOL    HW214541   6.358   1.275   0.611
 4548SOL     OW14542   2.749   2.177   3.865
 4548SOL    HW114543   2.726   2.259   3.917
 4548SOL    HW214544   2.753   2.199   3.768
 4549SOL     OW14545   5.408   3.599   2.274
 4549SOL    HW114546   5.346   3.621   2.349
 4549SOL    HW214547   5.400   3.669   2.203
 4550SOL     OW14548   1.317   4.257   2.615
 4550SOL    HW114549   1.360   4.219   2.533
 4550SOL    HW214550   1.294   4.354   2.600
 4551SOL     OW14551   0.800   3.920   4.443
 4551SOL    HW114552   0.797   4.001   4.503
 4551SOL    HW214553   0.750   3.845   4.485
 4552SOL     OW14554   5.332   2.413   1.069
 4552SOL    HW114555   5.346   2.487   1.002
 4552SOL    HW214556   5.417   2.362   1.079
 4553SOL     OW14557   4.941   3.863   6.871
 4553SOL    HW114558   4.847   3.831   6.864
 4553SOL    HW214559   4.953   3.944   6.813
 4554SOL     OW14560   6.543   0.185   1.168
 4554SOL    HW114561   6.495   0.098   1.163
 4554SOL    HW214562   6.641   0.170   1.155
 4555SOL     OW14563   1.508   1.102   5.548
 4555SOL    HW114564   1.536   1.094   5.452
 4555SOL    HW214565   1.536   1.020   5.598
 4556SOL     OW14566   5.980   3.344   4.653
 4556SOL    HW114567   5.896   3.394   4.673
 4556SOL    HW214568   5.977   3.310   4.559
 4557SOL     OW14569   4.901   5.195   4.128
 4557SOL    HW114570   4.923   5.289   4.154
 4557SOL    HW214571   4.854   5.150   4.204
 4558SOL     OW14572   6.858   3.969   4.566
 4558SOL    HW114573   6.828   3.884   4.523
 4558SOL    HW214574   6.898   3.949   4.655
 4559SOL     OW14575   6.889   3.123   2.545
 4559SOL    HW114576   6.869   3.202   2.488
 4559SOL    HW214577   6.873   3.038   2.494
 4560SOL     OW14578   5.661   3.885   1.510
 4560SOL    HW114579   5.678   3.979   1.480
 4560SOL    HW214580   5.743   3.830   1.496
 4561SOL     OW14581   3.577   2.125   3.340
 4561SOL    HW114582   3.647   2.138   3.270
 4561SOL    HW214583   3.491   2.165   3.308
 4562SOL     OW14584   1.140   0.223   0.576
 4562SOL    HW114585   1.126   0.138   0.627
 4562SOL    HW214586   1.087   0.296   0.618
 4563SOL     OW14587   0.135   3.304   1.063
 4563SOL    HW114588   0.133   3.375   1.133
 4563SOL    HW214589   0.092   3.221   1.098
 4564SOL     OW14590   6.675   5.973   1.803
 4564SOL    HW114591   6.625   6.059   1.816
 4564SOL    HW214592   6.772   5.987   1.825
 4565SOL     OW14593   1.703   1.115   3.887
 4565SOL    HW114594   1.673   1.202   3.925
 4565SOL    HW214595   1.799   1.122   3.860
 4566SOL     OW14596   6.858   3.712   1.398
 4566SOL    HW114597   6.926   3.645   1.367
 4566SOL    HW214598   6.899   3.803   1.398
 4567SOL     OW14599   0.074   1.599   6.346
 4567SOL    HW114600   7.014   1.544   6.382
 4567SOL    HW214601   0.042   1.649   6.265
 4568SOL     OW14602   1.594   3.479   5.683
 4568SOL    HW114603   1.654   3.554   5.709
 4568SOL    HW214604   1.545   3.503   5.599
 4569SOL     OW14605   2.611   0.423   3.357
 4569SOL    HW114606   2.527   0.466   3.391
 4569SOL    HW214607   2.603   0.408   3.258
 4570SOL     OW14608   5.985   6.597   2.400
 4570SOL    HW114609   6.014   6.522   2.341
 4570SOL    HW214610   5.970   6.562   2.493
 4571SOL     OW14611   4.958   2.824   6.785
 4571SOL    HW114612   5.045   2.801   6.743
 4571SOL    HW214613   4.945   2.923   6.784
 4572SOL     OW14614   2.240   0.959   6.192
 4572SOL    HW114615   2.154   0.916   6.219
 4572SOL    HW214616   2.259   1.035   6.253
 4573SOL     OW14617   0.077   6.982   0.482
 4573SOL    HW114618   0.169   6.951   0.458
 4573SOL    HW214619   0.010   6.928   0.432
 4574SOL     OW14620   5.507   4.347   0.248
 4574SOL    HW114621   5.542   4.400   0.170
 4574SOL    HW214622   5.447   4.275   0.214
 4575SOL     OW14623   5.508   0.615   5.396
 4575SOL    HW114624   5.492   0.542   5.329
 4575SOL    HW214625   5.573   0.681   5.357
 4576SOL     OW14626   2.872   5.127   5.312
 4576SOL    HW114627   2.793   5.168   5.357
 4576SOL    HW214628   2.849   5.106   5.217
 4577SOL     OW14629   1.171   3.015   4.085
 4577SOL    HW114630   1.121   3.093   4.120
 4577SOL    HW214631   1.269   3.027   4.103
 4578SOL     OW14632   0.956   1.821   4.538
 4578SOL    HW114633   1.034   1.834   4.600
 4578SOL    HW214634   0.966   1.881   4.459
 4579SOL     OW14635   4.638   1.219   2.376
 4579SOL    HW114636   4.555   1.263   2.340
 4579SOL    HW214637   4.703   1.290   2.403
 4580SOL     OW14638   5.402   4.002   0.653
 4580SOL    HW114639   5.339   4.080   0.663
 4580SOL    HW214640   5.490   4.025   0.695
 4581SOL     OW14641   2.469   5.946   2.233
 4581SOL    HW114642   2.433   5.866   2.281
 4581SOL    HW214643   2.567   5.934   2.218
 4582SOL     OW14644   4.773   0.779   3.577
 4582SOL    HW114645   4.694   0.776   3.639
 4582SOL    HW214646   4.799   0.875   3.562
 4583SOL     OW14647   2.932   1.256   6.523
 4583SOL    HW114648   2.930   1.222   6.616
 4583SOL    HW214649   3.002   1.208   6.471
 4584SOL     OW14650   1.301   5.105   5.210
 4584SOL    HW114651   1.380   5.140   5.259
 4584SOL    HW214652   1.313   5.008   5.191
 4585SOL     OW14653   2.254   4.676   3.131
 4585SOL    HW114654   2.285   4.748   3.192
 4585SOL    HW214655   2.324   4.605   3.124
 4586SOL     OW14656   3.987   4.006   0.478
 4586SOL    HW114657   3.891   3.977   0.472
 4586SOL    HW214658   3.999   4.092   0.428
 4587SOL     OW14659   3.468   3.747   3.671
 4587SOL    HW114660   3.550   3.727   3.617
 4587SOL    HW214661   3.390   3.760   3.610
 4588SOL     OW14662   3.099   2.852   5.993
 4588SOL    HW114663   3.011   2.838   5.948
 4588SOL    HW214664   3.139   2.938   5.962
 4589SOL     OW14665   5.666   0.457   1.861
 4589SOL    HW114666   5.660   0.387   1.931
 4589SOL    HW214667   5.574   0.483   1.830
 4590SOL     OW14668   4.113   4.811   1.361
 4590SOL    HW114669   4.027   4.853   1.333
 4590SOL    HW214670   4.126   4.823   1.459
 4591SOL     OW14671   1.982   0.357   4.990
 4591SOL    HW114672   2.023   0.266   4.997
 4591SOL    HW214673   1.918   0.371   5.066
 4592SOL     OW14674   3.557   0.697   2.856
 4592SOL    HW114675   3.566   0.753   2.938
 4592SOL    HW214676   3.484   0.733   2.799
 4593SOL     OW14677   6.200   6.359   1.958
 4593SOL    HW114678   6.139   6.308   1.896
 4593SOL    HW214679   6.194   6.457   1.937
 4594SOL     OW14680   3.390   0.449   3.119
 4594SOL    HW114681   3.366   0.544   3.139
 4594SOL    HW214682   3.418   0.442   3.023
 4595SOL     OW14683   4.873   2.983   5.836
 4595SOL    HW114684   4.819   3.035   5.902
 4595SOL    HW214685   4.828   2.985   5.747
 4596SOL     OW14686   6.738   0.112   2.717
 4596SOL    HW114687   6.824   0.062   2.710
 4596SOL    HW214688   6.736   0.184   2.647
 4597SOL     OW14689   2.617   5.519   6.505
 4597SOL    HW114690   2.581   5.433   6.541
 4597SOL    HW214691   2.557   5.595   6.531
 4598SOL     OW14692   1.228   5.519   1.259
 4598SOL    HW114693   1.267   5.548   1.347
 4598SOL    HW214694   1.129   5.524   1.263
 4599SOL     OW14695   1.467   4.663   1.229
 4599SOL    HW114696   1.375   4.681   1.264
 4599SOL    HW214697   1.515   4.602   1.292
 4600SOL     OW14698   0.515   6.317   5.610
 4600SOL    HW114699   0.461   6.378   5.553
 4600SOL    HW214700   0.471   6.227   5.614
 4601SOL     OW14701   0.788   1.644   5.398
 4601SOL    HW114702   0.770   1.674   5.304
 4601SOL    HW214703   0.762   1.548   5.408
 4602SOL     OW14704   2.939   6.570   0.518
 4602SOL    HW114705   3.005   6.565   0.442
 4602SOL    HW214706   2.988   6.584   0.604
 4603SOL     OW14707   3.626   5.844   0.570
 4603SOL    HW114708   3.628   5.754   0.527
 4603SOL    HW214709   3.670   5.910   0.509
 4604SOL     OW14710   4.998   0.067   6.799
 4604SOL    HW114711   4.986   7.014   6.727
 4604SOL    HW214712   5.037   0.024   6.881
 4605SOL     OW14713   2.001   6.951   1.454
 4605SOL    HW114714   2.005   0.024   1.407
 4605SOL    HW214715   2.047   6.881   1.398
 4606SOL     OW14716   0.406   6.616   2.664
 4606SOL    HW114717   0.407   6.543   2.595
 4606SOL    HW214718   0.427   6.577   2.753
 4607SOL     OW14719   1.858   3.024   3.355
 4607SOL    HW114720   1.789   2.952   3.350
 4607SOL    HW214721   1.907   3.029   3.268
 4608SOL     OW14722   6.836   4.317   3.500
 4608SOL    HW114723   6.926   4.345   3.534
 4608SOL    HW214724   6.778   4.397   3.488
 4609SOL     OW14725   4.928   4.777   6.932
 4609SOL    HW114726   4.883   4.843   6.872
 4609SOL    HW214727   4.966   4.823   7.012
 4610SOL     OW14728   4.416   1.787   0.252
 4610SOL    HW114729   4.372   1.706   0.291
 4610SOL    HW214730   4.428   1.774   0.154
 4611SOL     OW14731   0.618   0.402   6.222
 4611SOL    HW114732   0.524   0.381   6.249
 4611SOL    HW214733   0.679   0.334   6.261
 4612SOL     OW14734   2.493   0.067   0.431
 4612SOL    HW114735   2.461   0.155   0.398
 4612SOL    HW214736   2.591   0.072   0.451
 4613SOL     OW14737   1.819   5.927   2.598
 4613SOL    HW114738   1.840   5.969   2.686
 4613SOL    HW214739   1.814   5.998   2.527
 4614SOL     OW14740   5.951   3.032   3.533
 4614SOL    HW114741   5.976   3.008   3.626
 4614SOL    HW214742   6.032   3.067   3.485
 4615SOL     OW14743   0.988   1.435   0.727
 4615SOL    HW114744   0.906   1.395   0.768
 4615SOL    HW214745   1.001   1.398   0.635
 4616SOL     OW14746   5.305   1.777   4.322
 4616SOL    HW114747   5.341   1.791   4.230
 4616SOL    HW214748   5.293   1.866   4.367
 4617SOL     OW14749   1.631   2.230   2.463
 4617SOL    HW114750   1.697   2.273   2.403
 4617SOL    HW214751   1.607   2.292   2.537
 4618SOL     OW14752   2.163   3.847   5.569
 4618SOL    HW114753   2.193   3.843   5.474
 4618SOL    HW214754   2.229   3.900   5.623
 4619SOL     OW14755   2.936   6.262   3.751
 4619SOL    HW114756   2.950   6.238   3.655
 4619SOL    HW214757   2.904   6.357   3.758
 4620SOL     OW14758   0.896   4.608   0.932
 4620SOL    HW114759   0.986   4.622   0.974
 4620SOL    HW214760   0.873   4.688   0.876
 4621SOL     OW14761   5.044   0.948   2.159
 4621SOL    HW114762   5.072   1.039   2.129
 4621SOL    HW214763   4.955   0.953   2.204
 4622SOL     OW14764   3.911   5.243   0.870
 4622SOL    HW114765   4.002   5.225   0.907
 4622SOL    HW214766   3.890   5.174   0.801
 4623SOL     OW14767   4.664   5.401   1.325
 4623SOL    HW114768   4.723   5.481   1.326
 4623SOL    HW214769   4.703   5.331   1.265
 4624SOL     OW14770   3.514   0.420   2.847
 4624SOL    HW114771   3.538   0.389   2.755
 4624SOL    HW214772   3.524   0.519   2.854
 4625SOL     OW14773   1.631   5.338   2.072
 4625SOL    HW114774   1.533   5.335   2.054
 4625SOL    HW214775   1.665   5.245   2.089
 4626SOL     OW14776   4.644   4.487   1.806
 4626SOL    HW114777   4.590   4.435   1.873
 4626SOL    HW214778   4.590   4.501   1.723
 4627SOL     OW14779   1.012   4.945   5.082
 4627SOL    HW114780   1.008   4.882   5.160
 4627SOL    HW214781   1.009   5.039   5.115
 4628SOL     OW14782   4.570   4.547   4.857
 4628SOL    HW114783   4.501   4.530   4.927
 4628SOL    HW214784   4.642   4.478   4.864
 4629SOL     OW14785   2.325   4.760   5.239
 4629SOL    HW114786   2.244   4.770   5.297
 4629SOL    HW214787   2.377   4.846   5.240
 4630SOL     OW14788   2.348   5.394   2.064
 4630SOL    HW114789   2.445   5.375   2.081
 4630SOL    HW214790   2.335   5.492   2.050
 4631SOL     OW14791   1.048   6.573   3.706
 4631SOL    HW114792   0.968   6.515   3.691
 4631SOL    HW214793   1.125   6.538   3.653
 4632SOL     OW14794   2.465   4.372   2.801
 4632SOL    HW114795   2.473   4.273   2.802
 4632SOL    HW214796   2.494   4.409   2.890
 4633SOL     OW14797   5.937   1.313   4.585
 4633SOL    HW114798   5.918   1.323   4.683
 4633SOL    HW214799   5.851   1.298   4.536
 4634SOL     OW14800   2.601   3.738   5.363
 4634SOL    HW114801   2.586   3.748   5.461
 4634SOL    HW214802   2.566   3.819   5.316
 4635SOL     OW14803   4.353   4.448   1.709
 4635SOL    HW114804   4.375   4.369   1.766
 4635SOL    HW214805   4.321   4.523   1.767
 4636SOL     OW14806   1.784   4.124   0.503
 4636SOL    HW114807   1.847   4.049   0.525
 4636SOL    HW214808   1.714   4.131   0.574
 4637SOL     OW14809   0.928   6.788   1.387
 4637SOL    HW114810   0.936   6.693   1.418
 4637SOL    HW214811   0.965   6.795   1.294
 4638SOL     OW14812   3.673   5.848   6.882
 4638SOL    HW114813   3.579   5.882   6.878
 4638SOL    HW214814   3.714   5.853   6.791
 4639SOL     OW14815   3.063   2.797   6.281
 4639SOL    HW114816   3.101   2.877   6.329
 4639SOL    HW214817   3.083   2.804   6.184
 4640SOL     OW14818   5.739   3.577   4.202
 4640SOL    HW114819   5.676   3.510   4.241
 4640SOL    HW214820   5.723   3.667   4.245
 4641SOL     OW14821   2.304   0.409   4.096
 4641SOL    HW114822   2.317   0.507   4.081
 4641SOL    HW214823   2.364   0.357   4.035
 4642SOL     OW14824   1.632   6.437   2.873
 4642SOL    HW114825   1.669   6.353   2.833
 4642SOL    HW214826   1.634   6.510   2.804
 4643SOL     OW14827   6.666   2.033   0.228
 4643SOL    HW114828   6.732   1.986   0.170
 4643SOL    HW214829   6.635   1.970   0.300
 4644SOL     OW14830   6.911   0.604   5.519
 4644SOL    HW114831   6.998   0.568   5.551
 4644SOL    HW214832   6.836   0.570   5.577
 4645SOL     OW14833   2.253   1.031   4.172
 4645SOL    HW114834   2.274   1.097   4.099
 4645SOL    HW214835   2.159   0.999   4.163
 4646SOL     OW14836   2.348   5.522   3.725
 4646SOL    HW114837   2.298   5.570   3.653
 4646SOL    HW214838   2.441   5.503   3.694
 4647SOL     OW14839   2.008   0.251   2.644
 4647SOL    HW114840   1.958   0.333   2.674
 4647SOL    HW214841   2.055   0.211   2.723
 4648SOL     OW14842   3.514   0.906   3.825
 4648SOL    HW114843   3.512   0.876   3.920
 4648SOL    HW214844   3.563   0.837   3.770
 4649SOL     OW14845   6.256   0.691   0.550
 4649SOL    HW114846   6.304   0.776   0.531
 4649SOL    HW214847   6.163   0.713   0.582
 4650SOL     OW14848   4.633   5.207   2.297
 4650SOL    HW114849   4.650   5.113   2.324
 4650SOL    HW214850   4.597   5.209   2.203
 4651SOL     OW14851   6.822   3.372   6.868
 4651SOL    HW114852   6.834   3.408   6.960
 4651SOL    HW214853   6.889   3.412   6.807
 4652SOL     OW14854   6.413   6.365   5.358
 4652SOL    HW114855   6.435   6.270   5.381
 4652SOL    HW214856   6.375   6.410   5.439
 4653SOL     OW14857   4.959   5.962   1.097
 4653SOL    HW114858   4.914   5.892   1.151
 4653SOL    HW214859   4.911   5.974   1.010
 4654SOL     OW14860   0.530   5.843   6.223
 4654SOL    HW114861   0.467   5.807   6.291
 4654SOL    HW214862   0.577   5.767   6.178
 4655SOL     OW14863   5.425   4.105   1.487
 4655SOL    HW114864   5.325   4.104   1.482
 4655SOL    HW214865   5.457   4.031   1.546
 4656SOL     OW14866   1.125   1.111   1.693
 4656SOL    HW114867   1.110   1.210   1.689
 4656SOL    HW214868   1.043   1.067   1.730
 4657SOL     OW14869   4.319   5.341   2.007
 4657SOL    HW114870   4.285   5.396   2.083
 4657SOL    HW214871   4.298   5.245   2.023
 4658SOL     OW14872   3.070   1.771   4.691
 4658SOL    HW114873   3.108   1.812   4.774
 4658SOL    HW214874   3.140   1.772   4.619
 4659SOL     OW14875   2.730   4.248   6.591
 4659SOL    HW114876   2.746   4.212   6.683
 4659SOL    HW214877   2.766   4.341   6.585
 4660SOL     OW14878   1.508   6.452   4.463
 4660SOL    HW114879   1.563   6.382   4.417
 4660SOL    HW214880   1.431   6.477   4.405
 4661SOL     OW14881   2.707   5.103   5.854
 4661SOL    HW114882   2.714   5.111   5.754
 4661SOL    HW214883   2.784   5.051   5.889
 4662SOL     OW14884   3.080   0.232   5.599
 4662SOL    HW114885   2.992   0.247   5.555
 4662SOL    HW214886   3.079   0.273   5.691
 4663SOL     OW14887   0.435   0.656   0.923
 4663SOL    HW114888   0.479   0.677   0.836
 4663SOL    HW214889   0.501   0.614   0.985
 4664SOL     OW14890   0.693   0.485   0.480
 4664SOL    HW114891   0.744   0.533   0.551
 4664SOL    HW214892   0.682   0.545   0.401
 4665SOL     OW14893   2.733   0.181   5.857
 4665SOL    HW114894   2.682   0.096   5.876
 4665SOL    HW214895   2.828   0.170   5.886
 4666SOL     OW14896   2.133   2.073   6.774
 4666SOL    HW114897   2.110   2.036   6.864
 4666SOL    HW214898   2.127   2.001   6.705
 4667SOL     OW14899   6.320   4.042   1.889
 4667SOL    HW114900   6.346   4.062   1.795
 4667SOL    HW214901   6.296   3.945   1.897
 4668SOL     OW14902   4.784   1.649   4.219
 4668SOL    HW114903   4.733   1.732   4.244
 4668SOL    HW214904   4.881   1.665   4.234
 4669SOL     OW14905   5.336   6.510   6.280
 4669SOL    HW114906   5.334   6.538   6.376
 4669SOL    HW214907   5.360   6.587   6.222
 4670SOL     OW14908   1.018   2.705   6.811
 4670SOL    HW114909   1.114   2.727   6.799
 4670SOL    HW214910   0.978   2.680   6.722
 4671SOL     OW14911   0.448   3.555   6.730
 4671SOL    HW114912   0.485   3.520   6.643
 4671SOL    HW214913   0.435   3.654   6.722
 4672SOL     OW14914   3.702   4.578   6.136
 4672SOL    HW114915   3.638   4.653   6.122
 4672SOL    HW214916   3.656   4.504   6.185
 4673SOL     OW14917   4.822   0.038   1.099
 4673SOL    HW114918   4.808   0.068   1.004
 4673SOL    HW214919   4.893   6.982   1.102
 4674SOL     OW14920   5.622   1.500   0.486
 4674SOL    HW114921   5.540   1.452   0.458
 4674SOL    HW214922   5.597   1.580   0.541
 4675SOL     OW14923   3.603   0.566   0.054
 4675SOL    HW114924   3.634   0.496   7.006
 4675SOL    HW214925   3.668   0.575   0.129
 4676SOL     OW14926   0.429   6.651   4.561
 4676SOL    HW114927   0.421   6.629   4.658
 4676SOL    HW214928   0.410   6.748   4.547
 4677SOL     OW14929   2.843   0.952   0.400
 4677SOL    HW114930   2.770   0.933   0.334
 4677SOL    HW214931   2.821   1.035   0.451
 4678SOL     OW14932   2.039   4.442   2.419
 4678SOL    HW114933   1.954   4.493   2.411
 4678SOL    HW214934   2.114   4.505   2.442
 4679SOL     OW14935   3.806   1.183   6.963
 4679SOL    HW114936   3.737   1.235   6.913
 4679SOL    HW214937   3.789   1.085   6.951
 4680SOL     OW14938   1.929   0.316   2.235
 4680SOL    HW114939   1.854   0.257   2.263
 4680SOL    HW214940   1.950   0.299   2.138
 4681SOL     OW14941   6.066   5.711   5.655
 4681SOL    HW114942   6.019   5.637   5.607
 4681SOL    HW214943   6.157   5.682   5.682
 4682SOL     OW14944   4.838   4.395   6.760
 4682SOL    HW114945   4.844   4.456   6.680
 4682SOL    HW214946   4.917   4.411   6.819
 4683SOL     OW14947   5.212   4.570   2.989
 4683SOL    HW114948   5.154   4.489   2.979
 4683SOL    HW214949   5.247   4.598   2.900
 4684SOL     OW14950   6.778   1.743   4.133
 4684SOL    HW114951   6.861   1.709   4.089
 4684SOL    HW214952   6.796   1.757   4.231
 4685SOL     OW14953   0.589   6.181   4.677
 4685SOL    HW114954   0.641   6.098   4.700
 4685SOL    HW214955   0.493   6.167   4.701
 4686SOL     OW14956   5.213   5.866   0.398
 4686SOL    HW114957   5.197   5.770   0.421
 4686SOL    HW214958   5.308   5.879   0.371
 4687SOL     OW14959   6.770   4.939   5.187
 4687SOL    HW114960   6.809   5.006   5.123
 4687SOL    HW214961   6.670   4.950   5.190
 4688SOL     OW14962   6.996   3.311   5.882
 4688SOL    HW114963   7.013   3.212   5.878
 4688SOL    HW214964   0.007   3.353   5.795
 4689SOL     OW14965   5.427   0.282   6.898
 4689SOL    HW114966   5.353   0.239   6.950
 4689SOL    HW214967   5.466   0.357   6.952
 4690SOL     OW14968   1.216   1.652   0.236
 4690SOL    HW114969   1.289   1.585   0.228
 4690SOL    HW214970   1.248   1.731   0.288
 4691SOL     OW14971   3.164   4.245   1.530
 4691SOL    HW114972   3.088   4.221   1.591
 4691SOL    HW214973   3.167   4.180   1.455
 4692SOL     OW14974   6.878   5.456   2.429
 4692SOL    HW114975   6.820   5.457   2.510
 4692SOL    HW214976   6.851   5.530   2.368
 4693SOL     OW14977   1.076   0.683   4.134
 4693SOL    HW114978   1.072   0.688   4.034
 4693SOL    HW214979   1.137   0.754   4.168
 4694SOL     OW14980   3.090   0.461   6.943
 4694SOL    HW114981   2.993   0.479   6.961
 4694SOL    HW214982   3.144   0.537   6.980
 4695SOL     OW14983   2.976   3.321   1.274
 4695SOL    HW114984   2.922   3.346   1.354
 4695SOL    HW214985   2.935   3.362   1.192
 4696SOL     OW14986   0.531   4.226   5.353
 4696SOL    HW114987   0.462   4.242   5.423
 4696SOL    HW214988   0.600   4.299   5.356
 4697SOL     OW14989   1.431   3.001   0.826
 4697SOL    HW114990   1.415   3.092   0.865
 4697SOL    HW214991   1.492   3.009   0.748
 4698SOL     OW14992   4.058   5.683   3.134
 4698SOL    HW114993   4.077   5.713   3.228
 4698SOL    HW214994   3.981   5.619   3.135
 4699SOL     OW14995   0.943   6.665   2.279
 4699SOL    HW114996   0.881   6.719   2.337
 4699SOL    HW214997   0.916   6.676   2.183
 4700SOL     OW14998   5.967   1.312   2.402
 4700SOL    HW114999   6.031   1.341   2.331
 4700SOL    HW215000   5.958   1.212   2.399
 4701SOL     OW15001   1.182   2.398   0.705
 4701SOL    HW115002   1.166   2.488   0.665
 4701SOL    HW215003   1.245   2.345   0.648
 4702SOL     OW15004   5.971   4.949   6.508
 4702SOL    HW115005   6.018   4.888   6.572
 4702SOL    HW215006   6.000   5.043   6.525
 4703SOL     OW15007   1.511   2.389   2.030
 4703SOL    HW115008   1.490   2.316   2.095
 4703SOL    HW215009   1.500   2.354   1.937
 4704SOL     OW15010   0.341   6.805   6.812
 4704SOL    HW115011   0.284   6.878   6.775
 4704SOL    HW215012   0.422   6.793   6.755
 4705SOL     OW15013   3.830   3.348   2.886
 4705SOL    HW115014   3.761   3.278   2.868
 4705SOL    HW215015   3.919   3.314   2.857
 4706SOL     OW15016   3.709   6.171   6.815
 4706SOL    HW115017   3.691   6.191   6.912
 4706SOL    HW215018   3.793   6.216   6.787
 4707SOL     OW15019   2.150   5.990   0.771
 4707SOL    HW115020   2.060   6.010   0.812
 4707SOL    HW215021   2.143   5.907   0.716
 4708SOL     OW15022   1.745   2.113   6.845
 4708SOL    HW115023   1.794   2.026   6.839
 4708SOL    HW215024   1.647   2.097   6.831
 4709SOL     OW15025   3.675   4.947   5.552
 4709SOL    HW115026   3.661   4.965   5.455
 4709SOL    HW215027   3.591   4.965   5.603
 4710SOL     OW15028   3.725   1.078   5.428
 4710SOL    HW115029   3.766   1.150   5.372
 4710SOL    HW215030   3.759   1.084   5.522
 4711SOL     OW15031   5.155   0.469   2.433
 4711SOL    HW115032   5.193   0.555   2.397
 4711SOL    HW215033   5.218   0.430   2.500
 4712SOL     OW15034   3.042   4.465   0.541
 4712SOL    HW115035   3.017   4.435   0.449
 4712SOL    HW215036   3.106   4.400   0.582
 4713SOL     OW15037   2.673   4.016   0.984
 4713SOL    HW115038   2.751   4.058   0.937
 4713SOL    HW215039   2.596   4.009   0.920
 4714SOL     OW15040   1.947   1.940   0.197
 4714SOL    HW115041   1.862   1.888   0.198
 4714SOL    HW215042   1.929   2.034   0.170
 4715SOL     OW15043   6.628   3.942   1.841
 4715SOL    HW115044   6.670   3.857   1.808
 4715SOL    HW215045   6.566   3.977   1.771
 4716SOL     OW15046   4.037   5.904   6.650
 4716SOL    HW115047   3.946   5.935   6.624
 4716SOL    HW215048   4.038   5.804   6.657
 4717SOL     OW15049   0.569   6.190   3.317
 4717SOL    HW115050   0.643   6.161   3.256
 4717SOL    HW215051   0.582   6.286   3.341
 4718SOL     OW15052   5.557   2.017   6.757
 4718SOL    HW115053   5.581   2.085   6.687
 4718SOL    HW215054   5.497   1.948   6.717
 4719SOL     OW15055   4.912   3.120   2.649
 4719SOL    HW115056   4.919   3.108   2.748
 4719SOL    HW215057   4.854   3.049   2.610
 4720SOL     OW15058   2.298   5.954   5.593
 4720SOL    HW115059   2.219   6.012   5.571
 4720SOL    HW215060   2.266   5.861   5.613
 4721SOL     OW15061   6.481   2.323   1.395
 4721SOL    HW115062   6.506   2.410   1.437
 4721SOL    HW215063   6.501   2.326   1.297
 4722SOL     OW15064   1.290   6.364   0.035
 4722SOL    HW115065   1.325   6.443   6.999
 4722SOL    HW215066   1.331   6.363   0.126
 4723SOL     OW15067   1.882   4.853   6.018
 4723SOL    HW115068   1.892   4.861   6.117
 4723SOL    HW215069   1.833   4.933   5.983
 4724SOL     OW15070   4.790   5.776   2.910
 4724SOL    HW115071   4.774   5.828   2.826
 4724SOL    HW215072   4.838   5.691   2.888
 4725SOL     OW15073   5.852   6.949   2.867
 4725SOL    HW115074   5.850   0.033   2.879
 4725SOL    HW215075   5.925   6.910   2.924
 4726SOL     OW15076   1.659   3.178   6.612
 4726SOL    HW115077   1.730   3.117   6.647
 4726SOL    HW215078   1.641   3.157   6.516
 4727SOL     OW15079   6.717   6.402   0.128
 4727SOL    HW115080   6.772   6.451   0.060
 4727SOL    HW215081   6.637   6.362   0.084
 4728SOL     OW15082   5.032   1.839   1.163
 4728SOL    HW115083   4.935   1.863   1.157
 4728SOL    HW215084   5.046   1.778   1.240
 4729SOL     OW15085   2.757   1.291   2.361
 4729SOL    HW115086   2.741   1.315   2.457
 4729SOL    HW215087   2.672   1.261   2.319
 4730SOL     OW15088   2.164   5.702   5.355
 4730SOL    HW115089   2.237   5.769   5.337
 4730SOL    HW215090   2.117   5.680   5.270
 4731SOL     OW15091   4.405   0.479   6.383
 4731SOL    HW115092   4.490   0.430   6.360
 4731SOL    HW215093   4.372   0.526   6.302
 4732SOL     OW15094   6.960   3.612   6.028
 4732SOL    HW115095   7.015   3.610   6.111
 4732SOL    HW215096   6.871   3.569   6.045
 4733SOL     OW15097   1.136   4.030   2.933
 4733SOL    HW115098   1.056   4.014   2.876
 4733SOL    HW215099   1.111   4.086   3.012
 4734SOL     OW15100   4.678   3.309   6.736
 4734SOL    HW115101   4.618   3.245   6.786
 4734SOL    HW215102   4.629   3.394   6.720
 4735SOL     OW15103   0.539   5.604   4.323
 4735SOL    HW115104   0.620   5.646   4.281
 4735SOL    HW215105   0.517   5.518   4.277
 4736SOL     OW15106   0.631   1.777   6.500
 4736SOL    HW115107   0.587   1.858   6.461
 4736SOL    HW215108   0.651   1.793   6.597
 4737SOL     OW15109   1.418   4.925   2.204
 4737SOL    HW115110   1.499   4.885   2.161
 4737SOL    HW215111   1.362   4.970   2.135
 4738SOL     OW15112   6.706   5.868   3.034
 4738SOL    HW115113   6.773   5.866   3.108
 4738SOL    HW215114   6.616   5.841   3.069
 4739SOL     OW15115   4.497   6.611   3.024
 4739SOL    HW115116   4.477   6.614   3.122
 4739SOL    HW215117   4.545   6.694   2.996
 4740SOL     OW15118   0.361   1.141   1.648
 4740SOL    HW115119   0.449   1.187   1.661
 4740SOL    HW215120   0.328   1.158   1.555
 4741SOL     OW15121   3.237   2.396   1.625
 4741SOL    HW115122   3.202   2.429   1.537
 4741SOL    HW215123   3.168   2.339   1.669
 4742SOL     OW15124   1.935   6.913   5.644
 4742SOL    HW115125   1.852   6.865   5.616
 4742SOL    HW215126   1.939   6.918   5.744
 4743SOL     OW15127   2.097   3.546   3.169
 4743SOL    HW115128   2.045   3.623   3.130
 4743SOL    HW215129   2.153   3.578   3.245
 4744SOL     OW15130   2.141   4.831   0.916
 4744SOL    HW115131   2.062   4.892   0.905
 4744SOL    HW215132   2.223   4.885   0.929
 4745SOL     OW15133   3.433   3.879   6.952
 4745SOL    HW115134   3.437   3.887   0.036
 4745SOL    HW215135   3.396   3.789   6.926
 4746SOL     OW15136   4.590   6.260   3.871
 4746SOL    HW115137   4.574   6.293   3.778
 4746SOL    HW215138   4.579   6.336   3.936
 4747SOL     OW15139   0.589   4.026   0.541
 4747SOL    HW115140   0.585   3.988   0.634
 4747SOL    HW215141   0.571   3.954   0.475
 4748SOL     OW15142   1.655   6.656   1.500
 4748SOL    HW115143   1.705   6.595   1.439
 4748SOL    HW215144   1.557   6.638   1.491
 4749SOL     OW15145   1.788   0.064   6.318
 4749SOL    HW115146   1.841   0.103   6.242
 4749SOL    HW215147   1.713   0.125   6.341
 4750SOL     OW15148   6.410   3.338   5.479
 4750SOL    HW115149   6.405   3.423   5.427
 4750SOL    HW215150   6.504   3.322   5.507
 4751SOL     OW15151   4.611   2.600   3.066
 4751SOL    HW115152   4.657   2.536   3.128
 4751SOL    HW215153   4.547   2.550   3.007
 4752SOL     OW15154   4.701   0.567   0.319
 4752SOL    HW115155   4.618   0.617   0.296
 4752SOL    HW215156   4.727   0.586   0.414
 4753SOL     OW15157   0.954   6.746   3.887
 4753SOL    HW115158   1.002   6.712   3.806
 4753SOL    HW215159   1.021   6.765   3.959
 4754SOL     OW15160   5.028   3.722   5.097
 4754SOL    HW115161   4.951   3.668   5.063
 4754SOL    HW215162   5.095   3.662   5.140
 4755SOL     OW15163   2.730   0.619   0.802
 4755SOL    HW115164   2.706   0.527   0.769
 4755SOL    HW215165   2.753   0.677   0.724
 4756SOL     OW15166   6.452   3.757   5.611
 4756SOL    HW115167   6.435   3.679   5.672
 4756SOL    HW215168   6.376   3.821   5.616
 4757SOL     OW15169   1.469   2.610   1.349
 4757SOL    HW115170   1.377   2.636   1.317
 4757SOL    HW215171   1.529   2.689   1.344
 4758SOL     OW15172   1.262   6.870   3.273
 4758SOL    HW115173   1.312   6.799   3.223
 4758SOL    HW215174   1.324   6.916   3.337
 4759SOL     OW15175   0.843   5.474   6.289
 4759SOL    HW115176   0.900   5.394   6.269
 4759SOL    HW215177   0.806   5.466   6.382
 4760SOL     OW15178   1.927   1.293   0.808
 4760SOL    HW115179   1.832   1.264   0.819
 4760SOL    HW215180   1.985   1.213   0.792
 4761SOL     OW15181   1.405   0.820   0.746
 4761SOL    HW115182   1.365   0.866   0.667
 4761SOL    HW215183   1.375   0.724   0.747
 4762SOL     OW15184   1.659   5.813   2.155
 4762SOL    HW115185   1.577   5.862   2.184
 4762SOL    HW215186   1.702   5.862   2.079
 4763SOL     OW15187   4.867   0.654   2.388
 4763SOL    HW115188   4.903   0.693   2.473
 4763SOL    HW215189   4.833   0.562   2.405
 4764SOL     OW15190   4.484   3.500   5.284
 4764SOL    HW115191   4.557   3.547   5.235
 4764SOL    HW215192   4.518   3.468   5.372
 4765SOL     OW15193   3.814   1.020   5.689
 4765SOL    HW115194   3.860   0.932   5.700
 4765SOL    HW215195   3.880   1.094   5.703
 4766SOL     OW15196   6.229   6.447   4.351
 4766SOL    HW115197   6.210   6.369   4.411
 4766SOL    HW215198   6.328   6.454   4.338
 4767SOL     OW15199   2.663   4.938   5.537
 4767SOL    HW115200   2.706   5.026   5.554
 4767SOL    HW215201   2.656   4.922   5.438
 4768SOL     OW15202   3.514   2.917   5.786
 4768SOL    HW115203   3.598   2.869   5.762
 4768SOL    HW215204   3.441   2.851   5.802
 4769SOL     OW15205   3.568   6.217   0.486
 4769SOL    HW115206   3.649   6.188   0.434
 4769SOL    HW215207   3.579   6.313   0.513
 4770SOL     OW15208   0.248   1.949   4.814
 4770SOL    HW115209   0.257   1.907   4.724
 4770SOL    HW215210   0.161   1.920   4.855
 4771SOL     OW15211   2.450   6.799   6.286
 4771SOL    HW115212   2.460   6.881   6.341
 4771SOL    HW215213   2.398   6.730   6.337
 4772SOL     OW15214   3.235   4.778   1.501
 4772SOL    HW115215   3.150   4.828   1.516
 4772SOL    HW215216   3.245   4.758   1.404
 4773SOL     OW15217   0.947   5.871   5.127
 4773SOL    HW115218   0.983   5.792   5.177
 4773SOL    HW215219   0.892   5.926   5.190
 4774SOL     OW15220   1.338   4.360   1.479
 4774SOL    HW115221   1.352   4.277   1.534
 4774SOL    HW215222   1.310   4.335   1.387
 4775SOL     OW15223   5.050   0.327   4.103
 4775SOL    HW115224   5.148   0.311   4.116
 4775SOL    HW215225   5.025   0.308   4.008
 4776SOL     OW15226   0.904   1.106   5.056
 4776SOL    HW115227   0.919   1.053   4.973
 4776SOL    HW215228   0.892   1.203   5.032
 4777SOL     OW15229   1.662   5.687   1.047
 4777SOL    HW115230   1.575   5.732   1.026
 4777SOL    HW215231   1.651   5.588   1.039
 4778SOL     OW15232   0.117   2.983   4.668
 4778SOL    HW115233   0.195   2.922   4.654
 4778SOL    HW215234   0.122   3.024   4.759
 4779SOL     OW15235   5.422   6.799   3.705
 4779SOL    HW115236   5.503   6.791   3.647
 4779SOL    HW215237   5.439   6.865   3.778
 4780SOL     OW15238   6.084   2.474   6.615
 4780SOL    HW115239   6.151   2.548   6.612
 4780SOL    HW215240   6.009   2.495   6.552
 4781SOL     OW15241   3.030   5.062   2.172
 4781SOL    HW115242   3.098   5.000   2.133
 4781SOL    HW215243   3.060   5.157   2.159
 4782SOL     OW15244   6.361   5.656   6.263
 4782SOL    HW115245   6.455   5.648   6.230
 4782SOL    HW215246   6.349   5.744   6.310
 4783SOL     OW15247   5.804   3.895   0.040
 4783SOL    HW115248   5.844   3.806   0.063
 4783SOL    HW215249   5.842   3.965   0.100
 4784SOL     OW15250   5.991   2.149   6.239
 4784SOL    HW115251   6.070   2.088   6.234
 4784SOL    HW215252   5.909   2.099   6.211
 4785SOL     OW15253   0.197   6.726   3.097
 4785SOL    HW115254   0.191   6.791   3.173
 4785SOL    HW215255   0.252   6.647   3.124
 4786SOL     OW15256   2.556   6.804   7.014
 4786SOL    HW115257   2.511   6.796   6.925
 4786SOL    HW215258   2.637   6.863   7.005
 4787SOL     OW15259   3.913   1.811   3.546
 4787SOL    HW115260   3.889   1.767   3.460
 4787SOL    HW215261   3.889   1.750   3.622
 4788SOL     OW15262   6.244   6.228   0.827
 4788SOL    HW115263   6.228   6.287   0.748
 4788SOL    HW215264   6.340   6.232   0.853
 4789SOL     OW15265   4.961   1.690   1.705
 4789SOL    HW115266   4.937   1.683   1.802
 4789SOL    HW215267   5.046   1.642   1.687
 4790SOL     OW15268   5.701   2.058   5.783
 4790SOL    HW115269   5.742   2.133   5.732
 4790SOL    HW215270   5.602   2.071   5.789
 4791SOL     OW15271   6.953   3.023   1.709
 4791SOL    HW115272   0.024   3.004   1.755
 4791SOL    HW215273   6.971   3.063   1.619
 4792SOL     OW15274   2.415   4.421   4.417
 4792SOL    HW115275   2.407   4.410   4.516
 4792SOL    HW215276   2.490   4.484   4.396
 4793SOL     OW15277   1.788   3.696   5.226
 4793SOL    HW115278   1.834   3.609   5.210
 4793SOL    HW215279   1.848   3.772   5.200
 4794SOL     OW15280   4.434   6.790   4.450
 4794SOL    HW115281   4.518   6.778   4.503
 4794SOL    HW215282   4.357   6.809   4.511
 4795SOL     OW15283   6.574   1.796   4.423
 4795SOL    HW115284   6.525   1.714   4.393
 4795SOL    HW215285   6.511   1.874   4.425
 4796SOL     OW15286   3.754   0.287   6.247
 4796SOL    HW115287   3.673   0.314   6.194
 4796SOL    HW215288   3.766   0.188   6.241
 4797SOL     OW15289   0.593   5.967   4.430
 4797SOL    HW115290   0.530   6.008   4.496
 4797SOL    HW215291   0.654   5.904   4.477
 4798SOL     OW15292   5.661   5.126   5.433
 4798SOL    HW115293   5.738   5.124   5.497
 4798SOL    HW215294   5.670   5.052   5.367
 4799SOL     OW15295   4.235   1.335   0.171
 4799SOL    HW115296   4.136   1.329   0.187
 4799SOL    HW215297   4.251   1.357   0.075
 4800SOL     OW15298   1.436   3.976   6.465
 4800SOL    HW115299   1.410   4.037   6.540
 4800SOL    HW215300   1.377   3.895   6.465
 4801SOL     OW15301   3.712   2.695   6.589
 4801SOL    HW115302   3.698   2.777   6.534
 4801SOL    HW215303   3.677   2.615   6.540
 4802SOL     OW15304   6.511   6.433   1.632
 4802SOL    HW115305   6.559   6.422   1.544
 4802SOL    HW215306   6.552   6.371   1.699
 4803SOL     OW15307   6.602   4.764   0.820
 4803SOL    HW115308   6.569   4.707   0.896
 4803SOL    HW215309   6.655   4.709   0.757
 4804SOL     OW15310   5.686   6.918   0.763
 4804SOL    HW115311   5.636   6.988   0.712
 4804SOL    HW215312   5.775   6.903   0.719
 4805SOL     OW15313   6.318   0.783   2.313
 4805SOL    HW115314   6.317   0.754   2.217
 4805SOL    HW215315   6.412   0.797   2.343
 4806SOL     OW15316   0.934   3.474   2.637
 4806SOL    HW115317   0.963   3.569   2.627
 4806SOL    HW215318   0.841   3.464   2.600
 4807SOL     OW15319   1.244   3.728   6.492
 4807SOL    HW115320   1.321   3.675   6.526
 4807SOL    HW215321   1.169   3.666   6.468
 4808SOL     OW15322   4.210   5.332   0.489
 4808SOL    HW115323   4.113   5.331   0.462
 4808SOL    HW215324   4.219   5.294   0.581
 4809SOL     OW15325   3.941   4.242   1.660
 4809SOL    HW115326   3.946   4.342   1.661
 4809SOL    HW215327   3.925   4.210   1.567
 4810SOL     OW15328   1.516   4.812   3.482
 4810SOL    HW115329   1.537   4.795   3.578
 4810SOL    HW215330   1.601   4.811   3.429
 4811SOL     OW15331   3.862   3.613   3.655
 4811SOL    HW115332   3.890   3.647   3.744
 4811SOL    HW215333   3.806   3.682   3.609
 4812SOL     OW15334   0.422   6.926   2.104
 4812SOL    HW115335   0.477   6.893   2.028
 4812SOL    HW215336   0.325   6.910   2.085
 4813SOL     OW15337   6.398   1.875   6.347
 4813SOL    HW115338   6.485   1.891   6.394
 4813SOL    HW215339   6.333   1.836   6.412
 4814SOL     OW15340   6.861   3.545   1.983
 4814SOL    HW115341   6.827   3.453   2.004
 4814SOL    HW215342   6.863   3.600   2.066
 4815SOL     OW15343   5.343   4.774   3.116
 4815SOL    HW115344   5.433   4.765   3.074
 4815SOL    HW215345   5.283   4.701   3.083
 4816SOL     OW15346   2.232   5.731   1.140
 4816SOL    HW115347   2.216   5.731   1.238
 4816SOL    HW215348   2.206   5.643   1.101
 4817SOL     OW15349   3.145   1.079   1.819
 4817SOL    HW115350   3.081   1.149   1.847
 4817SOL    HW215351   3.119   1.043   1.729
 4818SOL     OW15352   0.965   1.556   4.172
 4818SOL    HW115353   1.033   1.570   4.100
 4818SOL    HW215354   0.916   1.642   4.188
 4819SOL     OW15355   3.211   1.875   1.651
 4819SOL    HW115356   3.310   1.882   1.666
 4819SOL    HW215357   3.178   1.958   1.607
 4820SOL     OW15358   6.216   2.725   0.605
 4820SOL    HW115359   6.121   2.758   0.599
 4820SOL    HW215360   6.234   2.693   0.699
 4821SOL     OW15361   6.699   6.803   1.377
 4821SOL    HW115362   6.746   6.805   1.288
 4821SOL    HW215363   6.605   6.772   1.364
 4822SOL     OW15364   1.825   2.843   3.954
 4822SOL    HW115365   1.753   2.908   3.929
 4822SOL    HW215366   1.829   2.770   3.886
 4823SOL     OW15367   0.077   1.187   3.917
 4823SOL    HW115368   0.137   1.260   3.884
 4823SOL    HW215369   0.101   1.101   3.872
 4824SOL     OW15370   5.807   1.767   3.744
 4824SOL    HW115371   5.803   1.694   3.676
 4824SOL    HW215372   5.845   1.849   3.702
 4825SOL     OW15373   2.160   2.909   4.684
 4825SOL    HW115374   2.099   2.858   4.623
 4825SOL    HW215375   2.231   2.847   4.719
 4826SOL     OW15376   0.772   0.538   0.069
 4826SOL    HW115377   0.762   0.629   0.028
 4826SOL    HW215378   0.792   0.471   7.013
 4827SOL     OW15379   6.020   0.767   1.643
 4827SOL    HW115380   6.004   0.677   1.683
 4827SOL    HW215381   6.118   0.785   1.638
 4828SOL     OW15382   5.398   3.475   0.987
 4828SOL    HW115383   5.429   3.536   0.914
 4828SOL    HW215384   5.329   3.412   0.950
 4829SOL     OW15385   3.869   6.428   6.779
 4829SOL    HW115386   3.863   6.502   6.846
 4829SOL    HW215387   3.804   6.445   6.705
 4830SOL     OW15388   5.567   5.877   4.134
 4830SOL    HW115389   5.490   5.923   4.090
 4830SOL    HW215390   5.629   5.841   4.064
 4831SOL     OW15391   6.494   5.385   6.030
 4831SOL    HW115392   6.439   5.469   6.027
 4831SOL    HW215393   6.483   5.342   6.120
 4832SOL     OW15394   2.620   2.524   5.769
 4832SOL    HW115395   2.577   2.593   5.827
 4832SOL    HW215396   2.612   2.434   5.813
 4833SOL     OW15397   5.133   1.469   3.086
 4833SOL    HW115398   5.108   1.377   3.054
 4833SOL    HW215399   5.204   1.462   3.156
 4834SOL     OW15400   3.754   0.529   0.306
 4834SOL    HW115401   3.848   0.559   0.321
 4834SOL    HW215402   3.696   0.562   0.381
 4835SOL     OW15403   1.136   0.761   6.768
 4835SOL    HW115404   1.221   0.737   6.815
 4835SOL    HW215405   1.111   0.855   6.791
 4836SOL     OW15406   4.795   2.673   3.706
 4836SOL    HW115407   4.755   2.656   3.796
 4836SOL    HW215408   4.742   2.625   3.636
 4837SOL     OW15409   4.275   3.366   1.752
 4837SOL    HW115410   4.185   3.401   1.724
 4837SOL    HW215411   4.266   3.270   1.778
 4838SOL     OW15412   2.719   5.057   1.509
 4838SOL    HW115413   2.664   5.022   1.433
 4838SOL    HW215414   2.659   5.098   1.577
 4839SOL     OW15415   1.709   3.742   5.678
 4839SOL    HW115416   1.714   3.769   5.774
 4839SOL    HW215417   1.671   3.817   5.624
 4840SOL     OW15418   0.825   6.972   6.014
 4840SOL    HW115419   0.893   6.999   6.083
 4840SOL    HW215420   0.849   6.882   5.978
 4841SOL     OW15421   2.857   6.028   1.229
 4841SOL    HW115422   2.769   6.042   1.274
 4841SOL    HW215423   2.859   6.082   1.144
 4842SOL     OW15424   3.336   4.820   1.884
 4842SOL    HW115425   3.337   4.920   1.892
 4842SOL    HW215426   3.427   4.784   1.900
 4843SOL     OW15427   6.215   4.130   0.779
 4843SOL    HW115428   6.314   4.124   0.766
 4843SOL    HW215429   6.189   4.074   0.858
 4844SOL     OW15430   6.637   3.265   5.603
 4844SOL    HW115431   6.703   3.333   5.570
 4844SOL    HW215432   6.614   3.285   5.699
 4845SOL     OW15433   6.787   5.717   4.619
 4845SOL    HW115434   6.717   5.786   4.636
 4845SOL    HW215435   6.865   5.759   4.573
 4846SOL     OW15436   6.520   2.954   2.731
 4846SOL    HW115437   6.465   2.985   2.654
 4846SOL    HW215438   6.464   2.954   2.814
 4847SOL     OW15439   3.546   1.852   5.835
 4847SOL    HW115440   3.459   1.819   5.870
 4847SOL    HW215441   3.554   1.830   5.738
 4848SOL     OW15442   1.724   0.777   3.625
 4848SOL    HW115443   1.797   0.846   3.626
 4848SOL    HW215444   1.662   0.795   3.549
 4849SOL     OW15445   1.122   6.915   6.792
 4849SOL    HW115446   1.178   6.839   6.758
 4849SOL    HW215447   1.135   6.924   6.891
 4850SOL     OW15448   4.244   1.346   2.490
 4850SOL    HW115449   4.331   1.347   2.439
 4850SOL    HW215450   4.260   1.377   2.584
 4851SOL     OW15451   3.397   5.594   5.047
 4851SOL    HW115452   3.430   5.685   5.072
 4851SOL    HW215453   3.322   5.602   4.982
 4852SOL     OW15454   1.196   0.401   6.096
 4852SOL    HW115455   1.104   0.381   6.131
 4852SOL    HW215456   1.247   0.455   6.163
 4853SOL     OW15457   3.027   1.178   2.418
 4853SOL    HW115458   2.999   1.093   2.462
 4853SOL    HW215459   2.948   1.221   2.373
 4854SOL     OW15460   4.926   6.360   2.504
 4854SOL    HW115461   5.004   6.353   2.441
 4854SOL    HW215462   4.855   6.415   2.462
 4855SOL     OW15463   5.895   2.532   2.503
 4855SOL    HW115464   5.925   2.533   2.408
 4855SOL    HW215465   5.825   2.462   2.515
 4856SOL     OW15466   2.204   3.835   2.792
 4856SOL    HW115467   2.248   3.918   2.825
 4856SOL    HW215468   2.114   3.857   2.755
 4857SOL     OW15469   2.025   2.648   5.502
 4857SOL    HW115470   2.074   2.734   5.491
 4857SOL    HW215471   1.989   2.642   5.595
 4858SOL     OW15472   1.647   1.021   4.505
 4858SOL    HW115473   1.596   1.106   4.514
 4858SOL    HW215474   1.744   1.037   4.523
 4859SOL     OW15475   1.406   0.592   4.265
 4859SOL    HW115476   1.445   0.621   4.178
 4859SOL    HW215477   1.405   0.669   4.329
 4860SOL     OW15478   3.602   5.060   1.866
 4860SOL    HW115479   3.515   5.059   1.914
 4860SOL    HW215480   3.645   4.970   1.872
 4861SOL     OW15481   5.204   5.325   0.305
 4861SOL    HW115482   5.232   5.254   0.241
 4861SOL    HW215483   5.237   5.304   0.397
 4862SOL     OW15484   2.917   4.873   4.917
 4862SOL    HW115485   2.887   4.790   4.963
 4862SOL    HW215486   2.855   4.949   4.940
 4863SOL     OW15487   5.924   4.453   1.628
 4863SOL    HW115488   5.974   4.477   1.711
 4863SOL    HW215489   5.985   4.461   1.549
 4864SOL     OW15490   3.734   1.131   3.771
 4864SOL    HW115491   3.697   1.147   3.680
 4864SOL    HW215492   3.759   1.034   3.781
 4865SOL     OW15493   1.844   0.482   5.355
 4865SOL    HW115494   1.758   0.495   5.405
 4865SOL    HW215495   1.893   0.570   5.350
 4866SOL     OW15496   6.830   2.812   0.919
 4866SOL    HW115497   6.876   2.724   0.922
 4866SOL    HW215498   6.871   2.868   0.846
 4867SOL     OW15499   3.870   5.489   3.703
 4867SOL    HW115500   3.956   5.454   3.739
 4867SOL    HW215501   3.864   5.468   3.605
 4868SOL     OW15502   6.980   5.193   2.502
 4868SOL    HW115503   6.928   5.211   2.586
 4868SOL    HW215504   6.945   5.251   2.428
 4869SOL     OW15505   1.740   1.852   2.227
 4869SOL    HW115506   1.674   1.794   2.180
 4869SOL    HW215507   1.789   1.908   2.160
 4870SOL     OW15508   0.503   6.248   2.060
 4870SOL    HW115509   0.583   6.285   2.107
 4870SOL    HW215510   0.454   6.186   2.121
 4871SOL     OW15511   1.034   0.927   3.370
 4871SOL    HW115512   0.936   0.929   3.350
 4871SOL    HW215513   1.051   0.860   3.443
 4872SOL     OW15514   6.004   0.146   3.332
 4872SOL    HW115515   6.038   0.070   3.388
 4872SOL    HW215516   6.038   0.232   3.368
 4873SOL     OW15517   6.923   5.320   3.987
 4873SOL    HW115518   6.852   5.391   3.995
 4873SOL    HW215519   7.012   5.364   3.973
 4874SOL     OW15520   5.523   4.076   2.571
 4874SOL    HW115521   5.557   3.986   2.543
 4874SOL    HW215522   5.598   4.132   2.605
 4875SOL     OW15523   6.188   1.570   0.297
 4875SOL    HW115524   6.261   1.592   0.233
 4875SOL    HW215525   6.143   1.485   0.270
 4876SOL     OW15526   6.586   1.945   3.510
 4876SOL    HW115527   6.586   2.009   3.434
 4876SOL    HW215528   6.533   1.982   3.587
 4877SOL     OW15529   0.466   1.451   5.545
 4877SOL    HW115530   0.526   1.510   5.599
 4877SOL    HW215531   0.431   1.501   5.467
 4878SOL     OW15532   6.307   1.567   1.479
 4878SOL    HW115533   6.354   1.566   1.568
 4878SOL    HW215534   6.371   1.542   1.407
 4879SOL     OW15535   4.182   1.792   1.905
 4879SOL    HW115536   4.119   1.835   1.969
 4879SOL    HW215537   4.249   1.860   1.874
 4880SOL     OW15538   5.620   3.501   0.128
 4880SOL    HW115539   5.577   3.443   0.059
 4880SOL    HW215540   5.554   3.567   0.162
 4881SOL     OW15541   1.523   1.488   0.099
 4881SOL    HW115542   1.622   1.485   0.089
 4881SOL    HW215543   1.499   1.486   0.196
 4882SOL     OW15544   4.729   0.807   4.961
 4882SOL    HW115545   4.668   0.879   4.996
 4882SOL    HW215546   4.810   0.802   5.019
 4883SOL     OW15547   4.855   4.517   1.499
 4883SOL    HW115548   4.868   4.420   1.520
 4883SOL    HW215549   4.757   4.537   1.500
 4884SOL     OW15550   2.969   5.795   1.646
 4884SOL    HW115551   3.011   5.868   1.699
 4884SOL    HW215552   3.035   5.759   1.580
 4885SOL     OW15553   2.135   5.342   0.849
 4885SOL    HW115554   2.185   5.400   0.913
 4885SOL    HW215555   2.187   5.258   0.833
 4886SOL     OW15556   2.162   6.319   1.729
 4886SOL    HW115557   2.202   6.406   1.700
 4886SOL    HW215558   2.075   6.304   1.682
 4887SOL     OW15559   0.233   6.736   1.404
 4887SOL    HW115560   0.184   6.735   1.317
 4887SOL    HW215561   0.323   6.693   1.391
 4888SOL     OW15562   2.828   0.024   4.365
 4888SOL    HW115563   2.814   0.028   4.266
 4888SOL    HW215564   2.861   0.112   4.398
 4889SOL     OW15565   0.115   1.392   5.028
 4889SOL    HW115566   0.059   1.436   5.098
 4889SOL    HW215567   0.209   1.424   5.035
 4890SOL     OW15568   6.739   1.200   5.884
 4890SOL    HW115569   6.836   1.194   5.858
 4890SOL    HW215570   6.685   1.222   5.803
 4891SOL     OW15571   2.202   4.770   0.155
 4891SOL    HW115572   2.146   4.840   0.198
 4891SOL    HW215573   2.287   4.759   0.207
 4892SOL     OW15574   4.119   5.660   2.432
 4892SOL    HW115575   4.178   5.714   2.372
 4892SOL    HW215576   4.066   5.722   2.490
 4893SOL     OW15577   5.589   2.598   1.729
 4893SOL    HW115578   5.492   2.577   1.713
 4893SOL    HW215579   5.615   2.566   1.820
 4894SOL     OW15580   3.833   1.049   2.972
 4894SOL    HW115581   3.739   1.051   2.940
 4894SOL    HW215582   3.886   1.120   2.926
 4895SOL     OW15583   0.521   4.666   4.152
 4895SOL    HW115584   0.483   4.747   4.198
 4895SOL    HW215585   0.486   4.663   4.058
 4896SOL     OW15586   2.347   4.260   2.267
 4896SOL    HW115587   2.397   4.325   2.210
 4896SOL    HW215588   2.273   4.307   2.314
 4897SOL     OW15589   1.504   5.204   5.422
 4897SOL    HW115590   1.548   5.292   5.407
 4897SOL    HW215591   1.572   5.131   5.416
 4898SOL     OW15592   4.585   1.286   4.832
 4898SOL    HW115593   4.606   1.261   4.927
 4898SOL    HW215594   4.658   1.343   4.796
 4899SOL     OW15595   5.867   5.488   3.159
 4899SOL    HW115596   5.868   5.585   3.184
 4899SOL    HW215597   5.782   5.467   3.112
 4900SOL     OW15598   3.724   6.235   5.145
 4900SOL    HW115599   3.765   6.300   5.209
 4900SOL    HW215600   3.752   6.142   5.170
 4901SOL     OW15601   2.161   1.589   5.174
 4901SOL    HW115602   2.154   1.503   5.123
 4901SOL    HW215603   2.073   1.636   5.173
 4902SOL     OW15604   1.486   1.802   4.801
 4902SOL    HW115605   1.436   1.739   4.741
 4902SOL    HW215606   1.422   1.868   4.840
 4903SOL     OW15607   3.895   5.665   6.900
 4903SOL    HW115608   3.958   5.660   6.978
 4903SOL    HW215609   3.817   5.724   6.924
 4904SOL     OW15610   1.905   0.142   5.487
 4904SOL    HW115611   1.975   0.202   5.448
 4904SOL    HW215612   1.947   0.056   5.515
 4905SOL     OW15613   3.536   0.626   3.310
 4905SOL    HW115614   3.523   0.533   3.342
 4905SOL    HW215615   3.602   0.628   3.236
 4906SOL     OW15616   4.938   1.900   6.260
 4906SOL    HW115617   4.846   1.938   6.249
 4906SOL    HW215618   5.006   1.966   6.228
 4907SOL     OW15619   4.570   6.603   2.043
 4907SOL    HW115620   4.518   6.650   1.971
 4907SOL    HW215621   4.532   6.512   2.058
 4908SOL     OW15622   5.559   6.349   6.803
 4908SOL    HW115623   5.522   6.292   6.876
 4908SOL    HW215624   5.656   6.365   6.818
 4909SOL     OW15625   0.087   5.648   3.326
 4909SOL    HW115626   0.128   5.562   3.295
 4909SOL    HW215627   0.126   5.673   3.415
 4910SOL     OW15628   5.189   1.085   4.176
 4910SOL    HW115629   5.221   1.041   4.092
 4910SOL    HW215630   5.103   1.044   4.205
 4911SOL     OW15631   1.780   4.033   3.164
 4911SOL    HW115632   1.725   4.042   3.081
 4911SOL    HW215633   1.723   3.997   3.238
 4912SOL     OW15634   5.693   1.747   6.322
 4912SOL    HW115635   5.698   1.670   6.386
 4912SOL    HW215636   5.613   1.736   6.263
 4913SOL     OW15637   3.927   3.172   5.116
 4913SOL    HW115638   3.877   3.187   5.201
 4913SOL    HW215639   3.893   3.089   5.071
 4914SOL     OW15640   4.701   6.822   5.101
 4914SOL    HW115641   4.607   6.841   5.131
 4914SOL    HW215642   4.763   6.887   5.144
 4915SOL     OW15643   2.515   6.133   5.707
 4915SOL    HW115644   2.502   6.044   5.663
 4915SOL    HW215645   2.475   6.204   5.650
 4916SOL     OW15646   0.743   0.932   3.649
 4916SOL    HW115647   0.654   0.976   3.653
 4916SOL    HW215648   0.754   0.886   3.561
 4917SOL     OW15649   2.615   5.705   1.399
 4917SOL    HW115650   2.692   5.644   1.418
 4917SOL    HW215651   2.642   5.774   1.332
 4918SOL     OW15652   5.309   6.146   2.352
 4918SOL    HW115653   5.389   6.167   2.295
 4918SOL    HW215654   5.229   6.195   2.315
 4919SOL     OW15655   3.071   3.100   1.119
 4919SOL    HW115656   3.059   3.187   1.166
 4919SOL    HW215657   3.012   3.097   1.038
 4920SOL     OW15658   5.543   0.085   4.800
 4920SOL    HW115659   5.621   0.070   4.860
 4920SOL    HW215660   5.559   0.165   4.742
 4921SOL     OW15661   1.095   5.935   0.019
 4921SOL    HW115662   1.067   5.856   6.979
 4921SOL    HW215663   1.133   5.903   0.106
 4922SOL     OW15664   2.703   2.160   4.709
 4922SOL    HW115665   2.793   2.180   4.671
 4922SOL    HW215666   2.713   2.124   4.802
 4923SOL     OW15667   3.240   0.886   2.478
 4923SOL    HW115668   3.251   0.985   2.468
 4923SOL    HW215669   3.299   0.839   2.412
 4924SOL     OW15670   3.478   1.100   4.219
 4924SOL    HW115671   3.482   1.138   4.127
 4924SOL    HW215672   3.509   1.169   4.285
 4925SOL     OW15673   5.680   0.586   2.165
 4925SOL    HW115674   5.666   0.627   2.256
 4925SOL    HW215675   5.776   0.563   2.153
 4926SOL     OW15676   5.745   1.669   1.395
 4926SOL    HW115677   5.713   1.577   1.371
 4926SOL    HW215678   5.688   1.705   1.469
 4927SOL     OW15679   2.915   3.635   4.638
 4927SOL    HW115680   2.963   3.554   4.670
 4927SOL    HW215681   2.874   3.683   4.717
 4928SOL     OW15682   1.512   0.971   0.173
 4928SOL    HW115683   1.495   0.891   0.231
 4928SOL    HW215684   1.596   0.958   0.121
 4929SOL     OW15685   6.560   0.018   4.643
 4929SOL    HW115686   6.572   6.992   4.733
 4929SOL    HW215687   6.576   6.963   4.572
 4930SOL     OW15688   5.781   0.439   2.819
 4930SOL    HW115689   5.834   0.356   2.834
 4930SOL    HW215690   5.734   0.465   2.903
 4931SOL     OW15691   6.376   6.430   1.244
 4931SOL    HW115692   6.320   6.471   1.172
 4931SOL    HW215693   6.347   6.335   1.258
 4932SOL     OW15694   4.081   3.279   2.811
 4932SOL    HW115695   4.138   3.229   2.876
 4932SOL    HW215696   4.051   3.218   2.738
 4933SOL     OW15697   2.390   6.941   2.365
 4933SOL    HW115698   2.307   6.898   2.330
 4933SOL    HW215699   2.440   6.875   2.422
 4934SOL     OW15700   3.343   5.800   3.337
 4934SOL    HW115701   3.433   5.772   3.303
 4934SOL    HW215702   3.355   5.870   3.408
 4935SOL     OW15703   1.690   1.966   6.422
 4935SOL    HW115704   1.752   1.954   6.344
 4935SOL    HW215705   1.727   2.036   6.484
 4936SOL     OW15706   3.513   5.154   1.515
 4936SOL    HW115707   3.443   5.177   1.582
 4936SOL    HW215708   3.476   5.160   1.423
 4937SOL     OW15709   5.980   3.327   6.058
 4937SOL    HW115710   6.041   3.300   5.983
 4937SOL    HW215711   5.890   3.351   6.020
 4938SOL     OW15712   1.853   5.642   5.619
 4938SOL    HW115713   1.765   5.601   5.642
 4938SOL    HW215714   1.924   5.572   5.618
 4939SOL     OW15715   5.411   1.786   5.019
 4939SOL    HW115716   5.462   1.773   5.104
 4939SOL    HW215717   5.388   1.883   5.009
 4940SOL     OW15718   0.788   1.308   4.534
 4940SOL    HW115719   0.882   1.338   4.554
 4940SOL    HW215720   0.763   1.337   4.441
 4941SOL     OW15721   4.451   2.182   6.120
 4941SOL    HW115722   4.442   2.262   6.061
 4941SOL    HW215723   4.515   2.117   6.079
 4942SOL     OW15724   5.554   2.919   5.728
 4942SOL    HW115725   5.525   3.001   5.778
 4942SOL    HW215726   5.514   2.838   5.770
 4943SOL     OW15727   4.022   3.398   0.524
 4943SOL    HW115728   4.018   3.436   0.616
 4943SOL    HW215729   4.062   3.307   0.527
 4944SOL     OW15730   2.217   4.209   2.749
 4944SOL    HW115731   2.206   4.169   2.659
 4944SOL    HW215732   2.269   4.295   2.742
 4945SOL     OW15733   1.208   0.994   3.889
 4945SOL    HW115734   1.300   0.986   3.849
 4945SOL    HW215735   1.146   1.033   3.821
 4946SOL     OW15736   0.477   3.330   1.242
 4946SOL    HW115737   0.500   3.232   1.243
 4946SOL    HW215738   0.556   3.382   1.210
 4947SOL     OW15739   1.292   1.008   0.951
 4947SOL    HW115740   1.326   0.956   0.873
 4947SOL    HW215741   1.361   1.075   0.979
 4948SOL     OW15742   2.202   0.238   2.850
 4948SOL    HW115743   2.286   0.232   2.797
 4948SOL    HW215744   2.215   0.298   2.928
 4949SOL     OW15745   4.747   0.005   5.583
 4949SOL    HW115746   4.671   6.977   5.535
 4949SOL    HW215747   4.833   6.991   5.542
 4950SOL     OW15748   3.062   5.522   4.119
 4950SOL    HW115749   3.046   5.424   4.131
 4950SOL    HW215750   2.975   5.569   4.109
 4951SOL     OW15751   5.174   1.651   4.989
 4951SOL    HW115752   5.272   1.670   4.992
 4951SOL    HW215753   5.155   1.587   4.915
 4952SOL     OW15754   0.392   0.808   4.838
 4952SOL    HW115755   0.486   0.791   4.806
 4952SOL    HW215756   0.351   0.721   4.868
 4953SOL     OW15757   1.987   6.595   2.002
 4953SOL    HW115758   1.933   6.571   1.921
 4953SOL    HW215759   2.051   6.667   1.980
 4954SOL     OW15760   4.588   4.042   6.849
 4954SOL    HW115761   4.517   4.062   6.781
 4954SOL    HW215762   4.546   4.032   6.939
 4955SOL     OW15763   1.799   6.935   5.890
 4955SOL    HW115764   1.706   6.967   5.871
 4955SOL    HW215765   1.795   6.844   5.931
 4956SOL     OW15766   2.701   6.788   4.786
 4956SOL    HW115767   2.639   6.842   4.844
 4956SOL    HW215768   2.668   6.790   4.692
 4957SOL     OW15769   0.121   1.366   3.554
 4957SOL    HW115770   0.190   1.376   3.626
 4957SOL    HW215771   0.045   1.428   3.572
 4958SOL     OW15772   0.178   6.304   5.675
 4958SOL    HW115773   0.126   6.225   5.641
 4958SOL    HW215774   0.202   6.288   5.771
 4959SOL     OW15775   6.684   1.222   6.336
 4959SOL    HW115776   6.694   1.126   6.310
 4959SOL    HW215777   6.595   1.236   6.380
 4960SOL     OW15778   3.404   5.711   3.837
 4960SOL    HW115779   3.476   5.644   3.818
 4960SOL    HW215780   3.445   5.795   3.872
 4961SOL     OW15781   5.120   1.663   5.601
 4961SOL    HW115782   5.208   1.684   5.643
 4961SOL    HW215783   5.097   1.567   5.619
 4962SOL     OW15784   6.002   3.118   1.312
 4962SOL    HW115785   6.087   3.068   1.330
 4962SOL    HW215786   5.950   3.071   1.241
 4963SOL     OW15787   5.970   5.949   0.610
 4963SOL    HW115788   5.911   5.948   0.529
 4963SOL    HW215789   6.026   5.866   0.611
 4964SOL     OW15790   3.624   6.238   3.342
 4964SOL    HW115791   3.716   6.204   3.365
 4964SOL    HW215792   3.619   6.335   3.362
 4965SOL     OW15793   0.144   0.039   3.921
 4965SOL    HW115794   0.197   0.037   4.005
 4965SOL    HW215795   0.080   6.977   3.919
 4966SOL     OW15796   2.279   0.171   4.955
 4966SOL    HW115797   2.201   0.121   4.918
 4966SOL    HW215798   2.337   0.109   5.007
 4967SOL     OW15799   4.095   3.147   5.918
 4967SOL    HW115800   4.063   3.209   5.990
 4967SOL    HW215801   4.192   3.164   5.902
 4968SOL     OW15802   5.436   3.095   3.058
 4968SOL    HW115803   5.433   3.042   3.143
 4968SOL    HW215804   5.348   3.090   3.012
 4969SOL     OW15805   1.918   0.979   1.878
 4969SOL    HW115806   1.840   0.964   1.817
 4969SOL    HW215807   1.993   1.020   1.826
 4970SOL     OW15808   1.664   2.235   4.718
 4970SOL    HW115809   1.761   2.225   4.739
 4970SOL    HW215810   1.646   2.330   4.692
 4971SOL     OW15811   6.063   5.960   3.400
 4971SOL    HW115812   5.996   5.969   3.474
 4971SOL    HW215813   6.093   5.865   3.393
 4972SOL     OW15814   1.402   3.076   0.541
 4972SOL    HW115815   1.480   3.138   0.538
 4972SOL    HW215816   1.333   3.113   0.603
 4973SOL     OW15817   6.670   6.886   1.779
 4973SOL    HW115818   6.701   6.805   1.730
 4973SOL    HW215819   6.667   6.867   1.877
 4974SOL     OW15820   6.100   4.380   0.860
 4974SOL    HW115821   6.068   4.394   0.766
 4974SOL    HW215822   6.171   4.310   0.860
 4975SOL     OW15823   5.771   6.036   6.604
 4975SOL    HW115824   5.785   5.972   6.679
 4975SOL    HW215825   5.677   6.027   6.570
 4976SOL     OW15826   3.330   6.998   4.655
 4976SOL    HW115827   3.359   0.078   4.647
 4976SOL    HW215828   3.231   6.993   4.640
 4977SOL     OW15829   4.591   4.176   0.554
 4977SOL    HW115830   4.651   4.253   0.531
 4977SOL    HW215831   4.577   4.173   0.653
 4978SOL     OW15832   0.112   3.390   5.621
 4978SOL    HW115833   0.206   3.425   5.620
 4978SOL    HW215834   0.109   3.301   5.576
 4979SOL     OW15835   6.724   1.309   5.263
 4979SOL    HW115836   6.722   1.256   5.179
 4979SOL    HW215837   6.632   1.338   5.288
 4980SOL     OW15838   4.594   0.270   3.558
 4980SOL    HW115839   4.667   0.215   3.600
 4980SOL    HW215840   4.612   0.279   3.460
 4981SOL     OW15841   4.749   5.452   6.320
 4981SOL    HW115842   4.649   5.456   6.325
 4981SOL    HW215843   4.776   5.404   6.236
 4982SOL     OW15844   2.163   1.648   0.219
 4982SOL    HW115845   2.242   1.676   0.274
 4982SOL    HW215846   2.192   1.628   0.126
 4983SOL     OW15847   5.101   2.977   4.350
 4983SOL    HW115848   5.173   2.937   4.406
 4983SOL    HW215849   5.018   2.987   4.405
 4984SOL     OW15850   5.503   3.710   3.965
 4984SOL    HW115851   5.524   3.804   3.992
 4984SOL    HW215852   5.581   3.672   3.914
 4985SOL     OW15853   6.789   5.907   3.489
 4985SOL    HW115854   6.745   5.904   3.579
 4985SOL    HW215855   6.775   5.997   3.448
 4986SOL     OW15856   6.726   4.569   3.019
 4986SOL    HW115857   6.773   4.651   2.986
 4986SOL    HW215858   6.791   4.494   3.027
 4987SOL     OW15859   0.580   2.047   1.269
 4987SOL    HW115860   0.553   1.968   1.214
 4987SOL    HW215861   0.501   2.083   1.318
 4988SOL     OW15862   6.742   1.745   3.638
 4988SOL    HW115863   6.732   1.843   3.620
 4988SOL    HW215864   6.674   1.694   3.586
 4989SOL     OW15865   5.677   0.889   1.218
 4989SOL    HW115866   5.710   0.859   1.128
 4989SOL    HW215867   5.712   0.827   1.289
 4990SOL     OW15868   1.203   1.461   6.321
 4990SOL    HW115869   1.124   1.421   6.275
 4990SOL    HW215870   1.286   1.413   6.293
 4991SOL     OW15871   1.011   4.192   3.601
 4991SOL    HW115872   0.970   4.281   3.621
 4991SOL    HW215873   0.939   4.124   3.586
 4992SOL     OW15874   5.130   0.826   3.910
 4992SOL    HW115875   5.225   0.856   3.911
 4992SOL    HW215876   5.072   0.900   3.877
 4993SOL     OW15877   2.829   5.021   3.796
 4993SOL    HW115878   2.916   4.976   3.816
 4993SOL    HW215879   2.818   5.029   3.697
 4994SOL     OW15880   1.364   0.362   2.129
 4994SOL    HW115881   1.448   0.387   2.176
 4994SOL    HW215882   1.311   0.444   2.108
 4995SOL     OW15883   6.826   2.942   5.878
 4995SOL    HW115884   6.727   2.933   5.862
 4995SOL    HW215885   6.875   2.928   5.792
 4996SOL     OW15886   1.852   0.690   2.519
 4996SOL    HW115887   1.904   0.656   2.441
 4996SOL    HW215888   1.901   0.669   2.604
 4997SOL     OW15889   6.141   2.217   3.021
 4997SOL    HW115890   6.052   2.227   2.977
 4997SOL    HW215891   6.150   2.125   3.059
 4998SOL     OW15892   2.144   3.884   4.968
 4998SOL    HW115893   2.213   3.948   5.002
 4998SOL    HW215894   2.173   3.791   4.988
 4999SOL     OW15895   5.275   5.715   1.433
 4999SOL    HW115896   5.273   5.676   1.525
 4999SOL    HW215897   5.278   5.815   1.439
 5000SOL     OW15898   1.364   0.178   4.260
 5000SOL    HW115899   1.410   0.158   4.347
 5000SOL    HW215900   1.432   0.196   4.190
 5001SOL     OW15901   1.612   4.113   5.988
 5001SOL    HW115902   1.553   4.119   6.069
 5001SOL    HW215903   1.688   4.178   5.998
 5002SOL     OW15904   1.386   2.979   3.060
 5002SOL    HW115905   1.326   3.052   3.025
 5002SOL    HW215906   1.479   2.993   3.025
 5003SOL     OW15907   1.259   6.491   3.544
 5003SOL    HW115908   1.343   6.443   3.570
 5003SOL    HW215909   1.265   6.516   3.447
 5004SOL     OW15910   2.603   5.225   5.361
 5004SOL    HW115911   2.528   5.273   5.406
 5004SOL    HW215912   2.577   5.130   5.343
 5005SOL     OW15913   3.209   2.556   0.884
 5005SOL    HW115914   3.136   2.513   0.830
 5005SOL    HW215915   3.292   2.563   0.829
 5006SOL     OW15916   5.356   6.947   6.424
 5006SOL    HW115917   5.326   6.914   6.514
 5006SOL    HW215918   5.283   7.002   6.382
 5007SOL     OW15919   2.437   0.494   6.329
 5007SOL    HW115920   2.490   0.569   6.371
 5007SOL    HW215921   2.404   0.523   6.240
 5008SOL     OW15922   6.947   6.892   4.102
 5008SOL    HW115923   6.952   6.976   4.155
 5008SOL    HW215924   0.021   6.846   4.102
 5009SOL     OW15925   2.354   6.583   1.897
 5009SOL    HW115926   2.358   6.580   1.798
 5009SOL    HW215927   2.311   6.669   1.927
 5010SOL     OW15928   2.949   3.290   3.890
 5010SOL    HW115929   2.907   3.312   3.802
 5010SOL    HW215930   2.980   3.374   3.934
 5011SOL     OW15931   2.110   3.636   2.184
 5011SOL    HW115932   2.040   3.697   2.146
 5011SOL    HW215933   2.154   3.586   2.109
 5012SOL     OW15934   5.177   2.983   6.999
 5012SOL    HW115935   5.199   3.080   6.985
 5012SOL    HW215936   5.209   2.930   6.920
 5013SOL     OW15937   5.338   1.081   6.974
 5013SOL    HW115938   5.360   1.004   0.018
 5013SOL    HW215939   5.388   1.163   7.004
 5014SOL     OW15940   5.496   5.400   0.768
 5014SOL    HW115941   5.442   5.481   0.789
 5014SOL    HW215942   5.501   5.342   0.849
 5015SOL     OW15943   4.143   1.812   3.705
 5015SOL    HW115944   4.141   1.729   3.760
 5015SOL    HW215945   4.096   1.795   3.618
 5016SOL     OW15946   2.630   1.791   2.089
 5016SOL    HW115947   2.607   1.830   2.178
 5016SOL    HW215948   2.552   1.740   2.053
 5017SOL     OW15949   1.842   2.521   0.638
 5017SOL    HW115950   1.895   2.441   0.610
 5017SOL    HW215951   1.898   2.581   0.695
 5018SOL     OW15952   0.699   4.899   0.988
 5018SOL    HW115953   0.612   4.923   1.032
 5018SOL    HW215954   0.772   4.899   1.056
 5019SOL     OW15955   2.416   4.453   7.009
 5019SOL    HW115956   2.461   4.542   7.011
 5019SOL    HW215957   2.456   4.393   0.063
 5020SOL     OW15958   4.987   6.653   5.388
 5020SOL    HW115959   4.951   6.634   5.296
 5020SOL    HW215960   5.021   6.747   5.391
 5021SOL     OW15961   1.342   2.662   5.582
 5021SOL    HW115962   1.431   2.667   5.536
 5021SOL    HW215963   1.275   2.623   5.518
 5022SOL     OW15964   1.719   0.412   0.990
 5022SOL    HW115965   1.679   0.329   1.030
 5022SOL    HW215966   1.730   0.482   1.061
 5023SOL     OW15967   6.641   3.386   1.205
 5023SOL    HW115968   6.608   3.376   1.299
 5023SOL    HW215969   6.567   3.367   1.141
 5024SOL     OW15970   6.744   4.338   2.795
 5024SOL    HW115971   6.796   4.349   2.880
 5024SOL    HW215972   6.800   4.368   2.718
 5025SOL     OW15973   4.381   1.989   1.895
 5025SOL    HW115974   4.396   1.978   1.797
 5025SOL    HW215975   4.337   2.077   1.913
 5026SOL     OW15976   5.945   5.939   6.172
 5026SOL    HW115977   5.860   5.922   6.124
 5026SOL    HW215978   6.018   5.957   6.105
 5027SOL     OW15979   0.641   0.103   2.356
 5027SOL    HW115980   0.700   0.052   2.293
 5027SOL    HW215981   0.698   0.146   2.426
 5028SOL     OW15982   0.087   6.734   2.292
 5028SOL    HW115983   0.060   6.749   2.387
 5028SOL    HW215984   0.139   6.650   2.285
 5029SOL     OW15985   6.760   3.128   3.048
 5029SOL    HW115986   6.741   3.054   3.112
 5029SOL    HW215987   6.766   3.090   2.955
 5030SOL     OW15988   6.357   0.555   6.915
 5030SOL    HW115989   6.294   0.512   6.979
 5030SOL    HW215990   6.361   0.654   6.933
 5031SOL     OW15991   5.623   1.332   4.818
 5031SOL    HW115992   5.630   1.371   4.910
 5031SOL    HW215993   5.581   1.399   4.756
 5032SOL     OW15994   1.253   4.258   1.236
 5032SOL    HW115995   1.155   4.257   1.216
 5032SOL    HW215996   1.294   4.172   1.206
 5033SOL     OW15997   1.723   4.621   0.015
 5033SOL    HW115998   1.737   4.694   6.963
 5033SOL    HW215999   1.791   4.549   0.001
 5034SOL     OW16000   6.801   3.286   2.024
 5034SOL    HW116001   6.888   3.238   2.028
 5034SOL    HW216002   6.740   3.241   1.959
 5035SOL     OW16003   6.249   4.791   1.004
 5035SOL    HW116004   6.330   4.736   1.021
 5035SOL    HW216005   6.229   4.847   1.084
 5036SOL     OW16006   0.545   5.557   6.837
 5036SOL    HW116007   0.546   5.635   6.774
 5036SOL    HW216008   0.519   5.474   6.787
 5037SOL     OW16009   4.571   2.525   2.656
 5037SOL    HW116010   4.559   2.607   2.712
 5037SOL    HW216011   4.662   2.525   2.615
 5038SOL     OW16012   1.639   5.044   5.768
 5038SOL    HW116013   1.661   5.017   5.674
 5038SOL    HW216014   1.584   4.972   5.812
 5039SOL     OW16015   2.199   3.650   5.119
 5039SOL    HW116016   2.242   3.597   5.192
 5039SOL    HW216017   2.115   3.606   5.090
 5040SOL     OW16018   2.493   4.093   6.381
 5040SOL    HW116019   2.491   4.024   6.309
 5040SOL    HW216020   2.430   4.168   6.358
 5041SOL     OW16021   0.564   3.898   1.201
 5041SOL    HW116022   0.645   3.946   1.233
 5041SOL    HW216023   0.592   3.825   1.138
 5042SOL     OW16024   0.195   2.804   0.071
 5042SOL    HW116025   0.125   2.736   0.048
 5042SOL    HW216026   0.179   2.838   0.164
 5043SOL     OW16027   3.182   0.818   5.404
 5043SOL    HW116028   3.250   0.814   5.476
 5043SOL    HW216029   3.098   0.861   5.439
 5044SOL     OW16030   6.108   6.936   3.488
 5044SOL    HW116031   6.159   6.875   3.549
 5044SOL    HW216032   6.073   6.883   3.411
 5045SOL     OW16033   4.979   3.428   0.196
 5045SOL    HW116034   5.069   3.449   0.233
 5045SOL    HW216035   4.941   3.510   0.153
 5046SOL     OW16036   3.749   3.019   4.780
 5046SOL    HW116037   3.739   2.963   4.863
 5046SOL    HW216038   3.806   3.099   4.801
 5047SOL     OW16039   6.336   1.864   2.761
 5047SOL    HW116040   6.268   1.831   2.695
 5047SOL    HW216041   6.303   1.847   2.854
 5048SOL     OW16042   6.156   2.383   1.365
 5048SOL    HW116043   6.223   2.383   1.291
 5048SOL    HW216044   6.199   2.418   1.448
 5049SOL     OW16045   6.834   1.066   3.468
 5049SOL    HW116046   6.920   1.107   3.438
 5049SOL    HW216047   6.853   0.992   3.533
 5050SOL     OW16048   0.230   1.270   2.275
 5050SOL    HW116049   0.315   1.233   2.313
 5050SOL    HW216050   0.251   1.347   2.214
 5051SOL     OW16051   3.943   3.018   0.493
 5051SOL    HW116052   3.942   2.921   0.519
 5051SOL    HW216053   3.853   3.058   0.510
 5052SOL     OW16054   2.589   4.926   6.262
 5052SOL    HW116055   2.501   4.931   6.309
 5052SOL    HW216056   2.587   4.983   6.180
 5053SOL     OW16057   2.018   3.893   3.185
 5053SOL    HW116058   1.927   3.926   3.209
 5053SOL    HW216059   2.011   3.828   3.109
 5054SOL     OW16060   3.733   5.873   5.029
 5054SOL    HW116061   3.744   5.918   5.118
 5054SOL    HW216062   3.815   5.818   5.010
 5055SOL     OW16063   6.755   1.522   4.371
 5055SOL    HW116064   6.758   1.478   4.281
 5055SOL    HW216065   6.714   1.460   4.437
 5056SOL     OW16066   6.304   3.990   6.085
 5056SOL    HW116067   6.403   4.004   6.097
 5056SOL    HW216068   6.255   4.040   6.157
 5057SOL     OW16069   1.491   5.661   3.533
 5057SOL    HW116070   1.516   5.565   3.535
 5057SOL    HW216071   1.555   5.713   3.591
 5058SOL     OW16072   3.302   3.575   6.875
 5058SOL    HW116073   3.273   3.506   6.810
 5058SOL    HW216074   3.385   3.544   6.923
 5059SOL     OW16075   5.178   3.396   4.622
 5059SOL    HW116076   5.089   3.374   4.582
 5059SOL    HW216077   5.166   3.421   4.718
 5060SOL     OW16078   0.206   2.455   5.202
 5060SOL    HW116079   0.276   2.389   5.226
 5060SOL    HW216080   0.116   2.416   5.222
 5061SOL     OW16081   2.893   3.587   3.779
 5061SOL    HW116082   2.900   3.506   3.720
 5061SOL    HW216083   2.858   3.663   3.725
 5062SOL     OW16084   6.025   1.077   2.282
 5062SOL    HW116085   6.001   1.108   2.191
 5062SOL    HW216086   6.017   0.977   2.287
 5063SOL     OW16087   0.972   6.063   1.542
 5063SOL    HW116088   0.961   5.966   1.519
 5063SOL    HW216089   0.894   6.093   1.596
 5064SOL     OW16090   4.841   5.705   1.159
 5064SOL    HW116091   4.881   5.625   1.114
 5064SOL    HW216092   4.755   5.729   1.114
 5065SOL     OW16093   1.267   0.437   2.653
 5065SOL    HW116094   1.271   0.483   2.741
 5065SOL    HW216095   1.176   0.450   2.613
 5066SOL     OW16096   2.588   4.310   1.428
 5066SOL    HW116097   2.631   4.344   1.512
 5066SOL    HW216098   2.645   4.334   1.350
 5067SOL     OW16099   4.467   1.981   2.267
 5067SOL    HW116100   4.548   1.960   2.213
 5067SOL    HW216101   4.423   2.064   2.231
 5068SOL     OW16102   2.975   5.866   0.096
 5068SOL    HW116103   3.038   5.840   0.169
 5068SOL    HW216104   2.882   5.866   0.131
 5069SOL     OW16105   1.941   3.283   5.733
 5069SOL    HW116106   1.883   3.302   5.653
 5069SOL    HW216107   1.906   3.334   5.812
 5070SOL     OW16108   5.896   3.808   4.346
 5070SOL    HW116109   5.984   3.794   4.391
 5070SOL    HW216110   5.851   3.888   4.386
 5071SOL     OW16111   4.279   2.265   3.623
 5071SOL    HW116112   4.341   2.191   3.598
 5071SOL    HW216113   4.185   2.231   3.625
 5072SOL     OW16114   2.148   1.443   1.733
 5072SOL    HW116115   2.195   1.477   1.814
 5072SOL    HW216116   2.111   1.520   1.681
 5073SOL     OW16117   1.797   5.369   1.406
 5073SOL    HW116118   1.724   5.429   1.437
 5073SOL    HW216119   1.885   5.403   1.439
 5074SOL     OW16120   3.859   1.819   1.689
 5074SOL    HW116121   3.844   1.892   1.756
 5074SOL    HW216122   3.786   1.821   1.621
 5075SOL     OW16123   0.845   2.467   0.277
 5075SOL    HW116124   0.843   2.369   0.259
 5075SOL    HW216125   0.863   2.517   0.192
 5076SOL     OW16126   5.565   0.094   6.761
 5076SOL    HW116127   5.614   0.147   6.693
 5076SOL    HW216128   5.508   0.154   6.817
 5077SOL     OW16129   0.556   3.554   5.782
 5077SOL    HW116130   0.519   3.629   5.727
 5077SOL    HW216131   0.574   3.586   5.875
 5078SOL     OW16132   0.332   0.944   4.367
 5078SOL    HW116133   0.430   0.945   4.387
 5078SOL    HW216134   0.317   0.972   4.273
 5079SOL     OW16135   2.165   2.880   5.530
 5079SOL    HW116136   2.122   2.939   5.598
 5079SOL    HW216137   2.254   2.918   5.504
 5080SOL     OW16138   5.925   5.682   5.156
 5080SOL    HW116139   6.000   5.744   5.133
 5080SOL    HW216140   5.947   5.634   5.241
 5081SOL     OW16141   3.076   4.557   5.536
 5081SOL    HW116142   3.105   4.590   5.446
 5081SOL    HW216143   3.041   4.633   5.589
 5082SOL     OW16144   4.861   6.881   0.251
 5082SOL    HW116145   4.872   6.878   0.350
 5082SOL    HW216146   4.827   6.793   0.218
 5083SOL     OW16147   3.600   0.136   0.742
 5083SOL    HW116148   3.552   0.058   0.781
 5083SOL    HW216149   3.698   0.115   0.736
 5084SOL     OW16150   0.508   5.072   4.227
 5084SOL    HW116151   0.451   5.039   4.303
 5084SOL    HW216152   0.561   4.995   4.190
 5085SOL     OW16153   1.304   3.120   5.613
 5085SOL    HW116154   1.341   3.078   5.531
 5085SOL    HW216155   1.284   3.217   5.595
 5086SOL     OW16156   0.388   4.576   2.229
 5086SOL    HW116157   0.424   4.485   2.250
 5086SOL    HW216158   0.452   4.625   2.171
 5087SOL     OW16159   6.570   5.885   2.568
 5087SOL    HW116160   6.511   5.914   2.493
 5087SOL    HW216161   6.554   5.943   2.648
 5088SOL     OW16162   4.547   6.972   3.745
 5088SOL    HW116163   4.532   0.038   3.803
 5088SOL    HW216164   4.467   6.958   3.687
 5089SOL     OW16165   5.719   4.560   4.613
 5089SOL    HW116166   5.788   4.488   4.602
 5089SOL    HW216167   5.731   4.629   4.541
 5090SOL     OW16168   2.518   1.033   2.652
 5090SOL    HW116169   2.553   0.986   2.571
 5090SOL    HW216170   2.436   1.083   2.629
 5091SOL     OW16171   5.873   0.246   1.005
 5091SOL    HW116172   5.841   0.317   1.069
 5091SOL    HW216173   5.808   0.170   1.005
 5092SOL     OW16174   3.261   2.917   3.650
 5092SOL    HW116175   3.192   2.844   3.645
 5092SOL    HW216176   3.272   2.945   3.745
 5093SOL     OW16177   3.191   1.882   1.245
 5093SOL    HW116178   3.173   1.975   1.215
 5093SOL    HW216179   3.190   1.879   1.345
 5094SOL     OW16180   1.920   5.719   6.384
 5094SOL    HW116181   1.869   5.657   6.443
 5094SOL    HW216182   1.874   5.808   6.380
 5095SOL     OW16183   0.656   2.133   2.947
 5095SOL    HW116184   0.641   2.176   2.858
 5095SOL    HW216185   0.569   2.096   2.981
 5096SOL     OW16186   4.883   4.582   6.582
 5096SOL    HW116187   4.963   4.523   6.574
 5096SOL    HW216188   4.909   4.677   6.564
 5097SOL     OW16189   6.918   0.086   0.163
 5097SOL    HW116190   6.930   0.016   0.233
 5097SOL    HW216191   6.882   0.169   0.204
 5098SOL     OW16192   3.982   1.946   1.255
 5098SOL    HW116193   3.896   1.996   1.251
 5098SOL    HW216194   3.969   1.854   1.217
 5099SOL     OW16195   6.923   6.235   2.051
 5099SOL    HW116196   6.932   6.145   2.007
 5099SOL    HW216197   6.994   6.296   2.015
 5100SOL     OW16198   2.789   5.430   3.729
 5100SOL    HW116199   2.773   5.353   3.791
 5100SOL    HW216200   2.888   5.444   3.718
 5101SOL     OW16201   4.818   0.261   5.456
 5101SOL    HW116202   4.799   0.176   5.505
 5101SOL    HW216203   4.775   0.258   5.366
 5102SOL     OW16204   5.458   6.676   4.320
 5102SOL    HW116205   5.363   6.680   4.352
 5102SOL    HW216206   5.465   6.718   4.230
 5103SOL     OW16207   0.997   1.547   4.459
 5103SOL    HW116208   0.960   1.532   4.368
 5103SOL    HW216209   0.996   1.644   4.481
 5104SOL     OW16210   2.578   6.021   1.298
 5104SOL    HW116211   2.511   6.048   1.366
 5104SOL    HW216212   2.535   5.962   1.230
 5105SOL     OW16213   3.210   2.603   6.458
 5105SOL    HW116214   3.274   2.669   6.499
 5105SOL    HW216215   3.152   2.650   6.392
 5106SOL     OW16216   3.783   1.382   1.123
 5106SOL    HW116217   3.736   1.311   1.071
 5106SOL    HW216218   3.831   1.444   1.060
 5107SOL     OW16219   4.993   2.649   1.352
 5107SOL    HW116220   4.948   2.571   1.394
 5107SOL    HW216221   4.951   2.734   1.385
 5108SOL     OW16222   3.915   4.088   4.889
 5108SOL    HW116223   3.981   4.163   4.881
 5108SOL    HW216224   3.928   4.043   4.977
 5109SOL     OW16225   1.420   2.522   0.403
 5109SOL    HW116226   1.419   2.532   0.304
 5109SOL    HW216227   1.385   2.432   0.428
 5110SOL     OW16228   0.408   0.901   6.313
 5110SOL    HW116229   0.475   0.832   6.285
 5110SOL    HW216230   0.406   0.908   6.412
 5111SOL     OW16231   1.048   6.934   4.086
 5111SOL    HW116232   0.994   7.007   4.130
 5111SOL    HW216233   1.083   6.872   4.157
 5112SOL     OW16234   1.026   0.548   2.619
 5112SOL    HW116235   1.017   0.566   2.717
 5112SOL    HW216236   0.951   0.490   2.588
 5113SOL     OW16237   1.673   5.721   1.327
 5113SOL    HW116238   1.656   5.684   1.235
 5113SOL    HW216239   1.614   5.675   1.393
 5114SOL     OW16240   3.428   6.613   6.762
 5114SOL    HW116241   3.513   6.666   6.754
 5114SOL    HW216242   3.420   6.577   6.855
 5115SOL     OW16243   1.689   4.405   2.362
 5115SOL    HW116244   1.753   4.466   2.315
 5115SOL    HW216245   1.636   4.457   2.429
 5116SOL     OW16246   1.693   6.640   0.258
 5116SOL    HW116247   1.628   6.703   0.215
 5116SOL    HW216248   1.736   6.684   0.336
 5117SOL     OW16249   0.561   3.932   3.468
 5117SOL    HW116250   0.511   3.988   3.534
 5117SOL    HW216251   0.570   3.839   3.504
 5118SOL     OW16252   5.577   0.761   0.129
 5118SOL    HW116253   5.520   0.694   0.081
 5118SOL    HW216254   5.672   0.727   0.131
 5119SOL     OW16255   4.550   1.294   1.734
 5119SOL    HW116256   4.539   1.195   1.721
 5119SOL    HW216257   4.641   1.321   1.704
 5120SOL     OW16258   4.827   6.579   5.155
 5120SOL    HW116259   4.862   6.527   5.077
 5120SOL    HW216260   4.793   6.668   5.123
 5121SOL     OW16261   2.990   3.134   6.656
 5121SOL    HW116262   2.962   3.212   6.712
 5121SOL    HW216263   3.064   3.085   6.702
 5122SOL     OW16264   3.220   5.783   3.083
 5122SOL    HW116265   3.247   5.764   3.177
 5122SOL    HW216266   3.300   5.777   3.023
 5123SOL     OW16267   5.885   2.117   4.213
 5123SOL    HW116268   5.907   2.077   4.124
 5123SOL    HW216269   5.954   2.088   4.280
 5124SOL     OW16270   2.591   6.128   4.037
 5124SOL    HW116271   2.664   6.124   4.105
 5124SOL    HW216272   2.510   6.082   4.073
 5125SOL     OW16273   6.725   1.964   3.859
 5125SOL    HW116274   6.679   1.881   3.828
 5125SOL    HW216275   6.657   2.033   3.883
 5126SOL     OW16276   0.376   6.138   6.973
 5126SOL    HW116277   0.383   6.211   0.027
 5126SOL    HW216278   0.327   6.060   7.012
 5127SOL     OW16279   0.392   5.019   6.922
 5127SOL    HW116280   0.438   5.043   7.007
 5127SOL    HW216281   0.421   4.928   6.892
 5128SOL     OW16282   0.091   6.385   0.690
 5128SOL    HW116283   0.129   6.405   0.781
 5128SOL    HW216284   0.130   6.299   0.657
 5129SOL     OW16285   5.098   6.685   2.734
 5129SOL    HW116286   5.010   6.707   2.692
 5129SOL    HW216287   5.082   6.633   2.818
 5130SOL     OW16288   6.836   5.767   2.813
 5130SOL    HW116289   6.785   5.737   2.732
 5130SOL    HW216290   6.772   5.804   2.881
 5131SOL     OW16291   1.972   3.853   4.341
 5131SOL    HW116292   2.048   3.917   4.356
 5131SOL    HW216293   1.987   3.771   4.397
 5132SOL     OW16294   4.565   2.878   5.861
 5132SOL    HW116295   4.632   2.807   5.839
 5132SOL    HW216296   4.562   2.893   5.959
 5133SOL     OW16297   2.371   5.087   0.216
 5133SOL    HW116298   2.290   5.048   0.259
 5133SOL    HW216299   2.358   5.090   0.116
 5134SOL     OW16300   6.600   2.506   2.115
 5134SOL    HW116301   6.577   2.414   2.147
 5134SOL    HW216302   6.567   2.517   2.021
 5135SOL     OW16303   6.361   2.549   4.864
 5135SOL    HW116304   6.396   2.482   4.930
 5135SOL    HW216305   6.429   2.621   4.850
 5136SOL     OW16306   4.766   6.898   5.886
 5136SOL    HW116307   4.678   6.854   5.870
 5136SOL    HW216308   4.752   6.986   5.932
 5137SOL     OW16309   5.553   3.619   6.469
 5137SOL    HW116310   5.522   3.527   6.493
 5137SOL    HW216311   5.612   3.654   6.542
 5138SOL     OW16312   3.120   2.575   5.784
 5138SOL    HW116313   3.020   2.578   5.778
 5138SOL    HW216314   3.155   2.505   5.722
 5139SOL     OW16315   1.523   6.652   3.591
 5139SOL    HW116316   1.568   6.741   3.590
 5139SOL    HW216317   1.542   6.604   3.505
 5140SOL     OW16318   3.547   1.752   6.926
 5140SOL    HW116319   3.512   1.777   6.835
 5140SOL    HW216320   3.539   1.831   6.987
 5141SOL     OW16321   6.820   4.192   0.867
 5141SOL    HW116322   6.873   4.176   0.784
 5141SOL    HW216323   6.838   4.118   0.932
 5142SOL     OW16324   6.237   1.249   4.136
 5142SOL    HW116325   6.267   1.296   4.053
 5142SOL    HW216326   6.266   1.153   4.132
 5143SOL     OW16327   0.643   4.788   3.823
 5143SOL    HW116328   0.727   4.828   3.788
 5143SOL    HW216329   0.570   4.856   3.821
 5144SOL     OW16330   0.814   5.627   6.919
 5144SOL    HW116331   0.804   5.668   7.010
 5144SOL    HW216332   0.730   5.579   6.894
 5145SOL     OW16333   1.975   4.643   6.202
 5145SOL    HW116334   1.974   4.567   6.137
 5145SOL    HW216335   1.881   4.664   6.230
 5146SOL     OW16336   3.736   3.490   5.481
 5146SOL    HW116337   3.834   3.477   5.496
 5146SOL    HW216338   3.685   3.417   5.527
 5147SOL     OW16339   0.047   4.936   2.448
 5147SOL    HW116340   0.029   5.025   2.488
 5147SOL    HW216341   6.978   4.900   2.406
 5148SOL     OW16342   0.941   6.533   1.465
 5148SOL    HW116343   0.932   6.527   1.564
 5148SOL    HW216344   0.948   6.441   1.427
 5149SOL     OW16345   6.167   6.029   4.170
 5149SOL    HW116346   6.201   5.936   4.182
 5149SOL    HW216347   6.215   6.072   4.093
 5150SOL     OW16348   2.208   5.280   2.585
 5150SOL    HW116349   2.135   5.238   2.639
 5150SOL    HW216350   2.194   5.259   2.488
 5151SOL     OW16351   5.186   1.640   0.510
 5151SOL    HW116352   5.120   1.571   0.540
 5151SOL    HW216353   5.144   1.730   0.515
 5152SOL     OW16354   2.351   4.549   6.745
 5152SOL    HW116355   2.388   4.509   6.661
 5152SOL    HW216356   2.281   4.488   6.782
 5153SOL     OW16357   2.265   0.815   6.551
 5153SOL    HW116358   2.250   0.804   6.649
 5153SOL    HW216359   2.230   0.734   6.503
 5154SOL     OW16360   1.847   3.024   6.721
 5154SOL    HW116361   1.912   3.036   6.646
 5154SOL    HW216362   1.856   2.931   6.758
 5155SOL     OW16363   3.492   0.060   2.311
 5155SOL    HW116364   3.556   0.001   2.261
 5155SOL    HW216365   3.520   0.065   2.407
 5156SOL     OW16366   6.804   3.381   5.438
 5156SOL    HW116367   6.859   3.298   5.425
 5156SOL    HW216368   6.760   3.405   5.351
 5157SOL     OW16369   4.323   2.395   3.881
 5157SOL    HW116370   4.307   2.368   3.786
 5157SOL    HW216371   4.240   2.376   3.934
 5158SOL     OW16372   3.515   1.196   1.231
 5158SOL    HW116373   3.487   1.244   1.148
 5158SOL    HW216374   3.562   1.260   1.292
 5159SOL     OW16375   0.276   2.862   4.209
 5159SOL    HW116376   0.259   2.775   4.162
 5159SOL    HW216377   0.343   2.848   4.281
 5160SOL     OW16378   0.839   4.409   2.783
 5160SOL    HW116379   0.746   4.385   2.753
 5160SOL    HW216380   0.869   4.491   2.734
 5161SOL     OW16381   1.686   3.566   4.090
 5161SOL    HW116382   1.718   3.660   4.080
 5161SOL    HW216383   1.754   3.503   4.052
 5162SOL     OW16384   1.262   4.973   4.138
 5162SOL    HW116385   1.250   5.006   4.232
 5162SOL    HW216386   1.335   4.905   4.135
 5163SOL     OW16387   4.076   5.233   1.236
 5163SOL    HW116388   4.004   5.169   1.263
 5163SOL    HW216389   4.138   5.246   1.313
 5164SOL     OW16390   5.179   2.484   6.720
 5164SOL    HW116391   5.190   2.582   6.702
 5164SOL    HW216392   5.163   2.436   6.634
 5165SOL     OW16393   6.265   3.819   5.262
 5165SOL    HW116394   6.169   3.793   5.255
 5165SOL    HW216395   6.278   3.910   5.223
 5166SOL     OW16396   0.812   5.908   2.280
 5166SOL    HW116397   0.740   5.917   2.348
 5166SOL    HW216398   0.790   5.964   2.200
 5167SOL     OW16399   6.209   6.454   5.604
 5167SOL    HW116400   6.124   6.505   5.597
 5167SOL    HW216401   6.270   6.500   5.669
 5168SOL     OW16402   5.231   3.002   3.244
 5168SOL    HW116403   5.287   3.003   3.326
 5168SOL    HW216404   5.147   2.950   3.261
 5169SOL     OW16405   3.641   2.087   5.069
 5169SOL    HW116406   3.579   2.069   5.145
 5169SOL    HW216407   3.589   2.092   4.983
 5170SOL     OW16408   6.872   3.719   5.792
 5170SOL    HW116409   6.887   3.665   5.875
 5170SOL    HW216410   6.901   3.665   5.712
 5171SOL     OW16411   2.163   4.839   4.012
 5171SOL    HW116412   2.237   4.778   4.040
 5171SOL    HW216413   2.191   4.934   4.026
 5172SOL     OW16414   6.546   2.791   2.131
 5172SOL    HW116415   6.584   2.701   2.111
 5172SOL    HW216416   6.588   2.859   2.070
 5173SOL     OW16417   5.685   4.651   5.861
 5173SOL    HW116418   5.756   4.605   5.915
 5173SOL    HW216419   5.690   4.620   5.766
 5174SOL     OW16420   2.180   4.943   3.673
 5174SOL    HW116421   2.157   4.972   3.580
 5174SOL    HW216422   2.256   4.998   3.706
 5175SOL     OW16423   2.415   4.199   6.869
 5175SOL    HW116424   2.383   4.287   6.904
 5175SOL    HW216425   2.497   4.213   6.814
 5176SOL     OW16426   4.289   3.205   0.186
 5176SOL    HW116427   4.223   3.222   0.113
 5176SOL    HW216428   4.358   3.278   0.185
 5177SOL     OW16429   4.826   0.367   5.999
 5177SOL    HW116430   4.832   0.432   5.923
 5177SOL    HW216431   4.882   0.399   6.075
 5178SOL     OW16432   1.790   2.967   1.101
 5178SOL    HW116433   1.756   3.056   1.071
 5178SOL    HW216434   1.889   2.963   1.089
 5179SOL     OW16435   4.157   6.129   5.061
 5179SOL    HW116436   4.101   6.212   5.057
 5179SOL    HW216437   4.127   6.065   4.991
 5180SOL     OW16438   2.947   2.843   6.595
 5180SOL    HW116439   2.894   2.797   6.523
 5180SOL    HW216440   3.030   2.882   6.555
 5181SOL     OW16441   5.147   2.014   2.027
 5181SOL    HW116442   5.135   2.113   2.034
 5181SOL    HW216443   5.173   1.990   1.933
 5182SOL     OW16444   4.173   4.860   1.622
 5182SOL    HW116445   4.253   4.843   1.679
 5182SOL    HW216446   4.118   4.933   1.662
 5183SOL     OW16447   3.935   0.887   2.722
 5183SOL    HW116448   3.994   0.900   2.643
 5183SOL    HW216449   3.950   0.961   2.788
 5184SOL     OW16450   0.971   2.289   4.102
 5184SOL    HW116451   0.947   2.327   4.013
 5184SOL    HW216452   1.049   2.338   4.139
 5185SOL     OW16453   4.900   0.258   3.103
 5185SOL    HW116454   4.993   0.282   3.076
 5185SOL    HW216455   4.842   0.340   3.099
 5186SOL     OW16456   5.493   3.783   0.869
 5186SOL    HW116457   5.494   3.808   0.966
 5186SOL    HW216458   5.547   3.850   0.818
 5187SOL     OW16459   6.990   0.715   3.947
 5187SOL    HW116460   6.981   0.812   3.969
 5187SOL    HW216461   6.903   0.679   3.915
 5188SOL     OW16462   0.712   5.014   0.448
 5188SOL    HW116463   0.706   5.054   0.356
 5188SOL    HW216464   0.715   4.914   0.441
 5189SOL     OW16465   5.140   4.935   1.176
 5189SOL    HW116466   5.069   4.956   1.109
 5189SOL    HW216467   5.206   4.871   1.135
 5190SOL     OW16468   0.655   2.531   4.108
 5190SOL    HW116469   0.687   2.624   4.127
 5190SOL    HW216470   0.665   2.511   4.011
 5191SOL     OW16471   4.108   0.282   2.030
 5191SOL    HW116472   4.176   0.355   2.026
 5191SOL    HW216473   4.019   0.320   2.055
 5192SOL     OW16474   3.096   5.931   2.727
 5192SOL    HW116475   3.019   5.995   2.737
 5192SOL    HW216476   3.064   5.847   2.683
 5193SOL     OW16477   4.742   5.189   3.856
 5193SOL    HW116478   4.731   5.289   3.850
 5193SOL    HW216479   4.813   5.168   3.923
 5194SOL     OW16480   4.654   1.019   6.786
 5194SOL    HW116481   4.677   0.948   6.719
 5194SOL    HW216482   4.593   1.086   6.743
 5195SOL     OW16483   0.076   5.902   4.053
 5195SOL    HW116484   0.091   5.810   4.090
 5195SOL    HW216485   0.164   5.941   4.025
 5196SOL     OW16486   1.372   3.461   1.018
 5196SOL    HW116487   1.363   3.365   1.042
 5196SOL    HW216488   1.319   3.516   1.082
 5197SOL     OW16489   1.670   5.744   4.907
 5197SOL    HW116490   1.658   5.645   4.913
 5197SOL    HW216491   1.607   5.789   4.972
 5198SOL     OW16492   3.880   0.222   3.593
 5198SOL    HW116493   3.920   0.265   3.674
 5198SOL    HW216494   3.950   0.209   3.523
 5199SOL     OW16495   1.589   6.065   0.259
 5199SOL    HW116496   1.581   6.145   0.319
 5199SOL    HW216497   1.633   6.092   0.173
 5200SOL     OW16498   1.170   1.929   5.210
 5200SOL    HW116499   1.073   1.906   5.198
 5200SOL    HW216500   1.201   1.899   5.300
 5201SOL     OW16501   5.179   5.800   4.430
 5201SOL    HW116502   5.271   5.804   4.391
 5201SOL    HW216503   5.150   5.705   4.439
 5202SOL     OW16504   5.900   3.682   6.367
 5202SOL    HW116505   5.906   3.643   6.459
 5202SOL    HW216506   5.950   3.624   6.303
 5203SOL     OW16507   2.118   0.932   6.842
 5203SOL    HW116508   2.095   0.846   6.797
 5203SOL    HW216509   2.067   1.006   6.799
 5204SOL     OW16510   3.350   6.674   0.362
 5204SOL    HW116511   3.384   6.688   0.455
 5204SOL    HW216512   3.254   6.643   0.367
 5205SOL     OW16513   6.750   5.536   0.175
 5205SOL    HW116514   6.736   5.628   0.210
 5205SOL    HW216515   6.781   5.476   0.248
 5206SOL     OW16516   0.840   4.873   5.905
 5206SOL    HW116517   0.867   4.788   5.860
 5206SOL    HW216518   0.920   4.933   5.912
 5207SOL     OW16519   0.979   0.627   3.397
 5207SOL    HW116520   0.970   0.527   3.391
 5207SOL    HW216521   1.053   0.650   3.459
 5208SOL     OW16522   4.387   2.559   0.115
 5208SOL    HW116523   4.484   2.538   0.120
 5208SOL    HW216524   4.359   2.568   0.019
 5209SOL     OW16525   5.656   1.019   1.702
 5209SOL    HW116526   5.667   0.925   1.733
 5209SOL    HW216527   5.577   1.025   1.640
 5210SOL     OW16528   5.066   3.933   0.945
 5210SOL    HW116529   5.104   3.911   0.855
 5210SOL    HW216530   5.087   3.859   1.009
 5211SOL     OW16531   4.865   1.760   4.561
 5211SOL    HW116532   4.899   1.715   4.479
 5211SOL    HW216533   4.931   1.828   4.593
 5212SOL     OW16534   1.454   2.295   1.094
 5212SOL    HW116535   1.499   2.308   1.006
 5212SOL    HW216536   1.365   2.342   1.093
 5213SOL     OW16537   4.139   3.680   1.153
 5213SOL    HW116538   4.221   3.622   1.145
 5213SOL    HW216539   4.157   3.769   1.112
 5214SOL     OW16540   5.383   3.212   5.524
 5214SOL    HW116541   5.422   3.136   5.472
 5214SOL    HW216542   5.328   3.176   5.600
 5215SOL     OW16543   0.553   4.412   4.525
 5215SOL    HW116544   0.541   4.506   4.557
 5215SOL    HW216545   0.576   4.413   4.428
 5216SOL     OW16546   4.799   5.658   1.471
 5216SOL    HW116547   4.869   5.675   1.401
 5216SOL    HW216548   4.764   5.746   1.503
 5217SOL     OW16549   3.956   5.669   5.017
 5217SOL    HW116550   4.056   5.662   5.024
 5217SOL    HW216551   3.916   5.578   5.027
 5218SOL     OW16552   0.058   1.213   1.342
 5218SOL    HW116553   6.982   1.242   1.371
 5218SOL    HW216554   0.127   1.271   1.384
 5219SOL     OW16555   3.652   1.761   3.915
 5219SOL    HW116556   3.598   1.804   3.843
 5219SOL    HW216557   3.680   1.831   3.981
 5220SOL     OW16558   1.708   5.012   2.681
 5220SOL    HW116559   1.660   5.032   2.766
 5220SOL    HW216560   1.796   4.969   2.702
 5221SOL     OW16561   6.673   0.156   2.207
 5221SOL    HW116562   6.645   0.075   2.257
 5221SOL    HW216563   6.773   0.164   2.209
 5222SOL     OW16564   3.619   5.813   2.107
 5222SOL    HW116565   3.615   5.792   2.204
 5222SOL    HW216566   3.594   5.732   2.054
 5223SOL     OW16567   0.420   2.412   0.837
 5223SOL    HW116568   0.328   2.436   0.804
 5223SOL    HW216569   0.485   2.416   0.761
 5224SOL     OW16570   0.004   2.178   4.001
 5224SOL    HW116571   0.031   2.234   4.079
 5224SOL    HW216572   6.949   2.112   4.030
 5225SOL     OW16573   6.846   0.838   3.652
 5225SOL    HW116574   6.933   0.800   3.682
 5225SOL    HW216575   6.780   0.763   3.637
 5226SOL     OW16576   0.407   6.023   3.515
 5226SOL    HW116577   0.450   5.972   3.589
 5226SOL    HW216578   0.477   6.071   3.463
 5227SOL     OW16579   6.767   4.118   5.456
 5227SOL    HW116580   6.705   4.195   5.471
 5227SOL    HW216581   6.743   4.043   5.516
 5228SOL     OW16582   0.486   2.167   0.517
 5228SOL    HW116583   0.515   2.154   0.422
 5228SOL    HW216584   0.552   2.122   0.578
 5229SOL     OW16585   3.232   6.281   0.135
 5229SOL    HW116586   3.175   6.239   0.064
 5229SOL    HW216587   3.277   6.209   0.188
 5230SOL     OW16588   6.147   6.765   2.624
 5230SOL    HW116589   6.182   6.737   2.534
 5230SOL    HW216590   6.068   6.708   2.648
 5231SOL     OW16591   4.561   2.539   3.927
 5231SOL    HW116592   4.480   2.480   3.917
 5231SOL    HW216593   4.541   2.630   3.890
 5232SOL     OW16594   0.817   4.000   5.934
 5232SOL    HW116595   0.899   3.954   5.899
 5232SOL    HW216596   0.750   4.009   5.862
 5233SOL     OW16597   3.649   0.619   2.237
 5233SOL    HW116598   3.602   0.628   2.150
 5233SOL    HW216599   3.698   0.532   2.239
 5234SOL     OW16600   2.749   3.033   6.537
 5234SOL    HW116601   2.819   2.992   6.596
 5234SOL    HW216602   2.786   3.046   6.445
 5235SOL     OW16603   2.009   2.574   1.138
 5235SOL    HW116604   2.065   2.562   1.056
 5235SOL    HW216605   2.033   2.660   1.182
 5236SOL     OW16606   3.684   5.152   2.215
 5236SOL    HW116607   3.608   5.089   2.199
 5236SOL    HW216608   3.748   5.146   2.138
 5237SOL     OW16609   1.950   1.042   4.466
 5237SOL    HW116610   1.974   1.138   4.485
 5237SOL    HW216611   1.974   0.986   4.545
 5238SOL     OW16612   0.593   5.673   0.891
 5238SOL    HW116613   0.656   5.615   0.943
 5238SOL    HW216614   0.642   5.713   0.813
 5239SOL     OW16615   3.629   2.836   0.319
 5239SOL    HW116616   3.711   2.819   0.264
 5239SOL    HW216617   3.565   2.892   0.266
 5240SOL     OW16618   2.921   2.239   5.241
 5240SOL    HW116619   2.840   2.289   5.209
 5240SOL    HW216620   3.001   2.270   5.190
 5241SOL     OW16621   0.619   5.616   3.172
 5241SOL    HW116622   0.539   5.666   3.204
 5241SOL    HW216623   0.688   5.681   3.140
 5242SOL     OW16624   5.151   0.108   2.059
 5242SOL    HW116625   5.118   0.193   2.018
 5242SOL    HW216626   5.172   0.123   2.155
 5243SOL     OW16627   2.353   6.071   1.426
 5243SOL    HW116628   2.311   6.082   1.335
 5243SOL    HW216629   2.360   6.160   1.470
 5244SOL     OW16630   4.264   3.891   0.190
 5244SOL    HW116631   4.258   3.991   0.190
 5244SOL    HW216632   4.172   3.852   0.190
 5245SOL     OW16633   3.431   4.789   0.660
 5245SOL    HW116634   3.380   4.837   0.589
 5245SOL    HW216635   3.385   4.702   0.681
 5246SOL     OW16636   6.342   2.217   2.523
 5246SOL    HW116637   6.327   2.189   2.617
 5246SOL    HW216638   6.373   2.312   2.521
 5247SOL     OW16639   3.231   0.634   5.955
 5247SOL    HW116640   3.221   0.728   5.923
 5247SOL    HW216641   3.174   0.620   6.036
 5248SOL     OW16642   0.130   2.258   3.296
 5248SOL    HW116643   0.100   2.276   3.390
 5248SOL    HW216644   0.091   2.172   3.264
 5249SOL     OW16645   1.409   5.899   6.734
 5249SOL    HW116646   1.476   5.935   6.669
 5249SOL    HW216647   1.317   5.902   6.693
 5250SOL     OW16648   0.668   5.728   0.625
 5250SOL    HW116649   0.641   5.824   0.617
 5250SOL    HW216650   0.727   5.704   0.548
 5251SOL     OW16651   1.080   4.036   0.654
 5251SOL    HW116652   1.005   4.090   0.613
 5251SOL    HW216653   1.084   3.946   0.610
 5252SOL     OW16654   2.458   6.752   1.031
 5252SOL    HW116655   2.512   6.784   0.953
 5252SOL    HW216656   2.518   6.737   1.109
 5253SOL     OW16657   0.046   3.700   4.505
 5253SOL    HW116658   0.096   3.631   4.452
 5253SOL    HW216659   6.967   3.707   4.470
 5254SOL     OW16660   5.858   0.652   3.672
 5254SOL    HW116661   5.945   0.624   3.632
 5254SOL    HW216662   5.850   0.612   3.764
 5255SOL     OW16663   5.250   2.442   4.926
 5255SOL    HW116664   5.193   2.360   4.930
 5255SOL    HW216665   5.275   2.461   4.831
 5256SOL     OW16666   4.809   2.251   4.246
 5256SOL    HW116667   4.844   2.216   4.159
 5256SOL    HW216668   4.753   2.332   4.229
 5257SOL     OW16669   4.524   0.218   1.482
 5257SOL    HW116670   4.522   0.129   1.528
 5257SOL    HW216671   4.551   0.205   1.386
 5258SOL     OW16672   5.758   2.376   2.218
 5258SOL    HW116673   5.660   2.364   2.235
 5258SOL    HW216674   5.803   2.287   2.221
 5259SOL     OW16675   4.845   6.100   3.212
 5259SOL    HW116676   4.878   6.194   3.222
 5259SOL    HW216677   4.748   6.101   3.187
 5260SOL     OW16678   4.104   4.825   0.650
 5260SOL    HW116679   4.036   4.752   0.652
 5260SOL    HW216680   4.175   4.807   0.718
 5261SOL     OW16681   6.538   4.035   6.448
 5261SOL    HW116682   6.502   3.956   6.398
 5261SOL    HW216683   6.497   4.118   6.411
 5262SOL     OW16684   3.219   1.369   3.336
 5262SOL    HW116685   3.227   1.339   3.241
 5262SOL    HW216686   3.148   1.439   3.343
 5263SOL     OW16687   1.808   1.597   3.234
 5263SOL    HW116688   1.872   1.625   3.162
 5263SOL    HW216689   1.801   1.497   3.234
 5264SOL     OW16690   6.549   2.787   1.623
 5264SOL    HW116691   6.631   2.796   1.678
 5264SOL    HW216692   6.472   2.759   1.681
 5265SOL     OW16693   6.283   3.097   4.309
 5265SOL    HW116694   6.295   3.186   4.266
 5265SOL    HW216695   6.270   3.109   4.408
 5266SOL     OW16696   2.741   5.986   6.899
 5266SOL    HW116697   2.828   6.019   6.863
 5266SOL    HW216698   2.748   5.975   6.998
 5267SOL     OW16699   5.164   2.571   4.507
 5267SOL    HW116700   5.073   2.613   4.498
 5267SOL    HW216701   5.154   2.474   4.526
 5268SOL     OW16702   5.036   0.856   0.536
 5268SOL    HW116703   5.042   0.812   0.625
 5268SOL    HW216704   4.962   0.813   0.483
 5269SOL     OW16705   0.591   6.438   2.559
 5269SOL    HW116706   0.650   6.479   2.629
 5269SOL    HW216707   0.574   6.343   2.583
 5270SOL     OW16708   5.616   1.440   1.987
 5270SOL    HW116709   5.561   1.385   1.925
 5270SOL    HW216710   5.558   1.511   2.029
 5271SOL     OW16711   5.836   4.678   5.000
 5271SOL    HW116712   5.748   4.634   4.981
 5271SOL    HW216713   5.878   4.637   5.081
 5272SOL     OW16714   2.957   5.585   1.001
 5272SOL    HW116715   3.053   5.603   0.979
 5272SOL    HW216716   2.947   5.493   1.037
 5273SOL     OW16717   0.470   3.371   2.872
 5273SOL    HW116718   0.378   3.346   2.903
 5273SOL    HW216719   0.488   3.326   2.784
 5274SOL     OW16720   5.580   0.080   2.800
 5274SOL    HW116721   5.559   0.013   2.871
 5274SOL    HW216722   5.578   0.172   2.839
 5275SOL     OW16723   4.018   1.383   0.518
 5275SOL    HW116724   4.056   1.304   0.565
 5275SOL    HW216725   4.028   1.371   0.419
 5276SOL     OW16726   2.286   0.325   0.932
 5276SOL    HW116727   2.298   0.282   1.021
 5276SOL    HW216728   2.193   0.361   0.924
 5277SOL     OW16729   2.777   1.617   2.931
 5277SOL    HW116730   2.813   1.529   2.901
 5277SOL    HW216731   2.743   1.610   3.024
 5278SOL     OW16732   4.935   5.483   4.124
 5278SOL    HW116733   4.913   5.571   4.167
 5278SOL    HW216734   4.885   5.475   4.038
 5279SOL     OW16735   2.592   5.339   0.123
 5279SOL    HW116736   2.575   5.435   0.146
 5279SOL    HW216737   2.507   5.287   0.133
 5280SOL     OW16738   3.059   6.194   5.317
 5280SOL    HW116739   3.139   6.142   5.349
 5280SOL    HW216740   3.056   6.192   5.217
 5281SOL     OW16741   6.482   1.864   2.282
 5281SOL    HW116742   6.510   1.930   2.352
 5281SOL    HW216743   6.462   1.776   2.324
 5282SOL     OW16744   3.961   1.332   3.372
 5282SOL    HW116745   3.951   1.297   3.465
 5282SOL    HW216746   3.988   1.428   3.375
 5283SOL     OW16747   4.951   6.330   1.915
 5283SOL    HW116748   5.027   6.269   1.893
 5283SOL    HW216749   4.950   6.407   1.850
 5284SOL     OW16750   5.197   4.374   3.441
 5284SOL    HW116751   5.191   4.283   3.482
 5284SOL    HW216752   5.181   4.444   3.511
 5285SOL     OW16753   3.168   5.022   4.398
 5285SOL    HW116754   3.250   4.980   4.437
 5285SOL    HW216755   3.096   4.954   4.389
 5286SOL     OW16756   2.356   4.621   0.936
 5286SOL    HW116757   2.282   4.587   0.995
 5286SOL    HW216758   2.321   4.694   0.878
 5287SOL     OW16759   3.175   1.164   0.316
 5287SOL    HW116760   3.237   1.241   0.332
 5287SOL    HW216761   3.083   1.199   0.295
 5288SOL     OW16762   3.185   0.281   1.470
 5288SOL    HW116763   3.232   0.244   1.550
 5288SOL    HW216764   3.177   0.380   1.478
 5289SOL     OW16765   1.610   4.751   6.552
 5289SOL    HW116766   1.555   4.787   6.627
 5289SOL    HW216767   1.668   4.824   6.514
 5290SOL     OW16768   2.399   5.214   6.104
 5290SOL    HW116769   2.307   5.245   6.081
 5290SOL    HW216770   2.466   5.263   6.049
 5291SOL     OW16771   2.608   5.979   5.373
 5291SOL    HW116772   2.679   5.980   5.444
 5291SOL    HW216773   2.650   5.992   5.283
 5292SOL     OW16774   5.941   2.719   0.515
 5292SOL    HW116775   5.918   2.788   0.583
 5292SOL    HW216776   5.947   2.629   0.559
 5293SOL     OW16777   0.917   1.036   4.577
 5293SOL    HW116778   0.871   1.125   4.577
 5293SOL    HW216779   0.971   1.027   4.493
 5294SOL     OW16780   5.032   3.556   6.162
 5294SOL    HW116781   4.962   3.495   6.123
 5294SOL    HW216782   5.052   3.528   6.256
 5295SOL     OW16783   5.425   1.070   2.806
 5295SOL    HW116784   5.524   1.079   2.815
 5295SOL    HW216785   5.381   1.154   2.838
 5296SOL     OW16786   1.668   5.384   0.052
 5296SOL    HW116787   1.687   5.375   0.150
 5296SOL    HW216788   1.753   5.397   0.002
 5297SOL     OW16789   1.759   2.506   1.075
 5297SOL    HW116790   1.689   2.552   1.130
 5297SOL    HW216791   1.849   2.543   1.098
 5298SOL     OW16792   6.376   5.792   2.065
 5298SOL    HW116793   6.299   5.849   2.094
 5298SOL    HW216794   6.364   5.699   2.102
 5299SOL     OW16795   2.767   0.907   1.345
 5299SOL    HW116796   2.674   0.885   1.317
 5299SOL    HW216797   2.796   0.843   1.416
 5300SOL     OW16798   0.837   5.287   3.085
 5300SOL    HW116799   0.787   5.204   3.109
 5300SOL    HW216800   0.844   5.346   3.166
 5301SOL     OW16801   4.228   1.427   6.923
 5301SOL    HW116802   4.145   1.454   6.874
 5301SOL    HW216803   4.308   1.450   6.869
 5302SOL     OW16804   6.317   4.464   2.175
 5302SOL    HW116805   6.272   4.511   2.099
 5302SOL    HW216806   6.262   4.475   2.258
 5303SOL     OW16807   6.516   6.252   4.055
 5303SOL    HW116808   6.531   6.351   4.053
 5303SOL    HW216809   6.550   6.215   4.141
 5304SOL     OW16810   5.182   2.015   6.167
 5304SOL    HW116811   5.250   1.968   6.224
 5304SOL    HW216812   5.198   2.114   6.173
 5305SOL     OW16813   1.600   0.778   4.137
 5305SOL    HW116814   1.698   0.769   4.157
 5305SOL    HW216815   1.560   0.844   4.202
 5306SOL     OW16816   2.373   6.629   5.357
 5306SOL    HW116817   2.360   6.725   5.333
 5306SOL    HW216818   2.294   6.576   5.326
 5307SOL     OW16819   4.189   6.223   6.360
 5307SOL    HW116820   4.213   6.259   6.451
 5307SOL    HW216821   4.226   6.131   6.350
 5308SOL     OW16822   0.396   0.665   4.033
 5308SOL    HW116823   0.394   0.571   4.000
 5308SOL    HW216824   0.380   0.666   4.132
 5309SOL     OW16825   4.078   3.732   3.415
 5309SOL    HW116826   4.080   3.790   3.333
 5309SOL    HW216827   3.989   3.741   3.459
 5310SOL     OW16828   4.877   2.594   1.820
 5310SOL    HW116829   4.919   2.678   1.787
 5310SOL    HW216830   4.785   2.613   1.855
 5311SOL     OW16831   0.955   5.756   6.511
 5311SOL    HW116832   1.000   5.690   6.571
 5311SOL    HW216833   0.893   5.813   6.565
 5312SOL     OW16834   0.716   5.127   1.982
 5312SOL    HW116835   0.768   5.213   1.980
 5312SOL    HW216836   0.643   5.134   2.050
 5313SOL     OW16837   0.604   5.263   6.789
 5313SOL    HW116838   0.621   5.182   6.846
 5313SOL    HW216839   0.541   5.238   6.715
 5314SOL     OW16840   4.697   5.508   0.662
 5314SOL    HW116841   4.725   5.414   0.645
 5314SOL    HW216842   4.636   5.539   0.588
 5315SOL     OW16843   4.661   4.289   2.220
 5315SOL    HW116844   4.669   4.192   2.242
 5315SOL    HW216845   4.593   4.302   2.148
 5316SOL     OW16846   0.465   5.291   4.906
 5316SOL    HW116847   0.461   5.330   4.998
 5316SOL    HW216848   0.373   5.288   4.867
 5317SOL     OW16849   5.604   1.330   3.740
 5317SOL    HW116850   5.632   1.329   3.836
 5317SOL    HW216851   5.556   1.416   3.721
 5318SOL     OW16852   6.691   2.167   4.646
 5318SOL    HW116853   6.710   2.261   4.675
 5318SOL    HW216854   6.753   2.104   4.693
 5319SOL     OW16855   5.591   6.829   6.444
 5319SOL    HW116856   5.507   6.882   6.430
 5319SOL    HW216857   5.670   6.889   6.428
 5320SOL     OW16858   5.913   4.824   7.007
 5320SOL    HW116859   5.818   4.832   0.023
 5320SOL    HW216860   5.965   4.772   0.060
 5321SOL     OW16861   1.263   5.338   3.777
 5321SOL    HW116862   1.282   5.368   3.871
 5321SOL    HW216863   1.320   5.258   3.756
 5322SOL     OW16864   3.674   6.713   6.798
 5322SOL    HW116865   3.746   6.679   6.858
 5322SOL    HW216866   3.693   6.809   6.775
 5323SOL     OW16867   4.308   2.529   1.366
 5323SOL    HW116868   4.216   2.501   1.339
 5323SOL    HW216869   4.348   2.458   1.425
 5324SOL     OW16870   3.784   2.002   1.876
 5324SOL    HW116871   3.746   1.927   1.929
 5324SOL    HW216872   3.757   2.089   1.918
 5325SOL     OW16873   4.922   6.912   2.946
 5325SOL    HW116874   4.855   6.960   3.003
 5325SOL    HW216875   5.014   6.942   2.972
 5326SOL     OW16876   6.885   5.324   1.836
 5326SOL    HW116877   6.835   5.370   1.910
 5326SOL    HW216878   6.978   5.358   1.833
 5327SOL     OW16879   0.162   6.805   4.831
 5327SOL    HW116880   0.112   6.782   4.747
 5327SOL    HW216881   0.098   6.812   4.907
 5328SOL     OW16882   3.306   2.745   5.701
 5328SOL    HW116883   3.350   2.671   5.649
 5328SOL    HW216884   3.215   2.716   5.729
 5329SOL     OW16885   0.086   4.593   0.453
 5329SOL    HW116886   0.059   4.507   0.411
 5329SOL    HW216887   0.161   4.634   0.401
 5330SOL     OW16888   3.909   3.608   0.396
 5330SOL    HW116889   3.953   3.531   0.442
 5330SOL    HW216890   3.979   3.670   0.361
 5331SOL     OW16891   4.267   2.411   0.851
 5331SOL    HW116892   4.320   2.389   0.933
 5331SOL    HW216893   4.233   2.326   0.810
 5332SOL     OW16894   6.036   5.260   0.646
 5332SOL    HW116895   5.974   5.275   0.569
 5332SOL    HW216896   6.064   5.164   0.648
 5333SOL     OW16897   2.325   0.845   3.829
 5333SOL    HW116898   2.410   0.869   3.782
 5333SOL    HW216899   2.261   0.921   3.823
 5334SOL     OW16900   4.538   4.943   4.360
 5334SOL    HW116901   4.485   4.998   4.424
 5334SOL    HW216902   4.476   4.889   4.303
 5335SOL     OW16903   6.321   4.065   2.554
 5335SOL    HW116904   6.244   4.053   2.491
 5335SOL    HW216905   6.321   4.159   2.588
 5336SOL     OW16906   2.184   1.959   3.939
 5336SOL    HW116907   2.201   1.969   3.841
 5336SOL    HW216908   2.232   1.879   3.974
 5337SOL     OW16909   5.967   4.725   1.411
 5337SOL    HW116910   5.880   4.763   1.442
 5337SOL    HW216911   6.005   4.783   1.338
 5338SOL     OW16912   5.897   2.807   0.067
 5338SOL    HW116913   5.933   2.899   0.083
 5338SOL    HW216914   5.945   2.742   0.126
 5339SOL     OW16915   5.893   1.907   2.092
 5339SOL    HW116916   5.866   1.836   2.027
 5339SOL    HW216917   5.842   1.895   2.178
 5340SOL     OW16918   5.057   3.175   1.792
 5340SOL    HW116919   5.101   3.240   1.853
 5340SOL    HW216920   5.092   3.186   1.699
 5341SOL     OW16921   4.583   4.846   3.581
 5341SOL    HW116922   4.665   4.818   3.530
 5341SOL    HW216923   4.529   4.765   3.603
 5342SOL     OW16924   5.589   6.552   5.703
 5342SOL    HW116925   5.585   6.647   5.671
 5342SOL    HW216926   5.682   6.517   5.692
 5343SOL     OW16927   3.624   3.471   4.971
 5343SOL    HW116928   3.710   3.481   4.921
 5343SOL    HW216929   3.547   3.471   4.907
 5344SOL     OW16930   0.631   1.269   0.633
 5344SOL    HW116931   0.573   1.312   0.565
 5344SOL    HW216932   0.709   1.226   0.588
 5345SOL     OW16933   4.761   1.440   6.955
 5345SOL    HW116934   4.796   1.473   6.867
 5345SOL    HW216935   4.706   1.358   6.941
 5346SOL     OW16936   2.487   5.056   4.255
 5346SOL    HW116937   2.456   4.974   4.208
 5346SOL    HW216938   2.469   5.136   4.199
 5347SOL     OW16939   0.074   2.280   3.655
 5347SOL    HW116940   0.022   2.194   3.652
 5347SOL    HW216941   0.023   2.347   3.708
 5348SOL     OW16942   6.317   1.440   4.939
 5348SOL    HW116943   6.385   1.475   4.874
 5348SOL    HW216944   6.292   1.513   5.003
 5349SOL     OW16945   0.696   2.657   1.801
 5349SOL    HW116946   0.738   2.701   1.722
 5349SOL    HW216947   0.676   2.726   1.871
 5350SOL     OW16948   1.670   0.175   5.384
 5350SOL    HW116949   1.596   0.116   5.419
 5350SOL    HW216950   1.756   0.149   5.427
 5351SOL     OW16951   0.046   5.579   1.722
 5351SOL    HW116952   0.130   5.529   1.700
 5351SOL    HW216953   0.033   5.582   1.821
 5352SOL     OW16954   2.054   4.365   2.946
 5352SOL    HW116955   2.022   4.300   3.015
 5352SOL    HW216956   2.072   4.317   2.860
 5353SOL     OW16957   3.622   5.519   3.789
 5353SOL    HW116958   3.563   5.479   3.719
 5353SOL    HW216959   3.718   5.510   3.762
 5354SOL     OW16960   3.442   4.508   0.385
 5354SOL    HW116961   3.503   4.504   0.306
 5354SOL    HW216962   3.365   4.569   0.365
 5355SOL     OW16963   5.096   5.267   5.287
 5355SOL    HW116964   5.048   5.199   5.232
 5355SOL    HW216965   5.164   5.221   5.345
 5356SOL     OW16966   6.412   3.677   1.675
 5356SOL    HW116967   6.368   3.716   1.595
 5356SOL    HW216968   6.479   3.608   1.646
 5357SOL     OW16969   4.173   4.618   1.852
 5357SOL    HW116970   4.233   4.608   1.931
 5357SOL    HW216971   4.111   4.695   1.866
 5358SOL     OW16972   4.302   1.557   0.317
 5358SOL    HW116973   4.260   1.565   0.407
 5358SOL    HW216974   4.276   1.470   0.276
 5359SOL     OW16975   2.068   2.319   0.360
 5359SOL    HW116976   2.143   2.296   0.298
 5359SOL    HW216977   2.018   2.398   0.324
 5360SOL     OW16978   5.728   5.452   3.968
 5360SOL    HW116979   5.720   5.380   3.898
 5360SOL    HW216980   5.752   5.539   3.925
 5361SOL     OW16981   3.200   6.250   2.800
 5361SOL    HW116982   3.235   6.200   2.721
 5361SOL    HW216983   3.250   6.336   2.810
 5362SOL     OW16984   5.499   6.737   2.727
 5362SOL    HW116985   5.581   6.697   2.685
 5362SOL    HW216986   5.429   6.751   2.656
 5363SOL     OW16987   5.371   6.757   5.012
 5363SOL    HW116988   5.386   6.809   4.928
 5363SOL    HW216989   5.401   6.663   5.000
 5364SOL     OW16990   5.318   0.874   2.130
 5364SOL    HW116991   5.389   0.841   2.068
 5364SOL    HW216992   5.267   0.947   2.085
 5365SOL     OW16993   2.860   3.554   3.059
 5365SOL    HW116994   2.763   3.545   3.036
 5365SOL    HW216995   2.915   3.535   2.978
 5366SOL     OW16996   6.852   0.473   1.567
 5366SOL    HW116997   6.760   0.440   1.546
 5366SOL    HW216998   6.882   0.432   1.653
 5367SOL     OW16999   5.715   0.015   0.358
 5367SOL    HW117000   5.688   7.015   0.263
 5367SOL    HW217001   5.814   0.007   0.366
 5368SOL     OW17002   6.457   5.930   2.292
 5368SOL    HW117003   6.437   5.853   2.232
 5368SOL    HW217004   6.505   6.001   2.240
 5369SOL     OW17005   2.908   5.348   1.111
 5369SOL    HW117006   2.871   5.329   1.203
 5369SOL    HW217007   2.872   5.280   1.047
 5370SOL     OW17008   4.032   3.792   1.669
 5370SOL    HW117009   3.953   3.799   1.609
 5370SOL    HW217010   4.014   3.843   1.753
 5371SOL     OW17011   6.871   5.123   4.945
 5371SOL    HW117012   6.862   5.101   4.847
 5371SOL    HW217013   6.810   5.198   4.967
 5372SOL     OW17014   1.843   6.865   2.893
 5372SOL    HW117015   1.847   6.769   2.919
 5372SOL    HW217016   1.797   6.875   2.805
 5373SOL     OW17017   4.148   6.798   6.398
 5373SOL    HW117018   4.194   6.710   6.405
 5373SOL    HW217019   4.196   6.866   6.453
 5374SOL     OW17020   2.486   4.632   1.369
 5374SOL    HW117021   2.534   4.670   1.290
 5374SOL    HW217022   2.443   4.545   1.343
 5375SOL     OW17023   1.043   6.615   5.621
 5375SOL    HW117024   1.116   6.677   5.594
 5375SOL    HW217025   0.955   6.654   5.594
 5376SOL     OW17026   1.281   2.069   1.786
 5376SOL    HW117027   1.269   2.043   1.691
 5376SOL    HW217028   1.192   2.078   1.831
 5377SOL     OW17029   2.223   0.818   3.058
 5377SOL    HW117030   2.273   0.852   2.979
 5377SOL    HW217031   2.158   0.748   3.029
 5378SOL     OW17032   5.644   0.353   1.152
 5378SOL    HW117033   5.577   0.292   1.193
 5378SOL    HW217034   5.610   0.448   1.158
 5379SOL     OW17035   1.547   2.511   5.916
 5379SOL    HW117036   1.485   2.587   5.898
 5379SOL    HW217037   1.544   2.446   5.840
 5380SOL     OW17038   3.501   6.901   1.100
 5380SOL    HW117039   3.479   6.806   1.119
 5380SOL    HW217040   3.446   6.960   1.160
 5381SOL     OW17041   5.796   6.736   2.666
 5381SOL    HW117042   5.834   6.808   2.724
 5381SOL    HW217043   5.824   6.751   2.572
 5382SOL     OW17044   3.878   2.009   2.585
 5382SOL    HW117045   3.780   2.027   2.591
 5382SOL    HW217046   3.898   1.920   2.626
 5383SOL     OW17047   1.060   2.853   4.445
 5383SOL    HW117048   1.018   2.841   4.355
 5383SOL    HW217049   1.151   2.893   4.435
 5384SOL     OW17050   4.466   5.545   5.491
 5384SOL    HW117051   4.552   5.579   5.528
 5384SOL    HW217052   4.422   5.615   5.436
 5385SOL     OW17053   6.667   3.031   6.118
 5385SOL    HW117054   6.603   2.957   6.098
 5385SOL    HW217055   6.760   2.996   6.115
 5386SOL     OW17056   5.844   3.197   3.866
 5386SOL    HW117057   5.814   3.102   3.876
 5386SOL    HW217058   5.833   3.226   3.771
 5387SOL     OW17059   2.550   0.101   3.221
 5387SOL    HW117060   2.512   0.009   3.231
 5387SOL    HW217061   2.607   0.122   3.300
 5388SOL     OW17062   1.139   6.665   3.062
 5388SOL    HW117063   1.142   6.661   2.962
 5388SOL    HW217064   1.084   6.745   3.090
 5389SOL     OW17065   4.458   2.147   4.827
 5389SOL    HW117066   4.489   2.162   4.921
 5389SOL    HW217067   4.478   2.053   4.800
 5390SOL     OW17068   5.995   3.512   4.211
 5390SOL    HW117069   5.901   3.527   4.243
 5390SOL    HW217070   6.007   3.554   4.121
 5391SOL     OW17071   2.650   2.307   0.209
 5391SOL    HW117072   2.605   2.218   0.207
 5391SOL    HW217073   2.583   2.379   0.194
 5392SOL     OW17074   4.841   2.603   3.269
 5392SOL    HW117075   4.803   2.520   3.230
 5392SOL    HW217076   4.767   2.667   3.290
 5393SOL     OW17077   4.329   6.964   5.172
 5393SOL    HW117078   4.315   6.865   5.166
 5393SOL    HW217079   4.325   6.992   5.268
 5394SOL     OW17080   1.219   6.589   1.157
 5394SOL    HW117081   1.183   6.682   1.162
 5394SOL    HW217082   1.240   6.566   1.062
 5395SOL     OW17083   4.840   1.593   1.032
 5395SOL    HW117084   4.771   1.595   0.960
 5395SOL    HW217085   4.909   1.664   1.014
 5396SOL     OW17086   5.392   5.727   2.583
 5396SOL    HW117087   5.398   5.702   2.486
 5396SOL    HW217088   5.464   5.679   2.633
 5397SOL     OW17089   6.410   1.656   2.439
 5397SOL    HW117090   6.350   1.693   2.510
 5397SOL    HW217091   6.494   1.622   2.480
 5398SOL     OW17092   4.541   1.931   3.998
 5398SOL    HW117093   4.564   1.919   4.094
 5398SOL    HW217094   4.539   2.028   3.976
 5399SOL     OW17095   1.444   6.986   5.185
 5399SOL    HW117096   1.508   6.979   5.109
 5399SOL    HW217097   1.351   6.989   5.151
 5400SOL     OW17098   3.476   3.452   1.076
 5400SOL    HW117099   3.504   3.360   1.049
 5400SOL    HW217100   3.451   3.452   1.173
 5401SOL     OW17101   5.061   5.027   3.578
 5401SOL    HW117102   5.053   4.935   3.616
 5401SOL    HW217103   5.003   5.034   3.496
 5402SOL     OW17104   2.854   6.939   0.705
 5402SOL    HW117105   2.824   6.847   0.677
 5402SOL    HW217106   2.915   6.932   0.784
 5403SOL     OW17107   5.556   3.081   0.124
 5403SOL    HW117108   5.527   3.006   0.183
 5403SOL    HW217109   5.527   3.062   0.030
 5404SOL     OW17110   0.846   1.121   1.165
 5404SOL    HW117111   0.909   1.048   1.139
 5404SOL    HW217112   0.898   1.198   1.203
 5405SOL     OW17113   5.063   5.500   6.952
 5405SOL    HW117114   5.079   5.579   6.892
 5405SOL    HW217115   5.128   5.428   6.930
 5406SOL     OW17116   2.822   1.135   4.840
 5406SOL    HW117117   2.882   1.116   4.918
 5406SOL    HW217118   2.749   1.196   4.868
 5407SOL     OW17119   2.517   0.792   1.244
 5407SOL    HW117120   2.508   0.712   1.304
 5407SOL    HW217121   2.522   0.761   1.149
 5408SOL     OW17122   3.393   1.769   4.225
 5408SOL    HW117123   3.374   1.849   4.168
 5408SOL    HW217124   3.349   1.688   4.185
 5409SOL     OW17125   6.255   2.540   1.574
 5409SOL    HW117126   6.262   2.617   1.638
 5409SOL    HW217127   6.296   2.459   1.615
 5410SOL     OW17128   6.949   3.099   1.082
 5410SOL    HW117129   6.975   3.096   0.985
 5410SOL    HW217130   6.918   3.008   1.111
 5411SOL     OW17131   5.102   4.712   0.213
 5411SOL    HW117132   5.196   4.705   0.248
 5411SOL    HW217133   5.075   4.624   0.175
 5412SOL     OW17134   1.559   1.477   6.079
 5412SOL    HW117135   1.548   1.576   6.078
 5412SOL    HW217136   1.469   1.434   6.066
 5413SOL     OW17137   6.170   0.108   5.450
 5413SOL    HW117138   6.095   0.063   5.403
 5413SOL    HW217139   6.203   0.050   5.525
 5414SOL     OW17140   0.205   4.268   5.091
 5414SOL    HW117141   0.243   4.338   5.031
 5414SOL    HW217142   0.279   4.207   5.122
 5415SOL     OW17143   2.970   5.839   0.467
 5415SOL    HW117144   2.880   5.879   0.476
 5415SOL    HW217145   3.035   5.908   0.434
 5416SOL     OW17146   2.783   5.075   5.042
 5416SOL    HW117147   2.719   5.113   4.976
 5416SOL    HW217148   2.746   4.991   5.081
 5417SOL     OW17149   5.210   5.901   3.680
 5417SOL    HW117150   5.217   5.850   3.766
 5417SOL    HW217151   5.265   5.857   3.610
 5418SOL     OW17152   5.705   4.719   4.367
 5418SOL    HW117153   5.631   4.721   4.300
 5418SOL    HW217154   5.793   4.715   4.318
 5419SOL     OW17155   4.142   6.678   6.791
 5419SOL    HW117156   4.082   6.600   6.773
 5419SOL    HW217157   4.092   6.763   6.778
 5420SOL     OW17158   1.574   1.675   2.100
 5420SOL    HW117159   1.558   1.634   2.010
 5420SOL    HW217160   1.488   1.712   2.135
 5421SOL     OW17161   3.487   5.357   2.232
 5421SOL    HW117162   3.505   5.419   2.155
 5421SOL    HW217163   3.556   5.285   2.234
 5422SOL     OW17164   2.101   6.266   3.845
 5422SOL    HW117165   2.113   6.241   3.749
 5422SOL    HW217166   2.133   6.359   3.860
 5423SOL     OW17167   6.725   5.714   2.158
 5423SOL    HW117168   6.692   5.798   2.203
 5423SOL    HW217169   6.699   5.716   2.061
 5424SOL     OW17170   4.961   4.180   5.137
 5424SOL    HW117171   4.963   4.243   5.059
 5424SOL    HW217172   4.898   4.105   5.117
 5425SOL     OW17173   0.044   3.351   5.011
 5425SOL    HW117174   6.997   3.328   4.936
 5425SOL    HW217175   0.091   3.437   4.990
 5426SOL     OW17176   5.090   5.292   2.169
 5426SOL    HW117177   5.156   5.308   2.243
 5426SOL    HW217178   5.046   5.203   2.182
 5427SOL     OW17179   4.503   2.692   6.576
 5427SOL    HW117180   4.504   2.607   6.524
 5427SOL    HW217181   4.574   2.689   6.646
 5428SOL     OW17182   6.000   5.683   2.936
 5428SOL    HW117183   6.045   5.643   2.856
 5428SOL    HW217184   5.905   5.704   2.914
 5429SOL     OW17185   3.046   0.312   4.037
 5429SOL    HW117186   3.014   0.381   4.102
 5429SOL    HW217187   3.106   0.356   3.970
 5430SOL     OW17188   2.307   3.580   6.069
 5430SOL    HW117189   2.299   3.668   6.021
 5430SOL    HW217190   2.403   3.553   6.073
 5431SOL     OW17191   3.624   5.154   6.266
 5431SOL    HW117192   3.633   5.213   6.347
 5431SOL    HW217193   3.578   5.205   6.193
 5432SOL     OW17194   5.318   5.986   1.380
 5432SOL    HW117195   5.220   5.982   1.361
 5432SOL    HW217196   5.344   6.081   1.400
 5433SOL     OW17197   0.899   0.838   0.932
 5433SOL    HW117198   0.896   0.750   0.979
 5433SOL    HW217199   0.966   0.897   0.976
 5434SOL     OW17200   5.147   1.226   4.971
 5434SOL    HW117201   5.149   1.134   4.932
 5434SOL    HW217202   5.113   1.222   5.065
 5435SOL     OW17203   6.492   4.223   1.001
 5435SOL    HW117204   6.563   4.235   1.071
 5435SOL    HW217205   6.501   4.132   0.960
 5436SOL     OW17206   0.858   5.995   2.682
 5436SOL    HW117207   0.888   6.026   2.592
 5436SOL    HW217208   0.822   5.902   2.674
 5437SOL     OW17209   2.880   5.130   6.587
 5437SOL    HW117210   2.787   5.095   6.568
 5437SOL    HW217211   2.921   5.161   6.501
 5438SOL     OW17212   4.823   4.049   2.240
 5438SOL    HW117213   4.848   4.122   2.176
 5438SOL    HW217214   4.825   3.961   2.192
 5439SOL     OW17215   0.427   4.242   0.494
 5439SOL    HW117216   0.497   4.172   0.506
 5439SOL    HW217217   0.436   4.311   0.566
 5440SOL     OW17218   5.625   6.777   3.510
 5440SOL    HW117219   5.656   6.700   3.454
 5440SOL    HW217220   5.534   6.807   3.479
 5441SOL     OW17221   4.922   3.002   4.044
 5441SOL    HW117222   4.850   2.942   4.080
 5441SOL    HW217223   4.919   3.090   4.093
 5442SOL     OW17224   5.585   0.224   4.052
 5442SOL    HW117225   5.670   0.191   4.012
 5442SOL    HW217226   5.604   0.304   4.110
 5443SOL     OW17227   5.100   6.921   5.048
 5443SOL    HW117228   5.191   6.882   5.061
 5443SOL    HW217229   5.101   0.003   5.075
 5444SOL     OW17230   0.529   1.751   3.830
 5444SOL    HW117231   0.587   1.775   3.752
 5444SOL    HW217232   0.512   1.832   3.886
 5445SOL     OW17233   5.163   5.000   5.086
 5445SOL    HW117234   5.119   4.957   5.165
 5445SOL    HW217235   5.098   5.008   5.011
 5446SOL     OW17236   6.923   4.762   4.959
 5446SOL    HW117237   6.960   4.790   4.870
 5446SOL    HW217238   6.863   4.833   4.995
 5447SOL     OW17239   1.785   1.907   1.446
 5447SOL    HW117240   1.718   1.953   1.387
 5447SOL    HW217241   1.873   1.903   1.399
 5448SOL     OW17242   4.599   6.055   4.030
 5448SOL    HW117243   4.556   5.970   4.000
 5448SOL    HW217244   4.600   6.121   3.956
 5449SOL     OW17245   3.307   1.715   2.439
 5449SOL    HW117246   3.303   1.697   2.537
 5449SOL    HW217247   3.237   1.660   2.393
 5450SOL     OW17248   3.793   6.197   2.064
 5450SOL    HW117249   3.811   6.280   2.011
 5450SOL    HW217250   3.707   6.156   2.033
 5451SOL     OW17251   1.210   0.096   3.149
 5451SOL    HW117252   1.289   0.138   3.104
 5451SOL    HW217253   1.235   0.007   3.186
 5452SOL     OW17254   1.690   4.891   0.932
 5452SOL    HW117255   1.620   4.821   0.918
 5452SOL    HW217256   1.690   4.921   1.028
 5453SOL     OW17257   5.497   4.608   2.879
 5453SOL    HW117258   5.532   4.587   2.971
 5453SOL    HW217259   5.435   4.535   2.850
 5454SOL     OW17260   5.581   5.574   2.691
 5454SOL    HW117261   5.630   5.516   2.626
 5454SOL    HW217262   5.606   5.548   2.784
 5455SOL     OW17263   0.684   1.291   2.463
 5455SOL    HW117264   0.610   1.271   2.527
 5455SOL    HW217265   0.725   1.205   2.432
 5456SOL     OW17266   4.828   1.174   6.539
 5456SOL    HW117267   4.822   1.115   6.458
 5456SOL    HW217268   4.851   1.120   6.619
 5457SOL     OW17269   6.335   2.446   0.372
 5457SOL    HW117270   6.350   2.544   0.390
 5457SOL    HW217271   6.237   2.429   0.362
 5458SOL     OW17272   6.379   4.893   0.658
 5458SOL    HW117273   6.400   4.989   0.642
 5458SOL    HW217274   6.463   4.844   0.681
 5459SOL     OW17275   1.732   4.716   5.606
 5459SOL    HW117276   1.687   4.730   5.694
 5459SOL    HW217277   1.716   4.623   5.575
 5460SOL     OW17278   2.141   1.731   1.075
 5460SOL    HW117279   2.079   1.802   1.041
 5460SOL    HW217280   2.137   1.651   1.015
 5461SOL     OW17281   0.380   1.561   5.778
 5461SOL    HW117282   0.344   1.499   5.708
 5461SOL    HW217283   0.306   1.617   5.814
 5462SOL     OW17284   5.487   6.099   6.634
 5462SOL    HW117285   5.394   6.135   6.634
 5462SOL    HW217286   5.524   6.103   6.726
 5463SOL     OW17287   6.371   2.572   6.567
 5463SOL    HW117288   6.420   2.611   6.645
 5463SOL    HW217289   6.388   2.473   6.563
 5464SOL     OW17290   6.480   5.882   5.451
 5464SOL    HW117291   6.420   5.846   5.379
 5464SOL    HW217292   6.550   5.814   5.473
 5465SOL     OW17293   6.189   6.633   3.169
 5465SOL    HW117294   6.230   6.596   3.252
 5465SOL    HW217295   6.130   6.711   3.192
 5466SOL     OW17296   5.664   2.335   5.038
 5466SOL    HW117297   5.574   2.318   5.079
 5466SOL    HW217298   5.653   2.360   4.942
 5467SOL     OW17299   5.670   3.959   3.678
 5467SOL    HW117300   5.652   3.868   3.641
 5467SOL    HW217301   5.724   3.951   3.762
 5468SOL     OW17302   6.844   2.007   3.180
 5468SOL    HW117303   6.893   1.994   3.094
 5468SOL    HW217304   6.823   1.918   3.220
 5469SOL     OW17305   2.208   0.911   5.876
 5469SOL    HW117306   2.179   0.824   5.836
 5469SOL    HW217307   2.238   0.895   5.971
 5470SOL     OW17308   3.997   5.396   4.491
 5470SOL    HW117309   4.077   5.456   4.480
 5470SOL    HW217310   4.010   5.337   4.571
 5471SOL     OW17311   5.229   0.315   2.994
 5471SOL    HW117312   5.291   0.319   2.916
 5471SOL    HW217313   5.232   0.401   3.044
 5472SOL     OW17314   3.186   2.297   6.109
 5472SOL    HW117315   3.117   2.370   6.108
 5472SOL    HW217316   3.160   2.226   6.044
 5473SOL     OW17317   1.758   4.317   0.308
 5473SOL    HW117318   1.778   4.263   0.390
 5473SOL    HW217319   1.821   4.395   0.303
 5474SOL     OW17320   1.297   5.566   3.076
 5474SOL    HW117321   1.344   5.570   3.164
 5474SOL    HW217322   1.363   5.548   3.003
 5475SOL     OW17323   1.398   1.986   0.709
 5475SOL    HW117324   1.340   1.914   0.747
 5475SOL    HW217325   1.494   1.962   0.722
 5476SOL     OW17326   2.099   4.796   5.527
 5476SOL    HW117327   2.198   4.786   5.526
 5476SOL    HW217328   2.071   4.848   5.608
 5477SOL     OW17329   1.591   4.089   2.963
 5477SOL    HW117330   1.638   4.062   2.879
 5477SOL    HW217331   1.501   4.127   2.939
 5478SOL     OW17332   5.285   5.846   6.539
 5478SOL    HW117333   5.293   5.912   6.465
 5478SOL    HW217334   5.358   5.778   6.532
 5479SOL     OW17335   4.386   1.171   4.093
 5479SOL    HW117336   4.332   1.149   4.012
 5479SOL    HW217337   4.407   1.088   4.143
 5480SOL     OW17338   6.096   4.503   4.819
 5480SOL    HW117339   6.061   4.517   4.726
 5480SOL    HW217340   6.075   4.583   4.875
 5481SOL     OW17341   4.375   0.689   5.752
 5481SOL    HW117342   4.366   0.669   5.655
 5481SOL    HW217343   4.286   0.715   5.789
 5482SOL     OW17344   3.457   3.774   2.169
 5482SOL    HW117345   3.387   3.842   2.148
 5482SOL    HW217346   3.418   3.682   2.161
 5483SOL     OW17347   6.675   2.790   5.508
 5483SOL    HW117348   6.727   2.874   5.520
 5483SOL    HW217349   6.638   2.761   5.596
 5484SOL     OW17350   6.251   6.780   3.647
 5484SOL    HW117351   6.248   6.779   3.747
 5484SOL    HW217352   6.338   6.742   3.616
 5485SOL     OW17353   2.977   0.266   4.460
 5485SOL    HW117354   2.931   0.353   4.441
 5485SOL    HW217355   3.067   0.285   4.501
 5486SOL     OW17356   1.992   0.301   4.029
 5486SOL    HW117357   2.057   0.364   3.986
 5486SOL    HW217358   1.951   0.242   3.959
 5487SOL     OW17359   5.877   3.855   6.804
 5487SOL    HW117360   5.846   3.875   6.897
 5487SOL    HW217361   5.917   3.938   6.764
 5488SOL     OW17362   4.574   1.512   0.282
 5488SOL    HW117363   4.621   1.551   0.204
 5488SOL    HW217364   4.486   1.559   0.295
 5489SOL     OW17365   1.674   4.148   1.725
 5489SOL    HW117366   1.599   4.191   1.774
 5489SOL    HW217367   1.645   4.126   1.632
 5490SOL     OW17368   3.447   6.938   0.297
 5490SOL    HW117369   3.434   6.842   0.320
 5490SOL    HW217370   3.454   6.949   0.198
 5491SOL     OW17371   1.474   4.315   6.752
 5491SOL    HW117372   1.543   4.373   6.709
 5491SOL    HW217373   1.410   4.283   6.682
 5492SOL     OW17374   1.060   1.024   6.030
 5492SOL    HW117375   1.009   1.028   5.944
 5492SOL    HW217376   1.032   1.100   6.089
 5493SOL     OW17377   3.436   2.852   5.006
 5493SOL    HW117378   3.345   2.866   5.046
 5493SOL    HW217379   3.427   2.806   4.918
 5494SOL     OW17380   6.325   3.129   0.480
 5494SOL    HW117381   6.387   3.051   0.465
 5494SOL    HW217382   6.371   3.214   0.454
 5495SOL     OW17383   3.251   3.306   1.420
 5495SOL    HW117384   3.310   3.367   1.368
 5495SOL    HW217385   3.178   3.272   1.360
 5496SOL     OW17386   3.487   6.269   1.553
 5496SOL    HW117387   3.478   6.363   1.521
 5496SOL    HW217388   3.490   6.267   1.653
 5497SOL     OW17389   0.388   1.985   3.397
 5497SOL    HW117390   0.455   1.918   3.429
 5497SOL    HW217391   0.394   2.068   3.453
 5498SOL     OW17392   4.728   0.640   0.578
 5498SOL    HW117393   4.633   0.665   0.562
 5498SOL    HW217394   4.753   0.665   0.672
 5499SOL     OW17395   0.931   1.724   3.841
 5499SOL    HW117396   0.928   1.630   3.809
 5499SOL    HW217397   0.917   1.727   3.940
 5500SOL     OW17398   2.097   6.186   6.850
 5500SOL    HW117399   2.148   6.244   6.786
 5500SOL    HW217400   2.154   6.108   6.877
 5501SOL     OW17401   3.008   6.722   1.490
 5501SOL    HW117402   3.037   6.753   1.399
 5501SOL    HW217403   3.087   6.722   1.551
 5502SOL     OW17404   6.018   4.284   6.080
 5502SOL    HW117405   6.106   4.332   6.082
 5502SOL    HW217406   5.994   4.263   5.986
 5503SOL     OW17407   0.708   4.937   2.767
 5503SOL    HW117408   0.764   4.912   2.688
 5503SOL    HW217409   0.698   4.858   2.827
 5504SOL     OW17410   2.716   1.315   5.284
 5504SOL    HW117411   2.724   1.224   5.325
 5504SOL    HW217412   2.797   1.334   5.229
 5505SOL     OW17413   2.330   5.637   4.966
 5505SOL    HW117414   2.359   5.716   4.911
 5505SOL    HW217415   2.368   5.645   5.058
 5506SOL     OW17416   6.510   6.948   5.279
 5506SOL    HW117417   6.592   6.917   5.231
 5506SOL    HW217418   6.462   0.002   5.224
 5507SOL     OW17419   2.784   6.675   2.949
 5507SOL    HW117420   2.802   6.760   2.998
 5507SOL    HW217421   2.689   6.675   2.917
 5508SOL     OW17422   2.530   0.859   0.290
 5508SOL    HW117423   2.507   0.850   0.387
 5508SOL    HW217424   2.550   0.769   0.252
 5509SOL     OW17425   0.720   6.379   0.593
 5509SOL    HW117426   0.671   6.328   0.665
 5509SOL    HW217427   0.817   6.355   0.595
 5510SOL     OW17428   5.348   6.407   0.668
 5510SOL    HW117429   5.377   6.372   0.579
 5510SOL    HW217430   5.358   6.507   0.669
 5511SOL     OW17431   2.236   0.436   3.821
 5511SOL    HW117432   2.286   0.518   3.851
 5511SOL    HW217433   2.301   0.363   3.802
 5512SOL     OW17434   6.215   2.314   0.651
 5512SOL    HW117435   6.170   2.367   0.580
 5512SOL    HW217436   6.162   2.322   0.736
 5513SOL     OW17437   4.769   4.347   5.370
 5513SOL    HW117438   4.670   4.346   5.355
 5513SOL    HW217439   4.803   4.254   5.378
 5514SOL     OW17440   4.950   5.573   2.798
 5514SOL    HW117441   4.981   5.661   2.763
 5514SOL    HW217442   4.975   5.501   2.734
 5515SOL     OW17443   6.756   3.993   1.066
 5515SOL    HW117444   6.696   3.923   1.104
 5515SOL    HW217445   6.848   3.956   1.055
 5516SOL     OW17446   1.029   3.222   0.523
 5516SOL    HW117447   0.986   3.153   0.581
 5516SOL    HW217448   1.008   3.203   0.428
 5517SOL     OW17449   2.545   2.409   2.325
 5517SOL    HW117450   2.481   2.346   2.371
 5517SOL    HW217451   2.494   2.482   2.281
 5518SOL     OW17452   6.518   5.791   6.027
 5518SOL    HW117453   6.421   5.807   6.009
 5518SOL    HW217454   6.547   5.706   5.983
 5519SOL     OW17455   4.961   3.435   2.900
 5519SOL    HW117456   4.962   3.459   2.803
 5519SOL    HW217457   4.949   3.336   2.910
 5520SOL     OW17458   1.059   4.711   2.918
 5520SOL    HW117459   1.113   4.755   2.989
 5520SOL    HW217460   0.986   4.657   2.959
 5521SOL     OW17461   3.937   6.114   2.675
 5521SOL    HW117462   4.012   6.075   2.729
 5521SOL    HW217463   3.870   6.043   2.656
 5522SOL     OW17464   1.331   4.027   1.067
 5522SOL    HW117465   1.299   3.959   1.000
 5522SOL    HW217466   1.412   3.991   1.114
 5523SOL     OW17467   3.227   6.744   2.810
 5523SOL    HW117468   3.259   6.791   2.728
 5523SOL    HW217469   3.260   6.791   2.891
 5524SOL     OW17470   0.105   5.518   4.882
 5524SOL    HW117471   0.105   5.509   4.981
 5524SOL    HW217472   0.101   5.615   4.857
 5525SOL     OW17473   6.671   4.522   0.584
 5525SOL    HW117474   6.622   4.495   0.667
 5525SOL    HW217475   6.736   4.450   0.560
 5526SOL     OW17476   5.988   3.214   4.920
 5526SOL    HW117477   5.896   3.213   4.959
 5526SOL    HW217478   5.986   3.256   4.829
 5527SOL     OW17479   1.054   3.554   3.230
 5527SOL    HW117480   1.090   3.626   3.290
 5527SOL    HW217481   1.017   3.596   3.147
 5528SOL     OW17482   1.226   2.235   5.942
 5528SOL    HW117483   1.261   2.143   5.928
 5528SOL    HW217484   1.254   2.268   6.032
 5529SOL     OW17485   2.505   0.284   4.360
 5529SOL    HW117486   2.499   0.190   4.393
 5529SOL    HW217487   2.517   0.346   4.438
 5530SOL     OW17488   0.298   2.321   2.254
 5530SOL    HW117489   0.298   2.351   2.350
 5530SOL    HW217490   0.390   2.289   2.230
 5531SOL     OW17491   3.897   3.713   3.924
 5531SOL    HW117492   3.942   3.661   3.997
 5531SOL    HW217493   3.906   3.811   3.944
 5532SOL     OW17494   1.491   1.506   1.387
 5532SOL    HW117495   1.463   1.425   1.439
 5532SOL    HW217496   1.591   1.510   1.382
 5533SOL     OW17497   2.881   0.965   2.220
 5533SOL    HW117498   2.810   0.998   2.283
 5533SOL    HW217499   2.868   1.008   2.131
 5534SOL     OW17500   0.800   3.298   6.199
 5534SOL    HW117501   0.849   3.256   6.123
 5534SOL    HW217502   0.842   3.386   6.221
 5535SOL     OW17503   0.383   3.256   3.304
 5535SOL    HW117504   0.465   3.203   3.287
 5535SOL    HW217505   0.308   3.195   3.329
 5536SOL     OW17506   3.414   0.849   4.313
 5536SOL    HW117507   3.350   0.848   4.390
 5536SOL    HW217508   3.445   0.943   4.297
 5537SOL     OW17509   3.564   0.610   4.312
 5537SOL    HW117510   3.488   0.673   4.331
 5537SOL    HW217511   3.639   0.660   4.269
 5538SOL     OW17512   3.501   6.933   4.898
 5538SOL    HW117513   3.408   6.961   4.879
 5538SOL    HW217514   3.551   6.923   4.812
 5539SOL     OW17515   0.819   1.955   1.014
 5539SOL    HW117516   0.818   2.045   0.971
 5539SOL    HW217517   0.728   1.933   1.049
 5540SOL     OW17518   4.931   3.747   2.472
 5540SOL    HW117519   4.873   3.828   2.477
 5540SOL    HW217520   4.900   3.690   2.396
 5541SOL     OW17521   5.696   2.472   6.095
 5541SOL    HW117522   5.645   2.468   6.009
 5541SOL    HW217523   5.685   2.563   6.135
 5542SOL     OW17524   5.846   5.971   5.798
 5542SOL    HW117525   5.795   5.997   5.880
 5542SOL    HW217526   5.902   5.890   5.819
 5543SOL     OW17527   1.754   5.363   6.381
 5543SOL    HW117528   1.848   5.341   6.355
 5543SOL    HW217529   1.751   5.450   6.429
 5544SOL     OW17530   5.107   5.573   5.981
 5544SOL    HW117531   5.103   5.643   5.910
 5544SOL    HW217532   5.190   5.519   5.970
 5545SOL     OW17533   5.065   1.220   2.946
 5545SOL    HW117534   5.034   1.288   2.880
 5545SOL    HW217535   5.072   1.131   2.902
 5546SOL     OW17536   1.167   6.618   4.538
 5546SOL    HW117537   1.089   6.616   4.600
 5546SOL    HW217538   1.204   6.525   4.528
 5547SOL     OW17539   4.189   0.388   4.909
 5547SOL    HW117540   4.266   0.425   4.857
 5547SOL    HW217541   4.187   0.430   4.999
 5548SOL     OW17542   6.482   3.443   4.888
 5548SOL    HW117543   6.454   3.496   4.969
 5548SOL    HW217544   6.437   3.354   4.889
 5549SOL     OW17545   3.699   4.602   1.076
 5549SOL    HW117546   3.772   4.534   1.081
 5549SOL    HW217547   3.668   4.624   1.169
 5550SOL     OW17548   2.428   4.500   2.105
 5550SOL    HW117549   2.506   4.558   2.127
 5550SOL    HW217550   2.447   4.447   2.023
 5551SOL     OW17551   1.246   6.020   3.205
 5551SOL    HW117552   1.202   6.084   3.269
 5551SOL    HW217553   1.344   6.019   3.222
 5552SOL     OW17554   6.512   0.895   6.555
 5552SOL    HW117555   6.500   0.832   6.478
 5552SOL    HW217556   6.464   0.981   6.536
 5553SOL     OW17557   4.913   6.235   6.381
 5553SOL    HW117558   4.977   6.281   6.319
 5553SOL    HW217559   4.964   6.175   6.443
 5554SOL     OW17560   4.907   2.108   6.995
 5554SOL    HW117561   4.938   2.015   7.012
 5554SOL    HW217562   4.972   2.155   6.935
 5555SOL     OW17563   0.907   3.960   2.324
 5555SOL    HW117564   0.913   3.922   2.231
 5555SOL    HW217565   0.927   4.058   2.321
 5556SOL     OW17566   6.173   1.652   3.600
 5556SOL    HW117567   6.215   1.584   3.540
 5556SOL    HW217568   6.106   1.606   3.659
 5557SOL     OW17569   4.150   6.201   2.461
 5557SOL    HW117570   4.062   6.176   2.503
 5557SOL    HW217571   4.161   6.149   2.376
 5558SOL     OW17572   2.955   3.569   6.352
 5558SOL    HW117573   2.885   3.498   6.349
 5558SOL    HW217574   2.912   3.656   6.376
 5559SOL     OW17575   2.000   0.194   1.355
 5559SOL    HW117576   1.998   0.199   1.255
 5559SOL    HW217577   2.050   0.273   1.391
 5560SOL     OW17578   0.239   5.402   1.685
 5560SOL    HW117579   0.309   5.407   1.614
 5560SOL    HW217580   0.211   5.307   1.697
 5561SOL     OW17581   1.951   1.232   4.071
 5561SOL    HW117582   1.886   1.252   4.145
 5561SOL    HW217583   1.977   1.136   4.074
 5562SOL     OW17584   4.239   2.530   6.393
 5562SOL    HW117585   4.198   2.466   6.328
 5562SOL    HW217586   4.336   2.541   6.373
 5563SOL     OW17587   3.275   4.869   2.613
 5563SOL    HW117588   3.223   4.829   2.538
 5563SOL    HW217589   3.373   4.850   2.600
 5564SOL     OW17590   4.506   0.086   0.915
 5564SOL    HW117591   4.414   0.114   0.944
 5564SOL    HW217592   4.573   0.152   0.949
 5565SOL     OW17593   4.411   2.278   5.846
 5565SOL    HW117594   4.405   2.271   5.746
 5565SOL    HW217595   4.348   2.348   5.878
 5566SOL     OW17596   1.269   4.182   6.563
 5566SOL    HW117597   1.200   4.163   6.632
 5566SOL    HW217598   1.232   4.245   6.495
 5567SOL     OW17599   6.821   3.563   1.074
 5567SOL    HW117600   6.887   3.563   1.149
 5567SOL    HW217601   6.753   3.491   1.089
 5568SOL     OW17602   4.886   1.051   3.611
 5568SOL    HW117603   4.847   1.114   3.544
 5568SOL    HW217604   4.983   1.070   3.622
 5569SOL     OW17605   2.069   1.314   2.316
 5569SOL    HW117606   2.070   1.287   2.413
 5569SOL    HW217607   2.140   1.382   2.300
 5570SOL     OW17608   6.738   3.718   4.478
 5570SOL    HW117609   6.684   3.706   4.561
 5570SOL    HW217610   6.710   3.649   4.410
 5571SOL     OW17611   6.225   6.198   1.274
 5571SOL    HW117612   6.179   6.206   1.185
 5571SOL    HW217613   6.279   6.114   1.276
 5572SOL     OW17614   1.434   3.815   4.366
 5572SOL    HW117615   1.459   3.845   4.274
 5572SOL    HW217616   1.472   3.724   4.383
 5573SOL     OW17617   1.639   5.453   4.939
 5573SOL    HW117618   1.664   5.455   4.842
 5573SOL    HW217619   1.578   5.376   4.956
 5574SOL     OW17620   0.241   1.694   2.689
 5574SOL    HW117621   0.235   1.717   2.592
 5574SOL    HW217622   0.330   1.653   2.708
 5575SOL     OW17623   0.186   1.251   0.845
 5575SOL    HW117624   0.094   1.269   0.879
 5575SOL    HW217625   0.195   1.154   0.822
 5576SOL     OW17626   0.722   4.813   1.592
 5576SOL    HW117627   0.768   4.777   1.511
 5576SOL    HW217628   0.760   4.769   1.674
 5577SOL     OW17629   2.605   2.962   6.070
 5577SOL    HW117630   2.529   2.953   6.006
 5577SOL    HW217631   2.691   2.961   6.020
 5578SOL     OW17632   3.162   3.774   1.679
 5578SOL    HW117633   3.235   3.842   1.690
 5578SOL    HW217634   3.199   3.690   1.639
 5579SOL     OW17635   0.255   3.606   0.941
 5579SOL    HW117636   0.166   3.613   0.896
 5579SOL    HW217637   0.291   3.697   0.959
 5580SOL     OW17638   5.239   2.263   5.225
 5580SOL    HW117639   5.189   2.328   5.168
 5580SOL    HW217640   5.249   2.301   5.317
 5581SOL     OW17641   1.670   0.473   1.759
 5581SOL    HW117642   1.754   0.489   1.810
 5581SOL    HW217643   1.591   0.494   1.818
 5582SOL     OW17644   3.094   3.551   5.919
 5582SOL    HW117645   3.094   3.560   6.018
 5582SOL    HW217646   3.124   3.637   5.878
 5583SOL     OW17647   5.432   0.796   2.924
 5583SOL    HW117648   5.507   0.809   2.988
 5583SOL    HW217649   5.417   0.880   2.872
 5584SOL     OW17650   6.522   4.969   4.020
 5584SOL    HW117651   6.460   4.904   3.977
 5584SOL    HW217652   6.615   4.955   3.984
 5585SOL     OW17653   5.178   5.441   3.258
 5585SOL    HW117654   5.267   5.403   3.283
 5585SOL    HW217655   5.190   5.524   3.205
 5586SOL     OW17656   0.470   2.553   5.970
 5586SOL    HW117657   0.490   2.648   5.946
 5586SOL    HW217658   0.549   2.496   5.948
 5587SOL     OW17659   4.234   6.516   1.280
 5587SOL    HW117660   4.320   6.508   1.330
 5587SOL    HW217661   4.159   6.489   1.341
 5588SOL     OW17662   2.633   5.096   2.930
 5588SOL    HW117663   2.653   5.188   2.963
 5588SOL    HW217664   2.544   5.067   2.965
 5589SOL     OW17665   6.769   3.026   5.577
 5589SOL    HW117666   6.726   3.106   5.618
 5589SOL    HW217667   6.851   3.054   5.527
 5590SOL     OW17668   0.138   6.515   3.630
 5590SOL    HW117669   0.111   6.529   3.535
 5590SOL    HW217670   0.056   6.506   3.686
 5591SOL     OW17671   5.368   1.342   1.259
 5591SOL    HW117672   5.419   1.421   1.224
 5591SOL    HW217673   5.432   1.268   1.282
 5592SOL     OW17674   0.905   5.668   2.240
 5592SOL    HW117675   0.976   5.648   2.307
 5592SOL    HW217676   0.871   5.761   2.253
 5593SOL     OW17677   1.007   3.106   0.891
 5593SOL    HW117678   0.966   3.069   0.808
 5593SOL    HW217679   1.013   3.033   0.960
 5594SOL     OW17680   4.495   1.288   6.401
 5594SOL    HW117681   4.423   1.357   6.398
 5594SOL    HW217682   4.458   1.202   6.437
 5595SOL     OW17683   0.152   1.031   4.555
 5595SOL    HW117684   0.207   0.998   4.479
 5595SOL    HW217685   0.058   0.998   4.545
 5596SOL     OW17686   4.833   0.951   2.585
 5596SOL    HW117687   4.799   0.939   2.491
 5596SOL    HW217688   4.864   0.863   2.621
 5597SOL     OW17689   5.236   2.918   4.773
 5597SOL    HW117690   5.231   3.005   4.822
 5597SOL    HW217691   5.222   2.842   4.837
 5598SOL     OW17692   5.465   4.197   3.911
 5598SOL    HW117693   5.524   4.234   3.839
 5598SOL    HW217694   5.437   4.272   3.972
 5599SOL     OW17695   0.803   2.048   2.512
 5599SOL    HW117696   0.877   1.981   2.519
 5599SOL    HW217697   0.766   2.048   2.420
 5600SOL     OW17698   1.803   1.790   1.724
 5600SOL    HW117699   1.782   1.859   1.655
 5600SOL    HW217700   1.750   1.707   1.707
 5601SOL     OW17701   1.988   0.858   6.239
 5601SOL    HW117702   1.956   0.907   6.158
 5601SOL    HW217703   1.935   0.887   6.319
 5602SOL     OW17704   0.014   1.896   1.478
 5602SOL    HW117705   6.984   1.891   1.389
 5602SOL    HW217706   6.970   1.856   1.548
 5603SOL     OW17707   5.921   3.088   0.983
 5603SOL    HW117708   5.832   3.124   1.010
 5603SOL    HW217709   5.943   3.008   1.039
 5604SOL     OW17710   6.113   2.555   4.661
 5604SOL    HW117711   6.183   2.625   4.652
 5604SOL    HW217712   6.101   2.508   4.574
 5605SOL     OW17713   6.969   1.186   5.210
 5605SOL    HW117714   0.035   1.227   5.168
 5605SOL    HW217715   6.908   1.259   5.243
 5606SOL     OW17716   5.088   6.766   0.453
 5606SOL    HW117717   5.079   6.763   0.553
 5606SOL    HW217718   5.145   6.844   0.428
 5607SOL     OW17719   5.404   1.337   2.881
 5607SOL    HW117720   5.399   1.373   2.975
 5607SOL    HW217721   5.482   1.378   2.834
 5608SOL     OW17722   5.548   0.569   3.961
 5608SOL    HW117723   5.537   0.661   3.996
 5608SOL    HW217724   5.641   0.537   3.977
 5609SOL     OW17725   3.061   5.850   1.383
 5609SOL    HW117726   3.152   5.886   1.361
 5609SOL    HW217727   2.994   5.924   1.381
 5610SOL     OW17728   4.484   5.996   0.436
 5610SOL    HW117729   4.458   6.000   0.532
 5610SOL    HW217730   4.424   5.934   0.388
 5611SOL     OW17731   1.267   5.941   2.746
 5611SOL    HW117732   1.313   5.979   2.666
 5611SOL    HW217733   1.255   6.012   2.815
 5612SOL     OW17734   3.945   2.220   5.906
 5612SOL    HW117735   3.870   2.184   5.851
 5612SOL    HW217736   3.912   2.240   5.998
 5613SOL     OW17737   6.486   4.557   3.575
 5613SOL    HW117738   6.448   4.631   3.521
 5613SOL    HW217739   6.584   4.548   3.556
 5614SOL     OW17740   4.579   2.433   4.149
 5614SOL    HW117741   4.561   2.476   4.061
 5614SOL    HW217742   4.495   2.393   4.184
 5615SOL     OW17743   0.223   2.051   3.845
 5615SOL    HW117744   0.136   2.077   3.887
 5615SOL    HW217745   0.205   2.012   3.755
 5616SOL     OW17746   2.432   2.084   4.487
 5616SOL    HW117747   2.484   2.001   4.468
 5616SOL    HW217748   2.344   2.081   4.439
 5617SOL     OW17749   2.932   6.222   6.084
 5617SOL    HW117750   2.975   6.312   6.069
 5617SOL    HW217751   2.894   6.190   5.997
 5618SOL     OW17752   0.301   4.634   3.402
 5618SOL    HW117753   0.275   4.553   3.349
 5618SOL    HW217754   0.387   4.617   3.449
 5619SOL     OW17755   3.408   3.771   4.900
 5619SOL    HW117756   3.376   3.677   4.888
 5619SOL    HW217757   3.330   3.833   4.898
 5620SOL     OW17758   4.013   3.601   0.720
 5620SOL    HW117759   4.010   3.610   0.819
 5620SOL    HW217760   4.100   3.635   0.686
 5621SOL     OW17761   2.460   2.520   0.190
 5621SOL    HW117762   2.368   2.509   0.151
 5621SOL    HW217763   2.454   2.578   0.271
 5622SOL     OW17764   4.640   0.766   5.792
 5622SOL    HW117765   4.688   0.780   5.705
 5622SOL    HW217766   4.542   0.756   5.775
 5623SOL     OW17767   3.454   5.209   5.792
 5623SOL    HW117768   3.472   5.145   5.718
 5623SOL    HW217769   3.499   5.296   5.772
 5624SOL     OW17770   1.215   4.597   3.593
 5624SOL    HW117771   1.257   4.537   3.525
 5624SOL    HW217772   1.117   4.577   3.599
 5625SOL     OW17773   5.523   1.100   5.584
 5625SOL    HW117774   5.479   1.020   5.543
 5625SOL    HW217775   5.519   1.177   5.520
 5626SOL     OW17776   2.413   5.992   4.518
 5626SOL    HW117777   2.374   6.082   4.498
 5626SOL    HW217778   2.510   6.003   4.539
 5627SOL     OW17779   0.316   5.775   6.425
 5627SOL    HW117780   0.368   5.752   6.507
 5627SOL    HW217781   0.221   5.796   6.450
 5628SOL     OW17782   1.187   2.251   1.501
 5628SOL    HW117783   1.255   2.324   1.503
 5628SOL    HW217784   1.233   2.163   1.491
 5629SOL     OW17785   3.590   3.756   2.445
 5629SOL    HW117786   3.569   3.806   2.361
 5629SOL    HW217787   3.567   3.659   2.432
 5630SOL     OW17788   1.094   3.614   6.702
 5630SOL    HW117789   1.114   3.683   6.633
 5630SOL    HW217790   1.032   3.546   6.665
 5631SOL     OW17791   4.774   1.897   1.097
 5631SOL    HW117792   4.798   1.937   1.009
 5631SOL    HW217793   4.691   1.842   1.087
 5632SOL     OW17794   3.031   2.540   6.084
 5632SOL    HW117795   3.022   2.573   6.178
 5632SOL    HW217796   3.038   2.618   6.022
 5633SOL     OW17797   6.111   4.148   4.526
 5633SOL    HW117798   6.109   4.048   4.522
 5633SOL    HW217799   6.205   4.180   4.515
 5634SOL     OW17800   2.335   4.715   4.530
 5634SOL    HW117801   2.281   4.725   4.446
 5634SOL    HW217802   2.409   4.649   4.515
 5635SOL     OW17803   1.756   4.571   5.250
 5635SOL    HW117804   1.783   4.568   5.346
 5635SOL    HW217805   1.769   4.480   5.209
 5636SOL     OW17806   4.872   6.771   4.258
 5636SOL    HW117807   4.832   6.712   4.328
 5636SOL    HW217808   4.864   6.726   4.169
 5637SOL     OW17809   5.676   0.298   3.238
 5637SOL    HW117810   5.675   0.201   3.266
 5637SOL    HW217811   5.723   0.352   3.308
 5638SOL     OW17812   5.934   3.676   0.936
 5638SOL    HW117813   6.019   3.722   0.912
 5638SOL    HW217814   5.890   3.642   0.853
 5639SOL     OW17815   0.435   0.696   2.183
 5639SOL    HW117816   0.520   0.710   2.133
 5639SOL    HW217817   0.374   0.636   2.130
 5640SOL     OW17818   3.513   0.005   3.529
 5640SOL    HW117819   3.544   0.043   3.616
 5640SOL    HW217820   3.588   6.971   3.485
 5641SOL     OW17821   1.033   4.828   5.369
 5641SOL    HW117822   0.968   4.848   5.442
 5641SOL    HW217823   1.051   4.729   5.366
 5642SOL     OW17824   1.521   6.543   5.219
 5642SOL    HW117825   1.543   6.602   5.141
 5642SOL    HW217826   1.464   6.467   5.187
 5643SOL     OW17827   4.007   0.911   5.379
 5643SOL    HW117828   4.017   0.812   5.373
 5643SOL    HW217829   3.936   0.942   5.315
 5644SOL     OW17830   3.010   0.035   5.272
 5644SOL    HW117831   3.009   6.978   5.342
 5644SOL    HW217832   3.035   0.122   5.315
 5645SOL     OW17833   6.483   4.741   3.811
 5645SOL    HW117834   6.578   4.734   3.781
 5645SOL    HW217835   6.444   4.649   3.820
 5646SOL     OW17836   1.613   5.117   3.282
 5646SOL    HW117837   1.645   5.171   3.360
 5646SOL    HW217838   1.657   5.028   3.284
 5647SOL     OW17839   4.456   5.593   1.918
 5647SOL    HW117840   4.446   5.498   1.948
 5647SOL    HW217841   4.543   5.604   1.871
 5648SOL     OW17842   1.917   6.219   2.151
 5648SOL    HW117843   1.956   6.128   2.139
 5648SOL    HW217844   1.969   6.285   2.097
 5649SOL     OW17845   0.798   6.814   4.332
 5649SOL    HW117846   0.818   6.834   4.236
 5649SOL    HW217847   0.878   6.772   4.374
 5650SOL     OW17848   0.301   5.419   1.231
 5650SOL    HW117849   0.220   5.460   1.272
 5650SOL    HW217850   0.361   5.491   1.196
 5651SOL     OW17851   1.583   0.956   1.297
 5651SOL    HW117852   1.512   0.915   1.241
 5651SOL    HW217853   1.643   1.013   1.240
 5652SOL     OW17854   6.415   6.887   1.643
 5652SOL    HW117855   6.367   6.973   1.624
 5652SOL    HW217856   6.486   6.904   1.712
 5653SOL     OW17857   6.177   6.217   6.452
 5653SOL    HW117858   6.203   6.311   6.472
 5653SOL    HW217859   6.084   6.216   6.415
 5654SOL     OW17860   0.755   6.811   4.781
 5654SOL    HW117861   0.707   6.847   4.701
 5654SOL    HW217862   0.721   6.855   4.863
 5655SOL     OW17863   0.687   3.017   3.947
 5655SOL    HW117864   0.759   3.079   3.976
 5655SOL    HW217865   0.674   3.026   3.848
 5656SOL     OW17866   0.062   3.936   6.627
 5656SOL    HW117867   0.015   3.950   6.541
 5656SOL    HW217868   0.161   3.949   6.613
 5657SOL     OW17869   5.900   3.049   6.624
 5657SOL    HW117870   5.898   3.037   6.525
 5657SOL    HW217871   5.975   3.110   6.649
 5658SOL     OW17872   3.147   3.047   6.426
 5658SOL    HW117873   3.165   3.115   6.355
 5658SOL    HW217874   3.098   3.091   6.502
 5659SOL     OW17875   3.150   3.320   5.567
 5659SOL    HW117876   3.146   3.305   5.665
 5659SOL    HW217877   3.186   3.411   5.548
 5660SOL     OW17878   4.392   0.100   6.354
 5660SOL    HW117879   4.311   0.152   6.380
 5660SOL    HW217880   4.386   0.007   6.390
 5661SOL     OW17881   1.959   5.802   4.849
 5661SOL    HW117882   1.862   5.789   4.869
 5661SOL    HW217883   1.983   5.898   4.861
 5662SOL     OW17884   2.921   6.500   3.155
 5662SOL    HW117885   2.888   6.559   3.081
 5662SOL    HW217886   2.886   6.533   3.242
 5663SOL     OW17887   2.461   2.385   0.674
 5663SOL    HW117888   2.453   2.407   0.771
 5663SOL    HW217889   2.551   2.345   0.655
 5664SOL     OW17890   6.637   3.335   4.073
 5664SOL    HW117891   6.678   3.248   4.101
 5664SOL    HW217892   6.685   3.369   3.992
 5665SOL     OW17893   1.692   0.668   0.468
 5665SOL    HW117894   1.660   0.599   0.403
 5665SOL    HW217895   1.792   0.664   0.474
 5666SOL     OW17896   6.740   0.128   3.644
 5666SOL    HW117897   6.715   0.205   3.585
 5666SOL    HW217898   6.830   0.145   3.685
 5667SOL     OW17899   1.439   4.653   4.682
 5667SOL    HW117900   1.404   4.573   4.730
 5667SOL    HW217901   1.402   4.736   4.723
 5668SOL     OW17902   5.597   3.200   2.840
 5668SOL    HW117903   5.692   3.191   2.810
 5668SOL    HW217904   5.588   3.165   2.933
 5669SOL     OW17905   6.646   3.799   1.211
 5669SOL    HW117906   6.716   3.759   1.270
 5669SOL    HW217907   6.557   3.758   1.233
 5670SOL     OW17908   1.306   3.765   3.862
 5670SOL    HW117909   1.209   3.775   3.886
 5670SOL    HW217910   1.332   3.669   3.870
 5671SOL     OW17911   5.917   5.899   5.512
 5671SOL    HW117912   5.973   5.818   5.530
 5671SOL    HW217913   5.902   5.949   5.597
 5672SOL     OW17914   4.672   3.803   6.627
 5672SOL    HW117915   4.666   3.796   6.727
 5672SOL    HW217916   4.668   3.899   6.600
 5673SOL     OW17917   1.594   0.019   0.849
 5673SOL    HW117918   1.577   0.025   0.750
 5673SOL    HW217919   1.521   6.981   0.892
 5674SOL     OW17920   1.464   4.874   5.335
 5674SOL    HW117921   1.498   4.812   5.265
 5674SOL    HW217922   1.540   4.917   5.383
 5675SOL     OW17923   4.574   2.786   6.321
 5675SOL    HW117924   4.666   2.825   6.314
 5675SOL    HW217925   4.544   2.789   6.416
 5676SOL     OW17926   2.279   1.742   2.943
 5676SOL    HW117927   2.251   1.825   2.992
 5676SOL    HW217928   2.216   1.724   2.868
 5677SOL     OW17929   1.052   0.844   0.715
 5677SOL    HW117930   1.101   0.931   0.717
 5677SOL    HW217931   0.973   0.849   0.777
 5678SOL     OW17932   4.100   0.087   2.915
 5678SOL    HW117933   4.024   0.080   2.851
 5678SOL    HW217934   4.186   0.079   2.865
 5679SOL     OW17935   6.205   1.364   3.864
 5679SOL    HW117936   6.141   1.428   3.907
 5679SOL    HW217937   6.154   1.288   3.825
 5680SOL     OW17938   1.564   5.085   6.762
 5680SOL    HW117939   1.517   4.997   6.769
 5680SOL    HW217940   1.542   5.127   6.674
 5681SOL     OW17941   0.667   3.744   1.994
 5681SOL    HW117942   0.672   3.792   2.081
 5681SOL    HW217943   0.576   3.756   1.954
 5682SOL     OW17944   2.164   5.212   4.279
 5682SOL    HW117945   2.102   5.266   4.338
 5682SOL    HW217946   2.252   5.260   4.271
 5683SOL     OW17947   3.872   1.533   5.702
 5683SOL    HW117948   3.795   1.475   5.728
 5683SOL    HW217949   3.956   1.499   5.744
 5684SOL     OW17950   2.366   3.733   6.389
 5684SOL    HW117951   2.317   3.647   6.403
 5684SOL    HW217952   2.432   3.721   6.315
 5685SOL     OW17953   2.728   1.096   3.438
 5685SOL    HW117954   2.768   1.015   3.481
 5685SOL    HW217955   2.727   1.171   3.503
 5686SOL     OW17956   2.882   1.849   6.066
 5686SOL    HW117957   2.820   1.782   6.024
 5686SOL    HW217958   2.929   1.807   6.144
 5687SOL     OW17959   0.551   5.328   6.289
 5687SOL    HW117960   0.565   5.369   6.379
 5687SOL    HW217961   0.502   5.392   6.230
 5688SOL     OW17962   1.566   2.465   2.600
 5688SOL    HW117963   1.539   2.488   2.507
 5688SOL    HW217964   1.664   2.482   2.611
 5689SOL     OW17965   2.897   1.185   1.747
 5689SOL    HW117966   2.880   1.167   1.650
 5689SOL    HW217967   2.925   1.281   1.758
 5690SOL     OW17968   1.842   6.090   6.820
 5690SOL    HW117969   1.934   6.128   6.813
 5690SOL    HW217970   1.807   6.100   6.913
 5691SOL     OW17971   3.943   0.498   1.894
 5691SOL    HW117972   4.000   0.516   1.814
 5691SOL    HW217973   3.867   0.563   1.895
 5692SOL     OW17974   5.706   4.250   0.383
 5692SOL    HW117975   5.625   4.295   0.343
 5692SOL    HW217976   5.709   4.268   0.481
 5693SOL     OW17977   4.420   1.314   2.231
 5693SOL    HW117978   4.326   1.307   2.198
 5693SOL    HW217979   4.482   1.325   2.153
 5694SOL     OW17980   1.273   0.731   2.590
 5694SOL    HW117981   1.313   0.767   2.507
 5694SOL    HW217982   1.208   0.658   2.567
 5695SOL     OW17983   1.454   1.859   3.838
 5695SOL    HW117984   1.550   1.887   3.834
 5695SOL    HW217985   1.420   1.846   3.745
 5696SOL     OW17986   0.804   0.250   3.917
 5696SOL    HW117987   0.742   0.318   3.957
 5696SOL    HW217988   0.895   0.290   3.908
 5697SOL     OW17989   5.913   2.147   1.939
 5697SOL    HW117990   5.840   2.163   1.873
 5697SOL    HW217991   5.894   2.063   1.989
 5698SOL     OW17992   0.956   4.543   3.589
 5698SOL    HW117993   0.909   4.514   3.673
 5698SOL    HW217994   0.897   4.605   3.538
 5699SOL     OW17995   1.162   2.568   2.730
 5699SOL    HW117996   1.146   2.492   2.793
 5699SOL    HW217997   1.243   2.620   2.759
 5700SOL     OW17998   6.582   6.893   4.039
 5700SOL    HW117999   6.646   6.898   4.116
 5700SOL    HW218000   6.490   6.915   4.071
 5701SOL     OW18001   1.057   0.164   1.081
 5701SOL    HW118002   0.988   0.126   1.018
 5701SOL    HW218003   1.072   0.260   1.060
 5702SOL     OW18004   2.515   5.402   4.921
 5702SOL    HW118005   2.592   5.465   4.934
 5702SOL    HW218006   2.429   5.453   4.921
 5703SOL     OW18007   6.326   4.576   0.253
 5703SOL    HW118008   6.369   4.486   0.249
 5703SOL    HW218009   6.376   4.635   0.317
 5704SOL     OW18010   4.963   4.164   3.208
 5704SOL    HW118011   4.975   4.095   3.137
 5704SOL    HW218012   4.995   4.127   3.296
 5705SOL     OW18013   5.208   6.155   6.952
 5705SOL    HW118014   5.116   6.194   6.953
 5705SOL    HW218015   5.226   6.114   6.863
 5706SOL     OW18016   5.866   2.659   2.166
 5706SOL    HW118017   5.850   2.560   2.157
 5706SOL    HW218018   5.781   2.708   2.147
 5707SOL     OW18019   6.175   6.967   0.976
 5707SOL    HW118020   6.160   0.042   1.019
 5707SOL    HW218021   6.152   6.895   1.041
 5708SOL     OW18022   5.044   5.565   2.367
 5708SOL    HW118023   5.039   5.486   2.428
 5708SOL    HW218024   5.080   5.536   2.278
 5709SOL     OW18025   0.866   1.126   2.304
 5709SOL    HW118026   0.918   1.118   2.389
 5709SOL    HW218027   0.922   1.172   2.235
 5710SOL     OW18028   3.423   2.455   0.461
 5710SOL    HW118029   3.460   2.507   0.538
 5710SOL    HW218030   3.324   2.468   0.456
 5711SOL     OW18031   5.003   1.277   2.218
 5711SOL    HW118032   4.942   1.303   2.293
 5711SOL    HW218033   4.954   1.287   2.131
 5712SOL     OW18034   6.174   6.596   0.133
 5712SOL    HW118035   6.194   6.668   0.066
 5712SOL    HW218036   6.181   6.633   0.225
 5713SOL     OW18037   2.635   3.983   1.671
 5713SOL    HW118038   2.572   4.003   1.596
 5713SOL    HW218039   2.587   3.991   1.758
 5714SOL     OW18040   6.934   6.440   1.077
 5714SOL    HW118041   6.970   6.385   1.152
 5714SOL    HW218042   6.841   6.469   1.099
 5715SOL     OW18043   0.515   0.254   2.702
 5715SOL    HW118044   0.558   0.165   2.719
 5715SOL    HW218045   0.481   0.257   2.607
 5716SOL     OW18046   1.423   5.201   5.700
 5716SOL    HW118047   1.448   5.202   5.603
 5716SOL    HW218048   1.491   5.150   5.752
 5717SOL     OW18049   1.860   4.580   0.614
 5717SOL    HW118050   1.761   4.570   0.620
 5717SOL    HW218051   1.885   4.613   0.523
 5718SOL     OW18052   0.891   3.444   0.631
 5718SOL    HW118053   0.902   3.460   0.730
 5718SOL    HW218054   0.933   3.357   0.607
 5719SOL     OW18055   2.297   3.259   0.292
 5719SOL    HW118056   2.300   3.319   0.212
 5719SOL    HW218057   2.379   3.201   0.293
 5720SOL     OW18058   1.779   6.718   4.745
 5720SOL    HW118059   1.761   6.705   4.647
 5720SOL    HW218060   1.760   6.632   4.793
 5721SOL     OW18061   5.745   4.316   0.657
 5721SOL    HW118062   5.796   4.234   0.683
 5721SOL    HW218063   5.661   4.322   0.711
 5722SOL     OW18064   6.730   2.341   5.252
 5722SOL    HW118065   6.696   2.435   5.248
 5722SOL    HW218066   6.697   2.290   5.172
 5723SOL     OW18067   3.931   3.111   0.163
 5723SOL    HW118068   3.899   3.064   0.081
 5723SOL    HW218069   3.926   3.048   0.241
 5724SOL     OW18070   5.804   2.585   4.036
 5724SOL    HW118071   5.813   2.518   3.963
 5724SOL    HW218072   5.868   2.661   4.019
 5725SOL     OW18073   6.155   5.099   3.741
 5725SOL    HW118074   6.108   5.102   3.830
 5725SOL    HW218075   6.252   5.080   3.755
 5726SOL     OW18076   0.126   5.595   4.145
 5726SOL    HW118077   0.116   5.523   4.077
 5726SOL    HW218078   0.072   5.572   4.226
 5727SOL     OW18079   5.837   2.358   4.489
 5727SOL    HW118080   5.771   2.352   4.414
 5727SOL    HW218081   5.929   2.373   4.452
 5728SOL     OW18082   4.746   6.589   5.557
 5728SOL    HW118083   4.810   6.593   5.480
 5728SOL    HW218084   4.748   6.497   5.596
 5729SOL     OW18085   1.936   0.743   0.156
 5729SOL    HW118086   2.032   0.757   0.132
 5729SOL    HW218087   1.910   0.649   0.136
 5730SOL     OW18088   5.269   4.755   6.138
 5730SOL    HW118089   5.365   4.737   6.115
 5730SOL    HW218090   5.260   4.764   6.237
 5731SOL     OW18091   0.005   0.130   3.031
 5731SOL    HW118092   6.988   0.039   3.058
 5731SOL    HW218093   0.075   0.161   3.096
 5732SOL     OW18094   0.980   5.816   4.007
 5732SOL    HW118095   0.970   5.734   4.063
 5732SOL    HW218096   1.012   5.791   3.916
 5733SOL     OW18097   3.089   6.475   5.268
 5733SOL    HW118098   3.061   6.463   5.173
 5733SOL    HW218099   3.114   6.386   5.307
 5734SOL     OW18100   1.459   0.350   5.343
 5734SOL    HW118101   1.506   0.422   5.292
 5734SOL    HW218102   1.524   0.281   5.372
 5735SOL     OW18103   3.730   1.836   1.076
 5735SOL    HW118104   3.767   1.809   0.987
 5735SOL    HW218105   3.717   1.754   1.132
 5736SOL     OW18106   6.137   4.299   0.190
 5736SOL    HW118107   6.221   4.340   0.226
 5736SOL    HW218108   6.156   4.253   0.103
 5737SOL     OW18109   5.811   6.332   0.229
 5737SOL    HW118110   5.711   6.330   0.232
 5737SOL    HW218111   5.841   6.400   0.162
 5738SOL     OW18112   2.219   2.825   6.228
 5738SOL    HW118113   2.196   2.766   6.306
 5738SOL    HW218114   2.234   2.768   6.147
 5739SOL     OW18115   1.735   1.077   5.829
 5739SOL    HW118116   1.667   1.036   5.768
 5739SOL    HW218117   1.692   1.149   5.884
 5740SOL     OW18118   4.347   4.772   0.784
 5740SOL    HW118119   4.412   4.768   0.708
 5740SOL    HW218120   4.382   4.831   0.856
 5741SOL     OW18121   0.388   5.517   4.555
 5741SOL    HW118122   0.346   5.428   4.538
 5741SOL    HW218123   0.451   5.539   4.480
 5742SOL     OW18124   5.396   5.910   2.980
 5742SOL    HW118125   5.341   5.882   3.058
 5742SOL    HW218126   5.335   5.939   2.905
 5743SOL     OW18127   2.338   6.485   4.741
 5743SOL    HW118128   2.399   6.414   4.705
 5743SOL    HW218129   2.311   6.461   4.835
 5744SOL     OW18130   4.524   6.813   1.846
 5744SOL    HW118131   4.621   6.833   1.841
 5744SOL    HW218132   4.473   6.898   1.856
 5745SOL     OW18133   3.830   0.867   4.322
 5745SOL    HW118134   3.919   0.909   4.308
 5745SOL    HW218135   3.832   0.809   4.404
 5746SOL     OW18136   4.910   0.482   1.068
 5746SOL    HW118137   4.872   0.545   1.136
 5746SOL    HW218138   4.849   0.477   0.989
 5747SOL     OW18139   0.377   5.287   2.369
 5747SOL    HW118140   0.383   5.193   2.401
 5747SOL    HW218141   0.305   5.334   2.420
 5748SOL     OW18142   1.614   5.078   0.726
 5748SOL    HW118143   1.519   5.048   0.721
 5748SOL    HW218144   1.658   5.034   0.805
 5749SOL     OW18145   3.145   0.891   4.724
 5749SOL    HW118146   3.075   0.837   4.770
 5749SOL    HW218147   3.230   0.839   4.719
 5750SOL     OW18148   6.212   5.005   5.000
 5750SOL    HW118149   6.171   4.927   4.952
 5750SOL    HW218150   6.238   4.977   5.092
 5751SOL     OW18151   2.341   2.700   4.734
 5751SOL    HW118152   2.434   2.663   4.735
 5751SOL    HW218153   2.290   2.664   4.813
 5752SOL     OW18154   6.536   0.650   6.381
 5752SOL    HW118155   6.629   0.631   6.411
 5752SOL    HW218156   6.538   0.718   6.307
 5753SOL     OW18157   2.725   3.773   6.056
 5753SOL    HW118158   2.801   3.810   6.108
 5753SOL    HW218159   2.727   3.810   5.963
 5754SOL     OW18160   5.574   5.424   1.365
 5754SOL    HW118161   5.546   5.475   1.447
 5754SOL    HW218162   5.496   5.375   1.327
 5755SOL     OW18163   2.636   3.426   5.727
 5755SOL    HW118164   2.713   3.485   5.754
 5755SOL    HW218165   2.671   3.337   5.698
 5756SOL     OW18166   6.450   5.375   3.391
 5756SOL    HW118167   6.456   5.282   3.356
 5756SOL    HW218168   6.386   5.378   3.468
 5757SOL     OW18169   6.548   6.362   2.943
 5757SOL    HW118170   6.492   6.281   2.959
 5757SOL    HW218171   6.489   6.438   2.915
 5758SOL     OW18172   3.112   1.540   3.611
 5758SOL    HW118173   3.136   1.622   3.664
 5758SOL    HW218174   3.177   1.467   3.631
 5759SOL     OW18175   4.878   1.661   6.165
 5759SOL    HW118176   4.778   1.658   6.165
 5759SOL    HW218177   4.909   1.742   6.215
 5760SOL     OW18178   1.491   5.760   1.634
 5760SOL    HW118179   1.564   5.823   1.610
 5760SOL    HW218180   1.419   5.809   1.684
 5761SOL     OW18181   5.362   0.836   6.089
 5761SOL    HW118182   5.416   0.774   6.144
 5761SOL    HW218183   5.379   0.930   6.118
 5762SOL     OW18184   5.066   6.538   0.048
 5762SOL    HW118185   5.009   6.572   0.123
 5762SOL    HW218186   5.129   6.469   0.084
 5763SOL     OW18187   0.359   0.209   0.637
 5763SOL    HW118188   0.349   0.148   0.716
 5763SOL    HW218189   0.276   0.205   0.581
 5764SOL     OW18190   5.681   4.704   6.463
 5764SOL    HW118191   5.680   4.617   6.413
 5764SOL    HW218192   5.661   4.687   6.559
 5765SOL     OW18193   6.756   4.230   6.637
 5765SOL    HW118194   6.847   4.272   6.649
 5765SOL    HW218195   6.766   4.131   6.625
 5766SOL     OW18196   2.925   1.535   1.284
 5766SOL    HW118197   2.840   1.532   1.232
 5766SOL    HW218198   2.936   1.625   1.325
 5767SOL     OW18199   2.683   0.048   0.156
 5767SOL    HW118200   2.743   0.111   0.107
 5767SOL    HW218201   2.715   0.036   0.250
 5768SOL     OW18202   6.837   6.892   3.070
 5768SOL    HW118203   6.768   6.822   3.052
 5768SOL    HW218204   6.912   6.882   3.005
 5769SOL     OW18205   2.776   6.931   3.355
 5769SOL    HW118206   2.724   6.849   3.333
 5769SOL    HW218207   2.724   6.988   3.419
 5770SOL     OW18208   0.099   6.694   1.185
 5770SOL    HW118209   0.045   6.664   1.264
 5770SOL    HW218210   0.115   6.616   1.124
 5771SOL     OW18211   1.227   5.965   1.600
 5771SOL    HW118212   1.296   6.018   1.550
 5771SOL    HW218213   1.137   6.004   1.583
 5772SOL     OW18214   5.907   2.857   0.739
 5772SOL    HW118215   5.983   2.921   0.727
 5772SOL    HW218216   5.893   2.841   0.837
 5773SOL     OW18217   5.784   0.493   4.025
 5773SOL    HW118218   5.849   0.421   4.001
 5773SOL    HW218219   5.754   0.480   4.120
 5774SOL     OW18220   2.467   5.257   4.062
 5774SOL    HW118221   2.409   5.311   4.123
 5774SOL    HW218222   2.510   5.317   3.995
 5775SOL     OW18223   1.600   0.202   1.104
 5775SOL    HW118224   1.511   0.162   1.081
 5775SOL    HW218225   1.656   0.135   1.152
 5776SOL     OW18226   0.101   0.555   6.017
 5776SOL    HW118227   0.102   0.612   5.935
 5776SOL    HW218228   0.007   0.542   6.048
 5777SOL     OW18229   5.842   0.858   4.266
 5777SOL    HW118230   5.918   0.799   4.295
 5777SOL    HW218231   5.875   0.923   4.198
 5778SOL     OW18232   1.990   0.307   1.957
 5778SOL    HW118233   1.908   0.363   1.972
 5778SOL    HW218234   2.031   0.332   1.869
 5779SOL     OW18235   3.993   0.378   0.848
 5779SOL    HW118236   3.997   0.349   0.944
 5779SOL    HW218237   3.904   0.419   0.830
 5780SOL     OW18238   6.366   5.153   2.083
 5780SOL    HW118239   6.322   5.129   1.997
 5780SOL    HW218240   6.305   5.131   2.159
 5781SOL     OW18241   2.019   4.255   4.854
 5781SOL    HW118242   2.072   4.339   4.841
 5781SOL    HW218243   1.954   4.245   4.780
 5782SOL     OW18244   1.450   1.356   2.046
 5782SOL    HW118245   1.502   1.289   1.994
 5782SOL    HW218246   1.381   1.399   1.987
 5783SOL     OW18247   1.754   1.806   1.032
 5783SOL    HW118248   1.696   1.808   0.950
 5783SOL    HW218249   1.846   1.835   1.008
 5784SOL     OW18250   0.390   6.607   0.046
 5784SOL    HW118251   0.372   6.670   6.985
 5784SOL    HW218252   0.487   6.612   0.071
 5785SOL     OW18253   1.483   1.830   1.212
 5785SOL    HW118254   1.556   1.787   1.158
 5785SOL    HW218255   1.459   1.917   1.170
 5786SOL     OW18256   1.395   3.771   1.162
 5786SOL    HW118257   1.384   3.681   1.203
 5786SOL    HW218258   1.491   3.787   1.140
 5787SOL     OW18259   5.227   2.430   3.878
 5787SOL    HW118260   5.202   2.339   3.847
 5787SOL    HW218261   5.154   2.495   3.854
 5788SOL     OW18262   3.009   0.119   1.074
 5788SOL    HW118263   3.018   0.110   1.173
 5788SOL    HW218264   2.935   0.182   1.052
 5789SOL     OW18265   4.099   2.718   6.201
 5789SOL    HW118266   4.037   2.674   6.136
 5789SOL    HW218267   4.142   2.649   6.259
 5790SOL     OW18268   6.878   5.672   5.179
 5790SOL    HW118269   6.866   5.689   5.081
 5790SOL    HW218270   6.795   5.631   5.216
 5791SOL     OW18271   3.288   1.179   2.501
 5791SOL    HW118272   3.199   1.199   2.460
 5791SOL    HW218273   3.357   1.241   2.463
 5792SOL     OW18274   5.024   3.692   2.953
 5792SOL    HW118275   5.041   3.740   2.867
 5792SOL    HW218276   5.023   3.593   2.936
 5793SOL     OW18277   6.228   2.194   5.568
 5793SOL    HW118278   6.235   2.294   5.562
 5793SOL    HW218279   6.215   2.166   5.663
 5794SOL     OW18280   3.403   0.016   6.489
 5794SOL    HW118281   3.341   0.090   6.462
 5794SOL    HW218282   3.377   6.996   6.579
 5795SOL     OW18283   0.851   6.158   1.846
 5795SOL    HW118284   0.907   6.187   1.924
 5795SOL    HW218285   0.860   6.059   1.834
 5796SOL     OW18286   4.699   1.190   6.254
 5796SOL    HW118287   4.626   1.207   6.320
 5796SOL    HW218288   4.660   1.148   6.172
 5797SOL     OW18289   5.631   1.215   0.308
 5797SOL    HW118290   5.705   1.277   0.334
 5797SOL    HW218291   5.669   1.126   0.283
 5798SOL     OW18292   1.116   4.271   4.546
 5798SOL    HW118293   1.199   4.269   4.601
 5798SOL    HW218294   1.135   4.234   4.454
 5799SOL     OW18295   0.799   6.927   3.024
 5799SOL    HW118296   0.859   6.907   3.101
 5799SOL    HW218297   0.704   6.922   3.053
 5800SOL     OW18298   0.889   6.953   0.959
 5800SOL    HW118299   0.836   6.969   0.876
 5800SOL    HW218300   0.837   6.895   1.021
 5801SOL     OW18301   2.542   2.487   3.122
 5801SOL    HW118302   2.461   2.452   3.170
 5801SOL    HW218303   2.542   2.587   3.126
 5802SOL     OW18304   6.109   3.015   2.907
 5802SOL    HW118305   6.111   3.018   2.807
 5802SOL    HW218306   6.079   2.924   2.937
 5803SOL     OW18307   0.922   4.634   3.997
 5803SOL    HW118308   0.926   4.730   3.969
 5803SOL    HW218309   0.943   4.627   4.095
 5804SOL     OW18310   6.774   6.738   3.864
 5804SOL    HW118311   6.789   6.805   3.791
 5804SOL    HW218312   6.776   6.784   3.953
 5805SOL     OW18313   1.319   3.182   1.092
 5805SOL    HW118314   1.246   3.114   1.084
 5805SOL    HW218315   1.383   3.154   1.163
 5806SOL     OW18316   0.066   4.063   4.127
 5806SOL    HW118317   0.033   4.004   4.053
 5806SOL    HW218318   0.003   4.056   4.205
 5807SOL     OW18319   0.722   6.250   0.906
 5807SOL    HW118320   0.750   6.163   0.865
 5807SOL    HW218321   0.630   6.241   0.943
 5808SOL     OW18322   6.885   6.647   4.205
 5808SOL    HW118323   6.974   6.602   4.202
 5808SOL    HW218324   6.895   6.745   4.188
 5809SOL     OW18325   0.455   2.087   5.833
 5809SOL    HW118326   0.465   2.142   5.915
 5809SOL    HW218327   0.508   2.002   5.843
 5810SOL     OW18328   4.561   6.715   4.797
 5810SOL    HW118329   4.553   6.641   4.730
 5810SOL    HW218330   4.558   6.803   4.750
 5811SOL     OW18331   2.858   2.611   5.707
 5811SOL    HW118332   2.772   2.582   5.747
 5811SOL    HW218333   2.851   2.609   5.607
 5812SOL     OW18334   6.399   3.557   0.231
 5812SOL    HW118335   6.334   3.482   0.218
 5812SOL    HW218336   6.438   3.584   0.143
 5813SOL     OW18337   3.681   5.903   1.371
 5813SOL    HW118338   3.672   5.885   1.273
 5813SOL    HW218339   3.776   5.893   1.398
 5814SOL     OW18340   6.873   2.185   2.235
 5814SOL    HW118341   6.970   2.186   2.260
 5814SOL    HW218342   6.847   2.093   2.207
 5815SOL     OW18343   6.120   1.812   3.933
 5815SOL    HW118344   6.174   1.827   4.016
 5815SOL    HW218345   6.178   1.827   3.853
 5816SOL     OW18346   0.511   5.021   2.152
 5816SOL    HW118347   0.441   5.077   2.196
 5816SOL    HW218348   0.471   4.937   2.117
 5817SOL     OW18349   5.327   3.847   5.329
 5817SOL    HW118350   5.255   3.915   5.343
 5817SOL    HW218351   5.287   3.758   5.312
 5818SOL     OW18352   1.293   5.972   5.340
 5818SOL    HW118353   1.253   5.968   5.432
 5818SOL    HW218354   1.237   6.030   5.281
 5819SOL     OW18355   2.829   5.268   0.265
 5819SOL    HW118356   2.918   5.307   0.242
 5819SOL    HW218357   2.759   5.310   0.207
 5820SOL     OW18358   5.125   5.034   2.409
 5820SOL    HW118359   5.219   4.999   2.407
 5820SOL    HW218360   5.090   5.030   2.503
 5821SOL     OW18361   6.739   1.229   1.114
 5821SOL    HW118362   6.680   1.149   1.116
 5821SOL    HW218363   6.834   1.201   1.130
 5822SOL     OW18364   1.346   2.152   2.713
 5822SOL    HW118365   1.417   2.208   2.756
 5822SOL    HW218366   1.260   2.162   2.762
 5823SOL     OW18367   2.324   6.259   4.146
 5823SOL    HW118368   2.228   6.281   4.157
 5823SOL    HW218369   2.361   6.226   4.233
 5824SOL     OW18370   1.045   0.017   2.402
 5824SOL    HW118371   1.037   0.055   2.494
 5824SOL    HW218372   1.057   0.091   2.336
 5825SOL     OW18373   0.313   6.236   4.804
 5825SOL    HW118374   0.256   6.219   4.884
 5825SOL    HW218375   0.278   6.184   4.726
 5826SOL     OW18376   6.969   0.195   5.247
 5826SOL    HW118377   6.886   0.251   5.240
 5826SOL    HW218378   6.949   0.113   5.301
 5827SOL     OW18379   1.266   3.637   4.801
 5827SOL    HW118380   1.216   3.721   4.784
 5827SOL    HW218381   1.255   3.575   4.724
 5828SOL     OW18382   5.297   0.224   4.099
 5828SOL    HW118383   5.394   0.230   4.078
 5828SOL    HW218384   5.268   0.128   4.097
 5829SOL     OW18385   1.563   0.703   4.589
 5829SOL    HW118386   1.568   0.753   4.502
 5829SOL    HW218387   1.554   0.768   4.664
 5830SOL     OW18388   3.951   5.023   5.465
 5830SOL    HW118389   3.866   5.007   5.516
 5830SOL    HW218390   3.984   4.936   5.427
 5831SOL     OW18391   0.731   1.381   5.420
 5831SOL    HW118392   0.802   1.323   5.381
 5831SOL    HW218393   0.648   1.373   5.366
 5832SOL     OW18394   3.224   4.653   1.227
 5832SOL    HW118395   3.284   4.731   1.211
 5832SOL    HW218396   3.275   4.568   1.212
 5833SOL     OW18397   4.099   3.812   5.070
 5833SOL    HW118398   4.039   3.885   5.104
 5833SOL    HW218399   4.192   3.826   5.105
 5834SOL     OW18400   6.790   3.721   6.426
 5834SOL    HW118401   6.716   3.724   6.358
 5834SOL    HW218402   6.851   3.645   6.405
 5835SOL     OW18403   5.712   1.108   2.781
 5835SOL    HW118404   5.702   1.012   2.755
 5835SOL    HW218405   5.795   1.145   2.740
 5836SOL     OW18406   3.289   6.502   2.444
 5836SOL    HW118407   3.193   6.529   2.441
 5836SOL    HW218408   3.338   6.546   2.369
 5837SOL     OW18409   3.512   4.256   0.170
 5837SOL    HW118410   3.558   4.345   0.165
 5837SOL    HW218411   3.522   4.218   0.262
 5838SOL     OW18412   2.854   1.858   1.642
 5838SOL    HW118413   2.897   1.774   1.674
 5838SOL    HW218414   2.759   1.861   1.673
 5839SOL     OW18415   0.836   3.006   1.453
 5839SOL    HW118416   0.899   3.036   1.524
 5839SOL    HW218417   0.824   3.079   1.385
 5840SOL     OW18418   6.810   3.697   2.186
 5840SOL    HW118419   6.863   3.741   2.258
 5840SOL    HW218420   6.737   3.759   2.156
 5841SOL     OW18421   4.548   0.693   1.753
 5841SOL    HW118422   4.552   0.608   1.700
 5841SOL    HW218423   4.632   0.745   1.738
 5842SOL     OW18424   3.882   2.285   0.175
 5842SOL    HW118425   3.820   2.348   0.128
 5842SOL    HW218426   3.882   2.305   0.273
 5843SOL     OW18427   2.253   3.492   1.275
 5843SOL    HW118428   2.351   3.475   1.265
 5843SOL    HW218429   2.203   3.406   1.271
 5844SOL     OW18430   0.342   6.830   5.216
 5844SOL    HW118431   0.318   6.879   5.132
 5844SOL    HW218432   0.428   6.867   5.251
 5845SOL     OW18433   0.146   6.860   1.827
 5845SOL    HW118434   0.221   6.794   1.821
 5845SOL    HW218435   0.123   6.876   1.923
 5846SOL     OW18436   6.521   3.982   5.320
 5846SOL    HW118437   6.458   4.055   5.343
 5846SOL    HW218438   6.472   3.895   5.319
 5847SOL     OW18439   2.538   2.835   1.744
 5847SOL    HW118440   2.596   2.773   1.798
 5847SOL    HW218441   2.445   2.798   1.739
 5848SOL     OW18442   2.270   6.000   3.985
 5848SOL    HW118443   2.281   6.100   3.985
 5848SOL    HW218444   2.277   5.966   4.078
 5849SOL     OW18445   2.117   6.489   5.272
 5849SOL    HW118446   2.109   6.391   5.252
 5849SOL    HW218447   2.037   6.537   5.234
 5850SOL     OW18448   1.209   2.555   1.619
 5850SOL    HW118449   1.190   2.567   1.716
 5850SOL    HW218450   1.178   2.636   1.568
 5851SOL     OW18451   5.226   3.592   4.088
 5851SOL    HW118452   5.207   3.630   4.179
 5851SOL    HW218453   5.311   3.632   4.053
 5852SOL     OW18454   4.381   5.683   3.411
 5852SOL    HW118455   4.362   5.606   3.350
 5852SOL    HW218456   4.305   5.693   3.476
 5853SOL     OW18457   3.820   4.946   5.082
 5853SOL    HW118458   3.850   4.859   5.121
 5853SOL    HW218459   3.900   5.004   5.067
 5854SOL     OW18460   3.788   4.197   5.136
 5854SOL    HW118461   3.734   4.205   5.220
 5854SOL    HW218462   3.736   4.234   5.059
 5855SOL     OW18463   2.208   2.563   3.908
 5855SOL    HW118464   2.150   2.521   3.978
 5855SOL    HW218465   2.257   2.641   3.948
 5856SOL     OW18466   1.486   6.772   2.508
 5856SOL    HW118467   1.480   6.721   2.422
 5856SOL    HW218468   1.426   6.852   2.504
 5857SOL     OW18469   0.129   3.086   5.497
 5857SOL    HW118470   0.156   3.012   5.436
 5857SOL    HW218471   0.209   3.141   5.522
 5858SOL     OW18472   2.689   1.798   2.506
 5858SOL    HW118473   2.754   1.725   2.530
 5858SOL    HW218474   2.711   1.880   2.559
 5859SOL     OW18475   5.703   6.461   2.061
 5859SOL    HW118476   5.760   6.526   2.011
 5859SOL    HW218477   5.656   6.509   2.136
 5860SOL     OW18478   0.288   4.393   3.210
 5860SOL    HW118479   0.229   4.406   3.130
 5860SOL    HW218480   0.333   4.304   3.204
 5861SOL     OW18481   5.912   0.499   5.042
 5861SOL    HW118482   5.969   0.492   5.124
 5861SOL    HW218483   5.851   0.577   5.051
 5862SOL     OW18484   6.067   5.665   2.328
 5862SOL    HW118485   6.041   5.757   2.300
 5862SOL    HW218486   6.123   5.622   2.257
 5863SOL     OW18487   3.116   1.224   4.350
 5863SOL    HW118488   3.026   1.190   4.322
 5863SOL    HW218489   3.170   1.149   4.388
 5864SOL     OW18490   3.314   3.783   3.010
 5864SOL    HW118491   3.384   3.748   2.948
 5864SOL    HW218492   3.271   3.707   3.058
 5865SOL     OW18493   5.428   1.273   5.761
 5865SOL    HW118494   5.430   1.189   5.707
 5865SOL    HW218495   5.436   1.352   5.700
 5866SOL     OW18496   3.283   2.808   1.039
 5866SOL    HW118497   3.218   2.813   1.114
 5866SOL    HW218498   3.271   2.721   0.989
 5867SOL     OW18499   2.058   2.162   1.700
 5867SOL    HW118500   2.137   2.159   1.639
 5867SOL    HW218501   1.987   2.219   1.660
 5868SOL     OW18502   1.256   1.918   5.938
 5868SOL    HW118503   1.241   1.891   6.033
 5868SOL    HW218504   1.227   1.843   5.878
 5869SOL     OW18505   1.581   4.411   3.296
 5869SOL    HW118506   1.620   4.378   3.210
 5869SOL    HW218507   1.536   4.499   3.280
 5870SOL     OW18508   4.056   4.759   5.874
 5870SOL    HW118509   3.974   4.807   5.844
 5870SOL    HW218510   4.031   4.669   5.910
 5871SOL     OW18511   3.832   3.920   2.956
 5871SOL    HW118512   3.829   3.932   2.857
 5871SOL    HW218513   3.885   3.995   2.997
 5872SOL     OW18514   3.965   5.844   1.352
 5872SOL    HW118515   4.000   5.751   1.360
 5872SOL    HW218516   3.973   5.875   1.258
 5873SOL     OW18517   2.904   5.430   2.120
 5873SOL    HW118518   2.864   5.459   2.207
 5873SOL    HW218519   3.002   5.452   2.119
 5874SOL     OW18520   2.306   4.286   5.167
 5874SOL    HW118521   2.328   4.213   5.101
 5874SOL    HW218522   2.374   4.286   5.240
 5875SOL     OW18523   3.240   2.298   0.078
 5875SOL    HW118524   3.168   2.360   0.109
 5875SOL    HW218525   3.212   2.203   0.093
 5876SOL     OW18526   3.864   3.569   2.411
 5876SOL    HW118527   3.904   3.579   2.320
 5876SOL    HW218528   3.876   3.476   2.443
 5877SOL     OW18529   5.902   6.106   1.010
 5877SOL    HW118530   5.957   6.023   1.000
 5877SOL    HW218531   5.851   6.123   0.926
 5878SOL     OW18532   1.484   6.334   3.634
 5878SOL    HW118533   1.519   6.392   3.708
 5878SOL    HW218534   1.427   6.262   3.673
 5879SOL     OW18535   6.658   3.702   0.443
 5879SOL    HW118536   6.610   3.624   0.483
 5879SOL    HW218537   6.598   3.782   0.441
 5880SOL     OW18538   2.733   5.446   0.792
 5880SOL    HW118539   2.774   5.373   0.846
 5880SOL    HW218540   2.796   5.471   0.718
 5881SOL     OW18541   0.445   5.114   3.442
 5881SOL    HW118542   0.543   5.097   3.425
 5881SOL    HW218543   0.391   5.044   3.396
 5882SOL     OW18544   6.096   6.623   0.889
 5882SOL    HW118545   6.114   6.683   0.811
 5882SOL    HW218546   6.180   6.575   0.913
 5883SOL     OW18547   0.418   2.409   6.729
 5883SOL    HW118548   0.336   2.395   6.785
 5883SOL    HW218549   0.459   2.321   6.707
 5884SOL     OW18550   2.447   1.088   3.368
 5884SOL    HW118551   2.544   1.096   3.393
 5884SOL    HW218552   2.437   1.024   3.291
 5885SOL     OW18553   6.704   6.640   1.617
 5885SOL    HW118554   6.629   6.579   1.642
 5885SOL    HW218555   6.700   6.660   1.519
 5886SOL     OW18556   0.367   2.033   5.111
 5886SOL    HW118557   0.435   2.084   5.058
 5886SOL    HW218558   0.347   1.947   5.066
 5887SOL     OW18559   4.024   0.942   3.468
 5887SOL    HW118560   4.058   0.969   3.378
 5887SOL    HW218561   3.925   0.937   3.467
 5888SOL     OW18562   2.701   0.024   2.761
 5888SOL    HW118563   2.773   0.013   2.830
 5888SOL    HW218564   2.616   0.050   2.806
 5889SOL     OW18565   1.543   6.853   1.235
 5889SOL    HW118566   1.527   6.919   1.309
 5889SOL    HW218567   1.524   6.761   1.267
 5890SOL     OW18568   1.154   0.307   5.366
 5890SOL    HW118569   1.163   0.210   5.392
 5890SOL    HW218570   1.240   0.338   5.326
 5891SOL     OW18571   3.733   2.961   5.950
 5891SOL    HW118572   3.648   2.971   5.898
 5891SOL    HW218573   3.798   2.907   5.896
 5892SOL     OW18574   0.753   6.261   1.213
 5892SOL    HW118575   0.694   6.236   1.137
 5892SOL    HW218576   0.838   6.301   1.178
 5893SOL     OW18577   1.577   4.085   3.561
 5893SOL    HW118578   1.492   4.060   3.606
 5893SOL    HW218579   1.611   4.171   3.597
 5894SOL     OW18580   1.024   5.539   3.098
 5894SOL    HW118581   0.983   5.515   3.186
 5894SOL    HW218582   1.121   5.514   3.098
 5895SOL     OW18583   5.389   3.068   3.795
 5895SOL    HW118584   5.355   3.104   3.882
 5895SOL    HW218585   5.488   3.084   3.789
 5896SOL     OW18586   4.139   1.673   0.063
 5896SOL    HW118587   4.185   1.598   0.016
 5896SOL    HW218588   4.074   1.635   0.129
 5897SOL     OW18589   3.376   0.196   1.674
 5897SOL    HW118590   3.392   0.281   1.723
 5897SOL    HW218591   3.460   0.165   1.630
 5898SOL     OW18592   2.122   0.187   3.171
 5898SOL    HW118593   2.208   0.235   3.189
 5898SOL    HW218594   2.110   0.115   3.239
 5899SOL     OW18595   5.327   6.826   5.790
 5899SOL    HW118596   5.418   6.828   5.748
 5899SOL    HW218597   5.275   6.907   5.761
 5900SOL     OW18598   4.484   5.100   3.814
 5900SOL    HW118599   4.447   5.041   3.885
 5900SOL    HW218600   4.577   5.127   3.837
 5901SOL     OW18601   3.086   0.527   6.512
 5901SOL    HW118602   3.139   0.462   6.457
 5901SOL    HW218603   2.990   0.522   6.485
 5902SOL     OW18604   0.177   2.486   0.640
 5902SOL    HW118605   0.107   2.418   0.616
 5902SOL    HW218606   0.139   2.551   0.706
 5903SOL     OW18607   3.983   3.992   0.771
 5903SOL    HW118608   3.937   3.907   0.797
 5903SOL    HW218609   3.999   3.992   0.672
 5904SOL     OW18610   0.413   3.792   1.938
 5904SOL    HW118611   0.353   3.852   1.886
 5904SOL    HW218612   0.364   3.754   2.017
 5905SOL     OW18613   6.464   5.749   3.101
 5905SOL    HW118614   6.465   5.654   3.132
 5905SOL    HW218615   6.373   5.773   3.068
 5906SOL     OW18616   5.047   1.386   4.275
 5906SOL    HW118617   4.985   1.308   4.264
 5906SOL    HW218618   5.123   1.360   4.335
 5907SOL     OW18619   2.062   5.832   2.320
 5907SOL    HW118620   1.997   5.767   2.360
 5907SOL    HW218621   2.016   5.885   2.249
 5908SOL     OW18622   1.008   2.341   5.611
 5908SOL    HW118623   1.094   2.366   5.655
 5908SOL    HW218624   0.957   2.279   5.671
 5909SOL     OW18625   0.044   5.372   0.860
 5909SOL    HW118626   0.119   5.329   0.911
 5909SOL    HW218627   0.017   5.312   0.785
 5910SOL     OW18628   0.649   3.196   3.226
 5910SOL    HW118629   0.728   3.257   3.230
 5910SOL    HW218630   0.628   3.175   3.131
 5911SOL     OW18631   6.581   5.663   6.756
 5911SOL    HW118632   6.571   5.662   6.855
 5911SOL    HW218633   6.677   5.679   6.732
 5912SOL     OW18634   6.169   0.897   5.378
 5912SOL    HW118635   6.092   0.945   5.336
 5912SOL    HW218636   6.210   0.955   5.448
 5913SOL     OW18637   4.656   2.934   6.719
 5913SOL    HW118638   4.733   2.986   6.758
 5913SOL    HW218639   4.576   2.945   6.777
 5914SOL     OW18640   0.804   6.475   6.732
 5914SOL    HW118641   0.733   6.441   6.794
 5914SOL    HW218642   0.761   6.516   6.651
 5915SOL     OW18643   4.017   6.044   0.668
 5915SOL    HW118644   4.029   6.004   0.577
 5915SOL    HW218645   3.943   6.111   0.666
 5916SOL     OW18646   6.617   6.242   2.528
 5916SOL    HW118647   6.673   6.245   2.611
 5916SOL    HW218648   6.644   6.317   2.467
 5917SOL     OW18649   3.211   3.799   5.129
 5917SOL    HW118650   3.152   3.726   5.165
 5917SOL    HW218651   3.304   3.763   5.117
 5918SOL     OW18652   1.666   5.295   6.135
 5918SOL    HW118653   1.700   5.355   6.208
 5918SOL    HW218654   1.606   5.225   6.174
 5919SOL     OW18655   2.962   3.741   2.670
 5919SOL    HW118656   2.990   3.731   2.575
 5919SOL    HW218657   2.900   3.667   2.695
 5920SOL     OW18658   5.268   1.002   6.484
 5920SOL    HW118659   5.205   0.940   6.437
 5920SOL    HW218660   5.289   0.965   6.574
 5921SOL     OW18661   3.984   5.281   6.147
 5921SOL    HW118662   3.926   5.206   6.116
 5921SOL    HW218663   3.929   5.348   6.197
 5922SOL     OW18664   6.113   3.867   4.553
 5922SOL    HW118665   6.091   3.784   4.603
 5922SOL    HW218666   6.176   3.845   4.478
 5923SOL     OW18667   6.801   0.716   1.703
 5923SOL    HW118668   6.845   0.780   1.639
 5923SOL    HW218669   6.802   0.624   1.664
 5924SOL     OW18670   5.932   0.026   2.270
 5924SOL    HW118671   5.986   0.074   2.201
 5924SOL    HW218672   5.934   0.078   2.356
 5925SOL     OW18673   3.581   6.046   1.966
 5925SOL    HW118674   3.591   5.973   2.033
 5925SOL    HW218675   3.519   6.017   1.893
 5926SOL     OW18676   4.921   4.360   2.429
 5926SOL    HW118677   4.939   4.302   2.508
 5926SOL    HW218678   4.958   4.317   2.347
 5927SOL     OW18679   1.263   4.050   1.875
 5927SOL    HW118680   1.323   4.129   1.882
 5927SOL    HW218681   1.268   3.997   1.960
 5928SOL     OW18682   3.854   6.552   1.719
 5928SOL    HW118683   3.917   6.609   1.771
 5928SOL    HW218684   3.881   6.456   1.726
 5929SOL     OW18685   5.662   0.739   5.905
 5929SOL    HW118686   5.663   0.771   5.811
 5929SOL    HW218687   5.699   0.810   5.965
 5930SOL     OW18688   0.862   2.604   3.096
 5930SOL    HW118689   0.928   2.660   3.046
 5930SOL    HW218690   0.873   2.508   3.070
 5931SOL     OW18691   6.050   5.887   2.661
 5931SOL    HW118692   6.059   5.953   2.735
 5931SOL    HW218693   5.953   5.870   2.643
 5932SOL     OW18694   3.469   0.420   0.228
 5932SOL    HW118695   3.505   0.460   0.312
 5932SOL    HW218696   3.505   0.470   0.149
 5933SOL     OW18697   6.662   4.514   4.207
 5933SOL    HW118698   6.760   4.507   4.188
 5933SOL    HW218699   6.642   4.605   4.243
 5934SOL     OW18700   3.370   2.977   5.320
 5934SOL    HW118701   3.425   3.048   5.364
 5934SOL    HW218702   3.424   2.933   5.248
 5935SOL     OW18703   0.493   5.504   5.971
 5935SOL    HW118704   0.436   5.429   5.938
 5935SOL    HW218705   0.473   5.586   5.919
 5936SOL     OW18706   3.238   3.758   1.949
 5936SOL    HW118707   3.255   3.856   1.964
 5936SOL    HW218708   3.185   3.746   1.865
 5937SOL     OW18709   5.948   3.201   1.969
 5937SOL    HW118710   5.916   3.179   2.061
 5937SOL    HW218711   5.881   3.171   1.902
 5938SOL     OW18712   6.490   6.117   4.895
 5938SOL    HW118713   6.399   6.148   4.869
 5938SOL    HW218714   6.557   6.155   4.832
 5939SOL     OW18715   2.965   6.043   4.513
 5939SOL    HW118716   3.028   6.116   4.487
 5939SOL    HW218717   2.992   5.958   4.468
 5940SOL     OW18718   3.978   5.123   3.962
 5940SOL    HW118719   3.924   5.042   3.940
 5940SOL    HW218720   3.999   5.123   4.060
 5941SOL     OW18721   5.576   2.775   2.837
 5941SOL    HW118722   5.660   2.761   2.783
 5941SOL    HW218723   5.600   2.818   2.924
 5942SOL     OW18724   5.060   3.566   6.812
 5942SOL    HW118725   5.011   3.486   6.848
 5942SOL    HW218726   5.053   3.641   6.877
 5943SOL     OW18727   3.261   3.059   5.918
 5943SOL    HW118728   3.245   3.149   5.876
 5943SOL    HW218729   3.342   3.018   5.877
 5944SOL     OW18730   1.187   2.638   0.564
 5944SOL    HW118731   1.178   2.681   0.475
 5944SOL    HW218732   1.223   2.703   0.630
 5945SOL     OW18733   0.588   5.660   5.219
 5945SOL    HW118734   0.660   5.625   5.279
 5945SOL    HW218735   0.512   5.693   5.275
 5946SOL     OW18736   3.250   4.724   0.314
 5946SOL    HW118737   3.174   4.720   0.379
 5946SOL    HW218738   3.215   4.747   0.223
 5947SOL     OW18739   3.227   3.535   3.597
 5947SOL    HW118740   3.179   3.621   3.575
 5947SOL    HW218741   3.325   3.548   3.586
 5948SOL     OW18742   4.486   4.684   2.512
 5948SOL    HW118743   4.467   4.765   2.457
 5948SOL    HW218744   4.522   4.612   2.454
 5949SOL     OW18745   4.953   5.001   0.979
 5949SOL    HW118746   4.903   4.926   0.935
 5949SOL    HW218747   4.967   5.074   0.913
 5950SOL     OW18748   5.019   2.147   5.359
 5950SOL    HW118749   5.097   2.187   5.310
 5950SOL    HW218750   5.052   2.098   5.439
 5951SOL     OW18751   0.935   5.775   5.475
 5951SOL    HW118752   0.874   5.718   5.530
 5951SOL    HW218753   0.981   5.718   5.407
 5952SOL     OW18754   4.680   5.445   3.907
 5952SOL    HW118755   4.649   5.477   3.817
 5952SOL    HW218756   4.634   5.499   3.978
 5953SOL     OW18757   6.472   4.108   4.954
 5953SOL    HW118758   6.571   4.100   4.964
 5953SOL    HW218759   6.450   4.198   4.917
 5954SOL     OW18760   0.468   5.424   5.146
 5954SOL    HW118761   0.408   5.425   5.226
 5954SOL    HW218762   0.527   5.505   5.148
 5955SOL     OW18763   4.175   4.639   2.300
 5955SOL    HW118764   4.121   4.555   2.293
 5955SOL    HW218765   4.148   4.702   2.228
 5956SOL     OW18766   5.877   2.020   3.690
 5956SOL    HW118767   5.802   2.082   3.667
 5956SOL    HW218768   5.882   2.009   3.790
 5957SOL     OW18769   2.641   1.846   3.883
 5957SOL    HW118770   2.613   1.934   3.922
 5957SOL    HW218771   2.573   1.815   3.817
 5958SOL     OW18772   4.178   0.505   2.607
 5958SOL    HW118773   4.195   0.592   2.654
 5958SOL    HW218774   4.204   0.514   2.511
 5959SOL     OW18775   4.569   2.762   5.450
 5959SOL    HW118776   4.493   2.737   5.389
 5959SOL    HW218777   4.637   2.813   5.398
 5960SOL     OW18778   3.017   5.956   4.208
 5960SOL    HW118779   3.062   5.910   4.285
 5960SOL    HW218780   3.086   5.997   4.148
 5961SOL     OW18781   4.417   1.667   2.574
 5961SOL    HW118782   4.504   1.713   2.556
 5961SOL    HW218783   4.370   1.650   2.488
 5962SOL     OW18784   5.301   5.731   5.823
 5962SOL    HW118785   5.258   5.717   5.734
 5962SOL    HW218786   5.302   5.828   5.845
 5963SOL     OW18787   3.171   3.723   6.593
 5963SOL    HW118788   3.262   3.722   6.550
 5963SOL    HW218789   3.131   3.632   6.590
 5964SOL     OW18790   2.425   6.743   4.496
 5964SOL    HW118791   2.456   6.838   4.505
 5964SOL    HW218792   2.326   6.739   4.507
 5965SOL     OW18793   2.217   0.835   0.057
 5965SOL    HW118794   2.175   0.887   6.997
 5965SOL    HW218795   2.298   0.787   0.022
 5966SOL     OW18796   1.056   6.558   6.194
 5966SOL    HW118797   1.080   6.557   6.097
 5966SOL    HW218798   1.007   6.474   6.217
 5967SOL     OW18799   2.192   0.447   5.656
 5967SOL    HW118800   2.139   0.447   5.572
 5967SOL    HW218801   2.236   0.536   5.669
 5968SOL     OW18802   5.585   2.464   0.333
 5968SOL    HW118803   5.589   2.564   0.329
 5968SOL    HW218804   5.567   2.427   0.242
 5969SOL     OW18805   5.186   1.233   6.726
 5969SOL    HW118806   5.266   1.248   6.784
 5969SOL    HW218807   5.213   1.242   6.630
 5970SOL     OW18808   0.503   4.699   0.826
 5970SOL    HW118809   0.536   4.792   0.808
 5970SOL    HW218810   0.569   4.650   0.882
 5971SOL     OW18811   6.430   6.963   1.125
 5971SOL    HW118812   6.428   6.880   1.181
 5971SOL    HW218813   6.350   6.964   1.065
 5972SOL     OW18814   4.834   5.734   6.518
 5972SOL    HW118815   4.773   5.767   6.447
 5972SOL    HW218816   4.903   5.674   6.478
 5973SOL     OW18817   1.624   3.071   2.970
 5973SOL    HW118818   1.678   3.155   2.963
 5973SOL    HW218819   1.685   2.992   2.965
 5974SOL     OW18820   5.055   6.975   0.023
 5974SOL    HW118821   5.062   6.879   7.011
 5974SOL    HW218822   5.002   6.983   0.108
 5975SOL     OW18823   3.926   6.068   1.136
 5975SOL    HW118824   3.930   6.021   1.048
 5975SOL    HW218825   3.984   6.150   1.133
 5976SOL     OW18826   3.045   2.794   5.340
 5976SOL    HW118827   2.962   2.740   5.346
 5976SOL    HW218828   3.047   2.861   5.414
 5977SOL     OW18829   0.941   5.917   0.317
 5977SOL    HW118830   0.842   5.922   0.305
 5977SOL    HW218831   0.963   5.841   0.378
 5978SOL     OW18832   3.548   5.576   1.518
 5978SOL    HW118833   3.600   5.590   1.433
 5978SOL    HW218834   3.549   5.660   1.572
 5979SOL     OW18835   6.984   0.799   1.922
 5979SOL    HW118836   6.908   0.767   1.866
 5979SOL    HW218837   0.011   0.879   1.880
 5980SOL     OW18838   3.979   3.420   1.757
 5980SOL    HW118839   3.955   3.324   1.773
 5980SOL    HW218840   3.903   3.468   1.714
 5981SOL     OW18841   5.089   1.657   0.166
 5981SOL    HW118842   5.174   1.666   0.217
 5981SOL    HW218843   5.035   1.581   0.203
 5982SOL     OW18844   6.185   1.675   2.589
 5982SOL    HW118845   6.103   1.730   2.577
 5982SOL    HW218846   6.163   1.578   2.577
 5983SOL     OW18847   1.579   1.322   4.001
 5983SOL    HW118848   1.597   1.418   3.979
 5983SOL    HW218849   1.553   1.314   4.097
 5984SOL     OW18850   5.096   6.891   3.501
 5984SOL    HW118851   5.110   6.816   3.566
 5984SOL    HW218852   5.079   6.976   3.551
 5985SOL     OW18853   6.968   2.890   3.383
 5985SOL    HW118854   6.872   2.915   3.377
 5985SOL    HW218855   6.979   2.793   3.361
 5986SOL     OW18856   3.384   3.810   5.472
 5986SOL    HW118857   3.344   3.902   5.473
 5986SOL    HW218858   3.476   3.815   5.432
 5987SOL     OW18859   5.458   0.653   5.085
 5987SOL    HW118860   5.491   0.603   5.005
 5987SOL    HW218861   5.448   0.749   5.062
 5988SOL     OW18862   3.786   0.655   6.846
 5988SOL    HW118863   3.852   0.614   6.783
 5988SOL    HW218864   3.823   0.653   6.939
 5989SOL     OW18865   1.602   5.484   5.930
 5989SOL    HW118866   1.628   5.418   6.000
 5989SOL    HW218867   1.570   5.569   5.973
 5990SOL     OW18868   3.758   3.603   0.094
 5990SOL    HW118869   3.804   3.539   0.157
 5990SOL    HW218870   3.760   3.695   0.133
 5991SOL     OW18871   4.483   6.209   6.745
 5991SOL    HW118872   4.439   6.150   6.812
 5991SOL    HW218873   4.414   6.245   6.681
 5992SOL     OW18874   3.358   0.008   1.913
 5992SOL    HW118875   3.392   0.087   1.862
 5992SOL    HW218876   3.285   6.978   1.861
 5993SOL     OW18877   5.113   3.916   6.389
 5993SOL    HW118878   5.080   3.879   6.301
 5993SOL    HW218879   5.177   3.851   6.430
 5994SOL     OW18880   6.586   2.636   0.696
 5994SOL    HW118881   6.552   2.546   0.671
 5994SOL    HW218882   6.534   2.672   0.774
 5995SOL     OW18883   4.958   2.897   1.984
 5995SOL    HW118884   4.886   2.962   2.007
 5995SOL    HW218885   4.917   2.806   1.970
 5996SOL     OW18886   0.980   5.612   1.204
 5996SOL    HW118887   0.961   5.523   1.162
 5996SOL    HW218888   0.897   5.667   1.202
 5997SOL     OW18889   1.298   6.562   3.269
 5997SOL    HW118890   1.250   6.567   3.181
 5997SOL    HW218891   1.394   6.537   3.252
 5998SOL     OW18892   6.120   0.766   1.941
 5998SOL    HW118893   6.205   0.751   1.991
 5998SOL    HW218894   6.127   0.725   1.850
 5999SOL     OW18895   2.961   3.015   1.357
 5999SOL    HW118896   3.013   3.028   1.273
 5999SOL    HW218897   2.865   3.042   1.341
 6000SOL     OW18898   0.918   6.102   0.545
 6000SOL    HW118899   0.974   6.033   0.500
 6000SOL    HW218900   0.977   6.167   0.593
 6001SOL     OW18901   6.311   5.192   6.807
 6001SOL    HW118902   6.255   5.175   6.726
 6001SOL    HW218903   6.278   5.273   6.854
 6002SOL     OW18904   6.573   0.012   5.646
 6002SOL    HW118905   6.585   0.016   5.745
 6002SOL    HW218906   6.482   6.990   5.625
 6003SOL     OW18907   5.461   2.223   4.521
 6003SOL    HW118908   5.502   2.134   4.539
 6003SOL    HW218909   5.467   2.244   4.424
 6004SOL     OW18910   6.116   2.730   3.636
 6004SOL    HW118911   6.086   2.724   3.540
 6004SOL    HW218912   6.205   2.775   3.640
 6005SOL     OW18913   6.040   4.827   4.858
 6005SOL    HW118914   5.970   4.846   4.788
 6005SOL    HW218915   5.996   4.789   4.939
 6006SOL     OW18916   3.008   0.751   4.916
 6006SOL    HW118917   2.929   0.703   4.954
 6006SOL    HW218918   3.089   0.731   4.971
 6007SOL     OW18919   0.144   3.109   6.237
 6007SOL    HW118920   0.104   3.200   6.222
 6007SOL    HW218921   0.236   3.107   6.197
 6008SOL     OW18922   2.545   4.762   5.676
 6008SOL    HW118923   2.603   4.716   5.743
 6008SOL    HW218924   2.596   4.836   5.633
 6009SOL     OW18925   3.995   6.432   3.450
 6009SOL    HW118926   3.952   6.351   3.411
 6009SOL    HW218927   3.985   6.509   3.387
 6010SOL     OW18928   1.061   4.445   3.341
 6010SOL    HW118929   1.036   4.455   3.438
 6010SOL    HW218930   0.983   4.410   3.290
 6011SOL     OW18931   5.074   3.299   3.123
 6011SOL    HW118932   5.024   3.364   3.067
 6011SOL    HW218933   5.037   3.300   3.216
 6012SOL     OW18934   6.252   0.448   0.153
 6012SOL    HW118935   6.300   0.394   0.223
 6012SOL    HW218936   6.232   0.390   0.074
 6013SOL     OW18937   5.043   0.989   2.810
 6013SOL    HW118938   5.042   0.892   2.837
 6013SOL    HW218939   5.120   1.006   2.750
 6014SOL     OW18940   3.212   4.090   3.533
 6014SOL    HW118941   3.144   4.085   3.460
 6014SOL    HW218942   3.172   4.133   3.614
 6015SOL     OW18943   5.792   3.723   4.641
 6015SOL    HW118944   5.876   3.671   4.624
 6015SOL    HW218945   5.756   3.756   4.554
 6016SOL     OW18946   5.858   1.507   5.923
 6016SOL    HW118947   5.926   1.557   5.976
 6016SOL    HW218948   5.773   1.560   5.919
 6017SOL     OW18949   6.672   4.768   4.309
 6017SOL    HW118950   6.684   4.761   4.408
 6017SOL    HW218951   6.586   4.813   4.289
 6018SOL     OW18952   3.351   1.506   5.206
 6018SOL    HW118953   3.333   1.422   5.156
 6018SOL    HW218954   3.264   1.550   5.230
 6019SOL     OW18955   0.684   2.983   5.410
 6019SOL    HW118956   0.703   2.979   5.508
 6019SOL    HW218957   0.730   3.062   5.370
 6020SOL     OW18958   1.216   5.642   0.263
 6020SOL    HW118959   1.128   5.631   0.218
 6020SOL    HW218960   1.290   5.617   0.200
 6021SOL     OW18961   4.467   0.427   3.102
 6021SOL    HW118962   4.497   0.377   3.021
 6021SOL    HW218963   4.489   0.524   3.092
 6022SOL     OW18964   0.537   1.781   3.481
 6022SOL    HW118965   0.623   1.788   3.531
 6022SOL    HW218966   0.482   1.706   3.519
 6023SOL     OW18967   4.829   0.577   1.911
 6023SOL    HW118968   4.778   0.494   1.934
 6023SOL    HW218969   4.875   0.612   1.993
 6024SOL     OW18970   0.914   4.618   0.595
 6024SOL    HW118971   1.008   4.585   0.589
 6024SOL    HW218972   0.909   4.695   0.659
 6025SOL     OW18973   3.306   1.365   3.084
 6025SOL    HW118974   3.369   1.438   3.108
 6025SOL    HW218975   3.236   1.400   3.022
 6026SOL     OW18976   0.379   5.747   4.714
 6026SOL    HW118977   0.375   5.684   4.637
 6026SOL    HW218978   0.438   5.709   4.785
 6027SOL     OW18979   0.082   3.375   6.141
 6027SOL    HW118980   0.163   3.428   6.115
 6027SOL    HW218981   0.028   3.356   6.059
 6028SOL     OW18982   5.285   4.786   0.983
 6028SOL    HW118983   5.306   4.879   0.952
 6028SOL    HW218984   5.363   4.726   0.963
 6029SOL     OW18985   2.840   0.209   3.903
 6029SOL    HW118986   2.878   0.301   3.890
 6029SOL    HW218987   2.817   0.195   3.999
 6030SOL     OW18988   5.097   4.318   4.150
 6030SOL    HW118989   5.176   4.256   4.144
 6030SOL    HW218990   5.027   4.289   4.085
 6031SOL     OW18991   2.496   5.556   4.395
 6031SOL    HW118992   2.595   5.539   4.397
 6031SOL    HW218993   2.479   5.647   4.356
 6032SOL     OW18994   2.601   4.921   2.525
 6032SOL    HW118995   2.642   4.829   2.528
 6032SOL    HW218996   2.638   4.977   2.598
 6033SOL     OW18997   2.200   3.158   2.779
 6033SOL    HW118998   2.279   3.138   2.722
 6033SOL    HW218999   2.121   3.107   2.746
 6034SOL     OW19000   0.922   0.833   6.222
 6034SOL    HW119001   0.844   0.878   6.265
 6034SOL    HW219002   0.993   0.900   6.201
 6035SOL     OW19003   1.578   0.419   2.235
 6035SOL    HW119004   1.544   0.429   2.329
 6035SOL    HW219005   1.599   0.509   2.197
 6036SOL     OW19006   5.438   4.718   1.601
 6036SOL    HW119007   5.410   4.803   1.557
 6036SOL    HW219008   5.498   4.666   1.539
 6037SOL     OW19009   3.828   0.015   0.620
 6037SOL    HW119010   3.807   6.950   0.563
 6037SOL    HW219011   3.822   7.004   0.716
 6038SOL     OW19012   0.896   2.520   6.989
 6038SOL    HW119013   0.930   2.426   6.987
 6038SOL    HW219014   0.955   2.579   6.934
 6039SOL     OW19015   3.826   2.945   3.426
 6039SOL    HW119016   3.765   3.011   3.470
 6039SOL    HW219017   3.880   2.992   3.356
 6040SOL     OW19018   1.526   1.137   0.567
 6040SOL    HW119019   1.599   1.069   0.553
 6040SOL    HW219020   1.503   1.141   0.665
 6041SOL     OW19021   3.199   2.151   5.323
 6041SOL    HW119022   3.131   2.145   5.395
 6041SOL    HW219023   3.184   2.234   5.269
 6042SOL     OW19024   3.673   6.760   2.636
 6042SOL    HW119025   3.642   6.669   2.663
 6042SOL    HW219026   3.764   6.777   2.674
 6043SOL     OW19027   0.767   0.486   4.776
 6043SOL    HW119028   0.822   0.479   4.692
 6043SOL    HW219029   0.671   0.466   4.754
 6044SOL     OW19030   2.682   2.574   1.784
 6044SOL    HW119031   2.751   2.558   1.854
 6044SOL    HW219032   2.727   2.588   1.696
 6045SOL     OW19033   5.756   3.231   3.619
 6045SOL    HW119034   5.688   3.272   3.557
 6045SOL    HW219035   5.828   3.188   3.565
 6046SOL     OW19036   3.455   2.609   0.698
 6046SOL    HW119037   3.543   2.568   0.718
 6046SOL    HW219038   3.468   2.695   0.649
 6047SOL     OW19039   5.229   2.249   1.570
 6047SOL    HW119040   5.230   2.305   1.488
 6047SOL    HW219041   5.142   2.261   1.618
 6048SOL     OW19042   5.168   5.341   4.881
 6048SOL    HW119043   5.156   5.438   4.902
 6048SOL    HW219044   5.241   5.304   4.938
 6049SOL     OW19045   4.810   4.284   6.396
 6049SOL    HW119046   4.881   4.259   6.462
 6049SOL    HW219047   4.818   4.228   6.314
 6050SOL     OW19048   1.777   4.890   0.513
 6050SOL    HW119049   1.732   4.803   0.532
 6050SOL    HW219050   1.710   4.952   0.471
 6051SOL     OW19051   1.880   6.343   2.630
 6051SOL    HW119052   1.943   6.305   2.563
 6051SOL    HW219053   1.920   6.338   2.722
 6052SOL     OW19054   5.162   1.499   1.704
 6052SOL    HW119055   5.213   1.529   1.785
 6052SOL    HW219056   5.227   1.471   1.633
 6053SOL     OW19057   4.049   0.777   5.880
 6053SOL    HW119058   4.045   0.695   5.936
 6053SOL    HW219059   4.109   0.844   5.923
 6054SOL     OW19060   2.601   4.250   0.608
 6054SOL    HW119061   2.527   4.262   0.675
 6054SOL    HW219062   2.678   4.308   0.632
 6055SOL     OW19063   3.708   5.787   5.859
 6055SOL    HW119064   3.677   5.823   5.771
 6055SOL    HW219065   3.777   5.716   5.844
 6056SOL     OW19066   4.818   3.381   5.326
 6056SOL    HW119067   4.777   3.460   5.282
 6056SOL    HW219068   4.917   3.384   5.314
 6057SOL     OW19069   6.321   0.394   2.603
 6057SOL    HW119070   6.274   0.312   2.570
 6057SOL    HW219071   6.406   0.369   2.649
 6058SOL     OW19072   4.955   4.258   0.370
 6058SOL    HW119073   4.926   4.346   0.408
 6058SOL    HW219074   4.990   4.200   0.444
 6059SOL     OW19075   4.737   4.285   5.670
 6059SOL    HW119076   4.827   4.329   5.677
 6059SOL    HW219077   4.748   4.186   5.670
 6060SOL     OW19078   2.283   3.184   6.742
 6060SOL    HW119079   2.211   3.243   6.707
 6060SOL    HW219080   2.316   3.123   6.670
 6061SOL     OW19081   4.255   4.186   0.477
 6061SOL    HW119082   4.271   4.087   0.482
 6061SOL    HW219083   4.209   4.208   0.390
 6062SOL     OW19084   2.644   1.838   6.607
 6062SOL    HW119085   2.645   1.874   6.700
 6062SOL    HW219086   2.583   1.893   6.550
 6063SOL     OW19087   3.651   2.865   5.512
 6063SOL    HW119088   3.627   2.959   5.488
 6063SOL    HW219089   3.718   2.866   5.587
 6064SOL     OW19090   1.482   1.184   1.005
 6064SOL    HW119091   1.508   1.222   1.094
 6064SOL    HW219092   1.460   1.258   0.942
 6065SOL     OW19093   0.608   5.790   1.804
 6065SOL    HW119094   0.508   5.799   1.801
 6065SOL    HW219095   0.632   5.711   1.859
 6066SOL     OW19096   5.438   1.171   6.040
 6066SOL    HW119097   5.354   1.150   6.090
 6066SOL    HW219098   5.416   1.207   5.950
 6067SOL     OW19099   4.751   0.696   5.527
 6067SOL    HW119100   4.848   0.701   5.549
 6067SOL    HW219101   4.738   0.642   5.444
 6068SOL     OW19102   4.900   2.657   4.459
 6068SOL    HW119103   4.864   2.644   4.366
 6068SOL    HW219104   4.829   2.699   4.516
 6069SOL     OW19105   6.783   3.567   4.776
 6069SOL    HW119106   6.775   3.509   4.857
 6069SOL    HW219107   6.775   3.663   4.803
 6070SOL     OW19108   2.757   2.872   1.053
 6070SOL    HW119109   2.827   2.802   1.035
 6070SOL    HW219110   2.778   2.919   1.139
 6071SOL     OW19111   1.048   5.816   4.606
 6071SOL    HW119112   1.072   5.829   4.703
 6071SOL    HW219113   1.012   5.724   4.592
 6072SOL     OW19114   0.391   0.666   1.570
 6072SOL    HW119115   0.459   0.718   1.518
 6072SOL    HW219116   0.429   0.643   1.660
 6073SOL     OW19117   4.988   3.336   1.004
 6073SOL    HW119118   4.921   3.286   0.949
 6073SOL    HW219119   4.945   3.365   1.089
 6074SOL     OW19120   1.833   5.898   1.875
 6074SOL    HW119121   1.736   5.909   1.853
 6074SOL    HW219122   1.887   5.910   1.791
 6075SOL     OW19123   4.855   0.333   5.013
 6075SOL    HW119124   4.952   0.349   5.027
 6075SOL    HW219125   4.841   0.243   4.972
 6076SOL     OW19126   2.743   5.321   3.009
 6076SOL    HW119127   2.701   5.337   3.098
 6076SOL    HW219128   2.763   5.409   2.965
 6077SOL     OW19129   6.362   5.344   0.831
 6077SOL    HW119130   6.336   5.401   0.753
 6077SOL    HW219131   6.288   5.282   0.855
 6078SOL     OW19132   4.353   5.234   0.017
 6078SOL    HW119133   4.258   5.236   7.003
 6078SOL    HW219134   4.368   5.301   0.089
 6079SOL     OW19135   5.306   4.433   6.823
 6079SOL    HW119136   5.213   4.458   6.850
 6079SOL    HW219137   5.326   4.340   6.854
 6080SOL     OW19138   0.188   5.629   0.605
 6080SOL    HW119139   0.205   5.531   0.614
 6080SOL    HW219140   0.267   5.680   0.639
 6081SOL     OW19141   0.253   2.764   5.781
 6081SOL    HW119142   0.269   2.794   5.875
 6081SOL    HW219143   0.282   2.669   5.771
 6082SOL     OW19144   3.276   6.900   2.601
 6082SOL    HW119145   3.249   6.986   2.645
 6082SOL    HW219146   3.268   6.910   2.502
 6083SOL     OW19147   5.747   5.792   0.963
 6083SOL    HW119148   5.847   5.803   0.964
 6083SOL    HW219149   5.710   5.811   1.053
 6084SOL     OW19150   0.679   6.779   2.411
 6084SOL    HW119151   0.758   6.778   2.473
 6084SOL    HW219152   0.600   6.817   2.459
 6085SOL     OW19153   6.843   6.247   6.840
 6085SOL    HW119154   6.910   6.185   6.880
 6085SOL    HW219155   6.870   6.271   6.747
 6086SOL     OW19156   2.577   2.295   5.915
 6086SOL    HW119157   2.632   2.225   5.870
 6086SOL    HW219158   2.602   2.301   6.011
 6087SOL     OW19159   3.384   5.615   1.193
 6087SOL    HW119160   3.483   5.612   1.182
 6087SOL    HW219161   3.342   5.542   1.139
 6088SOL     OW19162   5.822   6.879   4.346
 6088SOL    HW119163   5.788   6.945   4.413
 6088SOL    HW219164   5.826   6.788   4.388
 6089SOL     OW19165   5.924   2.533   3.085
 6089SOL    HW119166   5.969   2.484   3.159
 6089SOL    HW219167   5.897   2.469   3.013
 6090SOL     OW19168   2.160   4.788   4.738
 6090SOL    HW119169   2.215   4.748   4.665
 6090SOL    HW219170   2.210   4.784   4.824
 6091SOL     OW19171   2.625   1.556   0.160
 6091SOL    HW119172   2.677   1.582   0.079
 6091SOL    HW219173   2.627   1.456   0.170
 6092SOL     OW19174   4.490   0.998   2.012
 6092SOL    HW119175   4.500   0.898   2.012
 6092SOL    HW219176   4.397   1.021   1.982
 6093SOL     OW19177   2.145   2.412   1.526
 6093SOL    HW119178   2.197   2.355   1.462
 6093SOL    HW219179   2.051   2.379   1.532
 6094SOL     OW19180   1.508   6.035   3.251
 6094SOL    HW119181   1.491   6.010   3.347
 6094SOL    HW219182   1.596   5.999   3.223
 6095SOL     OW19183   4.622   4.894   0.042
 6095SOL    HW119184   4.526   4.871   0.058
 6095SOL    HW219185   4.634   4.919   6.961
 6096SOL     OW19186   6.297   6.751   2.369
 6096SOL    HW119187   6.234   6.770   2.293
 6096SOL    HW219188   6.378   6.704   2.334
 6097SOL     OW19189   2.257   5.325   2.307
 6097SOL    HW119190   2.291   5.356   2.218
 6097SOL    HW219191   2.160   5.349   2.316
 6098SOL     OW19192   0.049   1.470   5.957
 6098SOL    HW119193   0.049   1.425   5.868
 6098SOL    HW219194   0.075   1.405   6.028
 6099SOL     OW19195   5.080   5.861   5.470
 6099SOL    HW119196   5.115   5.953   5.489
 6099SOL    HW219197   5.153   5.804   5.434
 6100SOL     OW19198   6.158   5.988   2.088
 6100SOL    HW119199   6.130   6.018   1.996
 6100SOL    HW219200   6.146   6.063   2.153
 6101SOL     OW19201   6.970   2.861   2.894
 6101SOL    HW119202   6.918   2.943   2.867
 6101SOL    HW219203   7.013   2.822   2.813
 6102SOL     OW19204   4.231   5.534   2.981
 6102SOL    HW119205   4.254   5.495   3.071
 6102SOL    HW219206   4.170   5.612   2.994
 6103SOL     OW19207   6.029   0.947   1.339
 6103SOL    HW119208   6.024   0.962   1.240
 6103SOL    HW219209   5.940   0.916   1.373
 6104SOL     OW19210   5.623   6.712   5.375
 6104SOL    HW119211   5.684   6.784   5.409
 6104SOL    HW219212   5.530   6.747   5.372
 6105SOL     OW19213   1.917   5.444   6.005
 6105SOL    HW119214   1.848   5.383   5.965
 6105SOL    HW219215   1.882   5.538   6.006
 6106SOL     OW19216   1.272   4.932   6.481
 6106SOL    HW119217   1.234   4.983   6.403
 6106SOL    HW219218   1.199   4.878   6.523
 6107SOL     OW19219   5.069   5.526   5.221
 6107SOL    HW119220   5.081   5.427   5.212
 6107SOL    HW219221   5.067   5.568   5.130
 6108SOL     OW19222   2.496   2.423   3.533
 6108SOL    HW119223   2.465   2.510   3.495
 6108SOL    HW219224   2.448   2.348   3.489
 6109SOL     OW19225   5.596   1.534   5.591
 6109SOL    HW119226   5.583   1.630   5.614
 6109SOL    HW219227   5.676   1.498   5.639
 6110SOL     OW19228   2.414   3.085   1.026
 6110SOL    HW119229   2.360   3.044   0.952
 6110SOL    HW219230   2.469   3.160   0.988
 6111SOL     OW19231   1.239   3.135   2.311
 6111SOL    HW119232   1.266   3.192   2.389
 6111SOL    HW219233   1.140   3.123   2.311
 6112SOL     OW19234   4.094   0.911   2.500
 6112SOL    HW119235   4.110   0.813   2.505
 6112SOL    HW219236   4.127   0.946   2.412
 6113SOL     OW19237   2.791   2.479   6.539
 6113SOL    HW119238   2.796   2.564   6.485
 6113SOL    HW219239   2.857   2.484   6.614
 6114SOL     OW19240   4.702   4.132   2.973
 6114SOL    HW119241   4.765   4.057   2.993
 6114SOL    HW219242   4.728   4.175   2.886
 6115SOL     OW19243   6.105   0.885   4.368
 6115SOL    HW119244   6.114   0.800   4.421
 6115SOL    HW219245   6.055   0.953   4.423
 6116SOL     OW19246   3.822   1.293   6.194
 6116SOL    HW119247   3.892   1.357   6.163
 6116SOL    HW219248   3.846   1.260   6.286
 6117SOL     OW19249   2.152   1.864   3.481
 6117SOL    HW119250   2.230   1.878   3.420
 6117SOL    HW219251   2.102   1.782   3.453
 6118SOL     OW19252   5.797   1.177   1.172
 6118SOL    HW119253   5.783   1.125   1.087
 6118SOL    HW219254   5.738   1.140   1.244
 6119SOL     OW19255   1.126   3.852   0.419
 6119SOL    HW119256   1.185   3.913   0.366
 6119SOL    HW219257   1.164   3.759   0.417
 6120SOL     OW19258   2.242   6.510   5.740
 6120SOL    HW119259   2.211   6.454   5.664
 6120SOL    HW219260   2.163   6.549   5.788
 6121SOL     OW19261   1.513   3.408   5.152
 6121SOL    HW119262   1.553   3.317   5.159
 6121SOL    HW219263   1.545   3.452   5.067
 6122SOL     OW19264   4.255   5.430   6.678
 6122SOL    HW119265   4.296   5.518   6.705
 6122SOL    HW219266   4.254   5.423   6.579
 6123SOL     OW19267   5.068   6.734   6.122
 6123SOL    HW119268   5.140   6.685   6.073
 6123SOL    HW219269   4.987   6.742   6.063
 6124SOL     OW19270   1.110   6.803   6.354
 6124SOL    HW119271   1.063   6.740   6.291
 6124SOL    HW219272   1.052   6.820   6.433
 6125SOL     OW19273   2.321   3.997   0.302
 6125SOL    HW119274   2.397   4.051   0.338
 6125SOL    HW219275   2.357   3.925   0.242
 6126SOL     OW19276   6.948   0.907   5.125
 6126SOL    HW119277   6.987   0.840   5.188
 6126SOL    HW219278   6.954   0.998   5.166
 6127SOL     OW19279   3.938   0.045   1.629
 6127SOL    HW119280   3.887   0.118   1.676
 6127SOL    HW219281   4.019   0.022   1.683
 6128SOL     OW19282   5.334   5.658   1.173
 6128SOL    HW119283   5.433   5.673   1.165
 6128SOL    HW219284   5.302   5.692   1.261
 6129SOL     OW19285   0.760   3.242   2.559
 6129SOL    HW119286   0.667   3.206   2.567
 6129SOL    HW219287   0.796   3.260   2.650
 6130SOL     OW19288   4.979   2.669   2.682
 6130SOL    HW119289   4.935   2.596   2.631
 6130SOL    HW219290   5.024   2.732   2.619
 6131SOL     OW19291   1.124   1.612   3.284
 6131SOL    HW119292   1.030   1.645   3.272
 6131SOL    HW219293   1.145   1.607   3.381
 6132SOL     OW19294   3.516   1.854   6.661
 6132SOL    HW119295   3.579   1.927   6.635
 6132SOL    HW219296   3.467   1.821   6.581
 6133SOL     OW19297   2.164   3.276   3.372
 6133SOL    HW119298   2.142   3.184   3.404
 6133SOL    HW219299   2.208   3.271   3.282
 6134SOL     OW19300   4.549   6.549   6.981
 6134SOL    HW119301   4.570   6.646   6.987
 6134SOL    HW219302   4.479   6.534   6.911
 6135SOL     OW19303   0.488   5.676   1.171
 6135SOL    HW119304   0.465   5.699   1.076
 6135SOL    HW219305   0.439   5.737   1.232
 6136SOL     OW19306   0.851   2.221   1.857
 6136SOL    HW119307   0.912   2.274   1.798
 6136SOL    HW219308   0.785   2.171   1.801
 6137SOL     OW19309   6.897   4.079   2.589
 6137SOL    HW119310   6.836   4.085   2.668
 6137SOL    HW219311   6.882   3.993   2.540
 6138SOL     OW19312   3.474   6.692   3.239
 6138SOL    HW119313   3.417   6.611   3.246
 6138SOL    HW219314   3.417   6.774   3.245
 6139SOL     OW19315   1.076   0.105   5.765
 6139SOL    HW119316   1.156   0.127   5.709
 6139SOL    HW219317   1.022   0.034   5.721
 6140SOL     OW19318   0.830   0.357   1.805
 6140SOL    HW119319   0.894   0.432   1.820
 6140SOL    HW219320   0.841   0.290   1.879
 6141SOL     OW19321   0.344   6.935   6.461
 6141SOL    HW119322   0.248   6.923   6.485
 6141SOL    HW219323   0.375   0.010   6.492
 6142SOL     OW19324   0.039   5.574   6.540
 6142SOL    HW119325   0.112   5.548   6.604
 6142SOL    HW219326   0.037   5.674   6.531
 6143SOL     OW19327   6.795   4.484   0.942
 6143SOL    HW119328   6.806   4.385   0.929
 6143SOL    HW219329   6.733   4.501   1.019
 6144SOL     OW19330   5.323   5.027   4.122
 6144SOL    HW119331   5.253   5.091   4.090
 6144SOL    HW219332   5.288   4.976   4.200
 6145SOL     OW19333   5.200   4.822   4.271
 6145SOL    HW119334   5.147   4.846   4.352
 6145SOL    HW219335   5.191   4.724   4.253
 6146SOL     OW19336   3.257   5.502   3.939
 6146SOL    HW119337   3.173   5.517   3.991
 6146SOL    HW219338   3.298   5.590   3.914
 6147SOL     OW19339   2.228   2.333   5.258
 6147SOL    HW119340   2.238   2.319   5.160
 6147SOL    HW219341   2.137   2.368   5.278
 6148SOL     OW19342   4.468   6.055   5.296
 6148SOL    HW119343   4.462   6.133   5.233
 6148SOL    HW219344   4.541   6.072   5.363
 6149SOL     OW19345   2.560   6.977   1.395
 6149SOL    HW119346   2.475   0.012   1.375
 6149SOL    HW219347   2.566   6.959   1.493
 6150SOL     OW19348   5.892   4.280   0.013
 6150SOL    HW119349   5.901   4.250   6.932
 6150SOL    HW219350   5.982   4.301   0.049
 6151SOL     OW19351   6.274   4.688   5.432
 6151SOL    HW119352   6.325   4.769   5.462
 6151SOL    HW219353   6.196   4.674   5.492
 6152SOL     OW19354   0.731   6.387   4.585
 6152SOL    HW119355   0.685   6.448   4.521
 6152SOL    HW219356   0.676   6.305   4.599
 6153SOL     OW19357   5.791   4.916   1.135
 6153SOL    HW119358   5.795   4.956   1.226
 6153SOL    HW219359   5.875   4.936   1.086
 6154SOL     OW19360   5.619   2.814   2.076
 6154SOL    HW119361   5.567   2.780   2.153
 6154SOL    HW219362   5.636   2.912   2.087
 6155SOL     OW19363   2.861   1.394   2.829
 6155SOL    HW119364   2.778   1.362   2.782
 6155SOL    HW219365   2.906   1.316   2.873
 6156SOL     OW19366   4.755   4.749   1.879
 6156SOL    HW119367   4.713   4.754   1.970
 6156SOL    HW219368   4.722   4.667   1.832
 6157SOL     OW19369   0.213   2.691   3.123
 6157SOL    HW119370   0.125   2.701   3.075
 6157SOL    HW219371   0.197   2.687   3.222
 6158SOL     OW19372   3.923   2.148   6.413
 6158SOL    HW119373   3.922   2.238   6.456
 6158SOL    HW219374   4.004   2.097   6.443
 6159SOL     OW19375   4.191   2.398   0.223
 6159SOL    HW119376   4.261   2.457   0.183
 6159SOL    HW219377   4.209   2.303   0.198
 6160SOL     OW19378   5.762   0.327   6.465
 6160SOL    HW119379   5.698   0.285   6.400
 6160SOL    HW219380   5.713   0.359   6.545
 6161SOL     OW19381   5.615   1.218   0.013
 6161SOL    HW119382   5.643   1.302   6.982
 6161SOL    HW219383   5.622   1.230   0.112
 6162SOL     OW19384   6.048   6.509   4.141
 6162SOL    HW119385   6.010   6.423   4.107
 6162SOL    HW219386   6.098   6.493   4.226
 6163SOL     OW19387   5.147   5.708   2.078
 6163SOL    HW119388   5.075   5.640   2.076
 6163SOL    HW219389   5.128   5.775   2.149
 6164SOL     OW19390   3.430   4.197   4.517
 6164SOL    HW119391   3.336   4.187   4.484
 6164SOL    HW219392   3.438   4.152   4.606
 6165SOL     OW19393   4.474   1.446   6.092
 6165SOL    HW119394   4.507   1.506   6.020
 6165SOL    HW219395   4.511   1.476   6.180
 6166SOL     OW19396   5.731   1.491   0.183
 6166SOL    HW119397   5.762   1.462   0.273
 6166SOL    HW219398   5.753   1.587   0.169
 6167SOL     OW19399   1.339   4.618   2.795
 6167SOL    HW119400   1.349   4.547   2.864
 6167SOL    HW219401   1.326   4.707   2.839
 6168SOL     OW19402   0.712   3.632   3.270
 6168SOL    HW119403   0.762   3.690   3.207
 6168SOL    HW219404   0.649   3.573   3.219
 6169SOL     OW19405   1.363   1.904   0.329
 6169SOL    HW119406   1.348   1.937   0.422
 6169SOL    HW219407   1.306   1.956   0.265
 6170SOL     OW19408   3.009   3.956   5.935
 6170SOL    HW119409   3.019   3.889   6.008
 6170SOL    HW219410   2.979   4.043   5.974
 6171SOL     OW19411   1.700   3.814   1.526
 6171SOL    HW119412   1.763   3.764   1.585
 6171SOL    HW219413   1.609   3.774   1.533
 6172SOL     OW19414   1.369   1.151   3.565
 6172SOL    HW119415   1.432   1.075   3.582
 6172SOL    HW219416   1.347   1.196   3.651
 6173SOL     OW19417   6.751   5.036   2.341
 6173SOL    HW119418   6.795   5.118   2.306
 6173SOL    HW219419   6.720   5.053   2.435
 6174SOL     OW19420   6.304   5.383   2.952
 6174SOL    HW119421   6.221   5.368   3.004
 6174SOL    HW219422   6.339   5.296   2.918
 6175SOL     OW19423   5.354   0.968   3.940
 6175SOL    HW119424   5.374   1.021   3.857
 6175SOL    HW219425   5.440   0.939   3.982
 6176SOL     OW19426   6.696   3.069   0.147
 6176SOL    HW119427   6.687   3.098   0.052
 6176SOL    HW219428   6.742   3.141   0.200
 6177SOL     OW19429   5.911   1.723   1.871
 6177SOL    HW119430   5.972   1.758   1.799
 6177SOL    HW219431   5.903   1.624   1.863
 6178SOL     OW19432   4.769   5.078   2.971
 6178SOL    HW119433   4.808   5.019   3.041
 6178SOL    HW219434   4.835   5.149   2.947
 6179SOL     OW19435   6.379   4.693   4.477
 6179SOL    HW119436   6.379   4.733   4.385
 6179SOL    HW219437   6.338   4.757   4.541
 6180SOL     OW19438   3.368   6.083   6.585
 6180SOL    HW119439   3.368   6.155   6.654
 6180SOL    HW219440   3.462   6.060   6.559
 6181SOL     OW19441   4.088   6.746   1.459
 6181SOL    HW119442   4.156   6.790   1.400
 6181SOL    HW219443   4.004   6.800   1.459
 6182SOL     OW19444   5.504   3.365   5.709
 6182SOL    HW119445   5.565   3.434   5.669
 6182SOL    HW219446   5.473   3.304   5.636
 6183SOL     OW19447   2.445   0.276   2.761
 6183SOL    HW119448   2.483   0.337   2.831
 6183SOL    HW219449   2.456   0.181   2.791
 6184SOL     OW19450   1.521   0.008   6.513
 6184SOL    HW119451   1.533   0.103   6.543
 6184SOL    HW219452   1.443   0.002   6.451
 6185SOL     OW19453   0.141   4.547   6.417
 6185SOL    HW119454   0.212   4.593   6.364
 6185SOL    HW219455   0.144   4.449   6.398
 6186SOL     OW19456   5.960   6.731   5.318
 6186SOL    HW119457   5.894   6.796   5.356
 6186SOL    HW219458   5.934   6.638   5.344
 6187SOL     OW19459   4.437   4.663   4.262
 6187SOL    HW119460   4.486   4.603   4.199
 6187SOL    HW219461   4.444   4.628   4.355
 6188SOL     OW19462   2.462   0.530   0.602
 6188SOL    HW119463   2.444   0.434   0.577
 6188SOL    HW219464   2.560   0.546   0.601
 6189SOL     OW19465   4.835   4.270   4.000
 6189SOL    HW119466   4.833   4.175   4.031
 6189SOL    HW219467   4.822   4.331   4.078
 6190SOL     OW19468   6.567   3.774   6.238
 6190SOL    HW119469   6.563   3.871   6.213
 6190SOL    HW219470   6.475   3.736   6.240
 6191SOL     OW19471   4.117   3.057   6.665
 6191SOL    HW119472   4.164   2.971   6.686
 6191SOL    HW219473   4.020   3.047   6.686
 6192SOL     OW19474   2.867   3.306   6.370
 6192SOL    HW119475   2.774   3.285   6.340
 6192SOL    HW219476   2.892   3.247   6.446
 6193SOL     OW19477   5.249   0.998   2.590
 6193SOL    HW119478   5.334   1.008   2.640
 6193SOL    HW219479   5.254   1.048   2.503
 6194SOL     OW19480   0.975   6.767   0.385
 6194SOL    HW119481   0.902   6.713   0.346
 6194SOL    HW219482   0.949   6.864   0.385
 6195SOL     OW19483   3.919   6.060   5.782
 6195SOL    HW119484   3.896   5.981   5.725
 6195SOL    HW219485   3.836   6.106   5.812
 6196SOL     OW19486   5.933   1.981   1.554
 6196SOL    HW119487   5.834   1.988   1.550
 6196SOL    HW219488   5.974   2.044   1.487
 6197SOL     OW19489   4.203   4.720   0.379
 6197SOL    HW119490   4.184   4.797   0.440
 6197SOL    HW219491   4.118   4.685   0.341
 6198SOL     OW19492   3.189   5.505   2.160
 6198SOL    HW119493   3.210   5.458   2.246
 6198SOL    HW219494   3.218   5.600   2.167
 6199SOL     OW19495   1.321   0.098   0.993
 6199SOL    HW119496   1.341   0.003   0.966
 6199SOL    HW219497   1.227   0.104   1.026
 6200SOL     OW19498   1.936   1.167   5.262
 6200SOL    HW119499   1.875   1.239   5.230
 6200SOL    HW219500   2.000   1.205   5.329
 6201SOL     OW19501   1.455   3.823   5.053
 6201SOL    HW119502   1.499   3.806   5.141
 6201SOL    HW219503   1.500   3.900   5.008
 6202SOL     OW19504   4.014   1.470   1.577
 6202SOL    HW119505   4.031   1.410   1.655
 6202SOL    HW219506   4.053   1.560   1.595
 6203SOL     OW19507   5.748   6.776   3.157
 6203SOL    HW119508   5.778   6.681   3.146
 6203SOL    HW219509   5.666   6.792   3.102
 6204SOL     OW19510   0.904   5.223   4.803
 6204SOL    HW119511   0.917   5.287   4.878
 6204SOL    HW219512   0.836   5.154   4.829
 6205SOL     OW19513   6.168   6.327   0.172
 6205SOL    HW119514   6.143   6.339   0.268
 6205SOL    HW219515   6.206   6.412   0.137
 6206SOL     OW19516   6.963   0.492   2.738
 6206SOL    HW119517   6.920   0.466   2.824
 6206SOL    HW219518   6.983   0.590   2.740
 6207SOL     OW19519   1.689   5.063   4.064
 6207SOL    HW119520   1.637   5.030   3.985
 6207SOL    HW219521   1.722   4.985   4.117
 6208SOL     OW19522   6.039   1.752   6.404
 6208SOL    HW119523   6.125   1.715   6.440
 6208SOL    HW219524   5.983   1.786   6.480
 6209SOL     OW19525   4.287   5.711   0.008
 6209SOL    HW119526   4.201   5.669   0.033
 6209SOL    HW219527   4.273   5.770   6.943
 6210SOL     OW19528   6.007   4.250   4.212
 6210SOL    HW119529   6.034   4.229   4.118
 6210SOL    HW219530   6.086   4.281   4.264
 6211SOL     OW19531   2.979   5.887   5.188
 6211SOL    HW119532   2.890   5.928   5.166
 6211SOL    HW219533   3.015   5.930   5.271
 6212SOL     OW19534   2.308   4.924   2.521
 6212SOL    HW119535   2.403   4.938   2.549
 6212SOL    HW219536   2.250   4.913   2.602
 6213SOL     OW19537   5.072   0.392   0.117
 6213SOL    HW119538   4.981   0.409   0.079
 6213SOL    HW219539   5.129   0.473   0.107
 6214SOL     OW19540   4.405   4.945   4.023
 6214SOL    HW119541   4.467   4.886   4.075
 6214SOL    HW219542   4.310   4.921   4.045
 6215SOL     OW19543   4.321   1.834   0.656
 6215SOL    HW119544   4.418   1.848   0.636
 6215SOL    HW219545   4.266   1.880   0.586
 6216SOL     OW19546   6.218   2.050   2.330
 6216SOL    HW119547   6.197   2.069   2.234
 6216SOL    HW219548   6.290   2.112   2.362
 6217SOL     OW19549   0.221   2.952   2.637
 6217SOL    HW119550   0.318   2.956   2.615
 6217SOL    HW219551   0.198   2.861   2.670
 6218SOL     OW19552   3.406   4.951   5.649
 6218SOL    HW119553   3.371   4.982   5.560
 6218SOL    HW219554   3.329   4.925   5.707
 6219SOL     OW19555   1.292   2.105   4.388
 6219SOL    HW119556   1.295   2.092   4.487
 6219SOL    HW219557   1.385   2.111   4.352
 6220SOL     OW19558   1.513   2.805   5.204
 6220SOL    HW119559   1.465   2.847   5.127
 6220SOL    HW219560   1.534   2.710   5.182
 6221SOL     OW19561   6.171   5.688   6.686
 6221SOL    HW119562   6.166   5.749   6.607
 6221SOL    HW219563   6.085   5.639   6.696
 6222SOL     OW19564   0.793   5.993   1.156
 6222SOL    HW119565   0.792   6.077   1.211
 6222SOL    HW219566   0.873   5.939   1.180
 6223SOL     OW19567   0.475   4.672   4.560
 6223SOL    HW119568   0.514   4.684   4.651
 6223SOL    HW219569   0.387   4.625   4.567
 6224SOL     OW19570   2.543   1.914   6.081
 6224SOL    HW119571   2.624   1.969   6.103
 6224SOL    HW219572   2.510   1.870   6.164
 6225SOL     OW19573   3.322   3.656   0.975
 6225SOL    HW119574   3.374   3.729   0.931
 6225SOL    HW219575   3.385   3.586   1.010
 6226SOL     OW19576   5.859   1.441   5.675
 6226SOL    HW119577   5.944   1.439   5.622
 6226SOL    HW219578   5.877   1.480   5.765
 6227SOL     OW19579   3.678   5.293   5.996
 6227SOL    HW119580   3.594   5.346   6.009
 6227SOL    HW219581   3.670   5.237   5.913
 6228SOL     OW19582   1.406   2.620   3.054
 6228SOL    HW119583   1.358   2.697   3.013
 6228SOL    HW219584   1.401   2.626   3.154
 6229SOL     OW19585   0.431   2.647   2.621
 6229SOL    HW119586   0.519   2.606   2.645
 6229SOL    HW219587   0.367   2.636   2.696
 6230SOL     OW19588   1.373   1.219   3.814
 6230SOL    HW119589   1.319   1.169   3.881
 6230SOL    HW219590   1.456   1.254   3.858
 6231SOL     OW19591   6.589   5.046   1.414
 6231SOL    HW119592   6.587   4.972   1.347
 6231SOL    HW219593   6.682   5.058   1.448
 6232SOL     OW19594   6.764   1.677   0.845
 6232SOL    HW119595   6.862   1.688   0.864
 6232SOL    HW219596   6.742   1.720   0.758
 6233SOL     OW19597   6.113   0.690   0.178
 6233SOL    HW119598   6.176   0.613   0.186
 6233SOL    HW219599   6.155   0.763   0.125
 6234SOL     OW19600   6.153   1.525   5.633
 6234SOL    HW119601   6.129   1.608   5.684
 6234SOL    HW219602   6.209   1.466   5.691
 6235SOL     OW19603   1.156   0.915   1.390
 6235SOL    HW119604   1.206   0.832   1.364
 6235SOL    HW219605   1.130   0.910   1.487
 6236SOL     OW19606   0.177   3.780   0.391
 6236SOL    HW119607   0.229   3.836   0.456
 6236SOL    HW219608   0.171   3.827   0.303
 6237SOL     OW19609   3.440   6.250   6.779
 6237SOL    HW119610   3.528   6.203   6.793
 6237SOL    HW219611   3.434   6.329   6.840
 6238SOL     OW19612   4.047   4.751   3.050
 6238SOL    HW119613   4.067   4.672   2.992
 6238SOL    HW219614   4.132   4.787   3.088
 6239SOL     OW19615   3.429   6.284   1.828
 6239SOL    HW119616   3.397   6.191   1.847
 6239SOL    HW219617   3.459   6.327   1.914
 6240SOL     OW19618   2.827   3.043   6.268
 6240SOL    HW119619   2.749   3.024   6.208
 6240SOL    HW219620   2.868   3.130   6.242
 6241SOL     OW19621   3.142   6.934   1.778
 6241SOL    HW119622   3.183   6.846   1.754
 6241SOL    HW219623   3.068   6.955   1.714
 6242SOL     OW19624   5.332   1.363   3.564
 6242SOL    HW119625   5.257   1.358   3.498
 6242SOL    HW219626   5.297   1.396   3.652
 6243SOL     OW19627   6.225   6.787   3.923
 6243SOL    HW119628   6.246   6.881   3.897
 6243SOL    HW219629   6.136   6.785   3.970
 6244SOL     OW19630   1.090   2.430   2.313
 6244SOL    HW119631   1.117   2.417   2.218
 6244SOL    HW219632   1.164   2.402   2.373
 6245SOL     OW19633   1.854   4.007   6.939
 6245SOL    HW119634   1.812   3.917   6.944
 6245SOL    HW219635   1.802   4.072   6.995
 6246SOL     OW19636   1.984   2.486   5.729
 6246SOL    HW119637   1.922   2.501   5.806
 6246SOL    HW219638   2.078   2.494   5.760
 6247SOL     OW19639   1.632   6.305   4.214
 6247SOL    HW119640   1.725   6.341   4.204
 6247SOL    HW219641   1.627   6.215   4.171
 6248SOL     OW19642   3.372   3.645   0.359
 6248SOL    HW119643   3.449   3.584   0.378
 6248SOL    HW219644   3.364   3.713   0.431
 6249SOL     OW19645   0.203   4.073   0.545
 6249SOL    HW119646   0.156   4.049   0.460
 6249SOL    HW219647   0.283   4.129   0.523
 6250SOL     OW19648   0.080   6.112   0.647
 6250SOL    HW119649   0.105   6.049   0.573
 6250SOL    HW219650   7.001   6.093   0.675
 6251SOL     OW19651   3.661   5.295   6.834
 6251SOL    HW119652   3.657   5.197   6.816
 6251SOL    HW219653   3.672   5.310   6.933
 6252SOL     OW19654   1.204   6.775   5.842
 6252SOL    HW119655   1.302   6.763   5.855
 6252SOL    HW219656   1.187   6.805   5.748
 6253SOL     OW19657   2.327   4.209   3.014
 6253SOL    HW119658   2.363   4.302   3.017
 6253SOL    HW219659   2.272   4.197   2.931
 6254SOL     OW19660   4.804   1.517   0.562
 6254SOL    HW119661   4.774   1.442   0.502
 6254SOL    HW219662   4.891   1.493   0.604
 6255SOL     OW19663   2.833   0.577   1.272
 6255SOL    HW119664   2.877   0.586   1.182
 6255SOL    HW219665   2.745   0.531   1.261
 6256SOL     OW19666   3.281   5.143   2.552
 6256SOL    HW119667   3.183   5.162   2.557
 6256SOL    HW219668   3.298   5.046   2.573
 6257SOL     OW19669   4.635   2.079   0.712
 6257SOL    HW119670   4.584   2.077   0.626
 6257SOL    HW219671   4.635   2.172   0.749
 6258SOL     OW19672   4.333   0.169   3.541
 6258SOL    HW119673   4.420   0.218   3.537
 6258SOL    HW219674   4.348   0.071   3.527
 6259SOL     OW19675   2.705   2.657   0.640
 6259SOL    HW119676   2.750   2.569   0.652
 6259SOL    HW219677   2.770   2.721   0.598
 6260SOL     OW19678   3.370   5.433   0.278
 6260SOL    HW119679   3.362   5.343   0.236
 6260SOL    HW219680   3.397   5.500   0.208
 6261SOL     OW19681   3.962   0.209   6.044
 6261SOL    HW119682   4.047   0.247   6.078
 6261SOL    HW219683   3.885   0.246   6.097
 6262SOL     OW19684   1.667   5.450   0.946
 6262SOL    HW119685   1.687   5.510   0.868
 6262SOL    HW219686   1.732   5.374   0.946
 6263SOL     OW19687   6.578   0.223   5.462
 6263SOL    HW119688   6.556   0.144   5.519
 6263SOL    HW219689   6.648   0.278   5.508
 6264SOL     OW19690   1.047   6.491   2.016
 6264SOL    HW119691   0.993   6.407   2.014
 6264SOL    HW219692   1.084   6.505   2.108
 6265SOL     OW19693   3.314   3.944   0.466
 6265SOL    HW119694   3.256   3.982   0.394
 6265SOL    HW219695   3.260   3.935   0.550
 6266SOL     OW19696   4.193   6.766   4.616
 6266SOL    HW119697   4.196   6.784   4.715
 6266SOL    HW219698   4.111   6.714   4.594
 6267SOL     OW19699   2.711   0.912   6.536
 6267SOL    HW119700   2.667   0.976   6.599
 6267SOL    HW219701   2.806   0.898   6.563
 6268SOL     OW19702   3.538   6.632   3.679
 6268SOL    HW119703   3.483   6.712   3.653
 6268SOL    HW219704   3.489   6.549   3.655
 6269SOL     OW19705   6.253   5.520   2.150
 6269SOL    HW119706   6.263   5.485   2.057
 6269SOL    HW219707   6.313   5.469   2.212
 6270SOL     OW19708   1.783   0.498   4.633
 6270SOL    HW119709   1.807   0.511   4.730
 6270SOL    HW219710   1.690   0.531   4.618
 6271SOL     OW19711   5.871   2.305   5.995
 6271SOL    HW119712   5.797   2.369   6.017
 6271SOL    HW219713   5.860   2.222   6.050
 6272SOL     OW19714   0.133   2.034   0.248
 6272SOL    HW119715   0.176   1.958   0.198
 6272SOL    HW219716   0.173   2.041   0.339
 6273SOL     OW19717   1.389   6.410   2.963
 6273SOL    HW119718   1.470   6.410   2.904
 6273SOL    HW219719   1.312   6.450   2.914
 6274SOL     OW19720   2.298   5.916   5.915
 6274SOL    HW119721   2.326   5.938   5.822
 6274SOL    HW219722   2.287   6.000   5.967
 6275SOL     OW19723   2.097   6.200   5.250
 6275SOL    HW119724   2.158   6.172   5.176
 6275SOL    HW219725   2.100   6.133   5.324
 6276SOL     OW19726   2.004   4.603   3.042
 6276SOL    HW119727   2.023   4.512   3.003
 6276SOL    HW219728   2.084   4.635   3.093
 6277SOL     OW19729   5.627   3.556   1.792
 6277SOL    HW119730   5.643   3.493   1.716
 6277SOL    HW219731   5.712   3.568   1.844
 6278SOL     OW19732   5.487   6.857   4.693
 6278SOL    HW119733   5.503   6.872   4.595
 6278SOL    HW219734   5.490   6.945   4.740
 6279SOL     OW19735   3.812   0.217   6.710
 6279SOL    HW119736   3.826   0.272   6.628
 6279SOL    HW219737   3.874   0.248   6.782
 6280SOL     OW19738   0.806   1.995   4.848
 6280SOL    HW119739   0.741   2.017   4.776
 6280SOL    HW219740   0.880   2.062   4.848
 6281SOL     OW19741   1.457   5.078   3.786
 6281SOL    HW119742   1.521   5.054   3.712
 6281SOL    HW219743   1.391   5.004   3.797
 6282SOL     OW19744   1.342   6.875   4.757
 6282SOL    HW119745   1.246   6.869   4.784
 6282SOL    HW219746   1.349   6.875   4.657
 6283SOL     OW19747   0.071   3.013   5.918
 6283SOL    HW119748   0.109   3.058   5.999
 6283SOL    HW219749   6.993   2.981   5.938
 6284SOL     OW19750   1.772   5.128   4.879
 6284SOL    HW119751   1.866   5.132   4.845
 6284SOL    HW219752   1.708   5.132   4.802
 6285SOL     OW19753   0.877   3.653   4.205
 6285SOL    HW119754   0.940   3.707   4.260
 6285SOL    HW219755   0.801   3.710   4.174
 6286SOL     OW19756   6.506   1.749   3.807
 6286SOL    HW119757   6.528   1.690   3.728
 6286SOL    HW219758   6.432   1.812   3.782
 6287SOL     OW19759   3.587   5.203   4.183
 6287SOL    HW119760   3.501   5.229   4.138
 6287SOL    HW219761   3.664   5.233   4.126
 6288SOL     OW19762   5.662   4.948   2.767
 6288SOL    HW119763   5.726   4.872   2.761
 6288SOL    HW219764   5.676   4.997   2.853
 6289SOL     OW19765   1.804   4.841   1.652
 6289SOL    HW119766   1.778   4.936   1.635
 6289SOL    HW219767   1.868   4.838   1.728
 6290SOL     OW19768   6.283   3.818   4.339
 6290SOL    HW119769   6.256   3.898   4.286
 6290SOL    HW219770   6.379   3.797   4.320
 6291SOL     OW19771   3.413   2.885   4.727
 6291SOL    HW119772   3.499   2.919   4.689
 6291SOL    HW219773   3.363   2.836   4.655
 6292SOL     OW19774   1.670   2.184   3.867
 6292SOL    HW119775   1.726   2.136   3.936
 6292SOL    HW219776   1.578   2.199   3.904
 6293SOL     OW19777   3.950   0.371   7.006
 6293SOL    HW119778   3.957   0.469   0.010
 6293SOL    HW219779   3.971   0.319   0.074
 6294SOL     OW19780   3.371   4.897   4.560
 6294SOL    HW119781   3.291   4.893   4.618
 6294SOL    HW219782   3.441   4.834   4.594
 6295SOL     OW19783   5.575   4.903   5.622
 6295SOL    HW119784   5.571   4.972   5.550
 6295SOL    HW219785   5.513   4.930   5.696
 6296SOL     OW19786   0.176   6.658   5.857
 6296SOL    HW119787   0.142   6.579   5.907
 6296SOL    HW219788   0.168   6.740   5.915
 6297SOL     OW19789   4.817   6.451   4.396
 6297SOL    HW119790   4.825   6.447   4.496
 6297SOL    HW219791   4.898   6.409   4.354
 6298SOL     OW19792   1.631   2.804   6.555
 6298SOL    HW119793   1.636   2.856   6.640
 6298SOL    HW219794   1.536   2.797   6.526
 6299SOL     OW19795   5.303   1.354   6.973
 6299SOL    HW119796   5.225   1.397   6.926
 6299SOL    HW219797   5.374   1.423   6.987
 6300SOL     OW19798   5.558   0.276   0.359
 6300SOL    HW119799   5.622   0.255   0.434
 6300SOL    HW219800   5.482   0.331   0.394
 6301SOL     OW19801   3.757   0.967   0.552
 6301SOL    HW119802   3.711   0.980   0.640
 6301SOL    HW219803   3.692   0.982   0.477
 6302SOL     OW19804   1.781   0.099   3.519
 6302SOL    HW119805   1.697   0.135   3.559
 6302SOL    HW219806   1.769   0.091   3.420
 6303SOL     OW19807   1.715   1.215   4.269
 6303SOL    HW119808   1.691   1.118   4.277
 6303SOL    HW219809   1.646   1.271   4.314
 6304SOL     OW19810   2.562   1.428   1.362
 6304SOL    HW119811   2.512   1.484   1.428
 6304SOL    HW219812   2.630   1.484   1.315
 6305SOL     OW19813   5.512   0.007   1.707
 6305SOL    HW119814   5.603   0.026   1.671
 6305SOL    HW219815   5.490   6.926   1.693
 6306SOL     OW19816   1.107   3.856   4.053
 6306SOL    HW119817   1.079   3.810   4.138
 6306SOL    HW219818   1.074   3.950   4.055
 6307SOL     OW19819   3.977   4.300   5.440
 6307SOL    HW119820   3.982   4.296   5.540
 6307SOL    HW219821   3.886   4.329   5.412
 6308SOL     OW19822   2.145   2.371   4.670
 6308SOL    HW119823   2.152   2.334   4.577
 6308SOL    HW219824   2.067   2.330   4.717
 6309SOL     OW19825   5.477   4.250   4.899
 6309SOL    HW119826   5.489   4.170   4.841
 6309SOL    HW219827   5.450   4.221   4.991
 6310SOL     OW19828   1.937   6.047   3.331
 6310SOL    HW119829   2.023   6.053   3.282
 6310SOL    HW219830   1.942   6.100   3.416
 6311SOL     OW19831   4.990   0.747   5.653
 6311SOL    HW119832   5.069   0.700   5.693
 6311SOL    HW219833   4.996   0.844   5.674
 6312SOL     OW19834   5.557   5.363   5.352
 6312SOL    HW119835   5.559   5.360   5.252
 6312SOL    HW219836   5.620   5.295   5.389
 6313SOL     OW19837   1.425   6.431   4.083
 6313SOL    HW119838   1.455   6.478   4.000
 6313SOL    HW219839   1.504   6.390   4.128
 6314SOL     OW19840   4.027   6.312   1.736
 6314SOL    HW119841   4.112   6.320   1.685
 6314SOL    HW219842   4.042   6.257   1.818
 6315SOL     OW19843   2.454   2.635   5.965
 6315SOL    HW119844   2.408   2.557   6.008
 6315SOL    HW219845   2.385   2.698   5.929
 6316SOL     OW19846   4.618   1.708   6.677
 6316SOL    HW119847   4.707   1.730   6.717
 6316SOL    HW219848   4.632   1.675   6.583
 6317SOL     OW19849   4.812   5.364   2.968
 6317SOL    HW119850   4.838   5.425   3.043
 6317SOL    HW219851   4.844   5.403   2.881
 6318SOL     OW19852   3.514   1.620   4.439
 6318SOL    HW119853   3.507   1.682   4.361
 6318SOL    HW219854   3.595   1.643   4.493
 6319SOL     OW19855   7.008   1.617   4.038
 6319SOL    HW119856   0.049   1.627   3.956
 6319SOL    HW219857   7.010   1.521   4.068
 6320SOL     OW19858   6.029   5.396   4.918
 6320SOL    HW119859   5.944   5.435   4.884
 6320SOL    HW219860   6.028   5.296   4.906
 6321SOL     OW19861   3.152   3.455   0.845
 6321SOL    HW119862   3.082   3.436   0.913
 6321SOL    HW219863   3.217   3.522   0.882
 6322SOL     OW19864   1.973   2.184   0.087
 6322SOL    HW119865   2.070   2.163   0.070
 6322SOL    HW219866   1.939   2.245   0.016
 6323SOL     OW19867   2.833   2.471   1.174
 6323SOL    HW119868   2.829   2.374   1.199
 6323SOL    HW219869   2.928   2.501   1.171
 6324SOL     OW19870   5.105   0.107   6.361
 6324SOL    HW119871   5.081   0.039   6.292
 6324SOL    HW219872   5.032   0.175   6.367
 6325SOL     OW19873   2.240   1.788   2.488
 6325SOL    HW119874   2.302   1.721   2.449
 6325SOL    HW219875   2.243   1.872   2.432
 6326SOL     OW19876   5.029   5.195   1.632
 6326SOL    HW119877   5.087   5.201   1.713
 6326SOL    HW219878   4.992   5.286   1.611
 6327SOL     OW19879   0.141   0.088   4.704
 6327SOL    HW119880   0.150   0.016   4.635
 6327SOL    HW219881   0.052   0.080   4.749
 6328SOL     OW19882   2.591   3.727   0.672
 6328SOL    HW119883   2.576   3.727   0.573
 6328SOL    HW219884   2.513   3.771   0.717
 6329SOL     OW19885   2.447   2.031   3.437
 6329SOL    HW119886   2.518   2.028   3.508
 6329SOL    HW219887   2.367   2.079   3.471
 6330SOL     OW19888   4.458   1.168   1.018
 6330SOL    HW119889   4.490   1.090   1.072
 6330SOL    HW219890   4.363   1.152   0.990
 6331SOL     OW19891   6.612   2.408   6.802
 6331SOL    HW119892   6.635   2.377   6.894
 6331SOL    HW219893   6.580   2.502   6.806
 6332SOL     OW19894   6.067   3.594   1.651
 6332SOL    HW119895   6.084   3.693   1.658
 6332SOL    HW219896   6.105   3.548   1.731
 6333SOL     OW19897   4.544   5.595   5.200
 6333SOL    HW119898   4.494   5.673   5.238
 6333SOL    HW219899   4.641   5.602   5.225
 6334SOL     OW19900   2.786   0.098   1.781
 6334SOL    HW119901   2.701   0.107   1.730
 6334SOL    HW219902   2.847   0.034   1.733
 6335SOL     OW19903   4.253   0.962   0.414
 6335SOL    HW119904   4.262   0.915   0.326
 6335SOL    HW219905   4.307   1.046   0.412
 6336SOL     OW19906   0.930   1.865   6.164
 6336SOL    HW119907   0.900   1.826   6.077
 6336SOL    HW219908   1.021   1.904   6.153
 6337SOL     OW19909   4.646   4.030   6.461
 6337SOL    HW119910   4.698   4.115   6.456
 6337SOL    HW219911   4.645   3.986   6.371
 6338SOL     OW19912   3.526   1.565   3.563
 6338SOL    HW119913   3.622   1.581   3.585
 6338SOL    HW219914   3.519   1.519   3.475
 6339SOL     OW19915   1.297   3.246   2.549
 6339SOL    HW119916   1.390   3.228   2.581
 6339SOL    HW219917   1.238   3.269   2.626
 6340SOL     OW19918   1.804   4.651   2.472
 6340SOL    HW119919   1.712   4.655   2.510
 6340SOL    HW219920   1.839   4.744   2.459
 6341SOL     OW19921   1.016   4.532   4.287
 6341SOL    HW119922   1.020   4.435   4.311
 6341SOL    HW219923   1.103   4.559   4.246
 6342SOL     OW19924   2.739   1.969   1.920
 6342SOL    HW119925   2.723   1.922   2.007
 6342SOL    HW219926   2.670   1.941   1.854
 6343SOL     OW19927   4.718   2.088   6.214
 6343SOL    HW119928   4.635   2.091   6.269
 6343SOL    HW219929   4.733   2.178   6.171
 6344SOL     OW19930   6.024   2.770   5.130
 6344SOL    HW119931   6.070   2.767   5.219
 6344SOL    HW219932   6.030   2.681   5.086
 6345SOL     OW19933   5.069   2.141   2.363
 6345SOL    HW119934   5.104   2.227   2.399
 6345SOL    HW219935   5.121   2.065   2.403
 6346SOL     OW19936   6.881   4.517   3.884
 6346SOL    HW119937   6.899   4.522   3.983
 6346SOL    HW219938   6.967   4.499   3.836
 6347SOL     OW19939   2.453   0.203   0.752
 6347SOL    HW119940   2.428   0.112   0.720
 6347SOL    HW219941   2.374   0.246   0.797
 6348SOL     OW19942   1.714   4.031   4.997
 6348SOL    HW119943   1.749   3.988   5.080
 6348SOL    HW219944   1.760   4.119   4.983
 6349SOL     OW19945   3.375   0.352   1.068
 6349SOL    HW119946   3.332   0.276   1.019
 6349SOL    HW219947   3.303   0.412   1.104
 6350SOL     OW19948   2.518   4.917   3.858
 6350SOL    HW119949   2.614   4.929   3.883
 6350SOL    HW219950   2.482   4.835   3.903
 6351SOL     OW19951   6.604   3.539   3.220
 6351SOL    HW119952   6.611   3.463   3.155
 6351SOL    HW219953   6.535   3.517   3.290
 6352SOL     OW19954   3.396   5.315   5.445
 6352SOL    HW119955   3.382   5.334   5.347
 6352SOL    HW219956   3.348   5.383   5.499
 6353SOL     OW19957   0.624   0.470   5.675
 6353SOL    HW119958   0.665   0.447   5.763
 6353SOL    HW219959   0.591   0.564   5.677
 6354SOL     OW19960   1.750   5.907   3.195
 6354SOL    HW119961   1.818   5.967   3.236
 6354SOL    HW219962   1.782   5.812   3.199
 6355SOL     OW19963   1.066   5.652   6.258
 6355SOL    HW119964   1.093   5.720   6.326
 6355SOL    HW219965   0.986   5.602   6.290
 6356SOL     OW19966   3.840   5.109   2.593
 6356SOL    HW119967   3.914   5.053   2.629
 6356SOL    HW219968   3.870   5.156   2.510
 6357SOL     OW19969   5.148   3.268   2.135
 6357SOL    HW119970   5.070   3.205   2.142
 6357SOL    HW219971   5.180   3.290   2.227
 6358SOL     OW19972   1.341   2.140   6.410
 6358SOL    HW119973   1.328   2.118   6.507
 6358SOL    HW219974   1.435   2.118   6.384
 6359SOL     OW19975   6.441   6.414   6.011
 6359SOL    HW119976   6.531   6.420   5.967
 6359SOL    HW219977   6.448   6.451   6.104
 6360SOL     OW19978   1.365   4.006   3.812
 6360SOL    HW119979   1.300   4.043   3.745
 6360SOL    HW219980   1.344   3.910   3.829
 6361SOL     OW19981   5.933   0.163   0.598
 6361SOL    HW119982   5.939   0.064   0.609
 6361SOL    HW219983   5.838   0.192   0.610
 6362SOL     OW19984   0.450   6.148   0.638
 6362SOL    HW119985   0.396   6.140   0.722
 6362SOL    HW219986   0.529   6.087   0.643
 6363SOL     OW19987   2.147   4.303   3.631
 6363SOL    HW119988   2.076   4.326   3.697
 6363SOL    HW219989   2.231   4.353   3.654
 6364SOL     OW19990   2.777   1.158   5.942
 6364SOL    HW119991   2.688   1.198   5.961
 6364SOL    HW219992   2.776   1.061   5.966
 6365SOL     OW19993   5.604   0.401   4.277
 6365SOL    HW119994   5.512   0.366   4.296
 6365SOL    HW219995   5.609   0.497   4.307
 6366SOL     OW19996   1.029   5.913   6.199
 6366SOL    HW119997   0.995   5.944   6.110
 6366SOL    HW219998   1.024   5.813   6.204
 6367SOL     OW19999   4.274   0.103   4.846
 6367SOL    HW120000   4.368   0.111   4.814
 6367SOL    HW220001   4.237   0.194   4.863
 6368SOL     OW20002   3.505   5.382   3.592
 6368SOL    HW120003   3.567   5.304   3.600
 6368SOL    HW220004   3.474   5.392   3.498
 6369SOL     OW20005   1.661   4.822   3.892
 6369SOL    HW120006   1.607   4.780   3.819
 6369SOL    HW220007   1.758   4.809   3.872
 6370SOL     OW20008   0.502   3.215   2.637
 6370SOL    HW120009   0.496   3.119   2.663
 6370SOL    HW220010   0.427   3.237   2.574
 6371SOL     OW20011   5.176   3.749   4.476
 6371SOL    HW120012   5.268   3.711   4.481
 6371SOL    HW220013   5.137   3.754   4.568
 6372SOL     OW20014   3.148   0.407   1.925
 6372SOL    HW120015   3.068   0.355   1.956
 6372SOL    HW220016   3.120   0.472   1.854
 6373SOL     OW20017   5.413   4.405   3.634
 6373SOL    HW120018   5.419   4.447   3.544
 6373SOL    HW220019   5.490   4.343   3.647
 6374SOL     OW20020   3.149   3.954   4.445
 6374SOL    HW120021   3.170   3.948   4.542
 6374SOL    HW220022   3.074   3.892   4.423
 6375SOL     OW20023   6.556   1.585   4.046
 6375SOL    HW120024   6.620   1.636   4.103
 6375SOL    HW220025   6.523   1.643   3.972
 6376SOL     OW20026   6.595   2.832   5.129
 6376SOL    HW120027   6.511   2.887   5.128
 6376SOL    HW220028   6.674   2.893   5.131
 6377SOL     OW20029   6.171   1.478   5.362
 6377SOL    HW120030   6.163   1.495   5.460
 6377SOL    HW220031   6.126   1.552   5.311
 6378SOL     OW20032   5.190   5.418   4.204
 6378SOL    HW120033   5.241   5.504   4.195
 6378SOL    HW220034   5.097   5.431   4.170
 6379SOL     OW20035   2.389   4.281   4.154
 6379SOL    HW120036   2.437   4.319   4.075
 6379SOL    HW220037   2.413   4.331   4.236
 6380SOL     OW20038   0.877   1.684   6.346
 6380SOL    HW120039   0.912   1.762   6.294
 6380SOL    HW220040   0.798   1.713   6.400
 6381SOL     OW20041   4.023   3.094   2.383
 6381SOL    HW120042   4.057   3.166   2.323
 6381SOL    HW220043   3.964   3.032   2.332
 6382SOL     OW20044   1.117   2.138   0.815
 6382SOL    HW120045   1.169   2.222   0.799
 6382SOL    HW220046   1.137   2.103   0.906
 6383SOL     OW20047   1.525   2.224   2.924
 6383SOL    HW120048   1.597   2.293   2.931
 6383SOL    HW220049   1.566   2.133   2.928
 6384SOL     OW20050   5.460   4.369   1.413
 6384SOL    HW120051   5.361   4.375   1.400
 6384SOL    HW220052   5.481   4.299   1.481
 6385SOL     OW20053   6.744   4.713   3.727
 6385SOL    HW120054   6.816   4.752   3.670
 6385SOL    HW220055   6.778   4.631   3.773
 6386SOL     OW20056   2.832   4.630   6.421
 6386SOL    HW120057   2.844   4.575   6.503
 6386SOL    HW220058   2.743   4.677   6.425
 6387SOL     OW20059   0.635   1.977   6.780
 6387SOL    HW120060   0.649   2.048   6.711
 6387SOL    HW220061   0.585   2.015   6.858
 6388SOL     OW20062   4.334   4.645   1.224
 6388SOL    HW120063   4.314   4.627   1.128
 6388SOL    HW220064   4.257   4.694   1.265
 6389SOL     OW20065   1.171   6.446   2.824
 6389SOL    HW120066   1.080   6.405   2.825
 6389SOL    HW220067   1.185   6.496   2.738
 6390SOL     OW20068   0.912   1.877   5.067
 6390SOL    HW120069   0.869   1.909   4.983
 6390SOL    HW220070   0.853   1.808   5.110
 6391SOL     OW20071   2.585   6.585   5.509
 6391SOL    HW120072   2.520   6.593   5.433
 6391SOL    HW220073   2.546   6.626   5.591
 6392SOL     OW20074   2.289   6.920   3.311
 6392SOL    HW120075   2.285   6.821   3.306
 6392SOL    HW220076   2.367   6.948   3.367
 6393SOL     OW20077   6.247   0.053   1.509
 6393SOL    HW120078   6.298   0.112   1.573
 6393SOL    HW220079   6.183   0.109   1.456
 6394SOL     OW20080   2.578   4.541   0.743
 6394SOL    HW120081   2.505   4.544   0.675
 6394SOL    HW220082   2.558   4.468   0.809
 6395SOL     OW20083   6.270   2.714   1.775
 6395SOL    HW120084   6.179   2.718   1.816
 6395SOL    HW220085   6.336   2.685   1.843
 6396SOL     OW20086   5.533   3.256   6.319
 6396SOL    HW120087   5.525   3.318   6.396
 6396SOL    HW220088   5.614   3.199   6.331
 6397SOL     OW20089   5.723   2.748   6.511
 6397SOL    HW120090   5.680   2.733   6.600
 6397SOL    HW220091   5.764   2.839   6.510
 6398SOL     OW20092   2.967   0.847   0.866
 6398SOL    HW120093   3.026   0.815   0.793
 6398SOL    HW220094   2.990   0.942   0.888
 6399SOL     OW20095   1.642   5.509   6.787
 6399SOL    HW120096   1.644   5.551   6.877
 6399SOL    HW220097   1.566   5.444   6.782
 6400SOL     OW20098   2.225   6.365   2.268
 6400SOL    HW120099   2.222   6.369   2.168
 6400SOL    HW220100   2.318   6.380   2.300
 6401SOL     OW20101   0.522   4.647   3.578
 6401SOL    HW120102   0.562   4.710   3.644
 6401SOL    HW220103   0.593   4.616   3.515
 6402SOL     OW20104   4.271   1.569   2.775
 6402SOL    HW120105   4.180   1.611   2.781
 6402SOL    HW220106   4.325   1.616   2.706
 6403SOL     OW20107   6.804   6.347   6.175
 6403SOL    HW120108   6.812   6.414   6.249
 6403SOL    HW220109   6.806   6.255   6.214
 6404SOL     OW20110   3.817   1.262   2.606
 6404SOL    HW120111   3.885   1.245   2.677
 6404SOL    HW220112   3.861   1.304   2.527
 6405SOL     OW20113   2.619   0.193   3.725
 6405SOL    HW120114   2.699   0.178   3.782
 6405SOL    HW220115   2.641   0.174   3.629
 6406SOL     OW20116   1.275   2.579   3.466
 6406SOL    HW120117   1.335   2.554   3.389
 6406SOL    HW220118   1.241   2.495   3.509
 6407SOL     OW20119   2.902   6.544   3.842
 6407SOL    HW120120   2.991   6.553   3.797
 6407SOL    HW220121   2.859   6.634   3.849
 6408SOL     OW20122   5.763   2.275   0.375
 6408SOL    HW120123   5.793   2.260   0.469
 6408SOL    HW220124   5.708   2.358   0.370
 6409SOL     OW20125   0.409   4.619   3.082
 6409SOL    HW120126   0.382   4.539   3.136
 6409SOL    HW220127   0.328   4.675   3.063
 6410SOL     OW20128   2.016   1.781   0.682
 6410SOL    HW120129   1.928   1.744   0.712
 6410SOL    HW220130   2.008   1.811   0.587
 6411SOL     OW20131   0.580   2.982   3.401
 6411SOL    HW120132   0.506   2.939   3.350
 6411SOL    HW220133   0.618   3.058   3.349
 6412SOL     OW20134   0.233   2.170   5.503
 6412SOL    HW120135   0.218   2.269   5.501
 6412SOL    HW220136   0.321   2.150   5.545
 6413SOL     OW20137   4.359   5.054   3.578
 6413SOL    HW120138   4.325   4.970   3.537
 6413SOL    HW220139   4.413   5.033   3.659
 6414SOL     OW20140   5.628   0.919   0.732
 6414SOL    HW120141   5.565   0.987   0.769
 6414SOL    HW220142   5.687   0.886   0.806
 6415SOL     OW20143   2.171   2.499   3.269
 6415SOL    HW120144   2.098   2.492   3.337
 6415SOL    HW220145   2.225   2.414   3.270
 6416SOL     OW20146   0.919   1.195   6.183
 6416SOL    HW120147   0.899   1.164   6.276
 6416SOL    HW220148   0.835   1.198   6.129
 6417SOL     OW20149   6.797   4.759   2.317
 6417SOL    HW120150   6.813   4.717   2.227
 6417SOL    HW220151   6.779   4.856   2.306
 6418SOL     OW20152   4.693   4.707   2.140
 6418SOL    HW120153   4.775   4.657   2.166
 6418SOL    HW220154   4.616   4.643   2.130
 6419SOL     OW20155   2.506   4.493   2.554
 6419SOL    HW120156   2.475   4.423   2.618
 6419SOL    HW220157   2.426   4.538   2.513
 6420SOL     OW20158   2.995   3.911   5.461
 6420SOL    HW120159   3.010   3.813   5.470
 6420SOL    HW220160   2.933   3.929   5.385
 6421SOL     OW20161   5.688   0.836   2.734
 6421SOL    HW120162   5.605   0.794   2.698
 6421SOL    HW220163   5.767   0.783   2.703
 6422SOL     OW20164   0.338   0.560   3.563
 6422SOL    HW120165   0.391   0.476   3.577
 6422SOL    HW220166   0.353   0.622   3.639
 6423SOL     OW20167   5.033   4.990   2.664
 6423SOL    HW120168   5.052   5.046   2.745
 6423SOL    HW220169   4.950   4.937   2.680
 6424SOL     OW20170   6.772   5.934   5.735
 6424SOL    HW120171   6.764   5.978   5.824
 6424SOL    HW220172   6.688   5.884   5.714
 6425SOL     OW20173   6.168   5.652   3.197
 6425SOL    HW120174   6.172   5.715   3.119
 6425SOL    HW220175   6.139   5.562   3.165
 6426SOL     OW20176   0.620   4.819   3.024
 6426SOL    HW120177   0.547   4.751   3.033
 6426SOL    HW220178   0.696   4.795   3.083
 6427SOL     OW20179   2.464   2.880   5.649
 6427SOL    HW120180   2.529   2.823   5.599
 6427SOL    HW220181   2.423   2.946   5.586
 6428SOL     OW20182   6.397   3.162   6.870
 6428SOL    HW120183   6.307   3.130   6.898
 6428SOL    HW220184   6.398   3.262   6.867
 6429SOL     OW20185   1.184   1.700   5.784
 6429SOL    HW120186   1.089   1.700   5.754
 6429SOL    HW220187   1.239   1.646   5.722
 6430SOL     OW20188   5.564   1.103   1.976
 6430SOL    HW120189   5.587   1.131   1.883
 6430SOL    HW220190   5.574   1.003   1.984
 6431SOL     OW20191   5.047   6.524   3.438
 6431SOL    HW120192   5.129   6.480   3.401
 6431SOL    HW220193   5.071   6.573   3.522
 6432SOL     OW20194   3.919   3.629   6.491
 6432SOL    HW120195   3.969   3.697   6.544
 6432SOL    HW220196   3.862   3.675   6.424
 6433SOL     OW20197   3.500   4.333   0.608
 6433SOL    HW120198   3.502   4.381   0.696
 6433SOL    HW220199   3.460   4.394   0.538
 6434SOL     OW20200   1.729   3.758   6.972
 6434SOL    HW120201   1.809   3.698   6.985
 6434SOL    HW220202   1.668   3.717   6.904
 6435SOL     OW20203   4.379   6.378   0.089
 6435SOL    HW120204   4.416   6.344   0.176
 6435SOL    HW220205   4.448   6.433   0.043
 6436SOL     OW20206   2.045   3.018   3.658
 6436SOL    HW120207   1.945   3.009   3.651
 6436SOL    HW220208   2.084   3.020   3.566
 6437SOL     OW20209   2.751   1.255   1.125
 6437SOL    HW120210   2.709   1.314   1.194
 6437SOL    HW220211   2.800   1.180   1.170
 6438SOL     OW20212   0.350   4.435   6.058
 6438SOL    HW120213   0.444   4.404   6.040
 6438SOL    HW220214   0.329   4.423   6.155
 6439SOL     OW20215   5.939   1.169   1.512
 6439SOL    HW120216   6.028   1.193   1.551
 6439SOL    HW220217   5.953   1.111   1.431
 6440SOL     OW20218   2.345   1.783   0.378
 6440SOL    HW120219   2.402   1.857   0.414
 6440SOL    HW220220   2.342   1.709   0.445
 6441SOL     OW20221   1.248   6.616   2.611
 6441SOL    HW120222   1.336   6.663   2.608
 6441SOL    HW220223   1.230   6.573   2.522
 6442SOL     OW20224   2.963   1.074   4.039
 6442SOL    HW120225   2.922   1.071   4.130
 6442SOL    HW220226   3.058   1.106   4.046
 6443SOL     OW20227   4.114   2.398   6.186
 6443SOL    HW120228   4.123   2.307   6.145
 6443SOL    HW220229   4.081   2.462   6.117
 6444SOL     OW20230   6.710   2.476   3.681
 6444SOL    HW120231   6.711   2.575   3.674
 6444SOL    HW220232   6.787   2.445   3.737
 6445SOL     OW20233   5.071   3.098   5.995
 6445SOL    HW120234   5.093   3.186   5.953
 6445SOL    HW220235   5.003   3.050   5.940
 6446SOL     OW20236   1.231   0.852   5.666
 6446SOL    HW120237   1.177   0.882   5.587
 6446SOL    HW220238   1.172   0.840   5.745
 6447SOL     OW20239   0.535   5.386   2.714
 6447SOL    HW120240   0.599   5.385   2.637
 6447SOL    HW220241   0.580   5.426   2.794
 6448SOL     OW20242   5.178   5.346   2.937
 6448SOL    HW120243   5.170   5.433   2.987
 6448SOL    HW220244   5.266   5.304   2.958
 6449SOL     OW20245   3.049   5.017   0.394
 6449SOL    HW120246   2.958   5.057   0.405
 6449SOL    HW220247   3.042   4.917   0.400
 6450SOL     OW20248   0.140   3.830   1.592
 6450SOL    HW120249   0.065   3.837   1.659
 6450SOL    HW220250   0.117   3.883   1.510
 6451SOL     OW20251   2.407   6.990   5.120
 6451SOL    HW120252   2.452   6.974   5.207
 6451SOL    HW220253   2.310   6.965   5.126
 6452SOL     OW20254   3.408   6.612   4.438
 6452SOL    HW120255   3.444   6.550   4.369
 6452SOL    HW220256   3.391   6.562   4.523
 6453SOL     OW20257   1.381   6.586   0.659
 6453SOL    HW120258   1.295   6.605   0.612
 6453SOL    HW220259   1.458   6.610   0.600
 6454SOL     OW20260   2.641   1.619   3.404
 6454SOL    HW120261   2.732   1.609   3.445
 6454SOL    HW220262   2.572   1.616   3.476
 6455SOL     OW20263   0.348   2.262   4.072
 6455SOL    HW120264   0.425   2.200   4.088
 6455SOL    HW220265   0.344   2.330   4.145
 6456SOL     OW20266   1.781   0.785   3.196
 6456SOL    HW120267   1.792   0.855   3.125
 6456SOL    HW220268   1.857   0.791   3.260
 6457SOL     OW20269   4.761   1.774   0.539
 6457SOL    HW120270   4.787   1.678   0.543
 6457SOL    HW220271   4.739   1.807   0.631
 6458SOL     OW20272   0.856   0.003   3.424
 6458SOL    HW120273   0.894   6.996   3.513
 6458SOL    HW220274   0.757   0.011   3.430
 6459SOL     OW20275   5.564   5.317   0.480
 6459SOL    HW120276   5.502   5.375   0.428
 6459SOL    HW220277   5.588   5.362   0.566
 6460SOL     OW20278   4.836   5.443   5.791
 6460SOL    HW120279   4.779   5.467   5.870
 6460SOL    HW220280   4.847   5.344   5.787
 6461SOL     OW20281   2.789   4.639   5.429
 6461SOL    HW120282   2.702   4.627   5.381
 6461SOL    HW220283   2.863   4.600   5.374
 6462SOL     OW20284   2.230   2.747   5.020
 6462SOL    HW120285   2.280   2.833   5.009
 6462SOL    HW220286   2.295   2.672   5.028
 6463SOL     OW20287   0.198   3.903   6.956
 6463SOL    HW120288   0.150   3.819   6.933
 6463SOL    HW220289   0.204   3.912   0.041
 6464SOL     OW20290   1.394   4.980   4.853
 6464SOL    HW120291   1.383   5.042   4.775
 6464SOL    HW220292   1.307   4.971   4.901
 6465SOL     OW20293   6.690   2.599   3.310
 6465SOL    HW120294   6.739   2.522   3.352
 6465SOL    HW220295   6.740   2.683   3.326
 6466SOL     OW20296   0.856   1.642   6.718
 6466SOL    HW120297   0.954   1.650   6.736
 6466SOL    HW220298   0.838   1.556   6.671
 6467SOL     OW20299   3.201   0.707   7.010
 6467SOL    HW120300   3.159   0.771   0.059
 6467SOL    HW220301   3.291   0.740   6.984
 6468SOL     OW20302   4.420   0.006   1.622
 6468SOL    HW120303   4.426   0.063   1.704
 6468SOL    HW220304   4.362   6.942   1.641
 6469SOL     OW20305   4.116   0.533   5.439
 6469SOL    HW120306   4.204   0.580   5.445
 6469SOL    HW220307   4.043   0.600   5.426
 6470SOL     OW20308   6.119   4.775   6.674
 6470SOL    HW120309   6.137   4.838   6.749
 6470SOL    HW220310   6.203   4.759   6.623
 6471SOL     OW20311   6.388   5.958   5.693
 6471SOL    HW120312   6.338   6.044   5.684
 6471SOL    HW220313   6.407   5.920   5.603
 6472SOL     OW20314   0.583   4.714   1.250
 6472SOL    HW120315   0.503   4.747   1.300
 6472SOL    HW220316   0.552   4.660   1.171
 6473SOL     OW20317   2.676   1.647   4.160
 6473SOL    HW120318   2.676   1.631   4.061
 6473SOL    HW220319   2.697   1.743   4.178
 6474SOL     OW20320   1.783   3.896   5.993
 6474SOL    HW120321   1.868   3.944   5.973
 6474SOL    HW220322   1.709   3.962   6.002
 6475SOL     OW20323   6.681   5.196   4.522
 6475SOL    HW120324   6.719   5.187   4.430
 6475SOL    HW220325   6.590   5.153   4.525
 6476SOL     OW20326   4.408   3.236   1.137
 6476SOL    HW120327   4.377   3.157   1.084
 6476SOL    HW220328   4.491   3.213   1.187
 6477SOL     OW20329   6.161   4.870   1.272
 6477SOL    HW120330   6.185   4.967   1.269
 6477SOL    HW220331   6.235   4.818   1.314
 6478SOL     OW20332   3.704   6.436   2.313
 6478SOL    HW120333   3.791   6.417   2.267
 6478SOL    HW220334   3.698   6.534   2.333
 6479SOL     OW20335   3.946   6.132   3.781
 6479SOL    HW120336   4.045   6.132   3.799
 6479SOL    HW220337   3.898   6.105   3.864
 6480SOL     OW20338   3.290   2.077   5.747
 6480SOL    HW120339   3.204   2.095   5.795
 6480SOL    HW220340   3.366   2.113   5.800
 6481SOL     OW20341   3.486   2.017   2.123
 6481SOL    HW120342   3.394   2.044   2.150
 6481SOL    HW220343   3.538   2.097   2.094
 6482SOL     OW20344   0.747   0.432   5.929
 6482SOL    HW120345   0.800   0.512   5.955
 6482SOL    HW220346   0.661   0.431   5.981
 6483SOL     OW20347   1.456   6.042   1.463
 6483SOL    HW120348   1.546   5.998   1.466
 6483SOL    HW220349   1.458   6.118   1.398
 6484SOL     OW20350   3.619   0.163   1.531
 6484SOL    HW120351   3.663   0.187   1.617
 6484SOL    HW220352   3.658   0.218   1.457
 6485SOL     OW20353   1.986   4.201   3.243
 6485SOL    HW120354   1.912   4.135   3.233
 6485SOL    HW220355   2.074   4.153   3.240
 6486SOL     OW20356   1.959   4.216   4.505
 6486SOL    HW120357   2.046   4.171   4.523
 6486SOL    HW220358   1.969   4.278   4.427
 6487SOL     OW20359   0.105   6.079   5.563
 6487SOL    HW120360   0.016   6.092   5.519
 6487SOL    HW220361   0.108   5.989   5.606
 6488SOL     OW20362   3.374   6.105   5.686
 6488SOL    HW120363   3.374   6.022   5.743
 6488SOL    HW220364   3.468   6.133   5.669
 6489SOL     OW20365   2.541   3.202   6.491
 6489SOL    HW120366   2.494   3.180   6.406
 6489SOL    HW220367   2.614   3.135   6.507
 6490SOL     OW20368   4.358   1.789   6.059
 6490SOL    HW120369   4.319   1.874   6.094
 6490SOL    HW220370   4.455   1.802   6.040
 6491SOL     OW20371   3.909   1.245   6.684
 6491SOL    HW120372   3.865   1.212   6.767
 6491SOL    HW220373   4.008   1.237   6.693
 6492SOL     OW20374   5.078   5.856   0.110
 6492SOL    HW120375   5.000   5.901   0.155
 6492SOL    HW220376   5.113   5.784   0.170
 6493SOL     OW20377   0.890   5.504   4.561
 6493SOL    HW120378   0.967   5.466   4.611
 6493SOL    HW220379   0.847   5.432   4.507
 6494SOL     OW20380   0.778   0.994   3.353
 6494SOL    HW120381   0.728   1.076   3.323
 6494SOL    HW220382   0.726   0.913   3.326
 6495SOL     OW20383   4.832   6.183   4.503
 6495SOL    HW120384   4.785   6.116   4.559
 6495SOL    HW220385   4.797   6.181   4.410
 6496SOL     OW20386   0.143   6.911   2.084
 6496SOL    HW120387   0.110   7.005   2.093
 6496SOL    HW220388   0.125   6.862   2.169
 6497SOL     OW20389   2.519   3.095   0.258
 6497SOL    HW120390   2.546   3.043   0.178
 6497SOL    HW220391   2.595   3.154   0.287
 6498SOL     OW20392   2.283   4.173   3.866
 6498SOL    HW120393   2.192   4.168   3.824
 6498SOL    HW220394   2.279   4.130   3.957
 6499SOL     OW20395   5.306   1.911   4.566
 6499SOL    HW120396   5.267   1.996   4.530
 6499SOL    HW220397   5.238   1.864   4.622
 6500SOL     OW20398   0.019   4.693   3.592
 6500SOL    HW120399   0.093   4.655   3.648
 6500SOL    HW220400   6.996   4.621   3.535
 6501SOL     OW20401   6.555   2.951   6.757
 6501SOL    HW120402   6.515   3.033   6.799
 6501SOL    HW220403   6.538   2.953   6.658
 6502SOL     OW20404   6.003   3.858   1.733
 6502SOL    HW120405   6.002   3.957   1.752
 6502SOL    HW220406   5.959   3.809   1.809
 6503SOL     OW20407   5.192   0.818   3.470
 6503SOL    HW120408   5.139   0.896   3.503
 6503SOL    HW220409   5.209   0.755   3.547
 6504SOL     OW20410   5.048   6.702   6.397
 6504SOL    HW120411   5.121   6.661   6.451
 6504SOL    HW220412   5.071   6.696   6.300
 6505SOL     OW20413   5.346   4.999   1.727
 6505SOL    HW120414   5.291   4.938   1.784
 6505SOL    HW220415   5.325   4.983   1.631
 6506SOL     OW20416   6.251   3.498   1.439
 6506SOL    HW120417   6.309   3.438   1.494
 6506SOL    HW220418   6.165   3.514   1.488
 6507SOL     OW20419   2.043   5.265   5.739
 6507SOL    HW120420   1.990   5.272   5.824
 6507SOL    HW220421   2.050   5.356   5.698
 6508SOL     OW20422   2.603   0.452   2.917
 6508SOL    HW120423   2.569   0.536   2.961
 6508SOL    HW220424   2.696   0.467   2.883
 6509SOL     OW20425   3.137   2.066   4.147
 6509SOL    HW120426   3.092   2.122   4.077
 6509SOL    HW220427   3.078   1.988   4.170
 6510SOL     OW20428   6.496   4.293   6.981
 6510SOL    HW120429   6.397   4.281   6.988
 6510SOL    HW220430   6.517   4.340   6.895
 6511SOL     OW20431   4.778   0.760   4.679
 6511SOL    HW120432   4.753   0.737   4.774
 6511SOL    HW220433   4.703   0.810   4.636
 6512SOL     OW20434   5.116   6.892   1.911
 6512SOL    HW120435   5.142   6.971   1.966
 6512SOL    HW220436   5.101   6.921   1.816
 6513SOL     OW20437   3.285   4.971   2.964
 6513SOL    HW120438   3.214   4.917   2.920
 6513SOL    HW220439   3.374   4.929   2.947
 6514SOL     OW20440   5.663   0.848   3.641
 6514SOL    HW120441   5.683   0.944   3.659
 6514SOL    HW220442   5.745   0.793   3.659
 6515SOL     OW20443   0.693   4.914   4.087
 6515SOL    HW120444   0.683   4.822   4.049
 6515SOL    HW220445   0.721   4.976   4.015
 6516SOL     OW20446   0.278   3.199   1.475
 6516SOL    HW120447   0.277   3.242   1.565
 6516SOL    HW220448   0.357   3.138   1.467
 6517SOL     OW20449   6.949   0.940   0.314
 6517SOL    HW120450   0.027   0.902   0.306
 6517SOL    HW220451   6.941   0.988   0.402
 6518SOL     OW20452   6.777   0.409   0.034
 6518SOL    HW120453   6.829   0.388   0.117
 6518SOL    HW220454   6.723   0.492   0.050
 6519SOL     OW20455   2.468   1.782   3.701
 6519SOL    HW120456   2.425   1.696   3.674
 6519SOL    HW220457   2.513   1.823   3.621
 6520SOL     OW20458   5.404   5.576   2.141
 6520SOL    HW120459   5.452   5.662   2.127
 6520SOL    HW220460   5.313   5.582   2.100
 6521SOL     OW20461   1.636   2.343   4.247
 6521SOL    HW120462   1.593   2.261   4.208
 6521SOL    HW220463   1.567   2.414   4.259
 6522SOL     OW20464   3.668   4.393   6.852
 6522SOL    HW120465   3.684   4.485   6.817
 6522SOL    HW220466   3.622   4.339   6.782
 6523SOL     OW20467   3.282   0.752   6.547
 6523SOL    HW120468   3.381   0.749   6.560
 6523SOL    HW220469   3.245   0.659   6.549
 6524SOL     OW20470   2.993   3.193   2.222
 6524SOL    HW120471   2.899   3.159   2.228
 6524SOL    HW220472   2.999   3.264   2.152
 6525SOL     OW20473   1.466   3.659   3.346
 6525SOL    HW120474   1.540   3.676   3.411
 6525SOL    HW220475   1.385   3.627   3.396
 6526SOL     OW20476   2.243   0.394   6.081
 6526SOL    HW120477   2.203   0.311   6.042
 6526SOL    HW220478   2.285   0.449   6.009
 6527SOL     OW20479   1.038   2.350   4.624
 6527SOL    HW120480   1.007   2.434   4.669
 6527SOL    HW220481   1.065   2.371   4.530
 6528SOL     OW20482   0.238   0.969   3.795
 6528SOL    HW120483   0.239   0.870   3.792
 6528SOL    HW220484   0.332   1.003   3.793
 6529SOL     OW20485   6.952   1.689   3.179
 6529SOL    HW120486   6.902   1.708   3.095
 6529SOL    HW220487   6.983   1.594   3.177
 6530SOL     OW20488   6.330   3.751   1.928
 6530SOL    HW120489   6.362   3.724   1.838
 6530SOL    HW220490   6.382   3.703   1.999
 6531SOL     OW20491   5.540   3.709   4.756
 6531SOL    HW120492   5.534   3.625   4.809
 6531SOL    HW220493   5.630   3.715   4.712
 6532SOL     OW20494   6.203   0.331   6.691
 6532SOL    HW120495   6.239   0.334   6.784
 6532SOL    HW220496   6.123   0.271   6.687
 6533SOL     OW20497   4.650   6.195   0.933
 6533SOL    HW120498   4.669   6.288   0.963
 6533SOL    HW220499   4.597   6.147   1.003
 6534SOL     OW20500   3.389   4.431   1.229
 6534SOL    HW120501   3.408   4.462   1.322
 6534SOL    HW220502   3.417   4.335   1.220
 6535SOL     OW20503   6.492   3.003   3.876
 6535SOL    HW120504   6.453   3.005   3.784
 6535SOL    HW220505   6.522   2.910   3.897
 6536SOL     OW20506   0.832   2.014   5.743
 6536SOL    HW120507   0.895   2.002   5.666
 6536SOL    HW220508   0.777   1.931   5.754
 6537SOL     OW20509   5.430   5.521   0.101
 6537SOL    HW120510   5.507   5.470   0.063
 6537SOL    HW220511   5.356   5.524   0.035
 6538SOL     OW20512   3.308   4.251   0.007
 6538SOL    HW120513   3.314   4.177   6.956
 6538SOL    HW220514   3.394   4.257   0.058
 6539SOL     OW20515   3.677   0.656   5.929
 6539SOL    HW120516   3.733   0.689   5.853
 6539SOL    HW220517   3.669   0.557   5.924
 6540SOL     OW20518   4.782   1.563   5.150
 6540SOL    HW120519   4.858   1.564   5.216
 6540SOL    HW220520   4.797   1.632   5.080
 6541SOL     OW20521   3.697   1.314   4.942
 6541SOL    HW120522   3.677   1.274   4.852
 6541SOL    HW220523   3.636   1.392   4.957
 6542SOL     OW20524   0.077   4.396   3.633
 6542SOL    HW120525   0.152   4.383   3.569
 6542SOL    HW220526   0.108   4.375   3.726
 6543SOL     OW20527   6.302   3.901   6.660
 6543SOL    HW120528   6.303   3.925   6.563
 6543SOL    HW220529   6.394   3.874   6.689
 6544SOL     OW20530   0.443   6.546   2.934
 6544SOL    HW120531   0.521   6.515   2.988
 6544SOL    HW220532   0.358   6.517   2.978
 6545SOL     OW20533   5.687   2.298   6.589
 6545SOL    HW120534   5.709   2.290   6.686
 6545SOL    HW220535   5.711   2.389   6.556
 6546SOL     OW20536   3.833   4.042   6.743
 6546SOL    HW120537   3.846   4.045   6.842
 6546SOL    HW220538   3.918   4.068   6.698
 6547SOL     OW20539   4.702   1.357   5.714
 6547SOL    HW120540   4.652   1.437   5.746
 6547SOL    HW220541   4.748   1.378   5.628
 6548SOL     OW20542   0.856   3.167   0.310
 6548SOL    HW120543   0.817   3.129   0.393
 6548SOL    HW220544   0.782   3.200   0.251
 6549SOL     OW20545   4.126   1.411   0.818
 6549SOL    HW120546   4.167   1.425   0.908
 6549SOL    HW220547   4.156   1.322   0.782
 6550SOL     OW20548   0.635   6.384   3.849
 6550SOL    HW120549   0.691   6.447   3.904
 6550SOL    HW220550   0.538   6.400   3.869
 6551SOL     OW20551   1.877   4.532   2.183
 6551SOL    HW120552   1.977   4.524   2.183
 6551SOL    HW220553   1.851   4.624   2.152
 6552SOL     OW20554   2.383   6.998   5.453
 6552SOL    HW120555   2.326   6.935   5.506
 6552SOL    HW220556   2.360   0.078   5.478
 6553SOL     OW20557   0.802   1.610   2.783
 6553SOL    HW120558   0.831   1.520   2.816
 6553SOL    HW220559   0.880   1.657   2.743
 6554SOL     OW20560   6.433   1.575   5.886
 6554SOL    HW120561   6.378   1.498   5.854
 6554SOL    HW220562   6.522   1.542   5.917
 6555SOL     OW20563   0.518   2.255   2.108
 6555SOL    HW120564   0.609   2.293   2.093
 6555SOL    HW220565   0.466   2.259   2.023
 6556SOL     OW20566   4.431   4.739   5.325
 6556SOL    HW120567   4.340   4.767   5.293
 6556SOL    HW220568   4.455   4.793   5.407
 6557SOL     OW20569   4.076   5.454   1.704
 6557SOL    HW120570   4.148   5.385   1.714
 6557SOL    HW220571   4.060   5.498   1.792
 6558SOL     OW20572   6.140   5.275   0.089
 6558SOL    HW120573   6.178   5.188   0.120
 6558SOL    HW220574   6.092   5.320   0.165
 6559SOL     OW20575   6.170   4.364   6.764
 6559SOL    HW120576   6.165   4.448   6.818
 6559SOL    HW220577   6.229   4.379   6.685
 6560SOL     OW20578   3.925   4.159   1.405
 6560SOL    HW120579   3.895   4.136   1.312
 6560SOL    HW220580   3.995   4.095   1.435
 6561SOL     OW20581   3.683   4.115   2.296
 6561SOL    HW120582   3.654   4.209   2.312
 6561SOL    HW220583   3.690   4.099   2.197
 6562SOL     OW20584   5.654   4.814   0.053
 6562SOL    HW120585   5.624   4.825   0.148
 6562SOL    HW220586   5.593   4.749   0.007
 6563SOL     OW20587   0.162   6.127   0.222
 6563SOL    HW120588   0.216   6.211   0.213
 6563SOL    HW220589   0.151   6.085   0.132
 6564SOL     OW20590   6.608   3.957   2.717
 6564SOL    HW120591   6.606   4.010   2.802
 6564SOL    HW220592   6.566   3.868   2.733
 6565SOL     OW20593   6.341   2.475   4.282
 6565SOL    HW120594   6.424   2.528   4.302
 6565SOL    HW220595   6.309   2.496   4.190
 6566SOL     OW20596   2.820   6.342   1.791
 6566SOL    HW120597   2.786   6.288   1.714
 6566SOL    HW220598   2.774   6.313   1.875
 6567SOL     OW20599   3.980   2.847   1.192
 6567SOL    HW120600   3.916   2.810   1.261
 6567SOL    HW220601   3.950   2.938   1.165
 6568SOL     OW20602   4.811   6.599   3.401
 6568SOL    HW120603   4.900   6.560   3.424
 6568SOL    HW220604   4.744   6.573   3.471
 6569SOL     OW20605   3.055   4.076   0.531
 6569SOL    HW120606   3.111   4.139   0.585
 6569SOL    HW220607   2.999   4.020   0.592
 6570SOL     OW20608   4.533   6.336   2.154
 6570SOL    HW120609   4.464   6.264   2.165
 6570SOL    HW220610   4.610   6.301   2.100
 6571SOL     OW20611   2.679   6.210   1.601
 6571SOL    HW120612   2.669   6.236   1.505
 6571SOL    HW220613   2.702   6.112   1.606
 6572SOL     OW20614   0.012   5.835   5.650
 6572SOL    HW120615   0.009   5.807   5.554
 6572SOL    HW220616   6.934   5.853   5.682
 6573SOL     OW20617   2.636   1.430   2.108
 6573SOL    HW120618   2.736   1.436   2.102
 6573SOL    HW220619   2.603   1.353   2.053
 6574SOL     OW20620   3.063   6.034   2.279
 6574SOL    HW120621   3.029   5.950   2.236
 6574SOL    HW220622   3.050   6.111   2.216
 6575SOL     OW20623   0.655   1.022   2.172
 6575SOL    HW120624   0.671   0.931   2.134
 6575SOL    HW220625   0.734   1.051   2.225
 6576SOL     OW20626   1.671   6.600   6.248
 6576SOL    HW120627   1.581   6.559   6.238
 6576SOL    HW220628   1.668   6.672   6.317
 6577SOL     OW20629   0.854   2.382   3.858
 6577SOL    HW120630   0.863   2.321   3.779
 6577SOL    HW220631   0.789   2.455   3.838
 6578SOL     OW20632   0.704   4.226   2.455
 6578SOL    HW120633   0.801   4.242   2.472
 6578SOL    HW220634   0.655   4.221   2.542
 6579SOL     OW20635   0.415   3.649   4.732
 6579SOL    HW120636   0.387   3.557   4.704
 6579SOL    HW220637   0.460   3.645   4.821
 6580SOL     OW20638   6.563   1.484   1.360
 6580SOL    HW120639   6.529   1.394   1.385
 6580SOL    HW220640   6.496   1.531   1.302
 6581SOL     OW20641   3.255   1.354   6.705
 6581SOL    HW120642   3.292   1.268   6.739
 6581SOL    HW220643   3.241   1.417   6.781
 6582SOL     OW20644   1.695   0.978   2.195
 6582SOL    HW120645   1.749   1.062   2.204
 6582SOL    HW220646   1.755   0.899   2.197
 6583SOL     OW20647   4.491   0.138   5.079
 6583SOL    HW120648   4.423   0.069   5.103
 6583SOL    HW220649   4.476   0.168   4.985
 6584SOL     OW20650   4.837   1.789   6.792
 6584SOL    HW120651   4.848   1.838   6.879
 6584SOL    HW220652   4.900   1.827   6.725
 6585SOL     OW20653   6.594   0.589   6.761
 6585SOL    HW120654   6.642   0.512   6.721
 6585SOL    HW220655   6.520   0.556   6.820
 6586SOL     OW20656   6.346   2.693   5.843
 6586SOL    HW120657   6.278   2.685   5.916
 6586SOL    HW220658   6.399   2.608   5.838
 6587SOL     OW20659   2.637   5.834   4.883
 6587SOL    HW120660   2.723   5.870   4.847
 6587SOL    HW220661   2.561   5.888   4.849
 6588SOL     OW20662   1.542   4.068   1.467
 6588SOL    HW120663   1.447   4.043   1.451
 6588SOL    HW220664   1.597   3.985   1.479
 6589SOL     OW20665   4.739   0.358   6.850
 6589SOL    HW120666   4.729   0.329   6.945
 6589SOL    HW220667   4.737   0.458   6.845
 6590SOL     OW20668   0.884   1.216   5.839
 6590SOL    HW120669   0.876   1.118   5.821
 6590SOL    HW220670   0.796   1.252   5.871
 6591SOL     OW20671   4.860   6.104   2.648
 6591SOL    HW120672   4.942   6.120   2.703
 6591SOL    HW220673   4.858   6.168   2.572
 6592SOL     OW20674   5.725   6.798   3.918
 6592SOL    HW120675   5.730   6.709   3.873
 6592SOL    HW220676   5.659   6.856   3.871
 6593SOL     OW20677   2.229   1.539   3.891
 6593SOL    HW120678   2.271   1.627   3.912
 6593SOL    HW220679   2.194   1.540   3.797
 6594SOL     OW20680   3.929   1.530   0.162
 6594SOL    HW120681   3.897   1.551   0.255
 6594SOL    HW220682   3.914   1.433   0.143
 6595SOL     OW20683   0.769   3.350   0.911
 6595SOL    HW120684   0.714   3.322   0.832
 6595SOL    HW220685   0.857   3.301   0.910
 6596SOL     OW20686   2.964   6.634   4.498
 6596SOL    HW120687   3.006   6.696   4.432
 6596SOL    HW220688   3.006   6.646   4.587
 6597SOL     OW20689   1.879   6.365   3.354
 6597SOL    HW120690   1.923   6.418   3.427
 6597SOL    HW220691   1.795   6.323   3.389
 6598SOL     OW20692   0.952   0.139   4.201
 6598SOL    HW120693   0.994   0.229   4.183
 6598SOL    HW220694   0.916   0.137   4.295
 6599SOL     OW20695   3.571   5.882   5.634
 6599SOL    HW120696   3.533   5.815   5.571
 6599SOL    HW220697   3.624   5.950   5.583
 6600SOL     OW20698   4.829   5.018   5.992
 6600SOL    HW120699   4.840   5.047   5.897
 6600SOL    HW220700   4.915   4.981   6.026
 6601SOL     OW20701   0.572   1.510   6.383
 6601SOL    HW120702   0.580   1.603   6.418
 6601SOL    HW220703   0.481   1.497   6.344
 6602SOL     OW20704   6.923   1.130   2.134
 6602SOL    HW120705   6.924   1.176   2.223
 6602SOL    HW220706   6.829   1.104   2.112
 6603SOL     OW20707   0.548   2.867   4.334
 6603SOL    HW120708   0.630   2.868   4.276
 6603SOL    HW220709   0.526   2.960   4.363
 6604SOL     OW20710   2.542   6.825   0.415
 6604SOL    HW120711   2.576   6.789   0.328
 6604SOL    HW220712   2.520   6.922   0.404
 6605SOL     OW20713   5.693   4.471   1.300
 6605SOL    HW120714   5.620   4.407   1.325
 6605SOL    HW220715   5.734   4.442   1.214
 6606SOL     OW20716   5.154   0.156   2.621
 6606SOL    HW120717   5.193   0.075   2.664
 6606SOL    HW220718   5.207   0.237   2.647
 6607SOL     OW20719   1.893   2.322   1.558
 6607SOL    HW120720   1.902   2.335   1.460
 6607SOL    HW220721   1.823   2.383   1.594
 6608SOL     OW20722   4.810   5.751   2.186
 6608SOL    HW120723   4.880   5.679   2.192
 6608SOL    HW220724   4.772   5.768   2.277
 6609SOL     OW20725   4.676   0.857   6.093
 6609SOL    HW120726   4.665   0.758   6.104
 6609SOL    HW220727   4.702   0.878   5.999
 6610SOL     OW20728   2.574   1.515   6.079
 6610SOL    HW120729   2.671   1.489   6.080
 6610SOL    HW220730   2.556   1.577   6.156
 6611SOL     OW20731   5.993   3.075   4.090
 6611SOL    HW120732   5.896   3.052   4.101
 6611SOL    HW220733   6.049   2.996   4.116
 6612SOL     OW20734   0.001   2.618   0.024
 6612SOL    HW120735   7.004   2.537   6.982
 6612SOL    HW220736   6.927   2.651   0.055
 6613SOL     OW20737   6.220   6.056   4.724
 6613SOL    HW120738   6.303   6.010   4.692
 6613SOL    HW220739   6.163   5.991   4.774
 6614SOL     OW20740   5.593   5.950   6.980
 6614SOL    HW120741   5.654   5.917   6.908
 6614SOL    HW220742   5.589   5.883   0.039
 6615SOL     OW20743   0.753   4.705   3.469
 6615SOL    HW120744   0.756   4.784   3.530
 6615SOL    HW220745   0.736   4.736   3.375
 6616SOL     OW20746   4.395   1.374   5.814
 6616SOL    HW120747   4.419   1.287   5.855
 6616SOL    HW220748   4.452   1.447   5.852
 6617SOL     OW20749   3.429   5.463   3.358
 6617SOL    HW120750   3.494   5.538   3.342
 6617SOL    HW220751   3.337   5.500   3.369
 6618SOL     OW20752   1.193   3.164   2.969
 6618SOL    HW120753   1.167   3.200   2.880
 6618SOL    HW220754   1.198   3.238   3.036
 6619SOL     OW20755   6.898   0.117   4.773
 6619SOL    HW120756   6.862   0.209   4.756
 6619SOL    HW220757   6.876   0.090   4.867
 6620SOL     OW20758   2.426   2.532   5.317
 6620SOL    HW120759   2.366   2.480   5.256
 6620SOL    HW220760   2.411   2.630   5.302
 6621SOL     OW20761   2.023   3.085   6.456
 6621SOL    HW120762   1.971   3.006   6.425
 6621SOL    HW220763   1.969   3.168   6.443
 6622SOL     OW20764   5.959   6.239   1.481
 6622SOL    HW120765   5.958   6.139   1.486
 6622SOL    HW220766   6.020   6.275   1.552
 6623SOL     OW20767   2.500   3.652   0.424
 6623SOL    HW120768   2.428   3.588   0.449
 6623SOL    HW220769   2.491   3.676   0.327
 6624SOL     OW20770   1.624   0.336   4.394
 6624SOL    HW120771   1.592   0.406   4.330
 6624SOL    HW220772   1.614   0.369   4.488
 6625SOL     OW20773   5.656   1.708   5.912
 6625SOL    HW120774   5.606   1.750   5.836
 6625SOL    HW220775   5.738   1.761   5.931
 6626SOL     OW20776   3.969   4.727   5.221
 6626SOL    HW120777   4.045   4.791   5.227
 6626SOL    HW220778   3.999   4.636   5.249
 6627SOL     OW20779   2.500   1.198   5.958
 6627SOL    HW120780   2.516   1.115   5.904
 6627SOL    HW220781   2.477   1.274   5.897
 6628SOL     OW20782   4.752   4.671   4.359
 6628SOL    HW120783   4.812   4.733   4.308
 6628SOL    HW220784   4.688   4.724   4.415
 6629SOL     OW20785   3.027   5.934   6.759
 6629SOL    HW120786   3.009   5.850   6.810
 6629SOL    HW220787   3.066   5.911   6.670
 6630SOL     OW20788   3.177   1.604   1.677
 6630SOL    HW120789   3.202   1.699   1.659
 6630SOL    HW220790   3.227   1.571   1.758
 6631SOL     OW20791   3.650   0.406   2.557
 6631SOL    HW120792   3.730   0.429   2.612
 6631SOL    HW220793   3.677   0.400   2.460
 6632SOL     OW20794   0.545   6.550   2.300
 6632SOL    HW120795   0.605   6.627   2.322
 6632SOL    HW220796   0.540   6.488   2.378
 6633SOL     OW20797   1.054   3.949   5.491
 6633SOL    HW120798   1.110   3.964   5.572
 6633SOL    HW220799   1.089   4.003   5.415
 6634SOL     OW20800   6.039   2.930   4.502
 6634SOL    HW120801   6.122   2.985   4.507
 6634SOL    HW220802   6.064   2.835   4.480
 6635SOL     OW20803   3.875   4.875   3.342
 6635SOL    HW120804   3.944   4.906   3.277
 6635SOL    HW220805   3.786   4.870   3.296
 6636SOL     OW20806   3.962   1.649   5.443
 6636SOL    HW120807   3.930   1.623   5.534
 6636SOL    HW220808   4.002   1.569   5.398
 6637SOL     OW20809   1.847   0.699   5.726
 6637SOL    HW120810   1.798   0.631   5.781
 6637SOL    HW220811   1.783   0.745   5.665
 6638SOL     OW20812   3.450   4.086   4.755
 6638SOL    HW120813   3.373   4.123   4.807
 6638SOL    HW220814   3.535   4.120   4.794
 6639SOL     OW20815   5.248   5.324   6.897
 6639SOL    HW120816   5.346   5.345   6.897
 6639SOL    HW220817   5.234   5.230   6.866
 6640SOL     OW20818   0.758   1.295   4.808
 6640SOL    HW120819   0.786   1.295   4.712
 6640SOL    HW220820   0.658   1.300   4.814
 6641SOL     OW20821   2.287   2.135   0.118
 6641SOL    HW120822   2.375   2.127   0.164
 6641SOL    HW220823   2.273   2.056   0.059
 6642SOL     OW20824   2.542   5.785   6.982
 6642SOL    HW120825   2.472   5.853   7.002
 6642SOL    HW220826   2.623   5.830   6.945
 6643SOL     OW20827   6.588   5.127   6.517
 6643SOL    HW120828   6.642   5.152   6.598
 6643SOL    HW220829   6.501   5.178   6.518
 6644SOL     OW20830   3.099   4.787   2.065
 6644SOL    HW120831   3.168   4.798   1.993
 6644SOL    HW220832   3.036   4.713   2.041
 6645SOL     OW20833   6.952   5.247   0.065
 6645SOL    HW120834   6.852   5.252   0.068
 6645SOL    HW220835   6.982   5.238   6.985
 6646SOL     OW20836   4.226   6.968   4.325
 6646SOL    HW120837   4.154   6.947   4.391
 6646SOL    HW220838   4.295   6.895   4.326
 6647SOL     OW20839   4.234   0.536   2.328
 6647SOL    HW120840   4.191   0.555   2.240
 6647SOL    HW220841   4.332   0.521   2.314
 6648SOL     OW20842   3.264   5.616   2.503
 6648SOL    HW120843   3.257   5.521   2.470
 6648SOL    HW220844   3.301   5.673   2.430
 6649SOL     OW20845   4.916   1.389   0.187
 6649SOL    HW120846   4.981   1.323   0.150
 6649SOL    HW220847   4.850   1.416   0.116
 6650SOL     OW20848   3.125   1.197   4.917
 6650SOL    HW120849   3.085   1.237   4.834
 6650SOL    HW220850   3.214   1.239   4.934
 6651SOL     OW20851   2.028   1.342   6.452
 6651SOL    HW120852   2.095   1.366   6.381
 6651SOL    HW220853   1.985   1.425   6.486
 6652SOL     OW20854   6.251   5.025   0.164
 6652SOL    HW120855   6.325   5.062   0.221
 6652SOL    HW220856   6.198   4.960   0.218
 6653SOL     OW20857   3.249   3.095   2.120
 6653SOL    HW120858   3.219   3.070   2.212
 6653SOL    HW220859   3.347   3.075   2.110
 6654SOL     OW20860   1.527   3.111   1.261
 6654SOL    HW120861   1.515   3.018   1.227
 6654SOL    HW220862   1.617   3.146   1.232
 6655SOL     OW20863   2.991   6.873   1.241
 6655SOL    HW120864   2.965   6.870   1.144
 6655SOL    HW220865   2.962   6.960   1.280
 6656SOL     OW20866   6.127   1.659   2.156
 6656SOL    HW120867   6.035   1.671   2.120
 6656SOL    HW220868   6.183   1.738   2.130
 6657SOL     OW20869   5.478   6.036   6.166
 6657SOL    HW120870   5.482   6.111   6.100
 6657SOL    HW220871   5.389   6.037   6.213
 6658SOL     OW20872   5.841   1.697   4.842
 6658SOL    HW120873   5.832   1.796   4.845
 6658SOL    HW220874   5.751   1.656   4.829
 6659SOL     OW20875   2.168   2.433   0.594
 6659SOL    HW120876   2.139   2.399   0.505
 6659SOL    HW220877   2.264   2.464   0.589
 6660SOL     OW20878   0.686   5.993   0.655
 6660SOL    HW120879   0.712   5.984   0.751
 6660SOL    HW220880   0.761   6.036   0.604
 6661SOL     OW20881   0.935   5.990   3.580
 6661SOL    HW120882   0.859   5.926   3.574
 6661SOL    HW220883   0.917   6.058   3.651
 6662SOL     OW20884   1.206   1.044   6.400
 6662SOL    HW120885   1.261   0.976   6.448
 6662SOL    HW220886   1.260   1.082   6.325
 6663SOL     OW20887   6.719   5.256   3.178
 6663SOL    HW120888   6.733   5.206   3.264
 6663SOL    HW220889   6.765   5.345   3.184
 6664SOL     OW20890   1.618   6.693   0.552
 6664SOL    HW120891   1.707   6.671   0.594
 6664SOL    HW220892   1.609   6.792   0.544
 6665SOL     OW20893   1.404   0.192   2.948
 6665SOL    HW120894   1.385   0.290   2.957
 6665SOL    HW220895   1.486   0.180   2.891
 6666SOL     OW20896   5.669   0.440   6.079
 6666SOL    HW120897   5.668   0.457   5.980
 6666SOL    HW220898   5.764   0.427   6.109
 6667SOL     OW20899   6.927   5.357   6.076
 6667SOL    HW120900   6.848   5.359   6.137
 6667SOL    HW220901   6.954   5.263   6.059
 6668SOL     OW20902   5.773   5.778   2.078
 6668SOL    HW120903   5.832   5.794   2.156
 6668SOL    HW220904   5.803   5.696   2.029
 6669SOL     OW20905   2.279   2.786   3.602
 6669SOL    HW120906   2.355   2.839   3.640
 6669SOL    HW220907   2.193   2.816   3.644
 6670SOL     OW20908   3.646   2.273   5.575
 6670SOL    HW120909   3.640   2.368   5.544
 6670SOL    HW220910   3.565   2.223   5.545
 6671SOL     OW20911   5.047   5.527   1.415
 6671SOL    HW120912   5.005   5.470   1.345
 6671SOL    HW220913   5.141   5.548   1.389
 6672SOL     OW20914   0.506   2.047   5.567
 6672SOL    HW120915   0.517   2.052   5.667
 6672SOL    HW220916   0.528   1.955   5.536
 6673SOL     OW20917   5.136   6.208   3.349
 6673SOL    HW120918   5.217   6.258   3.380
 6673SOL    HW220919   5.072   6.271   3.305
 6674SOL     OW20920   0.616   4.365   5.943
 6674SOL    HW120921   0.685   4.437   5.952
 6674SOL    HW220922   0.621   4.327   5.850
 6675SOL     OW20923   4.225   4.058   1.712
 6675SOL    HW120924   4.138   4.040   1.759
 6675SOL    HW220925   4.276   4.127   1.764
 6676SOL     OW20926   0.608   4.290   5.697
 6676SOL    HW120927   0.610   4.191   5.713
 6676SOL    HW220928   0.533   4.312   5.635
 6677SOL     OW20929   0.510   1.838   0.171
 6677SOL    HW120930   0.607   1.849   0.153
 6677SOL    HW220931   0.496   1.775   0.247
 6678SOL     OW20932   2.853   2.524   6.844
 6678SOL    HW120933   2.885   2.440   6.889
 6678SOL    HW220934   2.767   2.553   6.885
 6679SOL     OW20935   2.908   1.863   3.951
 6679SOL    HW120936   2.907   1.804   4.031
 6679SOL    HW220937   2.818   1.863   3.907
 6680SOL     OW20938   4.748   6.656   6.406
 6680SOL    HW120939   4.842   6.685   6.387
 6680SOL    HW220940   4.686   6.734   6.395
 6681SOL     OW20941   4.529   5.439   0.168
 6681SOL    HW120942   4.596   5.382   0.215
 6681SOL    HW220943   4.561   5.461   0.076
 6682SOL     OW20944   1.573   4.525   2.589
 6682SOL    HW120945   1.519   4.587   2.645
 6682SOL    HW220946   1.563   4.432   2.622
 6683SOL     OW20947   5.208   2.641   5.433
 6683SOL    HW120948   5.182   2.587   5.353
 6683SOL    HW220949   5.149   2.722   5.439
 6684SOL     OW20950   3.002   6.622   0.809
 6684SOL    HW120951   2.983   6.524   0.799
 6684SOL    HW220952   2.965   6.655   0.896
 6685SOL     OW20953   5.758   2.710   5.740
 6685SOL    HW120954   5.786   2.761   5.822
 6685SOL    HW220955   5.691   2.764   5.689
 6686SOL     OW20956   5.082   6.067   4.314
 6686SOL    HW120957   5.114   5.990   4.369
 6686SOL    HW220958   4.991   6.046   4.276
 6687SOL     OW20959   6.862   2.375   1.290
 6687SOL    HW120960   6.948   2.334   1.258
 6687SOL    HW220961   6.843   2.343   1.383
 6688SOL     OW20962   6.953   4.399   2.139
 6688SOL    HW120963   6.861   4.385   2.173
 6688SOL    HW220964   6.971   4.339   2.062
 6689SOL     OW20965   4.145   3.169   0.559
 6689SOL    HW120966   4.232   3.130   0.530
 6689SOL    HW220967   4.070   3.116   0.520
 6690SOL     OW20968   2.582   1.175   1.418
 6690SOL    HW120969   2.589   1.274   1.401
 6690SOL    HW220970   2.672   1.139   1.440
 6691SOL     OW20971   2.468   6.359   1.453
 6691SOL    HW120972   2.526   6.407   1.519
 6691SOL    HW220973   2.509   6.363   1.362
 6692SOL     OW20974   3.224   4.047   5.511
 6692SOL    HW120975   3.143   3.988   5.503
 6692SOL    HW220976   3.195   4.143   5.516
 6693SOL     OW20977   4.305   2.816   5.910
 6693SOL    HW120978   4.254   2.872   5.976
 6693SOL    HW220979   4.400   2.847   5.907
 6694SOL     OW20980   4.947   6.195   0.590
 6694SOL    HW120981   4.909   6.278   0.633
 6694SOL    HW220982   5.030   6.219   0.539
 6695SOL     OW20983   2.908   2.323   5.700
 6695SOL    HW120984   2.881   2.415   5.674
 6695SOL    HW220985   2.891   2.309   5.797
 6696SOL     OW20986   1.641   2.634   0.254
 6696SOL    HW120987   1.546   2.614   0.230
 6696SOL    HW220988   1.642   2.699   0.330
 6697SOL     OW20989   5.275   2.574   3.056
 6697SOL    HW120990   5.293   2.489   3.007
 6697SOL    HW220991   5.292   2.652   2.994
 6698SOL     OW20992   2.904   2.827   0.568
 6698SOL    HW120993   2.952   2.866   0.646
 6698SOL    HW220994   2.914   2.887   0.489
 6699SOL     OW20995   3.053   5.213   6.799
 6699SOL    HW120996   3.069   5.312   6.802
 6699SOL    HW220997   2.996   5.191   6.719
 6700SOL     OW20998   6.926   6.053   1.397
 6700SOL    HW120999   6.926   6.037   1.298
 6700SOL    HW221000   6.845   6.013   1.438
 6701SOL     OW21001   5.608   3.311   0.637
 6701SOL    HW121002   5.636   3.218   0.612
 6701SOL    HW221003   5.523   3.307   0.690
 6702SOL     OW21004   2.586   2.681   0.912
 6702SOL    HW121005   2.610   2.703   0.818
 6702SOL    HW221006   2.646   2.731   0.974
 6703SOL     OW21007   6.414   1.254   6.834
 6703SOL    HW121008   6.340   1.215   6.779
 6703SOL    HW221009   6.499   1.254   6.780
 6704SOL     OW21010   4.225   2.232   2.580
 6704SOL    HW121011   4.150   2.249   2.515
 6704SOL    HW221012   4.300   2.296   2.562
 6705SOL     OW21013   6.995   2.681   2.270
 6705SOL    HW121014   0.046   2.665   2.344
 6705SOL    HW221015   6.937   2.600   2.259
 6706SOL     OW21016   1.004   3.841   1.044
 6706SOL    HW121017   1.086   3.833   0.987
 6706SOL    HW221018   1.026   3.893   1.126
 6707SOL     OW21019   0.168   6.002   4.390
 6707SOL    HW121020   0.150   6.099   4.404
 6707SOL    HW221021   0.167   5.982   4.292
 6708SOL     OW21022   1.294   5.241   2.560
 6708SOL    HW121023   1.198   5.230   2.538
 6708SOL    HW221024   1.349   5.233   2.477
 6709SOL     OW21025   3.289   5.762   1.807
 6709SOL    HW121026   3.291   5.675   1.759
 6709SOL    HW221027   3.239   5.752   1.893
 6710SOL     OW21028   2.649   1.758   5.578
 6710SOL    HW121029   2.731   1.807   5.550
 6710SOL    HW221030   2.613   1.797   5.663
 6711SOL     OW21031   5.381   4.903   6.584
 6711SOL    HW121032   5.466   4.954   6.601
 6711SOL    HW221033   5.368   4.835   6.655
 6712SOL     OW21034   4.542   5.637   0.427
 6712SOL    HW121035   4.475   5.706   0.399
 6712SOL    HW221036   4.618   5.637   0.362
 6713SOL     OW21037   1.934   1.931   1.961
 6713SOL    HW121038   1.971   2.024   1.956
 6713SOL    HW221039   1.892   1.907   1.873
 6714SOL     OW21040   5.504   0.619   6.238
 6714SOL    HW121041   5.566   0.692   6.265
 6714SOL    HW221042   5.558   0.540   6.206
 6715SOL     OW21043   0.270   0.617   6.497
 6715SOL    HW121044   0.203   0.631   6.424
 6715SOL    HW221045   0.334   0.694   6.499
 6716SOL     OW21046   0.533   5.926   2.415
 6716SOL    HW121047   0.514   5.828   2.425
 6716SOL    HW221048   0.465   5.967   2.355
 6717SOL     OW21049   4.411   3.062   0.569
 6717SOL    HW121050   4.410   3.044   0.667
 6717SOL    HW221051   4.466   3.143   0.550
 6718SOL     OW21052   3.933   6.271   6.226
 6718SOL    HW121053   3.927   6.171   6.231
 6718SOL    HW221054   4.007   6.302   6.286
 6719SOL     OW21055   0.596   0.183   5.634
 6719SOL    HW121056   0.633   0.178   5.727
 6719SOL    HW221057   0.574   0.278   5.611
 6720SOL     OW21058   1.442   6.189   2.417
 6720SOL    HW121059   1.509   6.264   2.424
 6720SOL    HW221060   1.460   6.122   2.489
 6721SOL     OW21061   6.441   6.479   4.596
 6721SOL    HW121062   6.407   6.573   4.599
 6721SOL    HW221063   6.393   6.424   4.665
 6722SOL     OW21064   5.547   3.550   1.413
 6722SOL    HW121065   5.643   3.561   1.439
 6722SOL    HW221066   5.491   3.550   1.496
 6723SOL     OW21067   2.327   6.499   2.773
 6723SOL    HW121068   2.283   6.533   2.690
 6723SOL    HW221069   2.382   6.418   2.750
 6724SOL     OW21070   0.938   3.205   6.000
 6724SOL    HW121071   0.868   3.175   5.935
 6724SOL    HW221072   1.026   3.212   5.953
 6725SOL     OW21073   0.716   4.335   1.626
 6725SOL    HW121074   0.815   4.338   1.621
 6725SOL    HW221075   0.682   4.252   1.580
 6726SOL     OW21076   0.760   2.513   4.463
 6726SOL    HW121077   0.781   2.423   4.423
 6726SOL    HW221078   0.745   2.579   4.390
 6727SOL     OW21079   6.470   3.579   5.129
 6727SOL    HW121080   6.470   3.668   5.083
 6727SOL    HW221081   6.397   3.577   5.198
 6728SOL     OW21082   5.337   1.483   4.604
 6728SOL    HW121083   5.333   1.557   4.537
 6728SOL    HW221084   5.270   1.501   4.677
 6729SOL     OW21085   6.688   1.343   2.754
 6729SOL    HW121086   6.766   1.281   2.766
 6729SOL    HW221087   6.603   1.291   2.766
 6730SOL     OW21088   2.005   6.671   5.799
 6730SOL    HW121089   2.050   6.751   5.839
 6730SOL    HW221090   1.934   6.638   5.862
 6731SOL     OW21091   1.729   4.312   0.912
 6731SOL    HW121092   1.761   4.386   0.971
 6731SOL    HW221093   1.795   4.298   0.838
 6732SOL     OW21094   4.469   5.721   6.153
 6732SOL    HW121095   4.542   5.695   6.090
 6732SOL    HW221096   4.404   5.781   6.107
 6733SOL     OW21097   4.073   4.857   6.844
 6733SOL    HW121098   4.079   4.935   6.907
 6733SOL    HW221099   4.036   4.889   6.756
 6734SOL     OW21100   0.431   2.859   5.308
 6734SOL    HW121101   0.489   2.896   5.380
 6734SOL    HW221102   0.465   2.890   5.219
 6735SOL     OW21103   1.098   5.682   5.243
 6735SOL    HW121104   1.058   5.595   5.212
 6735SOL    HW221105   1.190   5.666   5.276
 6736SOL     OW21106   1.797   3.774   0.534
 6736SOL    HW121107   1.863   3.794   0.606
 6736SOL    HW221108   1.827   3.815   0.448
 6737SOL     OW21109   1.980   2.749   0.750
 6737SOL    HW121110   1.891   2.765   0.793
 6737SOL    HW221111   2.006   2.829   0.697
 6738SOL     OW21112   2.087   3.284   2.189
 6738SOL    HW121113   2.092   3.345   2.269
 6738SOL    HW221114   2.180   3.270   2.153
 6739SOL     OW21115   3.486   5.452   6.091
 6739SOL    HW121116   3.405   5.452   6.150
 6739SOL    HW221117   3.513   5.546   6.070
 6740SOL     OW21118   2.033   1.548   4.357
 6740SOL    HW121119   2.094   1.528   4.281
 6740SOL    HW221120   2.033   1.646   4.375
 6741SOL     OW21121   4.801   1.304   5.047
 6741SOL    HW121122   4.851   1.254   5.118
 6741SOL    HW221123   4.745   1.375   5.090
 6742SOL     OW21124   0.411   5.618   2.666
 6742SOL    HW121125   0.435   5.522   2.684
 6742SOL    HW221126   0.433   5.640   2.571
 6743SOL     OW21127   3.792   4.200   0.183
 6743SOL    HW121128   3.790   4.264   0.260
 6743SOL    HW221129   3.716   4.219   0.122
 6744SOL     OW21130   4.143   5.739   5.744
 6744SOL    HW121131   4.137   5.645   5.776
 6744SOL    HW221132   4.174   5.798   5.819
 6745SOL     OW21133   1.012   6.247   2.085
 6745SOL    HW121134   1.097   6.196   2.067
 6745SOL    HW221135   0.999   6.256   2.184
 6746SOL     OW21136   0.895   1.025   2.788
 6746SOL    HW121137   0.830   1.099   2.769
 6746SOL    HW221138   0.869   0.980   2.874
 6747SOL     OW21139   5.475   7.001   4.392
 6747SOL    HW121140   5.554   0.012   4.449
 6747SOL    HW221141   5.505   6.987   4.298
 6748SOL     OW21142   1.335   0.450   2.951
 6748SOL    HW121143   1.430   0.467   2.974
 6748SOL    HW221144   1.281   0.532   2.967
 6749SOL     OW21145   2.979   6.800   0.051
 6749SOL    HW121146   2.974   6.875   0.117
 6749SOL    HW221147   3.075   6.773   0.039
 6750SOL     OW21148   3.753   1.120   4.693
 6750SOL    HW121149   3.751   1.197   4.629
 6750SOL    HW221150   3.846   1.083   4.700
 6751SOL     OW21151   3.781   1.653   3.709
 6751SOL    HW121152   3.813   1.564   3.742
 6751SOL    HW221153   3.723   1.695   3.779
 6752SOL     OW21154   6.120   2.688   2.277
 6752SOL    HW121155   6.042   2.660   2.221
 6752SOL    HW221156   6.160   2.772   2.239
 6753SOL     OW21157   4.871   1.369   6.123
 6753SOL    HW121158   4.790   1.341   6.175
 6753SOL    HW221159   4.890   1.466   6.140
 6754SOL     OW21160   6.417   1.822   5.759
 6754SOL    HW121161   6.417   1.726   5.784
 6754SOL    HW221162   6.444   1.877   5.839
 6755SOL     OW21163   4.468   2.071   3.554
 6755SOL    HW121164   4.517   2.117   3.628
 6755SOL    HW221165   4.476   1.972   3.565
 6756SOL     OW21166   4.749   4.298   4.742
 6756SOL    HW121167   4.783   4.211   4.708
 6756SOL    HW221168   4.696   4.344   4.671
 6757SOL     OW21169   4.491   6.476   0.658
 6757SOL    HW121170   4.578   6.513   0.691
 6757SOL    HW221171   4.493   6.376   0.666
 6758SOL     OW21172   5.339   3.953   2.110
 6758SOL    HW121173   5.415   3.894   2.082
 6758SOL    HW221174   5.253   3.909   2.086
 6759SOL     OW21175   1.096   3.510   3.961
 6759SOL    HW121176   1.050   3.585   3.913
 6759SOL    HW221177   1.040   3.481   4.039
 6760SOL     OW21178   6.648   5.478   4.519
 6760SOL    HW121179   6.716   5.534   4.566
 6760SOL    HW221180   6.660   5.382   4.546
 6761SOL     OW21181   5.621   2.462   5.840
 6761SOL    HW121182   5.646   2.393   5.772
 6761SOL    HW221183   5.652   2.552   5.810
 6762SOL     OW21184   0.173   5.410   3.188
 6762SOL    HW121185   0.211   5.421   3.096
 6762SOL    HW221186   0.139   5.316   3.198
 6763SOL     OW21187   6.905   6.072   4.156
 6763SOL    HW121188   6.978   6.014   4.120
 6763SOL    HW221189   6.910   6.162   4.114
 6764SOL     OW21190   3.074   4.894   6.569
 6764SOL    HW121191   3.172   4.916   6.575
 6764SOL    HW221192   3.020   4.977   6.583
 6765SOL     OW21193   5.918   5.226   3.623
 6765SOL    HW121194   6.010   5.190   3.640
 6765SOL    HW221195   5.868   5.232   3.710
 6766SOL     OW21196   3.069   0.160   6.545
 6766SOL    HW121197   3.016   0.078   6.524
 6766SOL    HW221198   3.123   0.186   6.465
 6767SOL     OW21199   0.494   2.538   1.281
 6767SOL    HW121200   0.398   2.511   1.290
 6767SOL    HW221201   0.544   2.511   1.363
 6768SOL     OW21202   1.367   0.382   3.720
 6768SOL    HW121203   1.267   0.381   3.727
 6768SOL    HW221204   1.406   0.414   3.806
 6769SOL     OW21205   2.917   1.545   5.542
 6769SOL    HW121206   2.990   1.476   5.550
 6769SOL    HW221207   2.893   1.557   5.446
 6770SOL     OW21208   0.071   2.255   4.275
 6770SOL    HW121209   0.164   2.274   4.246
 6770SOL    HW221210   0.069   2.171   4.330
 6771SOL     OW21211   3.992   2.237   3.687
 6771SOL    HW121212   3.987   2.161   3.752
 6771SOL    HW221213   3.952   2.319   3.729
 6772SOL     OW21214   5.691   1.829   2.260
 6772SOL    HW121215   5.737   1.755   2.309
 6772SOL    HW221216   5.592   1.816   2.266
 6773SOL     OW21217   6.693   6.357   1.444
 6773SOL    HW121218   6.670   6.366   1.347
 6773SOL    HW221219   6.786   6.390   1.459
 6774SOL     OW21220   1.853   2.191   5.868
 6774SOL    HW121221   1.859   2.244   5.953
 6774SOL    HW221222   1.871   2.252   5.790
 6775SOL     OW21223   1.018   1.968   3.724
 6775SOL    HW121224   1.000   1.884   3.776
 6775SOL    HW221225   1.073   1.946   3.644
 6776SOL     OW21226   3.859   3.272   2.011
 6776SOL    HW121227   3.798   3.351   2.001
 6776SOL    HW221228   3.952   3.304   2.033
 6777SOL     OW21229   4.264   5.241   1.442
 6777SOL    HW121230   4.336   5.184   1.401
 6777SOL    HW221231   4.287   5.260   1.537
 6778SOL     OW21232   5.594   3.456   2.469
 6778SOL    HW121233   5.539   3.478   2.389
 6778SOL    HW221234   5.557   3.374   2.514
 6779SOL     OW21235   5.818   4.068   5.697
 6779SOL    HW121236   5.772   4.101   5.615
 6779SOL    HW221237   5.807   3.969   5.704
 6780SOL     OW21238   2.082   2.966   3.140
 6780SOL    HW121239   2.087   2.881   3.087
 6780SOL    HW221240   2.104   3.044   3.080
 6781SOL     OW21241   6.683   0.921   4.124
 6781SOL    HW121242   6.635   1.002   4.089
 6781SOL    HW221243   6.778   0.922   4.090
 6782SOL     OW21244   0.920   1.512   3.642
 6782SOL    HW121245   0.871   1.567   3.575
 6782SOL    HW221246   0.889   1.417   3.636
 6783SOL     OW21247   1.184   3.891   4.995
 6783SOL    HW121248   1.247   3.828   5.041
 6783SOL    HW221249   1.224   3.983   4.995
 6784SOL     OW21250   2.603   3.477   1.730
 6784SOL    HW121251   2.593   3.566   1.683
 6784SOL    HW221252   2.513   3.439   1.747
 6785SOL     OW21253   5.771   4.657   5.349
 6785SOL    HW121254   5.795   4.710   5.431
 6785SOL    HW221255   5.802   4.563   5.361
 6786SOL     OW21256   6.215   2.941   0.897
 6786SOL    HW121257   6.300   2.984   0.930
 6786SOL    HW221258   6.184   2.988   0.815
 6787SOL     OW21259   3.748   2.131   0.994
 6787SOL    HW121260   3.698   2.218   1.003
 6787SOL    HW221261   3.752   2.086   1.083
 6788SOL     OW21262   0.350   3.805   2.225
 6788SOL    HW121263   0.373   3.871   2.154
 6788SOL    HW221264   0.384   3.837   2.313
 6789SOL     OW21265   6.460   4.352   4.164
 6789SOL    HW121266   6.488   4.308   4.078
 6789SOL    HW221267   6.537   4.402   4.202
 6790SOL     OW21268   0.574   5.004   5.992
 6790SOL    HW121269   0.564   5.064   5.913
 6790SOL    HW221270   0.634   4.927   5.968
 6791SOL     OW21271   4.663   1.733   3.342
 6791SOL    HW121272   4.760   1.709   3.339
 6791SOL    HW221273   4.612   1.660   3.386
 6792SOL     OW21274   4.250   6.644   5.466
 6792SOL    HW121275   4.263   6.576   5.393
 6792SOL    HW221276   4.282   6.606   5.553
 6793SOL     OW21277   3.120   1.719   6.753
 6793SOL    HW121278   3.185   1.686   6.821
 6793SOL    HW221279   3.131   1.817   6.740
 6794SOL     OW21280   4.543   1.137   5.717
 6794SOL    HW121281   4.603   1.217   5.724
 6794SOL    HW221282   4.554   1.080   5.799
 6795SOL     OW21283   1.395   1.258   1.545
 6795SOL    HW121284   1.477   1.211   1.510
 6795SOL    HW221285   1.314   1.222   1.500
 6796SOL     OW21286   6.154   1.209   1.743
 6796SOL    HW121287   6.222   1.191   1.671
 6796SOL    HW221288   6.197   1.196   1.833
 6797SOL     OW21289   6.665   3.006   1.493
 6797SOL    HW121290   6.687   2.992   1.396
 6797SOL    HW221291   6.626   2.922   1.530
 6798SOL     OW21292   5.433   0.364   1.558
 6798SOL    HW121293   5.430   0.304   1.478
 6798SOL    HW221294   5.387   0.320   1.635
 6799SOL     OW21295   5.384   6.828   3.377
 6799SOL    HW121296   5.304   6.880   3.407
 6799SOL    HW221297   5.397   6.841   3.279
 6800SOL     OW21298   1.341   1.583   1.091
 6800SOL    HW121299   1.372   1.673   1.121
 6800SOL    HW221300   1.366   1.515   1.160
 6801SOL     OW21301   1.401   6.337   4.720
 6801SOL    HW121302   1.373   6.410   4.783
 6801SOL    HW221303   1.409   6.375   4.628
 6802SOL     OW21304   3.098   6.363   0.780
 6802SOL    HW121305   3.122   6.335   0.873
 6802SOL    HW221306   3.026   6.302   0.745
 6803SOL     OW21307   5.043   4.533   6.900
 6803SOL    HW121308   5.042   4.505   6.995
 6803SOL    HW221309   4.993   4.619   6.890
 6804SOL     OW21310   2.825   5.001   2.699
 6804SOL    HW121311   2.803   5.015   2.795
 6804SOL    HW221312   2.822   5.088   2.651
 6805SOL     OW21313   0.414   4.552   5.366
 6805SOL    HW121314   0.385   4.627   5.426
 6805SOL    HW221315   0.462   4.590   5.287
 6806SOL     OW21316   6.943   0.967   4.052
 6806SOL    HW121317   6.978   1.060   4.036
 6806SOL    HW221318   6.972   0.937   4.143
 6807SOL     OW21319   3.647   3.145   3.512
 6807SOL    HW121320   3.635   3.156   3.610
 6807SOL    HW221321   3.716   3.210   3.479
 6808SOL     OW21322   5.062   1.214   5.258
 6808SOL    HW121323   4.969   1.201   5.292
 6808SOL    HW221324   5.125   1.224   5.336
 6809SOL     OW21325   6.146   4.693   1.630
 6809SOL    HW121326   6.112   4.677   1.723
 6809SOL    HW221327   6.069   4.704   1.567
 6810SOL     OW21328   3.492   0.875   3.105
 6810SOL    HW121329   3.458   0.959   3.063
 6810SOL    HW221330   3.514   0.892   3.201
 6811SOL     OW21331   6.893   1.881   2.602
 6811SOL    HW121332   6.938   1.832   2.676
 6811SOL    HW221333   6.795   1.884   2.619
 6812SOL     OW21334   3.390   3.486   4.793
 6812SOL    HW121335   3.370   3.388   4.790
 6812SOL    HW221336   3.351   3.531   4.712
 6813SOL     OW21337   4.966   3.440   2.051
 6813SOL    HW121338   4.890   3.406   1.996
 6813SOL    HW221339   5.037   3.370   2.057
 6814SOL     OW21340   4.125   1.462   5.803
 6814SOL    HW121341   4.129   1.561   5.800
 6814SOL    HW221342   4.217   1.424   5.798
 6815SOL     OW21343   1.811   4.819   6.863
 6815SOL    HW121344   1.907   4.801   6.886
 6815SOL    HW221345   1.802   4.822   6.763
 6816SOL     OW21346   6.079   1.712   4.689
 6816SOL    HW121347   6.098   1.630   4.635
 6816SOL    HW221348   5.985   1.708   4.724
 6817SOL     OW21349   2.968   2.175   3.192
 6817SOL    HW121350   2.923   2.242   3.133
 6817SOL    HW221351   2.915   2.164   3.276
 6818SOL     OW21352   2.279   6.678   6.064
 6818SOL    HW121353   2.354   6.730   6.105
 6818SOL    HW221354   2.226   6.739   6.005
 6819SOL     OW21355   4.544   5.676   3.003
 6819SOL    HW121356   4.635   5.715   3.011
 6819SOL    HW221357   4.488   5.733   2.943
 6820SOL     OW21358   1.271   6.322   1.620
 6820SOL    HW121359   1.231   6.403   1.661
 6820SOL    HW221360   1.367   6.339   1.599
 6821SOL     OW21361   4.199   2.230   5.443
 6821SOL    HW121362   4.104   2.208   5.466
 6821SOL    HW221363   4.219   2.200   5.350
 6822SOL     OW21364   6.951   2.725   6.569
 6822SOL    HW121365   6.954   2.730   6.669
 6822SOL    HW221366   6.881   2.660   6.542
 6823SOL     OW21367   4.871   3.402   6.907
 6823SOL    HW121368   4.864   3.345   6.989
 6823SOL    HW221369   4.789   3.390   6.851
 6824SOL     OW21370   1.439   1.992   6.772
 6824SOL    HW121371   1.453   1.942   6.687
 6824SOL    HW221372   1.442   1.928   6.849
 6825SOL     OW21373   6.552   6.149   1.111
 6825SOL    HW121374   6.579   6.058   1.077
 6825SOL    HW221375   6.597   6.166   1.199
 6826SOL     OW21376   0.280   3.615   2.687
 6826SOL    HW121377   0.363   3.614   2.632
 6826SOL    HW221378   0.303   3.639   2.781
 6827SOL     OW21379   5.146   5.190   5.647
 6827SOL    HW121380   5.169   5.284   5.622
 6827SOL    HW221381   5.189   5.127   5.582
 6828SOL     OW21382   3.726   1.605   2.926
 6828SOL    HW121383   3.696   1.693   2.889
 6828SOL    HW221384   3.715   1.534   2.858
 6829SOL     OW21385   5.740   0.030   4.992
 6829SOL    HW121386   5.749   0.034   5.091
 6829SOL    HW221387   5.780   0.112   4.952
 6830SOL     OW21388   6.025   0.769   3.323
 6830SOL    HW121389   5.939   0.723   3.303
 6830SOL    HW221390   6.008   0.866   3.340
 6831SOL     OW21391   0.998   1.361   5.613
 6831SOL    HW121392   0.954   1.341   5.700
 6831SOL    HW221393   0.927   1.381   5.544
 6832SOL     OW21394   2.821   2.589   0.291
 6832SOL    HW121395   2.758   2.512   0.296
 6832SOL    HW221396   2.779   2.669   0.334
 6833SOL     OW21397   3.315   5.602   6.306
 6833SOL    HW121398   3.241   5.553   6.259
 6833SOL    HW221399   3.306   5.700   6.288
 6834SOL     OW21400   5.095   0.108   0.699
 6834SOL    HW121401   5.091   0.114   0.599
 6834SOL    HW221402   5.163   0.173   0.734
 6835SOL     OW21403   3.527   1.498   3.976
 6835SOL    HW121404   3.560   1.469   4.066
 6835SOL    HW221405   3.576   1.580   3.947
 6836SOL     OW21406   2.095   4.696   6.593
 6836SOL    HW121407   2.010   4.672   6.641
 6836SOL    HW221408   2.168   4.710   6.660
 6837SOL     OW21409   1.244   0.966   2.338
 6837SOL    HW121410   1.274   1.053   2.300
 6837SOL    HW221411   1.166   0.980   2.398
 6838SOL     OW21412   2.740   4.317   5.310
 6838SOL    HW121413   2.772   4.340   5.402
 6838SOL    HW221414   2.763   4.390   5.246
 6839SOL     OW21415   4.885   2.062   3.776
 6839SOL    HW121416   4.843   1.980   3.737
 6839SOL    HW221417   4.899   2.130   3.704
 6840SOL     OW21418   2.766   6.809   4.475
 6840SOL    HW121419   2.793   6.901   4.448
 6840SOL    HW221420   2.845   6.748   4.471
 6841SOL     OW21421   3.988   4.818   1.840
 6841SOL    HW121422   3.912   4.793   1.781
 6841SOL    HW221423   4.012   4.914   1.825
 6842SOL     OW21424   1.056   3.106   0.121
 6842SOL    HW121425   0.972   3.112   0.174
 6842SOL    HW221426   1.122   3.048   0.169
 6843SOL     OW21427   4.863   1.607   1.941
 6843SOL    HW121428   4.767   1.634   1.941
 6843SOL    HW221429   4.902   1.623   2.032
 6844SOL     OW21430   4.947   5.618   4.729
 6844SOL    HW121431   4.939   5.544   4.661
 6844SOL    HW221432   4.898   5.592   4.812
 6845SOL     OW21433   4.541   4.512   2.866
 6845SOL    HW121434   4.612   4.504   2.936
 6845SOL    HW221435   4.571   4.464   2.784
 6846SOL     OW21436   3.976   3.354   1.427
 6846SOL    HW121437   3.953   3.451   1.418
 6846SOL    HW221438   4.073   3.341   1.405
 6847SOL     OW21439   4.652   3.711   1.719
 6847SOL    HW121440   4.649   3.614   1.695
 6847SOL    HW221441   4.566   3.754   1.695
 6848SOL     OW21442   1.078   4.747   4.469
 6848SOL    HW121443   1.142   4.719   4.398
 6848SOL    HW221444   0.984   4.733   4.437
 6849SOL     OW21445   3.959   5.524   4.140
 6849SOL    HW121446   4.022   5.560   4.071
 6849SOL    HW221447   4.002   5.445   4.185
 6850SOL     OW21448   5.667   2.520   3.545
 6850SOL    HW121449   5.632   2.584   3.477
 6850SOL    HW221450   5.667   2.564   3.635
 6851SOL     OW21451   0.864   4.875   5.585
 6851SOL    HW121452   0.784   4.908   5.535
 6851SOL    HW221453   0.902   4.950   5.640
 6852SOL     OW21454   1.015   4.303   1.667
 6852SOL    HW121455   1.100   4.357   1.662
 6852SOL    HW221456   1.038   4.206   1.659
 6853SOL     OW21457   6.752   4.954   6.376
 6853SOL    HW121458   6.679   5.016   6.407
 6853SOL    HW221459   6.840   5.000   6.385
 6854SOL     OW21460   6.538   1.213   6.070
 6854SOL    HW121461   6.531   1.308   6.102
 6854SOL    HW221462   6.628   1.198   6.029
 6855SOL     OW21463   3.561   0.031   2.578
 6855SOL    HW121464   3.603   6.957   2.595
 6855SOL    HW221465   3.489   0.048   2.646
 6856SOL     OW21466   5.713   4.084   5.450
 6856SOL    HW121467   5.670   4.006   5.404
 6856SOL    HW221468   5.654   4.164   5.443
 6857SOL     OW21469   3.427   1.204   6.405
 6857SOL    HW121470   3.426   1.137   6.332
 6857SOL    HW221471   3.349   1.267   6.395
 6858SOL     OW21472   3.867   2.964   4.359
 6858SOL    HW121473   3.781   2.944   4.407
 6858SOL    HW221474   3.941   2.972   4.426
 6859SOL     OW21475   1.736   6.963   1.092
 6859SOL    HW121476   1.670   6.902   1.136
 6859SOL    HW221477   1.695   7.005   1.012
 6860SOL     OW21478   5.896   4.956   1.820
 6860SOL    HW121479   5.918   4.859   1.825
 6860SOL    HW221480   5.886   4.983   1.725
 6861SOL     OW21481   5.497   4.591   0.910
 6861SOL    HW121482   5.575   4.641   0.946
 6861SOL    HW221483   5.528   4.506   0.867
 6862SOL     OW21484   2.588   4.853   4.638
 6862SOL    HW121485   2.620   4.937   4.594
 6862SOL    HW221486   2.492   4.839   4.618
 6863SOL     OW21487   5.910   1.233   4.910
 6863SOL    HW121488   5.873   1.147   4.947
 6863SOL    HW221489   6.004   1.219   4.880
 6864SOL     OW21490   3.611   5.860   3.987
 6864SOL    HW121491   3.661   5.939   4.024
 6864SOL    HW221492   3.661   5.777   4.008
 6865SOL     OW21493   6.347   4.501   3.808
 6865SOL    HW121494   6.377   4.523   3.715
 6865SOL    HW221495   6.380   4.410   3.833
 6866SOL     OW21496   6.507   4.198   2.200
 6866SOL    HW121497   6.430   4.262   2.207
 6866SOL    HW221498   6.497   4.126   2.269
 6867SOL     OW21499   1.070   4.039   1.225
 6867SOL    HW121500   1.122   4.062   1.143
 6867SOL    HW221501   1.128   4.054   1.306
 6868SOL     OW21502   1.895   6.089   4.882
 6868SOL    HW121503   1.974   6.143   4.912
 6868SOL    HW221504   1.830   6.148   4.835
 6869SOL     OW21505   5.395   3.124   4.590
 6869SOL    HW121506   5.370   3.212   4.550
 6869SOL    HW221507   5.320   3.060   4.579
 6870SOL     OW21508   6.127   3.496   3.106
 6870SOL    HW121509   6.110   3.451   3.018
 6870SOL    HW221510   6.074   3.580   3.111
 6871SOL     OW21511   6.000   5.056   2.049
 6871SOL    HW121512   5.965   4.989   2.114
 6871SOL    HW221513   5.961   5.037   1.959
 6872SOL     OW21514   1.687   3.610   0.808
 6872SOL    HW121515   1.631   3.528   0.820
 6872SOL    HW221516   1.670   3.649   0.717
 6873SOL     OW21517   6.169   3.444   5.627
 6873SOL    HW121518   6.203   3.493   5.547
 6873SOL    HW221519   6.198   3.348   5.622
 6874SOL     OW21520   0.562   3.904   3.203
 6874SOL    HW121521   0.475   3.855   3.196
 6874SOL    HW221522   0.595   3.900   3.297
 6875SOL     OW21523   1.338   2.102   3.670
 6875SOL    HW121524   1.263   2.073   3.729
 6875SOL    HW221525   1.379   2.021   3.627
 6876SOL     OW21526   3.525   5.489   6.679
 6876SOL    HW121527   3.474   5.563   6.723
 6876SOL    HW221528   3.575   5.437   6.749
 6877SOL     OW21529   2.822   4.223   6.838
 6877SOL    HW121530   2.898   4.160   6.852
 6877SOL    HW221531   2.853   4.317   6.849
 6878SOL     OW21532   1.849   1.794   5.977
 6878SOL    HW121533   1.934   1.832   5.941
 6878SOL    HW221534   1.824   1.713   5.924
 6879SOL     OW21535   0.664   2.034   0.673
 6879SOL    HW121536   0.749   2.006   0.628
 6879SOL    HW221537   0.685   2.094   0.751
 6880SOL     OW21538   1.945   3.548   5.069
 6880SOL    HW121539   1.968   3.454   5.045
 6880SOL    HW221540   1.892   3.590   4.995
 6881SOL     OW21541   6.856   4.674   2.047
 6881SOL    HW121542   6.942   4.625   2.033
 6881SOL    HW221543   6.796   4.660   1.968
 6882SOL     OW21544   1.983   0.706   5.493
 6882SOL    HW121545   1.975   0.805   5.478
 6882SOL    HW221546   1.981   0.687   5.591
 6883SOL     OW21547   3.648   0.458   1.080
 6883SOL    HW121548   3.565   0.416   1.042
 6883SOL    HW221549   3.707   0.387   1.118
 6884SOL     OW21550   2.473   4.393   3.835
 6884SOL    HW121551   2.472   4.425   3.740
 6884SOL    HW221552   2.407   4.319   3.846
 6885SOL     OW21553   2.636   5.481   3.966
 6885SOL    HW121554   2.686   5.416   4.023
 6885SOL    HW221555   2.698   5.520   3.898
 6886SOL     OW21556   6.430   1.015   2.177
 6886SOL    HW121557   6.389   0.928   2.205
 6886SOL    HW221558   6.408   1.085   2.245
 6887SOL     OW21559   5.350   0.731   5.586
 6887SOL    HW121560   5.389   0.694   5.502
 6887SOL    HW221561   5.284   0.665   5.624
 6888SOL     OW21562   5.892   6.838   6.258
 6888SOL    HW121563   5.988   6.822   6.234
 6888SOL    HW221564   5.842   6.751   6.257
 6889SOL     OW21565   1.079   2.650   5.777
 6889SOL    HW121566   1.116   2.559   5.756
 6889SOL    HW221567   1.153   2.708   5.811
 6890SOL     OW21568   1.960   0.338   0.670
 6890SOL    HW121569   1.891   0.411   0.666
 6890SOL    HW221570   2.004   0.340   0.760
 6891SOL     OW21571   2.008   3.852   4.718
 6891SOL    HW121572   2.036   3.863   4.813
 6891SOL    HW221573   1.918   3.893   4.705
 6892SOL     OW21574   4.198   0.210   4.261
 6892SOL    HW121575   4.230   0.119   4.289
 6892SOL    HW221576   4.249   0.240   4.180
 6893SOL     OW21577   5.123   6.366   2.314
 6893SOL    HW121578   5.203   6.422   2.294
 6893SOL    HW221579   5.045   6.400   2.262
 6894SOL     OW21580   6.285   5.609   1.041
 6894SOL    HW121581   6.194   5.581   1.012
 6894SOL    HW221582   6.308   5.563   1.127
 6895SOL     OW21583   3.158   4.814   0.067
 6895SOL    HW121584   3.180   4.748   7.011
 6895SOL    HW221585   3.175   4.907   0.034
 6896SOL     OW21586   4.026   6.863   3.526
 6896SOL    HW121587   4.026   6.892   3.430
 6896SOL    HW221588   4.120   6.850   3.557
 6897SOL     OW21589   2.729   3.278   0.304
 6897SOL    HW121590   2.694   3.350   0.244
 6897SOL    HW221591   2.828   3.289   0.315
 6898SOL     OW21592   4.314   1.600   2.333
 6898SOL    HW121593   4.263   1.519   2.361
 6898SOL    HW221594   4.328   1.598   2.234
 6899SOL     OW21595   4.775   0.009   6.536
 6899SOL    HW121596   4.713   0.050   6.603
 6899SOL    HW221597   4.848   6.975   6.584
 6900SOL     OW21598   6.247   0.682   6.398
 6900SOL    HW121599   6.236   0.659   6.301
 6900SOL    HW221600   6.343   0.671   6.424
 6901SOL     OW21601   0.369   0.208   6.576
 6901SOL    HW121602   0.340   0.273   6.646
 6901SOL    HW221603   0.368   0.252   6.487
 6902SOL     OW21604   6.946   6.612   0.540
 6902SOL    HW121605   0.001   6.633   0.609
 6902SOL    HW221606   6.987   6.614   0.449
 6903SOL     OW21607   3.553   3.491   6.943
 6903SOL    HW121608   3.619   3.528   7.008
 6903SOL    HW221609   3.592   3.494   6.851
 6904SOL     OW21610   6.689   1.320   3.482
 6904SOL    HW121611   6.710   1.227   3.452
 6904SOL    HW221612   6.628   1.316   3.561
 6905SOL     OW21613   5.962   6.104   0.172
 6905SOL    HW121614   5.958   6.201   0.149
 6905SOL    HW221615   6.049   6.085   0.218
 6906SOL     OW21616   4.065   1.020   4.329
 6906SOL    HW121617   4.008   1.086   4.279
 6906SOL    HW221618   4.120   1.069   4.397
 6907SOL     OW21619   4.128   2.197   0.777
 6907SOL    HW121620   4.040   2.227   0.742
 6907SOL    HW221621   4.135   2.098   0.771
 6908SOL     OW21622   1.365   0.245   4.908
 6908SOL    HW121623   1.341   0.207   4.997
 6908SOL    HW221624   1.465   0.248   4.898
 6909SOL     OW21625   4.617   4.608   1.164
 6909SOL    HW121626   4.643   4.702   1.145
 6909SOL    HW221627   4.522   4.604   1.194
 6910SOL     OW21628   6.524   1.764   3.066
 6910SOL    HW121629   6.548   1.767   3.163
 6910SOL    HW221630   6.567   1.840   3.018
 6911SOL     OW21631   4.229   0.462   3.227
 6911SOL    HW121632   4.310   0.486   3.175
 6911SOL    HW221633   4.175   0.544   3.245
 6912SOL     OW21634   4.901   4.411   1.861
 6912SOL    HW121635   4.976   4.474   1.840
 6912SOL    HW221636   4.815   4.449   1.828
 6913SOL     OW21637   5.109   4.023   5.573
 6913SOL    HW121638   5.139   4.118   5.579
 6913SOL    HW221639   5.096   3.997   5.477
 6914SOL     OW21640   5.940   5.690   0.226
 6914SOL    HW121641   5.934   5.767   0.163
 6914SOL    HW221642   5.896   5.714   0.312
 6915SOL     OW21643   0.332   4.851   1.642
 6915SOL    HW121644   0.267   4.825   1.713
 6915SOL    HW221645   0.405   4.907   1.682
 6916SOL     OW21646   6.233   4.215   6.967
 6916SOL    HW121647   6.220   4.256   6.876
 6916SOL    HW221648   6.252   4.118   6.957
 6917SOL     OW21649   4.339   5.040   6.580
 6917SOL    HW121650   4.403   5.081   6.645
 6917SOL    HW221651   4.246   5.073   6.599
 6918SOL     OW21652   0.379   4.282   4.267
 6918SOL    HW121653   0.473   4.312   4.253
 6918SOL    HW221654   0.374   4.225   4.349
 6919SOL     OW21655   1.671   5.485   2.450
 6919SOL    HW121656   1.579   5.491   2.489
 6919SOL    HW221657   1.708   5.577   2.437
 6920SOL     OW21658   5.211   4.961   5.842
 6920SOL    HW121659   5.161   5.044   5.816
 6920SOL    HW221660   5.148   4.899   5.889
 6921SOL     OW21661   5.584   5.876   3.268
 6921SOL    HW121662   5.618   5.966   3.240
 6921SOL    HW221663   5.491   5.863   3.232
 6922SOL     OW21664   1.823   5.804   6.982
 6922SOL    HW121665   1.875   5.880   6.943
 6922SOL    HW221666   1.886   5.733   7.014
 6923SOL     OW21667   5.445   6.534   3.867
 6923SOL    HW121668   5.514   6.583   3.814
 6923SOL    HW221669   5.401   6.597   3.931
 6924SOL     OW21670   0.866   3.819   6.602
 6924SOL    HW121671   0.838   3.734   6.648
 6924SOL    HW221672   0.838   3.897   6.658
 6925SOL     OW21673   4.227   6.342   4.121
 6925SOL    HW121674   4.240   6.388   4.033
 6925SOL    HW221675   4.132   6.311   4.129
 6926SOL     OW21676   3.471   3.481   3.051
 6926SOL    HW121677   3.540   3.541   3.091
 6926SOL    HW221678   3.516   3.403   3.007
 6927SOL     OW21679   5.841   3.023   5.986
 6927SOL    HW121680   5.859   2.927   6.008
 6927SOL    HW221681   5.744   3.043   6.000
 6928SOL     OW21682   5.731   6.970   0.083
 6928SOL    HW121683   5.684   6.888   0.049
 6928SOL    HW221684   5.763   0.010   0.005
 6929SOL     OW21685   4.656   6.114   7.001
 6929SOL    HW121686   4.682   6.051   0.059
 6929SOL    HW221687   4.558   6.104   6.982
 6930SOL     OW21688   7.013   6.820   1.527
 6930SOL    HW121689   0.094   6.801   1.507
 6930SOL    HW221690   6.985   6.768   1.608
 6931SOL     OW21691   0.860   0.767   1.613
 6931SOL    HW121692   0.845   0.672   1.586
 6931SOL    HW221693   0.848   0.827   1.534
 6932SOL     OW21694   3.598   0.973   0.314
 6932SOL    HW121695   3.508   0.930   0.306
 6932SOL    HW221696   3.589   1.072   0.310
 6933SOL     OW21697   3.854   6.036   4.758
 6933SOL    HW121698   3.827   5.948   4.797
 6933SOL    HW221699   3.779   6.072   4.702
 6934SOL     OW21700   5.293   3.715   6.391
 6934SOL    HW121701   5.312   3.703   6.293
 6934SOL    HW221702   5.367   3.673   6.444
 6935SOL     OW21703   3.899   6.789   2.793
 6935SOL    HW121704   3.959   6.728   2.742
 6935SOL    HW221705   3.931   6.797   2.887
 6936SOL     OW21706   6.623   1.886   2.705
 6936SOL    HW121707   6.523   1.887   2.706
 6936SOL    HW221708   6.658   1.931   2.787
 6937SOL     OW21709   5.668   6.738   6.967
 6937SOL    HW121710   5.664   6.769   6.872
 6937SOL    HW221711   5.627   6.647   6.974
 6938SOL     OW21712   5.164   3.624   5.302
 6938SOL    HW121713   5.068   3.620   5.331
 6938SOL    HW221714   5.223   3.604   5.380
 6939SOL     OW21715   6.896   5.158   2.979
 6939SOL    HW121716   6.916   5.071   3.024
 6939SOL    HW221717   6.810   5.195   3.014
 6940SOL     OW21718   4.649   1.573   0.797
 6940SOL    HW121719   4.552   1.572   0.773
 6940SOL    HW221720   4.704   1.570   0.714
 6941SOL     OW21721   3.945   3.048   2.975
 6941SOL    HW121722   3.990   3.004   2.897
 6941SOL    HW221723   3.859   3.089   2.945
 6942SOL     OW21724   0.568   3.006   1.237
 6942SOL    HW121725   0.579   2.919   1.190
 6942SOL    HW221726   0.652   3.059   1.230
 6943SOL     OW21727   5.162   6.453   6.737
 6943SOL    HW121728   5.096   6.443   6.662
 6943SOL    HW221729   5.114   6.474   6.822
 6944SOL     OW21730   1.456   4.470   5.294
 6944SOL    HW121731   1.544   4.518   5.297
 6944SOL    HW221732   1.410   4.479   5.382
 6945SOL     OW21733   5.953   3.058   0.113
 6945SOL    HW121734   5.878   3.124   0.108
 6945SOL    HW221735   6.016   3.084   0.186
 6946SOL     OW21736   6.149   5.379   2.402
 6946SOL    HW121737   6.244   5.409   2.390
 6946SOL    HW221738   6.099   5.392   2.316
 6947SOL     OW21739   4.389   6.708   4.999
 6947SOL    HW121740   4.445   6.698   4.917
 6947SOL    HW221741   4.424   6.648   5.071
 6948SOL     OW21742   5.679   0.559   0.473
 6948SOL    HW121743   5.608   0.536   0.406
 6948SOL    HW221744   5.766   0.573   0.425
 6949SOL     OW21745   5.263   6.396   3.741
 6949SOL    HW121746   5.221   6.316   3.782
 6949SOL    HW221747   5.340   6.426   3.797
 6950SOL     OW21748   2.476   6.960   3.508
 6950SOL    HW121749   2.537   6.889   3.544
 6950SOL    HW221750   2.427   7.003   3.584
 6951SOL     OW21751   6.379   6.174   6.120
 6951SOL    HW121752   6.399   6.258   6.069
 6951SOL    HW221753   6.383   6.192   6.218
 6952SOL     OW21754   7.008   5.203   3.656
 6952SOL    HW121755   0.023   5.117   3.613
 6952SOL    HW221756   6.926   5.185   3.711
 6953SOL     OW21757   5.230   0.149   6.102
 6953SOL    HW121758   5.141   0.105   6.110
 6953SOL    HW221759   5.237   0.223   6.169
 6954SOL     OW21760   1.253   4.221   3.977
 6954SOL    HW121761   1.313   4.179   3.909
 6954SOL    HW221762   1.232   4.316   3.950
 6955SOL     OW21763   0.235   0.279   1.814
 6955SOL    HW121764   0.191   0.351   1.868
 6955SOL    HW221765   0.293   0.320   1.744
 6956SOL     OW21766   4.022   6.308   2.871
 6956SOL    HW121767   3.973   6.258   2.799
 6956SOL    HW221768   4.106   6.258   2.894
 6957SOL     OW21769   6.875   4.431   1.231
 6957SOL    HW121770   6.920   4.499   1.173
 6957SOL    HW221771   6.929   4.416   1.314
 6958SOL     OW21772   2.863   3.571   5.765
 6958SOL    HW121773   2.943   3.552   5.822
 6958SOL    HW221774   2.839   3.668   5.772
 6959SOL     OW21775   1.660   1.251   4.934
 6959SOL    HW121776   1.729   1.316   4.968
 6959SOL    HW221777   1.706   1.171   4.897
 6960SOL     OW21778   0.710   5.155   0.215
 6960SOL    HW121779   0.805   5.182   0.198
 6960SOL    HW221780   0.649   5.227   0.183
 6961SOL     OW21781   0.301   2.719   4.447
 6961SOL    HW121782   0.332   2.624   4.447
 6961SOL    HW221783   0.201   2.721   4.447
 6962SOL     OW21784   5.603   5.252   2.718
 6962SOL    HW121785   5.650   5.164   2.707
 6962SOL    HW221786   5.650   5.306   2.788
 6963SOL     OW21787   0.372   5.801   0.766
 6963SOL    HW121788   0.438   5.761   0.830
 6963SOL    HW221789   0.353   5.896   0.794
 6964SOL     OW21790   4.968   4.711   5.011
 6964SOL    HW121791   5.059   4.714   5.052
 6964SOL    HW221792   4.900   4.738   5.079
 6965SOL     OW21793   0.275   3.615   6.085
 6965SOL    HW121794   0.325   3.676   6.146
 6965SOL    HW221795   0.339   3.563   6.029
 6966SOL     OW21796   5.926   2.603   2.761
 6966SOL    HW121797   5.875   2.527   2.801
 6966SOL    HW221798   5.937   2.587   2.663
 6967SOL     OW21799   1.542   1.719   5.230
 6967SOL    HW121800   1.610   1.782   5.268
 6967SOL    HW221801   1.563   1.700   5.135
 6968SOL     OW21802   3.487   6.280   2.391
 6968SOL    HW121803   3.551   6.354   2.368
 6968SOL    HW221804   3.405   6.319   2.433
 6969SOL     OW21805   3.994   1.929   2.053
 6969SOL    HW121806   3.914   1.896   2.004
 6969SOL    HW221807   3.965   1.985   2.131
 6970SOL     OW21808   4.164   4.274   0.711
 6970SOL    HW121809   4.212   4.256   0.625
 6970SOL    HW221810   4.090   4.207   0.722
 6971SOL     OW21811   6.421   3.960   2.333
 6971SOL    HW121812   6.384   3.994   2.420
 6971SOL    HW221813   6.345   3.927   2.276
 6972SOL     OW21814   6.088   4.813   4.538
 6972SOL    HW121815   6.154   4.842   4.607
 6972SOL    HW221816   6.029   4.890   4.512
 6973SOL     OW21817   1.138   3.855   4.668
 6973SOL    HW121818   1.158   3.917   4.592
 6973SOL    HW221819   1.055   3.885   4.715
 6974SOL     OW21820   3.386   3.035   3.451
 6974SOL    HW121821   3.457   3.089   3.496
 6974SOL    HW221822   3.334   2.984   3.519
 6975SOL     OW21823   3.033   6.463   6.015
 6975SOL    HW121824   2.979   6.544   5.995
 6975SOL    HW221825   3.128   6.490   6.033
 6976SOL     OW21826   4.211   3.769   5.581
 6976SOL    HW121827   4.225   3.834   5.656
 6976SOL    HW221828   4.149   3.696   5.610
 6977SOL     OW21829   5.643   2.269   1.308
 6977SOL    HW121830   5.627   2.330   1.385
 6977SOL    HW221831   5.563   2.210   1.295
 6978SOL     OW21832   6.003   1.647   1.314
 6978SOL    HW121833   6.023   1.556   1.350
 6978SOL    HW221834   5.918   1.682   1.354
 6979SOL     OW21835   1.572   4.475   1.416
 6979SOL    HW121836   1.487   4.446   1.460
 6979SOL    HW221837   1.645   4.480   1.484
 6980SOL     OW21838   1.650   0.534   4.010
 6980SOL    HW121839   1.557   0.502   3.997
 6980SOL    HW221840   1.649   0.621   4.060
 6981SOL     OW21841   2.533   3.004   7.010
 6981SOL    HW121842   2.554   3.079   6.947
 6981SOL    HW221843   2.433   2.992   0.000
 6982SOL     OW21844   1.647   1.569   3.993
 6982SOL    HW121845   1.677   1.652   3.945
 6982SOL    HW221846   1.635   1.590   4.090
 6983SOL     OW21847   6.049   2.264   3.342
 6983SOL    HW121848   6.093   2.352   3.328
 6983SOL    HW221849   6.118   2.194   3.360
 6984SOL     OW21850   2.540   1.636   5.004
 6984SOL    HW121851   2.569   1.692   5.081
 6984SOL    HW221852   2.577   1.674   4.919
 6985SOL     OW21853   3.568   5.257   2.627
 6985SOL    HW121854   3.488   5.200   2.608
 6985SOL    HW221855   3.648   5.199   2.642
 6986SOL     OW21856   1.950   6.379   5.860
 6986SOL    HW121857   1.968   6.407   5.954
 6986SOL    HW221858   1.853   6.354   5.850
 6987SOL     OW21859   0.661   2.158   6.567
 6987SOL    HW121860   0.755   2.186   6.545
 6987SOL    HW221861   0.624   2.104   6.492
 6988SOL     OW21862   5.861   0.975   5.019
 6988SOL    HW121863   5.887   1.007   5.110
 6988SOL    HW221864   5.816   0.887   5.026
 6989SOL     OW21865   0.801   2.700   3.678
 6989SOL    HW121866   0.763   2.778   3.629
 6989SOL    HW221867   0.872   2.657   3.623
 6990SOL     OW21868   5.490   1.577   0.028
 6990SOL    HW121869   5.491   1.618   0.119
 6990SOL    HW221870   5.579   1.537   0.008
 6991SOL     OW21871   2.844   4.734   4.649
 6991SOL    HW121872   2.760   4.784   4.672
 6991SOL    HW221873   2.896   4.718   4.733
 6992SOL     OW21874   6.105   5.869   5.083
 6992SOL    HW121875   6.102   5.893   4.986
 6992SOL    HW221876   6.091   5.952   5.138
 6993SOL     OW21877   6.097   6.930   3.017
 6993SOL    HW121878   6.089   0.014   3.007
 6993SOL    HW221879   6.180   6.898   2.971
 6994SOL     OW21880   0.705   3.194   4.823
 6994SOL    HW121881   0.666   3.193   4.731
 6994SOL    HW221882   0.696   3.104   4.864
 6995SOL     OW21883   6.428   5.091   4.880
 6995SOL    HW121884   6.434   5.176   4.827
 6995SOL    HW221885   6.334   5.076   4.908
 6996SOL     OW21886   2.060   1.194   4.847
 6996SOL    HW121887   2.109   1.109   4.829
 6996SOL    HW221888   2.015   1.225   4.763
 6997SOL     OW21889   5.207   6.097   5.488
 6997SOL    HW121890   5.243   6.190   5.497
 6997SOL    HW221891   5.277   6.039   5.446
 6998SOL     OW21892   1.717   2.527   1.494
 6998SOL    HW121893   1.793   2.591   1.484
 6998SOL    HW221894   1.641   2.555   1.435
 6999SOL     OW21895   2.408   1.969   6.739
 6999SOL    HW121896   2.380   2.044   6.799
 6999SOL    HW221897   2.328   1.933   6.691
 7000SOL     OW21898   6.817   6.310   2.795
 7000SOL    HW121899   6.882   6.263   2.855
 7000SOL    HW221900   6.726   6.308   2.837
 7001SOL     OW21901   2.394   3.073   5.485
 7001SOL    HW121902   2.330   3.149   5.495
 7001SOL    HW221903   2.430   3.071   5.391
 7002SOL     OW21904   2.425   4.690   2.808
 7002SOL    HW121905   2.439   4.607   2.753
 7002SOL    HW221906   2.500   4.700   2.873
 7003SOL     OW21907   3.860   6.606   6.978
 7003SOL    HW121908   3.833   6.657   0.045
 7003SOL    HW221909   3.951   6.567   6.993
 7004SOL     OW21910   2.150   5.032   1.369
 7004SOL    HW121911   2.051   5.024   1.363
 7004SOL    HW221912   2.188   4.953   1.417
 7005SOL     OW21913   0.803   6.721   5.535
 7005SOL    HW121914   0.753   6.649   5.485
 7005SOL    HW221915   0.739   6.773   5.590
 7006SOL     OW21916   5.787   4.860   4.717
 7006SOL    HW121917   5.754   4.774   4.757
 7006SOL    HW221918   5.757   4.937   4.774
 7007SOL     OW21919   5.074   6.497   2.962
 7007SOL    HW121920   5.155   6.480   3.017
 7007SOL    HW221921   5.010   6.554   3.015
 7008SOL     OW21922   2.255   5.442   4.500
 7008SOL    HW121923   2.337   5.496   4.483
 7008SOL    HW221924   2.177   5.483   4.452
 7009SOL     OW21925   5.676   5.383   2.476
 7009SOL    HW121926   5.760   5.354   2.521
 7009SOL    HW221927   5.614   5.306   2.468
 7010SOL     OW21928   4.621   3.917   6.191
 7010SOL    HW121929   4.644   3.830   6.234
 7010SOL    HW221930   4.525   3.915   6.162
 7011SOL     OW21931   1.692   0.814   5.993
 7011SOL    HW121932   1.744   0.899   5.988
 7011SOL    HW221933   1.606   0.831   6.041
 7012SOL     OW21934   2.033   0.992   2.133
 7012SOL    HW121935   2.090   1.071   2.151
 7012SOL    HW221936   2.004   0.993   2.037
 7013SOL     OW21937   0.121   6.736   0.750
 7013SOL    HW121938   0.088   6.829   0.732
 7013SOL    HW221939   0.200   6.740   0.811
 7014SOL     OW21940   4.358   3.533   1.019
 7014SOL    HW121941   4.431   3.598   1.000
 7014SOL    HW221942   4.397   3.445   1.047
 7015SOL     OW21943   5.346   4.467   1.957
 7015SOL    HW121944   5.319   4.488   2.051
 7015SOL    HW221945   5.387   4.549   1.915
 7016SOL     OW21946   3.571   4.862   2.228
 7016SOL    HW121947   3.589   4.795   2.157
 7016SOL    HW221948   3.473   4.866   2.246
 7017SOL     OW21949   2.251   0.378   2.168
 7017SOL    HW121950   2.187   0.402   2.241
 7017SOL    HW221951   2.292   0.288   2.187
 7018SOL     OW21952   6.423   4.400   4.579
 7018SOL    HW121953   6.423   4.500   4.575
 7018SOL    HW221954   6.385   4.363   4.495
 7019SOL     OW21955   3.162   4.654   6.465
 7019SOL    HW121956   3.122   4.739   6.500
 7019SOL    HW221957   3.149   4.650   6.366
 7020SOL     OW21958   6.239   6.488   6.535
 7020SOL    HW121959   6.319   6.548   6.529
 7020SOL    HW221960   6.202   6.490   6.628
 7021SOL     OW21961   2.173   0.708   5.301
 7021SOL    HW121962   2.257   0.752   5.333
 7021SOL    HW221963   2.108   0.701   5.377
 7022SOL     OW21964   4.411   4.327   0.880
 7022SOL    HW121965   4.327   4.325   0.826
 7022SOL    HW221966   4.461   4.241   0.867
 7023SOL     OW21967   0.408   2.209   3.552
 7023SOL    HW121968   0.408   2.296   3.502
 7023SOL    HW221969   0.360   2.222   3.639
 7024SOL     OW21970   1.350   5.352   6.058
 7024SOL    HW121971   1.409   5.387   5.985
 7024SOL    HW221972   1.258   5.390   6.048
 7025SOL     OW21973   2.981   1.652   0.411
 7025SOL    HW121974   2.971   1.627   0.315
 7025SOL    HW221975   2.905   1.612   0.464
 7026SOL     OW21976   2.913   1.491   2.201
 7026SOL    HW121977   2.889   1.405   2.246
 7026SOL    HW221978   2.946   1.556   2.269
 7027SOL     OW21979   2.972   5.440   2.707
 7027SOL    HW121980   2.905   5.391   2.651
 7027SOL    HW221981   2.943   5.438   2.803
 7028SOL     OW21982   6.053   6.295   4.755
 7028SOL    HW121983   6.090   6.204   4.737
 7028SOL    HW221984   6.004   6.329   4.675
 7029SOL     OW21985   3.878   6.982   7.012
 7029SOL    HW121986   3.967   0.004   0.026
 7029SOL    HW221987   3.809   7.009   0.064
 7030SOL     OW21988   6.812   2.407   6.036
 7030SOL    HW121989   6.828   2.502   6.011
 7030SOL    HW221990   6.886   2.375   6.095
 7031SOL     OW21991   2.136   5.876   3.751
 7031SOL    HW121992   2.186   5.792   3.731
 7031SOL    HW221993   2.171   5.918   3.834
 7032SOL     OW21994   3.135   6.570   3.693
 7032SOL    HW121995   3.224   6.552   3.652
 7032SOL    HW221996   3.126   6.669   3.710
 7033SOL     OW21997   6.993   1.739   3.473
 7033SOL    HW121998   6.950   1.661   3.517
 7033SOL    HW221999   6.971   1.740   3.376
 7034SOL     OW22000   6.364   0.606   2.784
 7034SOL    HW122001   6.320   0.544   2.719
 7034SOL    HW222002   6.439   0.653   2.739
 7035SOL     OW22003   1.178   6.812   2.093
 7035SOL    HW122004   1.109   6.801   2.165
 7035SOL    HW222005   1.203   6.722   2.058
 7036SOL     OW22006   6.552   0.026   1.456
 7036SOL    HW122007   6.635   0.001   1.407
 7036SOL    HW222008   6.534   6.972   1.527
 7037SOL     OW22009   0.998   0.001   6.219
 7037SOL    HW122010   1.048   6.941   6.263
 7037SOL    HW222011   1.061   0.054   6.162
 7038SOL     OW22012   1.776   3.830   4.154
 7038SOL    HW122013   1.818   3.836   4.244
 7038SOL    HW222014   1.699   3.893   4.149
 7039SOL     OW22015   2.637   6.162   0.693
 7039SOL    HW122016   2.548   6.117   0.687
 7039SOL    HW222017   2.636   6.245   0.637
 7040SOL     OW22018   4.892   2.506   5.143
 7040SOL    HW122019   4.860   2.449   5.220
 7040SOL    HW222020   4.814   2.556   5.106
 7041SOL     OW22021   0.787   1.706   3.027
 7041SOL    HW122022   0.794   1.620   3.078
 7041SOL    HW222023   0.772   1.685   2.930
 7042SOL     OW22024   5.624   5.401   6.904
 7042SOL    HW122025   5.706   5.384   6.848
 7042SOL    HW222026   5.560   5.456   6.852
 7043SOL     OW22027   2.059   2.473   3.021
 7043SOL    HW122028   2.069   2.494   3.118
 7043SOL    HW222029   2.147   2.481   2.975
 7044SOL     OW22030   4.992   4.573   3.291
 7044SOL    HW122031   4.995   4.487   3.341
 7044SOL    HW222032   5.084   4.598   3.261
 7045SOL     OW22033   4.552   5.972   1.996
 7045SOL    HW122034   4.480   5.923   1.947
 7045SOL    HW222035   4.519   5.998   2.086
 7046SOL     OW22036   3.701   1.957   3.599
 7046SOL    HW122037   3.788   1.907   3.604
 7046SOL    HW222038   3.688   1.991   3.505
 7047SOL     OW22039   1.044   2.379   2.915
 7047SOL    HW122040   1.121   2.372   2.978
 7047SOL    HW222041   1.052   2.308   2.845
 7048SOL     OW22042   0.211   5.666   1.436
 7048SOL    HW122043   0.113   5.647   1.430
 7048SOL    HW222044   0.225   5.762   1.463
 7049SOL     OW22045   2.251   1.077   0.910
 7049SOL    HW122046   2.227   1.126   0.826
 7049SOL    HW222047   2.319   1.130   0.960
 7050SOL     OW22048   3.629   4.152   3.804
 7050SOL    HW122049   3.572   4.175   3.883
 7050SOL    HW222050   3.723   4.138   3.834
 7051SOL     OW22051   0.212   0.834   0.917
 7051SOL    HW122052   0.120   0.795   0.923
 7051SOL    HW222053   0.280   0.763   0.936
 7052SOL     OW22054   6.186   2.877   4.175
 7052SOL    HW122055   6.235   2.939   4.236
 7052SOL    HW222056   6.147   2.802   4.228
 7053SOL     OW22057   0.995   2.955   4.909
 7053SOL    HW122058   0.951   3.033   4.952
 7053SOL    HW222059   0.976   2.872   4.962
 7054SOL     OW22060   1.019   6.398   1.188
 7054SOL    HW122061   1.052   6.349   1.268
 7054SOL    HW222062   1.068   6.484   1.179
 7055SOL     OW22063   3.819   6.406   5.323
 7055SOL    HW122064   3.908   6.443   5.296
 7055SOL    HW222065   3.756   6.481   5.339
 7056SOL     OW22066   5.367   5.508   3.974
 7056SOL    HW122067   5.357   5.433   4.040
 7056SOL    HW222068   5.444   5.566   4.000
 7057SOL     OW22069   1.507   5.178   4.238
 7057SOL    HW122070   1.480   5.099   4.294
 7057SOL    HW222071   1.586   5.153   4.182
 7058SOL     OW22072   6.088   5.549   6.385
 7058SOL    HW122073   6.183   5.561   6.358
 7058SOL    HW222074   6.035   5.630   6.358
 7059SOL     OW22075   0.911   0.717   3.155
 7059SOL    HW122076   0.960   0.700   3.240
 7059SOL    HW222077   0.925   0.640   3.093
 7060SOL     OW22078   2.888   6.937   1.605
 7060SOL    HW122079   2.939   6.864   1.560
 7060SOL    HW222080   2.862   7.006   1.537
 7061SOL     OW22081   0.344   2.615   3.861
 7061SOL    HW122082   0.379   2.684   3.798
 7061SOL    HW222083   0.325   2.531   3.811
 7062SOL     OW22084   5.341   1.715   6.375
 7062SOL    HW122085   5.256   1.664   6.390
 7062SOL    HW222086   5.377   1.694   6.284
 7063SOL     OW22087   0.453   0.280   1.126
 7063SOL    HW122088   0.470   0.239   1.215
 7063SOL    HW222089   0.484   0.375   1.127
 7064SOL     OW22090   4.024   2.147   1.790
 7064SOL    HW122091   3.964   2.078   1.830
 7064SOL    HW222092   3.969   2.221   1.752
 7065SOL     OW22093   4.229   3.891   0.477
 7065SOL    HW122094   4.260   3.885   0.382
 7065SOL    HW222095   4.135   3.925   0.480
 7066SOL     OW22096   4.137   0.840   0.876
 7066SOL    HW122097   4.213   0.858   0.814
 7066SOL    HW222098   4.073   0.776   0.834
 7067SOL     OW22099   1.316   1.775   5.420
 7067SOL    HW122100   1.275   1.690   5.454
 7067SOL    HW222101   1.404   1.754   5.378
 7068SOL     OW22102   0.853   4.298   3.213
 7068SOL    HW122103   0.758   4.307   3.243
 7068SOL    HW222104   0.892   4.214   3.249
 7069SOL     OW22105   6.214   2.734   3.936
 7069SOL    HW122106   6.123   2.747   3.897
 7069SOL    HW222107   6.226   2.795   4.014
 7070SOL     OW22108   0.118   6.203   5.015
 7070SOL    HW122109   0.171   6.270   5.067
 7070SOL    HW222110   0.020   6.223   5.025
 7071SOL     OW22111   0.936   6.316   6.349
 7071SOL    HW122112   1.002   6.281   6.415
 7071SOL    HW222113   0.952   6.274   6.260
 7072SOL     OW22114   0.056   6.535   6.091
 7072SOL    HW122115   0.060   6.436   6.103
 7072SOL    HW222116   6.980   6.569   6.116
 7073SOL     OW22117   5.685   0.056   4.542
 7073SOL    HW122118   5.682   0.155   4.551
 7073SOL    HW222119   5.711   0.015   4.630
 7074SOL     OW22120   4.162   2.920   1.429
 7074SOL    HW122121   4.177   2.857   1.506
 7074SOL    HW222122   4.103   2.877   1.361
 7075SOL     OW22123   1.031   6.060   5.857
 7075SOL    HW122124   1.092   6.098   5.788
 7075SOL    HW222125   1.040   5.961   5.859
 7076SOL     OW22126   3.939   2.598   6.686
 7076SOL    HW122127   3.957   2.618   6.783
 7076SOL    HW222128   3.856   2.645   6.657
 7077SOL     OW22129   2.126   4.781   5.848
 7077SOL    HW122130   2.139   4.870   5.803
 7077SOL    HW222131   2.053   4.788   5.916
 7078SOL     OW22132   6.455   0.344   1.423
 7078SOL    HW122133   6.519   0.349   1.500
 7078SOL    HW222134   6.477   0.265   1.366
 7079SOL     OW22135   6.924   6.077   5.271
 7079SOL    HW122136   6.861   6.100   5.346
 7079SOL    HW222137   6.961   5.986   5.285
 7080SOL     OW22138   3.593   2.118   4.246
 7080SOL    HW122139   3.526   2.144   4.317
 7080SOL    HW222140   3.630   2.028   4.267
 7081SOL     OW22141   2.818   0.632   6.000
 7081SOL    HW122142   2.755   0.558   6.025
 7081SOL    HW222143   2.875   0.603   5.923
 7082SOL     OW22144   5.905   5.610   6.677
 7082SOL    HW122145   5.845   5.644   6.605
 7082SOL    HW222146   5.892   5.512   6.688
 7083SOL     OW22147   3.332   1.078   6.712
 7083SOL    HW122148   3.395   1.027   6.771
 7083SOL    HW222149   3.355   1.061   6.616
 7084SOL     OW22150   6.994   6.983   5.425
 7084SOL    HW122151   6.994   6.894   5.379
 7084SOL    HW222152   6.920   6.986   5.492
 7085SOL     OW22153   2.336   0.919   2.832
 7085SOL    HW122154   2.397   0.998   2.840
 7085SOL    HW222155   2.366   0.861   2.756
 7086SOL     OW22156   4.894   1.001   5.677
 7086SOL    HW122157   4.869   1.073   5.743
 7086SOL    HW222158   4.830   1.003   5.600
 7087SOL     OW22159   6.085   4.168   3.896
 7087SOL    HW122160   6.050   4.078   3.867
 7087SOL    HW222161   6.034   4.240   3.848
 7088SOL     OW22162   5.062   2.773   3.271
 7088SOL    HW122163   5.146   2.719   3.263
 7088SOL    HW222164   4.983   2.713   3.269
 7089SOL     OW22165   3.465   2.126   5.972
 7089SOL    HW122166   3.422   2.193   6.033
 7089SOL    HW222167   3.551   2.096   6.011
 7090SOL     OW22168   2.652   1.274   6.484
 7090SOL    HW122169   2.610   1.273   6.394
 7090SOL    HW222170   2.742   1.232   6.479
 7091SOL     OW22171   6.947   2.231   0.232
 7091SOL    HW122172   0.009   2.171   0.251
 7091SOL    HW222173   6.904   2.259   0.318
 7092SOL     OW22174   4.735   2.677   6.042
 7092SOL    HW122175   4.771   2.734   6.116
 7092SOL    HW222176   4.794   2.687   5.962
 7093SOL     OW22177   3.237   3.821   3.514
 7093SOL    HW122178   3.146   3.797   3.478
 7093SOL    HW222179   3.246   3.920   3.519
 7094SOL     OW22180   0.683   5.635   6.144
 7094SOL    HW122181   0.629   5.583   6.078
 7094SOL    HW222182   0.746   5.573   6.191
 7095SOL     OW22183   3.263   3.044   6.762
 7095SOL    HW122184   3.320   3.114   6.720
 7095SOL    HW222185   3.315   2.998   6.834
 7096SOL     OW22186   6.260   0.624   4.085
 7096SOL    HW122187   6.314   0.570   4.021
 7096SOL    HW222188   6.316   0.695   4.125
 7097SOL     OW22189   6.319   0.749   1.665
 7097SOL    HW122190   6.366   0.702   1.591
 7097SOL    HW222191   6.376   0.747   1.747
 7098SOL     OW22192   0.523   6.926   4.198
 7098SOL    HW122193   0.567   6.840   4.224
 7098SOL    HW222194   0.567   6.964   4.117
 7099SOL     OW22195   2.526   0.384   4.648
 7099SOL    HW122196   2.434   0.421   4.662
 7099SOL    HW222197   2.529   0.289   4.679
 7100SOL     OW22198   5.772   3.390   1.006
 7100SOL    HW122199   5.740   3.469   0.954
 7100SOL    HW222200   5.831   3.421   1.080
 7101SOL     OW22201   2.376   0.409   4.961
 7101SOL    HW122202   2.334   0.453   4.882
 7101SOL    HW222203   2.354   0.311   4.959
 7102SOL     OW22204   4.665   0.645   1.177
 7102SOL    HW122205   4.604   0.567   1.171
 7102SOL    HW222206   4.695   0.657   1.272
 7103SOL     OW22207   4.591   5.218   0.927
 7103SOL    HW122208   4.635   5.293   0.976
 7103SOL    HW222209   4.546   5.254   0.845
 7104SOL     OW22210   1.440   3.342   4.581
 7104SOL    HW122211   1.489   3.351   4.494
 7104SOL    HW222212   1.347   3.310   4.564
 7105SOL     OW22213   2.632   2.817   5.440
 7105SOL    HW122214   2.698   2.745   5.419
 7105SOL    HW222215   2.666   2.905   5.405
 7106SOL     OW22216   3.218   2.970   3.231
 7106SOL    HW122217   3.284   2.995   3.303
 7106SOL    HW222218   3.127   2.961   3.272
 7107SOL     OW22219   3.575   1.046   0.745
 7107SOL    HW122220   3.536   0.961   0.781
 7107SOL    HW222221   3.503   1.114   0.735
 7108SOL     OW22222   4.199   6.174   1.920
 7108SOL    HW122223   4.208   6.074   1.922
 7108SOL    HW222224   4.278   6.213   1.872
 7109SOL     OW22225   4.101   0.128   6.470
 7109SOL    HW122226   4.045   0.066   6.415
 7109SOL    HW222227   4.068   0.128   6.565
 7110SOL     OW22228   4.739   5.762   3.687
 7110SOL    HW122229   4.791   5.681   3.659
 7110SOL    HW222230   4.723   5.758   3.786
 7111SOL     OW22231   2.539   2.334   4.596
 7111SOL    HW122232   2.480   2.280   4.535
 7111SOL    HW222233   2.616   2.278   4.626
 7112SOL     OW22234   2.434   5.814   3.852
 7112SOL    HW122235   2.466   5.745   3.918
 7112SOL    HW222236   2.386   5.887   3.901
 7113SOL     OW22237   3.086   4.023   5.103
 7113SOL    HW122238   2.997   4.015   5.148
 7113SOL    HW222239   3.145   3.947   5.131
 7114SOL     OW22240   4.041   6.762   1.865
 7114SOL    HW122241   4.112   6.759   1.794
 7114SOL    HW222242   4.079   6.728   1.951
 7115SOL     OW22243   5.460   2.737   2.280
 7115SOL    HW122244   5.413   2.818   2.314
 7115SOL    HW222245   5.496   2.684   2.357
 7116SOL     OW22246   5.650   3.191   3.332
 7116SOL    HW122247   5.725   3.249   3.299
 7116SOL    HW222248   5.563   3.231   3.304
 7117SOL     OW22249   0.107   6.952   4.463
 7117SOL    HW122250   0.189   6.952   4.406
 7117SOL    HW222251   0.094   6.862   4.505
 7118SOL     OW22252   3.179   4.251   0.708
 7118SOL    HW122253   3.232   4.307   0.772
 7118SOL    HW222254   3.196   4.154   0.727
 7119SOL     OW22255   5.494   1.714   3.470
 7119SOL    HW122256   5.522   1.808   3.489
 7119SOL    HW222257   5.394   1.708   3.470
 7120SOL     OW22258   4.197   1.969   2.641
 7120SOL    HW122259   4.201   1.903   2.565
 7120SOL    HW222260   4.230   2.058   2.609
 7121SOL     OW22261   2.863   6.862   2.354
 7121SOL    HW122262   2.816   6.936   2.402
 7121SOL    HW222263   2.805   6.781   2.352
 7122SOL     OW22264   6.829   0.830   5.926
 7122SOL    HW122265   6.888   0.889   5.980
 7122SOL    HW222266   6.855   0.836   5.829
 7123SOL     OW22267   2.566   4.952   1.316
 7123SOL    HW122268   2.612   4.972   1.229
 7123SOL    HW222269   2.519   4.864   1.309
 7124SOL     OW22270   0.516   3.081   0.848
 7124SOL    HW122271   0.560   3.129   0.772
 7124SOL    HW222272   0.474   3.148   0.910
 7125SOL     OW22273   6.555   6.732   0.852
 7125SOL    HW122274   6.519   6.821   0.822
 7125SOL    HW222275   6.650   6.723   0.824
 7126SOL     OW22276   3.403   4.884   6.811
 7126SOL    HW122277   3.384   4.916   6.718
 7126SOL    HW222278   3.332   4.919   6.873
 7127SOL     OW22279   2.578   5.821   4.297
 7127SOL    HW122280   2.656   5.775   4.339
 7127SOL    HW222281   2.546   5.894   4.358
 7128SOL     OW22282   2.050   5.891   0.279
 7128SOL    HW122283   2.074   5.822   0.347
 7128SOL    HW222284   1.951   5.901   0.274
 7129SOL     OW22285   3.180   0.528   0.431
 7129SOL    HW122286   3.193   0.455   0.498
 7129SOL    HW222287   3.248   0.517   0.358
 7130SOL     OW22288   3.370   4.613   5.318
 7130SOL    HW122289   3.367   4.513   5.315
 7130SOL    HW222290   3.284   4.649   5.282
 7131SOL     OW22291   2.886   1.280   0.273
 7131SOL    HW122292   2.923   1.277   0.180
 7131SOL    HW222293   2.789   1.255   0.272
 7132SOL     OW22294   2.918   4.039   0.231
 7132SOL    HW122295   2.871   4.003   0.311
 7132SOL    HW222296   3.012   4.063   0.255
 7133SOL     OW22297   4.524   5.561   3.658
 7133SOL    HW122298   4.568   5.637   3.611
 7133SOL    HW222299   4.566   5.475   3.629
 7134SOL     OW22300   5.956   5.898   2.246
 7134SOL    HW122301   6.039   5.908   2.192
 7134SOL    HW222302   5.935   5.985   2.292
 7135SOL     OW22303   2.072   2.172   3.306
 7135SOL    HW122304   2.088   2.207   3.214
 7135SOL    HW222305   2.069   2.072   3.304
 7136SOL     OW22306   1.755   2.799   0.887
 7136SOL    HW122307   1.677   2.738   0.902
 7136SOL    HW222308   1.768   2.857   0.967
 7137SOL     OW22309   4.723   0.661   6.295
 7137SOL    HW122310   4.675   0.578   6.268
 7137SOL    HW222311   4.822   0.648   6.285
 7138SOL     OW22312   2.023   2.697   0.413
 7138SOL    HW122313   2.069   2.785   0.403
 7138SOL    HW222314   1.993   2.685   0.508
 7139SOL     OW22315   4.775   4.192   2.725
 7139SOL    HW122316   4.719   4.269   2.693
 7139SOL    HW222317   4.792   4.130   2.648
 7140SOL     OW22318   5.598   3.440   4.432
 7140SOL    HW122319   5.509   3.398   4.413
 7140SOL    HW222320   5.636   3.400   4.516
 7141SOL     OW22321   2.566   5.924   1.016
 7141SOL    HW122322   2.468   5.946   1.018
 7141SOL    HW222323   2.582   5.849   0.952
 7142SOL     OW22324   4.499   0.183   3.253
 7142SOL    HW122325   4.421   0.167   3.192
 7142SOL    HW222326   4.519   0.281   3.257
 7143SOL     OW22327   1.891   2.730   6.232
 7143SOL    HW122328   1.958   2.743   6.158
 7143SOL    HW222329   1.894   2.635   6.263
 7144SOL     OW22330   1.790   1.355   3.366
 7144SOL    HW122331   1.821   1.395   3.452
 7144SOL    HW222332   1.694   1.375   3.352
 7145SOL     OW22333   4.730   6.489   6.144
 7145SOL    HW122334   4.635   6.472   6.168
 7145SOL    HW222335   4.778   6.525   6.224
 7146SOL     OW22336   2.201   0.545   6.545
 7146SOL    HW122337   2.214   0.455   6.586
 7146SOL    HW222338   2.180   0.534   6.448
 7147SOL     OW22339   6.303   6.108   3.044
 7147SOL    HW122340   6.338   6.130   3.135
 7147SOL    HW222341   6.267   6.191   3.001
 7148SOL     OW22342   6.913   6.594   1.380
 7148SOL    HW122343   6.843   6.561   1.316
 7148SOL    HW222344   6.883   6.680   1.420
 7149SOL     OW22345   6.585   6.741   3.262
 7149SOL    HW122346   6.530   6.689   3.327
 7149SOL    HW222347   6.597   6.834   3.296
 7150SOL     OW22348   4.633   2.182   1.934
 7150SOL    HW122349   4.571   2.251   1.971
 7150SOL    HW222350   4.609   2.164   1.838
 7151SOL     OW22351   1.402   6.053   0.526
 7151SOL    HW122352   1.499   6.030   0.536
 7151SOL    HW222353   1.356   5.981   0.475
 7152SOL     OW22354   0.544   1.832   4.969
 7152SOL    HW122355   0.509   1.799   4.881
 7152SOL    HW222356   0.575   1.927   4.959
 7153SOL     OW22357   3.133   6.040   3.026
 7153SOL    HW122358   3.155   6.074   2.935
 7153SOL    HW222359   3.179   5.952   3.041
 7154SOL     OW22360   4.129   6.392   4.731
 7154SOL    HW122361   4.046   6.372   4.783
 7154SOL    HW222362   4.115   6.475   4.677
 7155SOL     OW22363   2.829   5.212   1.794
 7155SOL    HW122364   2.831   5.115   1.815
 7155SOL    HW222365   2.770   5.228   1.714
 7156SOL     OW22366   0.633   3.937   4.730
 7156SOL    HW122367   0.615   3.995   4.650
 7156SOL    HW222368   0.607   3.843   4.709
 7157SOL     OW22369   6.191   4.146   1.304
 7157SOL    HW122370   6.157   4.056   1.279
 7157SOL    HW222371   6.122   4.215   1.282
 7158SOL     OW22372   1.066   0.140   2.637
 7158SOL    HW122373   1.165   0.139   2.624
 7158SOL    HW222374   1.044   0.103   2.728
 7159SOL     OW22375   0.227   4.395   2.909
 7159SOL    HW122376   0.196   4.305   2.879
 7159SOL    HW222377   0.165   4.465   2.872
 7160SOL     OW22378   6.053   0.424   3.283
 7160SOL    HW122379   6.132   0.477   3.312
 7160SOL    HW222380   5.982   0.429   3.353
 7161SOL     OW22381   3.184   4.143   4.865
 7161SOL    HW122382   3.140   4.218   4.817
 7161SOL    HW222383   3.143   4.132   4.956
 7162SOL     OW22384   2.248   5.676   5.678
 7162SOL    HW122385   2.182   5.637   5.613
 7162SOL    HW222386   2.247   5.623   5.762
 7163SOL     OW22387   2.798   6.071   3.433
 7163SOL    HW122388   2.846   6.091   3.348
 7163SOL    HW222389   2.734   6.144   3.454
 7164SOL     OW22390   2.007   1.642   3.405
 7164SOL    HW122391   2.085   1.605   3.354
 7164SOL    HW222392   1.922   1.602   3.371
 7165SOL     OW22393   6.677   1.735   1.519
 7165SOL    HW122394   6.682   1.681   1.434
 7165SOL    HW222395   6.691   1.831   1.497
 7166SOL     OW22396   5.399   3.039   0.500
 7166SOL    HW122397   5.417   3.038   0.598
 7166SOL    HW222398   5.327   2.974   0.478
 7167SOL     OW22399   5.217   3.735   4.843
 7167SOL    HW122400   5.310   3.759   4.815
 7167SOL    HW222401   5.213   3.636   4.861
 7168SOL     OW22402   1.317   2.435   4.145
 7168SOL    HW122403   1.294   2.459   4.239
 7168SOL    HW222404   1.303   2.514   4.086
 7169SOL     OW22405   0.585   3.636   4.970
 7169SOL    HW122406   0.582   3.730   5.003
 7169SOL    HW222407   0.624   3.577   5.041
 7170SOL     OW22408   4.844   6.175   3.751
 7170SOL    HW122409   4.858   6.150   3.655
 7170SOL    HW222410   4.750   6.155   3.777
 7171SOL     OW22411   5.742   4.306   6.105
 7171SOL    HW122412   5.839   4.280   6.106
 7171SOL    HW222413   5.686   4.223   6.102
 7172SOL     OW22414   1.543   0.595   5.222
 7172SOL    HW122415   1.585   0.612   5.311
 7172SOL    HW222416   1.462   0.654   5.211
 7173SOL     OW22417   0.591   4.833   5.244
 7173SOL    HW122418   0.547   4.883   5.169
 7173SOL    HW222419   0.643   4.756   5.206
 7174SOL     OW22420   0.967   5.294   6.584
 7174SOL    HW122421   1.013   5.381   6.601
 7174SOL    HW222422   0.947   5.249   6.671
 7175SOL     OW22423   5.414   3.684   0.254
 7175SOL    HW122424   5.449   3.737   0.331
 7175SOL    HW222425   5.385   3.747   0.181
 7176SOL     OW22426   1.173   5.771   3.277
 7176SOL    HW122427   1.158   5.719   3.193
 7176SOL    HW222428   1.216   5.859   3.255
 7177SOL     OW22429   2.568   6.619   4.273
 7177SOL    HW122430   2.522   6.650   4.357
 7177SOL    HW222431   2.651   6.568   4.298
 7178SOL     OW22432   2.299   3.820   5.920
 7178SOL    HW122433   2.229   3.791   5.855
 7178SOL    HW222434   2.390   3.798   5.884
 7179SOL     OW22435   1.787   3.632   4.877
 7179SOL    HW122436   1.702   3.587   4.907
 7179SOL    HW222437   1.770   3.680   4.791
 7180SOL     OW22438   1.391   4.599   6.396
 7180SOL    HW122439   1.460   4.663   6.430
 7180SOL    HW222440   1.324   4.581   6.468
 7181SOL     OW22441   2.156   5.701   0.775
 7181SOL    HW122442   2.101   5.642   0.716
 7181SOL    HW222443   2.110   5.711   0.863
 7182SOL     OW22444   1.811   3.104   5.352
 7182SOL    HW122445   1.812   3.182   5.414
 7182SOL    HW222446   1.902   3.090   5.314
 7183SOL     OW22447   1.374   5.630   0.737
 7183SOL    HW122448   1.364   5.719   0.782
 7183SOL    HW222449   1.377   5.558   0.807
 7184SOL     OW22450   0.998   0.349   2.950
 7184SOL    HW122451   1.039   0.261   2.923
 7184SOL    HW222452   0.995   0.355   3.050
 7185SOL     OW22453   5.227   1.451   5.949
 7185SOL    HW122454   5.220   1.356   5.918
 7185SOL    HW222455   5.217   1.512   5.870
 7186SOL     OW22456   7.003   0.058   6.416
 7186SOL    HW122457   6.936   0.006   6.363
 7186SOL    HW222458   0.016   0.004   6.495
 7187SOL     OW22459   2.934   4.442   0.280
 7187SOL    HW122460   2.914   4.527   0.231
 7187SOL    HW222461   2.991   4.383   0.222
 7188SOL     OW22462   5.924   6.819   0.253
 7188SOL    HW122463   5.869   6.863   0.182
 7188SOL    HW222464   5.871   6.747   0.297
 7189SOL     OW22465   6.445   1.260   6.435
 7189SOL    HW122466   6.391   1.237   6.516
 7189SOL    HW222467   6.384   1.265   6.355
 7190SOL     OW22468   6.129   3.791   3.107
 7190SOL    HW122469   6.177   3.829   3.187
 7190SOL    HW222470   6.187   3.800   3.026
 7191SOL     OW22471   0.571   4.211   2.692
 7191SOL    HW122472   0.510   4.137   2.720
 7191SOL    HW222473   0.535   4.298   2.724
 7192SOL     OW22474   3.323   5.059   5.385
 7192SOL    HW122475   3.363   5.037   5.297
 7192SOL    HW222476   3.354   5.150   5.414
 7193SOL     OW22477   2.606   1.552   3.158
 7193SOL    HW122478   2.543   1.475   3.151
 7193SOL    HW222479   2.613   1.580   3.254
 7194SOL     OW22480   2.650   1.964   0.806
 7194SOL    HW122481   2.599   2.029   0.861
 7194SOL    HW222482   2.729   2.010   0.764
 7195SOL     OW22483   0.350   5.125   6.079
 7195SOL    HW122484   0.388   5.180   6.154
 7195SOL    HW222485   0.417   5.056   6.051
 7196SOL     OW22486   3.370   4.109   1.932
 7196SOL    HW122487   3.271   4.106   1.942
 7196SOL    HW222488   3.413   4.093   2.021
 7197SOL     OW22489   6.899   2.344   6.391
 7197SOL    HW122490   6.815   2.291   6.402
 7197SOL    HW222491   6.967   2.288   6.342
 7198SOL     OW22492   0.505   1.071   5.811
 7198SOL    HW122493   0.567   1.001   5.845
 7198SOL    HW222494   0.549   1.120   5.735
 7199SOL     OW22495   2.256   0.485   1.896
 7199SOL    HW122496   2.203   0.567   1.877
 7199SOL    HW222497   2.231   0.450   1.987
 7200SOL     OW22498   2.108   1.885   0.414
 7200SOL    HW122499   2.059   1.904   0.328
 7200SOL    HW222500   2.194   1.839   0.394
 7201SOL     OW22501   1.733   5.334   3.878
 7201SOL    HW122502   1.756   5.312   3.973
 7201SOL    HW222503   1.639   5.305   3.859
 7202SOL     OW22504   4.115   0.387   5.824
 7202SOL    HW122505   4.130   0.340   5.737
 7202SOL    HW222506   4.025   0.363   5.860
 7203SOL     OW22507   0.215   1.600   1.052
 7203SOL    HW122508   0.128   1.614   1.004
 7203SOL    HW222509   0.281   1.669   1.023
 7204SOL     OW22510   6.264   6.610   5.177
 7204SOL    HW122511   6.283   6.513   5.163
 7204SOL    HW222512   6.192   6.639   5.114
 7205SOL     OW22513   2.214   6.056   3.174
 7205SOL    HW122514   2.231   6.126   3.105
 7205SOL    HW222515   2.249   5.968   3.141
 7206SOL     OW22516   2.093   0.447   1.449
 7206SOL    HW122517   2.169   0.480   1.392
 7206SOL    HW222518   2.022   0.517   1.454
 7207SOL     OW22519   4.005   6.483   1.464
 7207SOL    HW122520   4.007   6.583   1.465
 7207SOL    HW222521   3.978   6.448   1.554
 7208SOL     OW22522   4.443   6.216   4.224
 7208SOL    HW122523   4.500   6.157   4.167
 7208SOL    HW222524   4.368   6.254   4.169
 7209SOL     OW22525   3.516   2.992   2.091
 7209SOL    HW122526   3.550   3.003   1.997
 7209SOL    HW222527   3.569   2.920   2.136
 7210SOL     OW22528   4.634   0.106   4.396
 7210SOL    HW122529   4.694   0.175   4.436
 7210SOL    HW222530   4.675   0.070   4.312
 7211SOL     OW22531   2.205   5.519   3.969
 7211SOL    HW122532   2.219   5.423   3.994
 7211SOL    HW222533   2.234   5.533   3.874
 7212SOL     OW22534   1.155   6.240   3.365
 7212SOL    HW122535   1.056   6.247   3.376
 7212SOL    HW222536   1.201   6.293   3.436
 7213SOL     OW22537   6.096   0.593   6.615
 7213SOL    HW122538   6.126   0.504   6.650
 7213SOL    HW222539   6.167   0.631   6.557
 7214SOL     OW22540   1.368   5.669   4.656
 7214SOL    HW122541   1.440   5.670   4.587
 7214SOL    HW222542   1.279   5.680   4.611
 7215SOL     OW22543   0.443   3.069   4.087
 7215SOL    HW122544   0.513   3.090   4.020
 7215SOL    HW222545   0.406   2.977   4.070
 7216SOL     OW22546   2.300   6.254   6.690
 7216SOL    HW122547   2.365   6.188   6.728
 7216SOL    HW222548   2.303   6.250   6.590
 7217SOL     OW22549   2.145   4.536   2.095
 7217SOL    HW122550   2.230   4.509   2.139
 7217SOL    HW222551   2.163   4.557   1.999
 7218SOL     OW22552   4.323   2.727   5.294
 7218SOL    HW122553   4.335   2.826   5.299
 7218SOL    HW222554   4.240   2.706   5.243
 7219SOL     OW22555   5.536   6.187   4.080
 7219SOL    HW122556   5.527   6.252   4.155
 7219SOL    HW222557   5.449   6.141   4.064
 7220SOL     OW22558   0.448   5.577   3.699
 7220SOL    HW122559   0.507   5.580   3.618
 7220SOL    HW222560   0.380   5.505   3.688
 7221SOL     OW22561   5.660   4.912   5.258
 7221SOL    HW122562   5.567   4.902   5.223
 7221SOL    HW222563   5.699   4.821   5.274
 7222SOL     OW22564   6.301   0.470   2.078
 7222SOL    HW122565   6.201   0.467   2.072
 7222SOL    HW222566   6.334   0.389   2.125
 7223SOL     OW22567   2.999   2.036   1.497
 7223SOL    HW122568   3.010   2.107   1.566
 7223SOL    HW222569   2.954   1.956   1.537
 7224SOL     OW22570   5.912   1.981   3.972
 7224SOL    HW122571   5.825   1.941   4.001
 7224SOL    HW222572   5.974   1.908   3.943
 7225SOL     OW22573   1.409   6.528   6.182
 7225SOL    HW122574   1.344   6.604   6.191
 7225SOL    HW222575   1.367   6.444   6.214
 7226SOL     OW22576   0.982   0.425   0.728
 7226SOL    HW122577   0.903   0.473   0.767
 7226SOL    HW222578   1.030   0.485   0.664
 7227SOL     OW22579   0.174   2.887   1.041
 7227SOL    HW122580   0.180   2.952   1.116
 7227SOL    HW222581   0.147   2.798   1.076
 7228SOL     OW22582   6.994   1.270   2.373
 7228SOL    HW122583   0.071   1.280   2.336
 7228SOL    HW222584   6.957   1.360   2.396
 7229SOL     OW22585   1.508   0.932   3.924
 7229SOL    HW122586   1.556   1.020   3.923
 7229SOL    HW222587   1.549   0.873   3.995
 7230SOL     OW22588   5.099   5.809   4.840
 7230SOL    HW122589   5.031   5.755   4.790
 7230SOL    HW222590   5.134   5.881   4.781
 7231SOL     OW22591   5.103   6.760   6.875
 7231SOL    HW122592   5.186   6.813   6.864
 7231SOL    HW222593   5.120   6.681   6.933
 7232SOL     OW22594   4.409   5.288   3.465
 7232SOL    HW122595   4.384   5.196   3.495
 7232SOL    HW222596   4.507   5.292   3.446
 7233SOL     OW22597   0.562   2.501   5.100
 7233SOL    HW122598   0.580   2.572   5.032
 7233SOL    HW222599   0.547   2.544   5.189
 7234SOL     OW22600   5.720   2.720   3.111
 7234SOL    HW122601   5.809   2.675   3.103
 7234SOL    HW222602   5.733   2.812   3.149
 7235SOL     OW22603   6.303   4.624   3.079
 7235SOL    HW122604   6.285   4.634   2.981
 7235SOL    HW222605   6.241   4.684   3.130
 7236SOL     OW22606   3.094   1.376   2.631
 7236SOL    HW122607   3.041   1.310   2.579
 7236SOL    HW222608   3.070   1.370   2.728
 7237SOL     OW22609   6.470   6.609   5.639
 7237SOL    HW122610   6.541   6.538   5.633
 7237SOL    HW222611   6.450   6.643   5.547
 7238SOL     OW22612   2.377   2.220   1.145
 7238SOL    HW122613   2.468   2.200   1.181
 7238SOL    HW222614   2.348   2.146   1.084
 7239SOL     OW22615   2.602   1.343   3.874
 7239SOL    HW122616   2.513   1.310   3.906
 7239SOL    HW222617   2.591   1.433   3.832
 7240SOL     OW22618   2.179   4.140   6.732
 7240SOL    HW122619   2.251   4.164   6.797
 7240SOL    HW222620   2.153   4.044   6.746
 7241SOL     OW22621   3.448   0.757   6.931
 7241SOL    HW122622   3.506   0.693   6.981
 7241SOL    HW222623   3.494   0.846   6.924
 7242SOL     OW22624   6.891   5.028   6.734
 7242SOL    HW122625   6.979   4.998   6.772
 7242SOL    HW222626   6.818   4.973   6.773
 7243SOL     OW22627   0.775   4.719   6.431
 7243SOL    HW122628   0.850   4.757   6.485
 7243SOL    HW222629   0.811   4.686   6.343
 7244SOL     OW22630   4.726   0.685   1.433
 7244SOL    HW122631   4.822   0.658   1.440
 7244SOL    HW222632   4.714   0.776   1.471
 7245SOL     OW22633   0.630   1.809   4.649
 7245SOL    HW122634   0.606   1.717   4.616
 7245SOL    HW222635   0.729   1.817   4.655
 7246SOL     OW22636   6.141   6.737   4.683
 7246SOL    HW122637   6.124   6.820   4.631
 7246SOL    HW222638   6.101   6.659   4.635
 7247SOL     OW22639   2.567   6.433   3.115
 7247SOL    HW122640   2.471   6.421   3.088
 7247SOL    HW222641   2.625   6.373   3.061
 7248SOL     OW22642   4.298   0.883   3.136
 7248SOL    HW122643   4.238   0.857   3.212
 7248SOL    HW222644   4.351   0.804   3.107
 7249SOL     OW22645   5.634   4.882   2.000
 7249SOL    HW122646   5.589   4.794   1.985
 7249SOL    HW222647   5.732   4.867   2.015
 7250SOL     OW22648   3.260   5.287   6.308
 7250SOL    HW122649   3.275   5.337   6.392
 7250SOL    HW222650   3.162   5.285   6.287
 7251SOL     OW22651   0.017   6.521   5.318
 7251SOL    HW122652   6.967   6.509   5.393
 7251SOL    HW222653   0.030   6.619   5.300
 7252SOL     OW22654   3.363   3.303   3.970
 7252SOL    HW122655   3.453   3.315   4.013
 7252SOL    HW222656   3.358   3.212   3.928
 7253SOL     OW22657   1.486   0.199   0.280
 7253SOL    HW122658   1.389   0.221   0.288
 7253SOL    HW222659   1.504   0.110   0.322
 7254SOL     OW22660   4.563   4.918   5.098
 7254SOL    HW122661   4.527   4.863   5.022
 7254SOL    HW222662   4.503   4.908   5.177
 7255SOL     OW22663   3.660   3.732   1.992
 7255SOL    HW122664   3.590   3.745   2.063
 7255SOL    HW222665   3.616   3.701   1.908
 7256SOL     OW22666   5.079   4.737   4.510
 7256SOL    HW122667   5.019   4.790   4.570
 7256SOL    HW222668   5.161   4.711   4.560
 7257SOL     OW22669   6.250   2.991   3.179
 7257SOL    HW122670   6.157   3.011   3.150
 7257SOL    HW222671   6.307   2.975   3.098
 7258SOL     OW22672   3.843   0.402   3.890
 7258SOL    HW122673   3.896   0.318   3.884
 7258SOL    HW222674   3.838   0.431   3.986
 7259SOL     OW22675   3.128   4.103   1.257
 7259SOL    HW122676   3.127   4.010   1.219
 7259SOL    HW222677   3.043   4.149   1.231
 7260SOL     OW22678   3.363   2.092   2.980
 7260SOL    HW122679   3.292   2.081   3.050
 7260SOL    HW222680   3.450   2.056   3.015
 7261SOL     OW22681   3.269   2.833   1.550
 7261SOL    HW122682   3.349   2.786   1.512
 7261SOL    HW222683   3.248   2.795   1.640
 7262SOL     OW22684   5.933   2.738   3.829
 7262SOL    HW122685   5.900   2.832   3.834
 7262SOL    HW222686   5.988   2.726   3.747
 7263SOL     OW22687   0.564   5.640   2.091
 7263SOL    HW122688   0.629   5.580   2.139
 7263SOL    HW222689   0.494   5.584   2.048
 7264SOL     OW22690   6.645   1.804   6.887
 7264SOL    HW122691   6.692   1.873   6.832
 7264SOL    HW222692   6.713   1.752   6.939
 7265SOL     OW22693   5.424   5.230   5.972
 7265SOL    HW122694   5.416   5.294   5.896
 7265SOL    HW222695   5.450   5.140   5.936
 7266SOL     OW22696   4.338   0.891   0.663
 7266SOL    HW122697   4.298   0.937   0.585
 7266SOL    HW222698   4.430   0.927   0.680
 7267SOL     OW22699   6.966   4.878   5.380
 7267SOL    HW122700   6.924   4.837   5.299
 7267SOL    HW222701   0.021   4.817   5.415
 7268SOL     OW22702   4.327   4.864   3.054
 7268SOL    HW122703   4.384   4.918   2.991
 7268SOL    HW222704   4.291   4.784   3.006
 7269SOL     OW22705   6.908   5.682   1.533
 7269SOL    HW122706   6.845   5.759   1.546
 7269SOL    HW222707   6.953   5.661   1.620
 7270SOL     OW22708   1.492   2.567   3.304
 7270SOL    HW122709   1.503   2.468   3.311
 7270SOL    HW222710   1.547   2.611   3.375
 7271SOL     OW22711   0.816   4.759   3.199
 7271SOL    HW122712   0.910   4.790   3.214
 7271SOL    HW222713   0.817   4.664   3.167
 7272SOL     OW22714   5.863   3.301   2.529
 7272SOL    HW122715   5.803   3.315   2.451
 7272SOL    HW222716   5.958   3.299   2.498
 7273SOL     OW22717   5.919   4.555   2.126
 7273SOL    HW122718   5.826   4.520   2.115
 7273SOL    HW222719   5.984   4.479   2.124
 7274SOL     OW22720   6.795   6.099   6.270
 7274SOL    HW122721   6.788   6.049   6.356
 7274SOL    HW222722   6.791   6.035   6.194
 7275SOL     OW22723   6.246   0.434   0.461
 7275SOL    HW122724   6.165   0.429   0.520
 7275SOL    HW222725   6.275   0.530   0.454
 7276SOL     OW22726   3.203   1.094   3.373
 7276SOL    HW122727   3.278   1.039   3.411
 7276SOL    HW222728   3.229   1.190   3.374
 7277SOL     OW22729   5.434   1.014   5.315
 7277SOL    HW122730   5.436   1.050   5.221
 7277SOL    HW222731   5.356   1.054   5.363
 7278SOL     OW22732   3.614   2.001   3.047
 7278SOL    HW122733   3.698   2.047   3.075
 7278SOL    HW222734   3.632   1.943   2.968
 7279SOL     OW22735   4.269   4.161   0.162
 7279SOL    HW122736   4.274   4.219   0.081
 7279SOL    HW222737   4.361   4.149   0.200
 7280SOL     OW22738   5.507   2.120   4.834
 7280SOL    HW122739   5.421   2.072   4.851
 7280SOL    HW222740   5.532   2.113   4.738
 7281SOL     OW22741   3.442   6.940   0.811
 7281SOL    HW122742   3.354   6.907   0.776
 7281SOL    HW222743   3.453   6.911   0.906
 7282SOL     OW22744   6.752   5.470   2.022
 7282SOL    HW122745   6.654   5.453   2.016
 7282SOL    HW222746   6.768   5.558   2.066
 7283SOL     OW22747   3.108   6.384   1.687
 7283SOL    HW122748   3.026   6.364   1.740
 7283SOL    HW222749   3.163   6.453   1.734
 7284SOL     OW22750   6.733   2.741   3.685
 7284SOL    HW122751   6.708   2.835   3.665
 7284SOL    HW222752   6.821   2.738   3.732
 7285SOL     OW22753   5.025   3.405   1.445
 7285SOL    HW122754   5.040   3.427   1.541
 7285SOL    HW222755   5.085   3.330   1.418
 7286SOL     OW22756   0.801   1.290   0.859
 7286SOL    HW122757   0.757   1.347   0.929
 7286SOL    HW222758   0.737   1.274   0.784
 7287SOL     OW22759   0.053   2.544   4.058
 7287SOL    HW122760   7.012   2.580   4.132
 7287SOL    HW222761   0.149   2.545   4.085
 7288SOL     OW22762   1.956   2.930   2.436
 7288SOL    HW122763   1.996   2.873   2.508
 7288SOL    HW222764   1.950   2.876   2.351
 7289SOL     OW22765   5.464   2.976   1.852
 7289SOL    HW122766   5.465   2.905   1.922
 7289SOL    HW222767   5.401   2.950   1.779
 7290SOL     OW22768   3.747   1.126   5.133
 7290SOL    HW122769   3.733   1.176   5.048
 7290SOL    HW222770   3.804   1.045   5.116
 7291SOL     OW22771   3.669   0.207   0.392
 7291SOL    HW122772   3.677   0.128   0.453
 7291SOL    HW222773   3.663   0.290   0.447
 7292SOL     OW22774   2.009   6.476   3.582
 7292SOL    HW122775   2.101   6.466   3.546
 7292SOL    HW222776   2.012   6.487   3.681
 7293SOL     OW22777   1.315   1.368   5.994
 7293SOL    HW122778   1.295   1.322   5.908
 7293SOL    HW222779   1.230   1.407   6.031
 7294SOL     OW22780   3.099   4.617   1.717
 7294SOL    HW122781   3.023   4.572   1.764
 7294SOL    HW222782   3.102   4.586   1.622
 7295SOL     OW22783   6.351   4.784   1.464
 7295SOL    HW122784   6.408   4.833   1.530
 7295SOL    HW222785   6.269   4.749   1.510
 7296SOL     OW22786   3.464   5.216   2.958
 7296SOL    HW122787   3.368   5.221   2.988
 7296SOL    HW222788   3.479   5.129   2.911
 7297SOL     OW22789   3.133   6.153   1.534
 7297SOL    HW122790   3.111   6.242   1.573
 7297SOL    HW222791   3.159   6.164   1.438
 7298SOL     OW22792   4.693   6.388   6.759
 7298SOL    HW122793   4.677   6.459   6.828
 7298SOL    HW222794   4.617   6.323   6.760
 7299SOL     OW22795   1.362   2.257   0.526
 7299SOL    HW122796   1.449   2.286   0.486
 7299SOL    HW222797   1.367   2.161   0.553
 7300SOL     OW22798   0.537   4.950   1.815
 7300SOL    HW122799   0.590   4.871   1.784
 7300SOL    HW222800   0.586   4.998   1.887
 7301SOL     OW22801   0.333   0.407   5.813
 7301SOL    HW122802   0.366   0.313   5.825
 7301SOL    HW222803   0.251   0.408   5.757
 7302SOL     OW22804   6.088   2.180   5.823
 7302SOL    HW122805   6.007   2.188   5.764
 7302SOL    HW222806   6.105   2.267   5.868
 7303SOL     OW22807   3.148   1.071   6.943
 7303SOL    HW122808   3.220   1.053   6.876
 7303SOL    HW222809   3.154   1.003   0.002
 7304SOL     OW22810   2.379   5.175   1.287
 7304SOL    HW122811   2.457   5.114   1.273
 7304SOL    HW222812   2.300   5.122   1.316
 7305SOL     OW22813   5.434   2.374   0.783
 7305SOL    HW122814   5.426   2.473   0.798
 7305SOL    HW222815   5.346   2.339   0.751
 7306SOL     OW22816   3.731   1.539   1.587
 7306SOL    HW122817   3.689   1.596   1.657
 7306SOL    HW222818   3.825   1.517   1.614
 7307SOL     OW22819   3.908   6.491   2.103
 7307SOL    HW122820   3.909   6.590   2.117
 7307SOL    HW222821   4.002   6.456   2.108
 7308SOL     OW22822   6.678   0.969   2.763
 7308SOL    HW122823   6.611   1.042   2.750
 7308SOL    HW222824   6.743   0.996   2.834
 7309SOL     OW22825   2.477   6.252   2.756
 7309SOL    HW122826   2.397   6.212   2.800
 7309SOL    HW222827   2.489   6.211   2.665
 7310SOL     OW22828   1.419   3.030   0.075
 7310SOL    HW122829   1.418   3.074   7.000
 7310SOL    HW222830   1.467   2.942   0.068
 7311SOL     OW22831   0.876   0.366   0.326
 7311SOL    HW122832   0.805   0.365   0.396
 7311SOL    HW222833   0.842   0.319   0.244
 7312SOL     OW22834   0.468   1.339   4.821
 7312SOL    HW122835   0.412   1.403   4.769
 7312SOL    HW222836   0.424   1.249   4.822
 7313SOL     OW22837   2.575   1.275   0.792
 7313SOL    HW122838   2.622   1.191   0.764
 7313SOL    HW222839   2.542   1.264   0.886
 7314SOL     OW22840   0.449   4.187   6.759
 7314SOL    HW122841   0.449   4.145   6.668
 7314SOL    HW222842   0.482   4.281   6.752
 7315SOL     OW22843   6.446   5.462   2.354
 7315SOL    HW122844   6.487   5.490   2.441
 7315SOL    HW222845   6.514   5.410   2.301
 7316SOL     OW22846   3.257   1.836   6.117
 7316SOL    HW122847   3.293   1.907   6.178
 7316SOL    HW222848   3.166   1.809   6.148
 7317SOL     OW22849   3.392   1.596   2.184
 7317SOL    HW122850   3.305   1.634   2.153
 7317SOL    HW222851   3.417   1.637   2.271
 7318SOL     OW22852   3.945   6.993   2.251
 7318SOL    HW122853   3.997   0.019   2.326
 7318SOL    HW222854   3.938   0.043   2.175
 7319SOL     OW22855   0.005   3.173   6.491
 7319SOL    HW122856   6.949   3.105   6.477
 7319SOL    HW222857   0.092   3.128   6.510
 7320SOL     OW22858   6.684   4.200   1.217
 7320SOL    HW122859   6.714   4.125   1.158
 7320SOL    HW222860   6.759   4.264   1.231
 7321SOL     OW22861   1.764   6.672   5.982
 7321SOL    HW122862   1.775   6.651   6.079
 7321SOL    HW222863   1.670   6.651   5.954
 7322SOL     OW22864   0.742   2.440   3.343
 7322SOL    HW122865   0.808   2.392   3.285
 7322SOL    HW222866   0.768   2.537   3.349
 7323SOL     OW22867   2.431   1.433   1.765
 7323SOL    HW122868   2.516   1.463   1.722
 7323SOL    HW222869   2.359   1.431   1.696
 7324SOL     OW22870   6.063   4.331   2.246
 7324SOL    HW122871   6.104   4.395   2.311
 7324SOL    HW222872   5.977   4.296   2.284
 7325SOL     OW22873   3.125   0.514   5.602
 7325SOL    HW122874   3.213   0.560   5.610
 7325SOL    HW222875   3.139   0.421   5.569
 7326SOL     OW22876   4.006   0.568   6.641
 7326SOL    HW122877   3.977   0.509   6.566
 7326SOL    HW222878   4.038   0.656   6.605
 7327SOL     OW22879   6.052   4.172   3.377
 7327SOL    HW122880   6.082   4.097   3.435
 7327SOL    HW222881   6.128   4.235   3.361
 7328SOL     OW22882   4.081   5.439   5.821
 7328SOL    HW122883   4.121   5.406   5.735
 7328SOL    HW222884   4.067   5.361   5.882
 7329SOL     OW22885   0.598   2.663   0.526
 7329SOL    HW122886   0.627   2.575   0.563
 7329SOL    HW222887   0.603   2.660   0.426
 7330SOL     OW22888   3.138   2.771   1.294
 7330SOL    HW122889   3.187   2.751   1.379
 7330SOL    HW222890   3.049   2.811   1.315
 7331SOL     OW22891   4.717   0.079   1.978
 7331SOL    HW122892   4.621   0.060   2.000
 7331SOL    HW222893   4.776   0.018   2.031
 7332SOL     OW22894   3.964   4.049   7.012
 7332SOL    HW122895   4.039   4.112   6.994
 7332SOL    HW222896   3.898   4.091   0.060
 7333SOL     OW22897   5.991   3.090   3.129
 7333SOL    HW122898   5.966   3.186   3.137
 7333SOL    HW222899   6.012   3.068   3.034
 7334SOL     OW22900   2.724   5.874   6.288
 7334SOL    HW122901   2.732   5.929   6.205
 7334SOL    HW222902   2.666   5.922   6.354
 7335SOL     OW22903   6.933   3.424   2.776
 7335SOL    HW122904   0.008   3.381   2.789
 7335SOL    HW222905   6.942   3.523   2.788
 7336SOL     OW22906   1.916   6.316   0.829
 7336SOL    HW122907   1.830   6.307   0.778
 7336SOL    HW222908   1.993   6.300   0.768
 7337SOL     OW22909   3.451   2.654   1.463
 7337SOL    HW122910   3.467   2.594   1.542
 7337SOL    HW222911   3.532   2.653   1.404
 7338SOL     OW22912   5.695   2.884   1.180
 7338SOL    HW122913   5.749   2.857   1.259
 7338SOL    HW222914   5.685   2.984   1.179
 7339SOL     OW22915   0.373   6.571   5.348
 7339SOL    HW122916   0.362   6.660   5.304
 7339SOL    HW222917   0.348   6.577   5.444
 7340SOL     OW22918   3.540   1.028   6.903
 7340SOL    HW122919   3.497   1.088   6.970
 7340SOL    HW222920   3.566   1.081   6.823
 7341SOL     OW22921   1.027   5.165   4.320
 7341SOL    HW122922   1.030   5.185   4.418
 7341SOL    HW222923   0.958   5.095   4.303
 7342SOL     OW22924   6.768   0.456   0.607
 7342SOL    HW122925   6.739   0.402   0.686
 7342SOL    HW222926   6.735   0.550   0.618
 7343SOL     OW22927   5.532   3.771   2.072
 7343SOL    HW122928   5.587   3.723   2.140
 7343SOL    HW222929   5.584   3.847   2.035
 7344SOL     OW22930   1.780   6.961   6.733
 7344SOL    HW122931   1.833   6.897   6.676
 7344SOL    HW222932   1.684   6.954   6.708
 7345SOL     OW22933   4.715   4.797   6.062
 7345SOL    HW122934   4.766   4.882   6.050
 7345SOL    HW222935   4.706   4.777   6.160
 7346SOL     OW22936   4.209   3.940   1.164
 7346SOL    HW122937   4.297   3.917   1.205
 7346SOL    HW222938   4.166   4.014   1.216
 7347SOL     OW22939   6.589   2.408   2.551
 7347SOL    HW122940   6.662   2.351   2.513
 7347SOL    HW222941   6.532   2.442   2.476
 7348SOL     OW22942   1.702   3.664   3.498
 7348SOL    HW122943   1.771   3.607   3.453
 7348SOL    HW222944   1.729   3.680   3.593
 7349SOL     OW22945   3.710   1.615   1.253
 7349SOL    HW122946   3.655   1.608   1.336
 7349SOL    HW222947   3.726   1.524   1.215
 7350SOL     OW22948   0.370   3.206   3.721
 7350SOL    HW122949   0.270   3.213   3.712
 7350SOL    HW222950   0.411   3.296   3.704
 7351SOL     OW22951   3.824   4.270   6.392
 7351SOL    HW122952   3.853   4.366   6.394
 7351SOL    HW222953   3.727   4.265   6.368
 7352SOL     OW22954   1.390   1.852   3.527
 7352SOL    HW122955   1.295   1.844   3.497
 7352SOL    HW222956   1.441   1.772   3.495
 7353SOL     OW22957   0.349   1.669   5.416
 7353SOL    HW122958   0.342   1.679   5.317
 7353SOL    HW222959   0.257   1.656   5.454
 7354SOL     OW22960   0.149   0.734   6.295
 7354SOL    HW122961   0.235   0.784   6.301
 7354SOL    HW222962   0.117   0.732   6.200
 7355SOL     OW22963   1.367   5.711   1.084
 7355SOL    HW122964   1.315   5.634   1.122
 7355SOL    HW222965   1.353   5.791   1.142
 7356SOL     OW22966   5.456   2.438   6.230
 7356SOL    HW122967   5.550   2.429   6.196
 7356SOL    HW222968   5.445   2.382   6.312
 7357SOL     OW22969   4.716   0.984   1.497
 7357SOL    HW122970   4.702   1.021   1.405
 7357SOL    HW222971   4.810   1.001   1.526
 7358SOL     OW22972   2.590   2.025   2.299
 7358SOL    HW122973   2.661   2.092   2.279
 7358SOL    HW222974   2.608   1.983   2.388
 7359SOL     OW22975   3.621   2.833   0.919
 7359SOL    HW122976   3.588   2.752   0.966
 7359SOL    HW222977   3.582   2.836   0.827
 7360SOL     OW22978   2.117   2.357   5.523
 7360SOL    HW122979   2.069   2.445   5.522
 7360SOL    HW222980   2.180   2.353   5.446
 7361SOL     OW22981   4.689   6.841   1.466
 7361SOL    HW122982   4.720   6.936   1.477
 7361SOL    HW222983   4.699   6.793   1.553
 7362SOL     OW22984   0.692   6.988   4.527
 7362SOL    HW122985   0.729   6.946   4.444
 7362SOL    HW222986   0.742   0.057   4.547
 7363SOL     OW22987   4.835   1.807   0.269
 7363SOL    HW122988   4.808   1.812   0.365
 7363SOL    HW222989   4.933   1.788   0.263
 7364SOL     OW22990   4.272   6.330   1.572
 7364SOL    HW122991   4.290   6.421   1.533
 7364SOL    HW222992   4.252   6.265   1.499
 7365SOL     OW22993   2.749   6.392   2.271
 7365SOL    HW122994   2.749   6.335   2.189
 7365SOL    HW222995   2.766   6.335   2.352
 7366SOL     OW22996   1.149   5.296   0.282
 7366SOL    HW122997   1.210   5.339   0.215
 7366SOL    HW222998   1.133   5.360   0.358
 7367SOL     OW22999   4.338   3.856   0.922
 7367SOL    HW123000   4.434   3.874   0.940
 7367SOL    HW223001   4.284   3.877   1.003
 7368SOL     OW23002   3.061   3.086   4.022
 7368SOL    HW123003   3.026   3.144   3.949
 7368SOL    HW223004   2.986   3.063   4.084
 7369SOL     OW23005   4.870   3.465   0.689
 7369SOL    HW123006   4.781   3.441   0.729
 7369SOL    HW223007   4.921   3.521   0.754
 7370SOL     OW23008   1.932   0.989   6.001
 7370SOL    HW123009   2.001   0.945   5.943
 7370SOL    HW223010   1.873   1.047   5.945
 7371SOL     OW23011   3.015   5.444   4.459
 7371SOL    HW123012   3.114   5.461   4.466
 7371SOL    HW223013   2.987   5.382   4.532
 7372SOL     OW23014   3.384   0.225   5.524
 7372SOL    HW123015   3.431   0.279   5.454
 7372SOL    HW223016   3.287   0.248   5.524
 7373SOL     OW23017   4.426   1.396   3.421
 7373SOL    HW123018   4.461   1.303   3.413
 7373SOL    HW223019   4.369   1.417   3.342
 7374SOL     OW23020   1.715   2.787   5.403
 7374SOL    HW123021   1.674   2.836   5.326
 7374SOL    HW223022   1.715   2.845   5.484
 7375SOL     OW23023   1.477   1.825   4.117
 7375SOL    HW123024   1.381   1.818   4.144
 7375SOL    HW223025   1.483   1.836   4.018
 7376SOL     OW23026   3.187   2.599   6.980
 7376SOL    HW123027   3.137   2.664   6.922
 7376SOL    HW223028   3.262   2.559   6.928
 7377SOL     OW23029   4.345   5.368   2.293
 7377SOL    HW123030   4.338   5.334   2.387
 7377SOL    HW223031   4.358   5.290   2.231
 7378SOL     OW23032   6.762   1.992   4.424
 7378SOL    HW123033   6.721   2.061   4.483
 7378SOL    HW223034   6.703   1.911   4.423
 7379SOL     OW23035   4.301   1.316   2.869
 7379SOL    HW123036   4.386   1.287   2.824
 7379SOL    HW223037   4.288   1.414   2.856
 7380SOL     OW23038   0.557   3.282   5.697
 7380SOL    HW123039   0.515   3.361   5.740
 7380SOL    HW223040   0.607   3.311   5.615
 7381SOL     OW23041   4.806   2.935   2.455
 7381SOL    HW123042   4.772   2.882   2.377
 7381SOL    HW223043   4.785   2.887   2.540
 7382SOL     OW23044   6.944   4.833   4.313
 7382SOL    HW123045   6.936   4.930   4.293
 7382SOL    HW223046   6.853   4.791   4.313
 7383SOL     OW23047   6.802   6.593   2.736
 7383SOL    HW123048   6.888   6.614   2.688
 7383SOL    HW223049   6.795   6.494   2.748
 7384SOL     OW23050   5.095   1.228   1.751
 7384SOL    HW123051   5.015   1.257   1.803
 7384SOL    HW223052   5.148   1.308   1.724
 7385SOL     OW23053   3.707   5.761   2.347
 7385SOL    HW123054   3.649   5.698   2.399
 7385SOL    HW223055   3.781   5.794   2.406
 7386SOL     OW23056   0.930   2.699   5.556
 7386SOL    HW123057   0.879   2.613   5.546
 7386SOL    HW223058   0.993   2.692   5.633
 7387SOL     OW23059   4.793   6.443   4.670
 7387SOL    HW123060   4.833   6.488   4.750
 7387SOL    HW223061   4.823   6.348   4.667
 7388SOL     OW23062   6.923   5.576   3.588
 7388SOL    HW123063   6.858   5.529   3.528
 7388SOL    HW223064   6.947   5.664   3.547
 7389SOL     OW23065   1.153   4.494   6.823
 7389SOL    HW123066   1.234   4.511   6.879
 7389SOL    HW223067   1.129   4.397   6.827
 7390SOL     OW23068   1.480   1.860   6.527
 7390SOL    HW123069   1.447   1.788   6.465
 7390SOL    HW223070   1.553   1.912   6.482
 7391SOL     OW23071   4.657   4.029   5.238
 7391SOL    HW123072   4.574   4.027   5.293
 7391SOL    HW223073   4.712   3.948   5.256
 7392SOL     OW23074   2.685   5.982   6.019
 7392SOL    HW123075   2.653   5.891   5.993
 7392SOL    HW223076   2.698   6.037   5.937
 7393SOL     OW23077   5.746   5.336   1.937
 7393SOL    HW123078   5.729   5.298   2.028
 7393SOL    HW223079   5.798   5.421   1.947
 7394SOL     OW23080   3.417   2.527   6.222
 7394SOL    HW123081   3.356   2.573   6.286
 7394SOL    HW223082   3.382   2.537   6.129
 7395SOL     OW23083   0.811   1.077   6.870
 7395SOL    HW123084   0.817   1.166   6.824
 7395SOL    HW223085   0.900   1.056   6.912
 7396SOL     OW23086   1.375   1.034   6.862
 7396SOL    HW123087   1.321   0.979   6.925
 7396SOL    HW223088   1.386   1.126   6.900
 7397SOL     OW23089   6.408   5.089   4.468
 7397SOL    HW123090   6.414   5.010   4.529
 7397SOL    HW223091   6.343   5.068   4.395
 7398SOL     OW23092   3.495   5.155   4.431
 7398SOL    HW123093   3.539   5.181   4.345
 7398SOL    HW223094   3.526   5.064   4.458
 7399SOL     OW23095   0.831   4.148   4.999
 7399SOL    HW123096   0.829   4.128   5.097
 7399SOL    HW223097   0.833   4.062   4.948
 7400SOL     OW23098   2.970   4.049   6.979
 7400SOL    HW123099   3.026   3.977   6.939
 7400SOL    HW223100   2.937   4.020   0.054
 7401SOL     OW23101   0.662   1.252   3.351
 7401SOL    HW123102   0.672   1.349   3.329
 7401SOL    HW223103   0.566   1.232   3.372
 7402SOL     OW23104   2.120   0.037   3.925
 7402SOL    HW123105   2.026   0.061   3.899
 7402SOL    HW223106   2.118   6.999   4.010
 7403SOL     OW23107   2.194   2.995   3.400
 7403SOL    HW123108   2.251   2.922   3.437
 7403SOL    HW223109   2.157   2.968   3.312
 7404SOL     OW23110   2.289   6.955   1.080
 7404SOL    HW123111   2.232   6.982   1.003
 7404SOL    HW223112   2.340   6.872   1.057
 7405SOL     OW23113   0.831   4.993   4.328
 7405SOL    HW123114   0.834   4.902   4.368
 7405SOL    HW223115   0.789   4.989   4.237
 7406SOL     OW23116   1.402   3.567   2.248
 7406SOL    HW123117   1.337   3.503   2.290
 7406SOL    HW223118   1.424   3.640   2.313
 7407SOL     OW23119   0.444   6.825   4.906
 7407SOL    HW123120   0.361   6.846   4.855
 7407SOL    HW223121   0.448   6.726   4.923
 7408SOL     OW23122   1.238   4.176   5.003
 7408SOL    HW123123   1.319   4.223   5.036
 7408SOL    HW223124   1.173   4.244   4.967
 7409SOL     OW23125   0.632   0.954   4.437
 7409SOL    HW123126   0.623   1.013   4.517
 7409SOL    HW223127   0.708   0.986   4.381
 7410SOL     OW23128   6.524   5.072   0.952
 7410SOL    HW123129   6.479   5.138   0.891
 7410SOL    HW223130   6.494   4.980   0.928
 7411SOL     OW23131   2.522   7.001   4.358
 7411SOL    HW123132   2.503   6.929   4.290
 7411SOL    HW223133   2.615   6.991   4.392
 7412SOL     OW23134   3.490   1.339   1.011
 7412SOL    HW123135   3.555   1.306   0.942
 7412SOL    HW223136   3.410   1.378   0.965
 7413SOL     OW23137   0.264   4.646   3.719
 7413SOL    HW123138   0.237   4.567   3.774
 7413SOL    HW223139   0.355   4.630   3.681
 7414SOL     OW23140   6.999   0.094   2.453
 7414SOL    HW123141   0.069   0.145   2.465
 7414SOL    HW223142   6.997   0.017   2.517
 7415SOL     OW23143   0.522   3.819   2.915
 7415SOL    HW123144   0.558   3.810   3.007
 7415SOL    HW223145   0.567   3.752   2.855
 7416SOL     OW23146   3.693   0.495   3.669
 7416SOL    HW123147   3.615   0.435   3.679
 7416SOL    HW223148   3.762   0.472   3.738
 7417SOL     OW23149   1.428   0.152   6.089
 7417SOL    HW123150   1.339   0.108   6.081
 7417SOL    HW223151   1.468   0.163   5.998
 7418SOL     OW23152   3.436   4.712   0.982
 7418SOL    HW123153   3.438   4.680   0.887
 7418SOL    HW223154   3.525   4.692   1.025
 7419SOL     OW23155   6.520   1.928   5.026
 7419SOL    HW123156   6.423   1.923   5.005
 7419SOL    HW223157   6.571   1.869   4.962
 7420SOL     OW23158   6.315   6.554   2.929
 7420SOL    HW123159   6.300   6.636   2.873
 7420SOL    HW223160   6.271   6.565   3.018
 7421SOL     OW23161   2.698   3.041   1.279
 7421SOL    HW123162   2.610   3.079   1.250
 7421SOL    HW223163   2.683   2.975   1.353
 7422SOL     OW23164   0.269   3.345   2.498
 7422SOL    HW123165   0.220   3.301   2.574
 7422SOL    HW223166   0.212   3.342   2.416
 7423SOL     OW23167   0.410   4.093   6.125
 7423SOL    HW123168   0.405   4.098   6.025
 7423SOL    HW223169   0.320   4.115   6.163
 7424SOL     OW23170   5.940   1.271   4.066
 7424SOL    HW123171   5.949   1.173   4.086
 7424SOL    HW223172   6.023   1.318   4.093
 7425SOL     OW23173   4.128   4.668   6.633
 7425SOL    HW123174   4.109   4.729   6.710
 7425SOL    HW223175   4.226   4.650   6.628
 7426SOL     OW23176   0.903   1.918   6.888
 7426SOL    HW123177   0.969   1.991   6.876
 7426SOL    HW223178   0.823   1.936   6.830
 7427SOL     OW23179   3.250   5.898   5.126
 7427SOL    HW123180   3.168   5.850   5.160
 7427SOL    HW223181   3.222   5.970   5.063
 7428SOL     OW23182   3.333   1.314   5.418
 7428SOL    HW123183   3.344   1.353   5.327
 7428SOL    HW223184   3.249   1.348   5.460
 7429SOL     OW23185   6.126   0.395   3.020
 7429SOL    HW123186   6.090   0.400   3.113
 7429SOL    HW223187   6.179   0.478   3.001
 7430SOL     OW23188   0.222   4.786   5.826
 7430SOL    HW123189   0.213   4.866   5.766
 7430SOL    HW223190   0.178   4.805   5.913
 7431SOL     OW23191   0.274   4.207   2.319
 7431SOL    HW123192   0.372   4.182   2.318
 7431SOL    HW223193   0.223   4.137   2.370
 7432SOL     OW23194   0.494   6.705   3.955
 7432SOL    HW123195   0.471   6.790   3.909
 7432SOL    HW223196   0.593   6.692   3.954
 7433SOL     OW23197   6.699   5.247   0.097
 7433SOL    HW123198   6.658   5.197   0.020
 7433SOL    HW223199   6.652   5.335   0.107
 7434SOL     OW23200   3.839   0.878   6.528
 7434SOL    HW123201   3.924   0.832   6.508
 7434SOL    HW223202   3.763   0.829   6.487
 7435SOL     OW23203   2.895   6.534   6.681
 7435SOL    HW123204   2.900   6.604   6.610
 7435SOL    HW223205   2.987   6.497   6.698
 7436SOL     OW23206   6.957   2.927   6.215
 7436SOL    HW123207   0.012   2.998   6.207
 7436SOL    HW223208   6.999   2.837   6.201
 7437SOL     OW23209   7.009   5.750   0.149
 7437SOL    HW123210   6.982   5.684   0.079
 7437SOL    HW223211   0.003   5.703   0.237
 7438SOL     OW23212   0.998   4.184   0.894
 7438SOL    HW123213   0.937   4.248   0.848
 7438SOL    HW223214   1.033   4.117   0.828
 7439SOL     OW23215   2.648   0.223   4.110
 7439SOL    HW123216   2.609   0.242   4.200
 7439SOL    HW223217   2.691   0.132   4.111
 7440SOL     OW23218   0.770   3.052   4.430
 7440SOL    HW123219   0.747   3.134   4.481
 7440SOL    HW223220   0.773   2.973   4.492
 7441SOL     OW23221   5.821   6.581   4.365
 7441SOL    HW123222   5.796   6.574   4.268
 7441SOL    HW223223   5.754   6.529   4.419
 7442SOL     OW23224   0.820   0.682   6.018
 7442SOL    HW123225   0.866   0.709   6.102
 7442SOL    HW223226   0.733   0.731   6.010
 7443SOL     OW23227   6.993   1.569   1.482
 7443SOL    HW123228   0.050   1.586   1.415
 7443SOL    HW223229   7.007   1.629   1.561
 7444SOL     OW23230   0.399   3.293   5.234
 7444SOL    HW123231   0.406   3.305   5.135
 7444SOL    HW223232   0.309   3.323   5.265
 7445SOL     OW23233   3.826   0.999   1.438
 7445SOL    HW123234   3.799   0.945   1.517
 7445SOL    HW223235   3.816   1.096   1.459
 7446SOL     OW23236   5.372   4.678   0.225
 7446SOL    HW123237   5.444   4.735   0.263
 7446SOL    HW223238   5.382   4.673   0.125
 7447SOL     OW23239   2.728   3.639   6.804
 7447SOL    HW123240   2.816   3.664   6.845
 7447SOL    HW223241   2.661   3.711   6.822
 7448SOL     OW23242   5.276   6.017   5.821
 7448SOL    HW123243   5.350   6.064   5.868
 7448SOL    HW223244   5.194   6.075   5.821
 7449SOL     OW23245   4.774   2.794   2.218
 7449SOL    HW123246   4.753   2.860   2.145
 7449SOL    HW223247   4.743   2.703   2.189
 7450SOL     OW23248   5.266   2.825   4.502
 7450SOL    HW123249   5.269   2.820   4.602
 7450SOL    HW223250   5.242   2.736   4.465
 7451SOL     OW23251   1.748   0.444   3.552
 7451SOL    HW123252   1.737   0.461   3.455
 7451SOL    HW223253   1.838   0.475   3.582
 7452SOL     OW23254   1.002   0.103   4.804
 7452SOL    HW123255   0.962   0.121   4.894
 7452SOL    HW223256   1.048   0.185   4.770
 7453SOL     OW23257   5.596   5.732   5.283
 7453SOL    HW123258   5.659   5.786   5.339
 7453SOL    HW223259   5.535   5.792   5.232
 7454SOL     OW23260   1.273   3.106   2.048
 7454SOL    HW123261   1.251   3.106   2.145
 7454SOL    HW223262   1.265   3.198   2.011
 7455SOL     OW23263   6.696   1.420   1.739
 7455SOL    HW123264   6.672   1.381   1.828
 7455SOL    HW223265   6.624   1.483   1.710
 7456SOL     OW23266   1.413   1.802   4.417
 7456SOL    HW123267   1.425   1.707   4.385
 7456SOL    HW223268   1.500   1.837   4.450
 7457SOL     OW23269   3.966   0.546   6.343
 7457SOL    HW123270   4.015   0.632   6.336
 7457SOL    HW223271   3.877   0.554   6.298
 7458SOL     OW23272   1.469   0.261   6.592
 7458SOL    HW123273   1.426   0.242   6.681
 7458SOL    HW223274   1.447   0.355   6.564
 7459SOL     OW23275   4.630   0.024   0.273
 7459SOL    HW123276   4.624   0.106   0.330
 7459SOL    HW223277   4.725   7.008   0.267
 7460SOL     OW23278   2.105   4.277   0.499
 7460SOL    HW123279   2.135   4.325   0.417
 7460SOL    HW223280   2.157   4.310   0.578
 7461SOL     OW23281   4.846   1.750   5.598
 7461SOL    HW123282   4.791   1.833   5.591
 7461SOL    HW223283   4.943   1.774   5.597
 7462SOL     OW23284   1.775   2.745   2.178
 7462SOL    HW123285   1.689   2.731   2.227
 7462SOL    HW223286   1.784   2.676   2.106
 7463SOL     OW23287   3.834   3.849   1.431
 7463SOL    HW123288   3.750   3.904   1.429
 7463SOL    HW223289   3.811   3.754   1.450
 7464SOL     OW23290   3.646   6.411   6.609
 7464SOL    HW123291   3.624   6.507   6.593
 7464SOL    HW223292   3.573   6.354   6.571
 7465SOL     OW23293   1.402   0.599   1.078
 7465SOL    HW123294   1.460   0.560   1.149
 7465SOL    HW223295   1.458   0.640   1.006
 7466SOL     OW23296   0.258   1.004   6.838
 7466SOL    HW123297   0.349   1.041   6.855
 7466SOL    HW223298   0.225   0.958   6.920
 7467SOL     OW23299   6.187   2.074   1.028
 7467SOL    HW123300   6.169   1.993   0.972
 7467SOL    HW223301   6.233   2.046   1.113
 7468SOL     OW23302   5.177   2.377   2.426
 7468SOL    HW123303   5.233   2.426   2.493
 7468SOL    HW223304   5.186   2.421   2.337
 7469SOL     OW23305   0.683   0.203   0.199
 7469SOL    HW123306   0.613   0.153   0.250
 7469SOL    HW223307   0.659   0.206   0.102
 7470SOL     OW23308   0.145   3.300   3.637
 7470SOL    HW123309   0.052   3.336   3.628
 7470SOL    HW223310   0.211   3.372   3.615
 7471SOL     OW23311   5.978   6.767   4.051
 7471SOL    HW123312   5.987   6.674   4.086
 7471SOL    HW223313   5.891   6.777   4.002
 7472SOL     OW23314   5.732   6.441   4.122
 7472SOL    HW123315   5.659   6.413   4.184
 7472SOL    HW223316   5.699   6.435   4.027
 7473SOL     OW23317   0.264   4.860   2.986
 7473SOL    HW123318   0.339   4.839   2.923
 7473SOL    HW223319   0.208   4.933   2.947
 7474SOL     OW23320   2.958   1.010   5.055
 7474SOL    HW123321   2.948   0.918   5.016
 7474SOL    HW223322   3.025   1.062   5.003
 7475SOL     OW23323   3.918   1.674   2.492
 7475SOL    HW123324   3.984   1.730   2.442
 7475SOL    HW223325   3.932   1.578   2.469
 7476SOL     OW23326   4.216   6.528   4.333
 7476SOL    HW123327   4.294   6.588   4.352
 7476SOL    HW223328   4.240   6.467   4.257
 7477SOL     OW23329   4.914   1.251   3.979
 7477SOL    HW123330   5.002   1.296   3.967
 7477SOL    HW223331   4.856   1.307   4.038
 7478SOL     OW23332   4.088   3.835   6.271
 7478SOL    HW123333   4.009   3.781   6.242
 7478SOL    HW223334   4.058   3.921   6.311
 7479SOL     OW23335   4.222   2.733   1.084
 7479SOL    HW123336   4.192   2.657   1.026
 7479SOL    HW223337   4.143   2.772   1.131
 7480SOL     OW23338   6.028   5.287   1.586
 7480SOL    HW123339   5.991   5.379   1.591
 7480SOL    HW223340   6.106   5.279   1.649
 7481SOL     OW23341   5.370   5.256   1.644
 7481SOL    HW123342   5.326   5.279   1.557
 7481SOL    HW223343   5.343   5.163   1.670
 7482SOL     OW23344   4.592   1.885   2.486
 7482SOL    HW123345   4.529   1.932   2.424
 7482SOL    HW223346   4.631   1.951   2.550
 7483SOL     OW23347   4.161   1.979   4.791
 7483SOL    HW123348   4.071   2.021   4.799
 7483SOL    HW223349   4.165   1.896   4.848
 7484SOL     OW23350   6.335   0.080   2.526
 7484SOL    HW123351   6.378   7.004   2.521
 7484SOL    HW223352   6.309   0.109   2.434
 7485SOL     OW23353   3.099   5.891   5.452
 7485SOL    HW123354   3.098   5.868   5.549
 7485SOL    HW223355   3.176   5.952   5.433
 7486SOL     OW23356   2.360   7.005   5.846
 7486SOL    HW123357   2.349   6.946   5.766
 7486SOL    HW223358   2.321   0.080   5.827
 7487SOL     OW23359   2.095   6.248   2.490
 7487SOL    HW123360   2.152   6.202   2.558
 7487SOL    HW223361   2.154   6.297   2.426
 7488SOL     OW23362   1.742   6.464   4.878
 7488SOL    HW123363   1.801   6.412   4.941
 7488SOL    HW223364   1.687   6.529   4.931
 7489SOL     OW23365   5.152   2.522   5.175
 7489SOL    HW123366   5.192   2.491   5.088
 7489SOL    HW223367   5.053   2.532   5.165
 7490SOL     OW23368   1.180   1.571   1.483
 7490SOL    HW123369   1.253   1.639   1.474
 7490SOL    HW223370   1.176   1.516   1.400
 7491SOL     OW23371   0.307   4.856   6.580
 7491SOL    HW123372   0.231   4.793   6.594
 7491SOL    HW223373   0.274   4.941   6.540
 7492SOL     OW23374   2.637   1.378   4.551
 7492SOL    HW123375   2.546   1.418   4.545
 7492SOL    HW223376   2.696   1.417   4.480
 7493SOL     OW23377   6.075   4.474   6.349
 7493SOL    HW123378   6.123   4.561   6.335
 7493SOL    HW223379   6.123   4.402   6.299
 7494SOL     OW23380   5.993   1.165   2.746
 7494SOL    HW123381   6.029   1.257   2.730
 7494SOL    HW223382   6.036   1.101   2.682
 7495SOL     OW23383   2.318   1.449   0.914
 7495SOL    HW123384   2.396   1.387   0.920
 7495SOL    HW223385   2.349   1.542   0.895
 7496SOL     OW23386   0.589   3.623   6.031
 7496SOL    HW123387   0.547   3.700   6.079
 7496SOL    HW223388   0.579   3.540   6.086
 7497SOL     OW23389   2.959   4.696   1.197
 7497SOL    HW123390   3.055   4.671   1.199
 7497SOL    HW223391   2.936   4.750   1.278
 7498SOL     OW23392   2.303   0.725   4.229
 7498SOL    HW123393   2.290   0.823   4.211
 7498SOL    HW223394   2.400   0.709   4.250
 7499SOL     OW23395   6.241   0.852   3.590
 7499SOL    HW123396   6.192   0.864   3.505
 7499SOL    HW223397   6.313   0.782   3.578
 7500SOL     OW23398   4.271   6.299   3.248
 7500SOL    HW123399   4.337   6.359   3.203
 7500SOL    HW223400   4.262   6.324   3.344
 7501SOL     OW23401   6.830   4.387   4.439
 7501SOL    HW123402   6.761   4.430   4.380
 7501SOL    HW223403   6.851   4.448   4.515
 7502SOL     OW23404   1.373   0.872   5.263
 7502SOL    HW123405   1.368   0.795   5.325
 7502SOL    HW223406   1.286   0.922   5.264
 7503SOL     OW23407   2.605   1.276   0.313
 7503SOL    HW123408   2.540   1.281   0.389
 7503SOL    HW223409   2.578   1.205   0.249
 7504SOL     OW23410   3.470   0.317   3.328
 7504SOL    HW123411   3.547   0.256   3.307
 7504SOL    HW223412   3.434   0.356   3.243
 7505SOL     OW23413   2.523   0.712   5.277
 7505SOL    HW123414   2.479   0.754   5.197
 7505SOL    HW223415   2.579   0.635   5.247
 7506SOL     OW23416   4.067   0.092   2.448
 7506SOL    HW123417   4.018   0.122   2.530
 7506SOL    HW223418   4.166   0.099   2.464
 7507SOL     OW23419   0.005   0.510   1.187
 7507SOL    HW123420   0.020   0.550   1.277
 7507SOL    HW223421   0.073   0.439   1.170
 7508SOL     OW23422   5.447   7.005   2.153
 7508SOL    HW123423   5.414   6.933   2.092
 7508SOL    HW223424   5.369   0.037   2.194
 7509SOL     OW23425   5.530   4.311   0.840
 7509SOL    HW123426   5.443   4.309   0.790
 7509SOL    HW223427   5.512   4.303   0.938
 7510SOL     OW23428   2.777   4.223   5.758
 7510SOL    HW123429   2.829   4.231   5.844
 7510SOL    HW223430   2.812   4.289   5.692
 7511SOL     OW23431   1.432   0.765   3.047
 7511SOL    HW123432   1.413   0.817   3.130
 7511SOL    HW223433   1.465   0.826   2.975
 7512SOL     OW23434   3.065   4.503   1.473
 7512SOL    HW123435   3.096   4.566   1.402
 7512SOL    HW223436   3.097   4.410   1.452
 7513SOL     OW23437   1.931   2.317   0.937
 7513SOL    HW123438   1.986   2.385   0.889
 7513SOL    HW223439   1.857   2.362   0.986
 7514SOL     OW23440   2.953   5.772   2.251
 7514SOL    HW123441   2.970   5.715   2.331
 7514SOL    HW223442   3.020   5.751   2.179
 7515SOL     OW23443   1.706   6.302   1.954
 7515SOL    HW123444   1.774   6.262   2.016
 7515SOL    HW223445   1.615   6.277   1.985
 7516SOL     OW23446   0.017   5.833   4.544
 7516SOL    HW123447   0.073   5.895   4.489
 7516SOL    HW223448   0.054   5.827   4.636
 7517SOL     OW23449   6.645   3.545   1.562
 7517SOL    HW123450   6.705   3.602   1.505
 7517SOL    HW223451   6.692   3.460   1.585
 7518SOL     OW23452   4.025   5.792   3.784
 7518SOL    HW123453   3.940   5.808   3.733
 7518SOL    HW223454   4.103   5.819   3.728
 7519SOL     OW23455   0.446   6.994   3.812
 7519SOL    HW123456   0.347   6.999   3.823
 7519SOL    HW223457   0.468   6.937   3.733
 7520SOL     OW23458   2.660   6.978   1.997
 7520SOL    HW123459   2.673   0.001   2.088
 7520SOL    HW223460   2.729   0.002   1.935
 7521SOL     OW23461   4.525   4.421   5.767
 7521SOL    HW123462   4.614   4.379   5.746
 7521SOL    HW223463   4.466   4.353   5.809
 7522SOL     OW23464   3.100   1.071   6.307
 7522SOL    HW123465   3.152   0.986   6.315
 7522SOL    HW223466   3.154   1.139   6.259
 7523SOL     OW23467   5.279   0.956   5.829
 7523SOL    HW123468   5.290   0.897   5.749
 7523SOL    HW223469   5.290   0.901   5.912
 7524SOL     OW23470   0.855   2.530   6.281
 7524SOL    HW123471   0.942   2.486   6.305
 7524SOL    HW223472   0.857   2.560   6.186
 7525SOL     OW23473   2.705   0.025   6.690
 7525SOL    HW123474   2.768   6.999   6.756
 7525SOL    HW223475   2.644   0.089   6.737
 7526SOL     OW23476   3.525   2.924   2.449
 7526SOL    HW123477   3.509   2.829   2.478
 7526SOL    HW223478   3.475   2.942   2.365
 7527SOL     OW23479   4.172   5.620   3.555
 7527SOL    HW123480   4.094   5.682   3.546
 7527SOL    HW223481   4.147   5.529   3.522
 7528SOL     OW23482   4.373   2.224   6.909
 7528SOL    HW123483   4.376   2.163   6.987
 7528SOL    HW223484   4.299   2.197   6.848
 7529SOL     OW23485   6.030   1.055   4.557
 7529SOL    HW123486   6.010   1.152   4.568
 7529SOL    HW223487   6.040   1.012   4.647
 7530SOL     OW23488   6.015   3.711   2.228
 7530SOL    HW123489   6.040   3.614   2.224
 7530SOL    HW223490   6.093   3.767   2.200
 7531SOL     OW23491   4.097   2.242   4.016
 7531SOL    HW123492   4.001   2.242   4.042
 7531SOL    HW223493   4.153   2.217   4.095
 7532SOL     OW23494   5.003   5.488   1.694
 7532SOL    HW123495   4.917   5.519   1.734
 7532SOL    HW223496   5.000   5.502   1.595
 7533SOL     OW23497   2.620   0.682   3.064
 7533SOL    HW123498   2.608   0.669   3.162
 7533SOL    HW223499   2.701   0.738   3.047
 7534SOL     OW23500   3.378   6.692   5.030
 7534SOL    HW123501   3.425   6.779   5.018
 7534SOL    HW223502   3.286   6.707   5.065
 7535SOL     OW23503   2.331   1.209   5.592
 7535SOL    HW123504   2.414   1.265   5.596
 7535SOL    HW223505   2.279   1.220   5.676
 7536SOL     OW23506   5.330   4.666   4.621
 7536SOL    HW123507   5.372   4.584   4.658
 7536SOL    HW223508   5.400   4.725   4.580
 7537SOL     OW23509   2.370   5.014   4.803
 7537SOL    HW123510   2.293   4.952   4.788
 7537SOL    HW223511   2.396   5.057   4.716
 7538SOL     OW23512   3.234   3.352   1.921
 7538SOL    HW123513   3.316   3.315   1.876
 7538SOL    HW223514   3.192   3.282   1.978
 7539SOL     OW23515   2.577   2.574   4.733
 7539SOL    HW123516   2.552   2.482   4.703
 7539SOL    HW223517   2.664   2.601   4.690
 7540SOL     OW23518   2.608   0.773   5.800
 7540SOL    HW123519   2.706   0.796   5.800
 7540SOL    HW223520   2.555   0.858   5.801
 7541SOL     OW23521   6.783   3.377   4.345
 7541SOL    HW123522   6.690   3.392   4.311
 7541SOL    HW223523   6.780   3.354   4.442
 7542SOL     OW23524   0.316   6.404   6.782
 7542SOL    HW123525   0.255   6.404   6.862
 7542SOL    HW223526   0.264   6.378   6.701
 7543SOL     OW23527   4.141   1.918   0.852
 7543SOL    HW123528   4.231   1.915   0.808
 7543SOL    HW223529   4.153   1.928   0.950
 7544SOL     OW23530   0.620   2.521   3.828
 7544SOL    HW123531   0.521   2.514   3.837
 7544SOL    HW223532   0.644   2.612   3.796
 7545SOL     OW23533   5.378   6.863   3.103
 7545SOL    HW123534   5.319   6.941   3.083
 7545SOL    HW223535   5.454   6.862   3.038
 7546SOL     OW23536   4.254   0.766   1.365
 7546SOL    HW123537   4.285   0.845   1.418
 7546SOL    HW223538   4.254   0.789   1.268
 7547SOL     OW23539   3.957   6.447   0.609
 7547SOL    HW123540   3.999   6.454   0.518
 7547SOL    HW223541   4.023   6.479   0.677
 7548SOL     OW23542   3.082   1.975   0.382
 7548SOL    HW123543   3.076   1.911   0.305
 7548SOL    HW223544   3.024   1.942   0.457
 7549SOL     OW23545   6.063   2.127   1.321
 7549SOL    HW123546   5.985   2.136   1.260
 7549SOL    HW223547   6.101   2.217   1.342
 7550SOL     OW23548   2.577   5.078   1.914
 7550SOL    HW123549   2.555   5.150   1.980
 7550SOL    HW223550   2.636   5.010   1.958
 7551SOL     OW23551   4.562   4.315   0.123
 7551SOL    HW123552   4.506   4.310   0.040
 7551SOL    HW223553   4.554   4.230   0.174
 7552SOL     OW23554   1.926   5.556   3.982
 7552SOL    HW123555   1.879   5.470   3.961
 7552SOL    HW223556   2.024   5.539   3.988
 7553SOL     OW23557   4.203   4.903   5.198
 7553SOL    HW123558   4.153   4.977   5.153
 7553SOL    HW223559   4.278   4.942   5.252
 7554SOL     OW23560   4.970   0.755   0.802
 7554SOL    HW123561   5.032   0.788   0.873
 7554SOL    HW223562   4.912   0.683   0.839
 7555SOL     OW23563   1.730   4.790   4.545
 7555SOL    HW123564   1.666   4.722   4.508
 7555SOL    HW223565   1.783   4.748   4.620
 7556SOL     OW23566   0.685   2.218   5.449
 7556SOL    HW123567   0.768   2.170   5.419
 7556SOL    HW223568   0.616   2.151   5.475
 7557SOL     OW23569   5.752   3.123   6.368
 7557SOL    HW123570   5.825   3.190   6.384
 7557SOL    HW223571   5.791   3.038   6.334
 7558SOL     OW23572   2.743   2.350   3.624
 7558SOL    HW123573   2.808   2.425   3.612
 7558SOL    HW223574   2.651   2.383   3.606
 7559SOL     OW23575   6.609   5.876   1.095
 7559SOL    HW123576   6.600   5.823   1.180
 7559SOL    HW223577   6.542   5.843   1.028
 7560SOL     OW23578   5.476   6.189   6.994
 7560SOL    HW123579   5.378   6.171   7.003
 7560SOL    HW223580   5.526   6.103   7.007
 7561SOL     OW23581   0.616   3.274   0.666
 7561SOL    HW123582   0.525   3.315   0.661
 7561SOL    HW223583   0.674   3.314   0.594
 7562SOL     OW23584   5.089   6.217   4.612
 7562SOL    HW123585   5.002   6.220   4.563
 7562SOL    HW223586   5.139   6.134   4.586
 7563SOL     OW23587   2.764   0.050   0.479
 7563SOL    HW123588   2.797   0.015   0.567
 7563SOL    HW223589   2.799   0.143   0.466
 7564SOL     OW23590   4.870   1.621   2.608
 7564SOL    HW123591   4.815   1.659   2.683
 7564SOL    HW223592   4.862   1.681   2.528
 7565SOL     OW23593   4.862   4.842   0.340
 7565SOL    HW123594   4.796   4.785   0.389
 7565SOL    HW223595   4.920   4.785   0.283
 7566SOL     OW23596   1.174   5.041   2.979
 7566SOL    HW123597   1.145   4.984   3.056
 7566SOL    HW223598   1.153   5.136   2.999
 7567SOL     OW23599   2.143   2.332   5.004
 7567SOL    HW123600   2.224   2.339   4.947
 7567SOL    HW223601   2.087   2.414   4.993
 7568SOL     OW23602   5.685   6.095   3.508
 7568SOL    HW123603   5.672   6.118   3.411
 7568SOL    HW223604   5.766   6.038   3.518
 7569SOL     OW23605   4.125   4.604   6.319
 7569SOL    HW123606   4.072   4.541   6.375
 7569SOL    HW223607   4.214   4.563   6.298
 7570SOL     OW23608   5.260   4.493   5.776
 7570SOL    HW123609   5.217   4.559   5.837
 7570SOL    HW223610   5.327   4.541   5.719
 7571SOL     OW23611   5.482   4.921   2.518
 7571SOL    HW123612   5.489   4.835   2.466
 7571SOL    HW223613   5.518   4.906   2.611
 7572SOL     OW23614   5.396   0.529   3.326
 7572SOL    HW123615   5.475   0.528   3.387
 7572SOL    HW223616   5.343   0.445   3.339
 7573SOL     OW23617   6.110   5.813   4.538
 7573SOL    HW123618   6.204   5.848   4.542
 7573SOL    HW223619   6.112   5.713   4.549
 7574SOL     OW23620   6.774   0.858   4.726
 7574SOL    HW123621   6.691   0.913   4.719
 7574SOL    HW223622   6.846   0.912   4.770
 7575SOL     OW23623   4.637   0.382   5.651
 7575SOL    HW123624   4.684   0.359   5.566
 7575SOL    HW223625   4.689   0.452   5.700
 7576SOL     OW23626   6.146   5.745   0.605
 7576SOL    HW123627   6.160   5.651   0.637
 7576SOL    HW223628   6.207   5.763   0.528
 7577SOL     OW23629   6.722   6.778   5.202
 7577SOL    HW123630   6.753   6.778   5.107
 7577SOL    HW223631   6.702   6.684   5.230
 7578SOL     OW23632   2.261   6.131   3.431
 7578SOL    HW123633   2.355   6.126   3.464
 7578SOL    HW223634   2.255   6.088   3.341
 7579SOL     OW23635   4.576   2.183   2.513
 7579SOL    HW123636   4.522   2.200   2.430
 7579SOL    HW223637   4.671   2.209   2.497
 7580SOL     OW23638   1.638   4.334   3.666
 7580SOL    HW123639   1.609   4.427   3.690
 7580SOL    HW223640   1.713   4.339   3.600
 7581SOL     OW23641   5.168   0.622   1.058
 7581SOL    HW123642   5.096   0.563   1.094
 7581SOL    HW223643   5.151   0.716   1.086
 7582SOL     OW23644   2.945   0.660   0.360
 7582SOL    HW123645   2.878   0.634   0.430
 7582SOL    HW223646   3.036   0.636   0.391
 7583SOL     OW23647   5.955   3.603   1.236
 7583SOL    HW123648   5.929   3.679   1.177
 7583SOL    HW223649   6.004   3.534   1.183
 7584SOL     OW23650   3.225   6.858   0.680
 7584SOL    HW123651   3.148   6.808   0.720
 7584SOL    HW223652   3.189   6.929   0.618
 7585SOL     OW23653   1.807   3.158   6.094
 7585SOL    HW123654   1.806   3.242   6.041
 7585SOL    HW223655   1.899   3.118   6.092
 7586SOL     OW23656   3.348   0.692   3.545
 7586SOL    HW123657   3.373   0.701   3.449
 7586SOL    HW223658   3.363   0.597   3.575
 7587SOL     OW23659   3.633   1.340   6.754
 7587SOL    HW123660   3.634   1.371   6.659
 7587SOL    HW223661   3.648   1.418   6.815
 7588SOL     OW23662   0.722   3.504   2.155
 7588SOL    HW123663   0.682   3.557   2.081
 7588SOL    HW223664   0.768   3.423   2.118
 7589SOL     OW23665   5.916   6.881   0.609
 7589SOL    HW123666   5.906   6.873   0.510
 7589SOL    HW223667   5.997   6.829   0.638
 7590SOL     OW23668   2.840   1.983   6.432
 7590SOL    HW123669   2.775   1.937   6.492
 7590SOL    HW223670   2.882   2.060   6.481
 7591SOL     OW23671   6.719   5.088   0.331
 7591SOL    HW123672   6.707   5.126   0.240
 7591SOL    HW223673   6.760   5.157   0.391
 7592SOL     OW23674   0.026   4.513   6.843
 7592SOL    HW123675   0.067   4.477   6.927
 7592SOL    HW223676   7.012   4.437   6.785
 7593SOL     OW23677   4.856   2.360   0.747
 7593SOL    HW123678   4.897   2.305   0.674
 7593SOL    HW223679   4.763   2.387   0.721
 7594SOL     OW23680   0.090   4.443   2.372
 7594SOL    HW123681   0.044   4.387   2.303
 7594SOL    HW223682   0.188   4.424   2.370
 7595SOL     OW23683   0.089   2.355   6.095
 7595SOL    HW123684   0.075   2.352   5.996
 7595SOL    HW223685   0.165   2.417   6.116
 7596SOL     OW23686   4.261   5.226   3.150
 7596SOL    HW123687   4.269   5.321   3.178
 7596SOL    HW223688   4.352   5.189   3.131
 7597SOL     OW23689   2.788   5.519   1.460
 7597SOL    HW123690   2.763   5.433   1.415
 7597SOL    HW223691   2.878   5.548   1.426
 7598SOL     OW23692   0.051   1.205   3.079
 7598SOL    HW123693   0.116   1.130   3.068
 7598SOL    HW223694   0.015   1.204   3.172
 7599SOL     OW23695   5.771   1.651   3.468
 7599SOL    HW123696   5.679   1.613   3.460
 7599SOL    HW223697   5.837   1.576   3.480
 7600SOL     OW23698   1.758   0.394   2.666
 7600SOL    HW123699   1.743   0.472   2.727
 7600SOL    HW223700   1.697   0.402   2.587
 7601SOL     OW23701   2.046   5.714   2.640
 7601SOL    HW123702   2.129   5.689   2.591
 7601SOL    HW223703   1.976   5.645   2.625
 7602SOL     OW23704   1.998   4.102   5.993
 7602SOL    HW123705   1.963   4.110   6.086
 7602SOL    HW223706   2.097   4.110   5.993
 7603SOL     OW23707   1.048   5.756   5.814
 7603SOL    HW123708   0.963   5.752   5.867
 7603SOL    HW223709   1.074   5.664   5.786
 7604SOL     OW23710   2.563   4.621   3.982
 7604SOL    HW123711   2.660   4.604   3.999
 7604SOL    HW223712   2.523   4.543   3.935
 7605SOL     OW23713   1.709   6.380   0.357
 7605SOL    HW123714   1.708   6.474   0.323
 7605SOL    HW223715   1.623   6.335   0.333
 7606SOL     OW23716   0.091   3.001   3.110
 7606SOL    HW123717   0.024   2.948   3.058
 7606SOL    HW223718   0.069   2.995   3.207
 7607SOL     OW23719   4.692   6.194   0.403
 7607SOL    HW123720   4.641   6.110   0.424
 7607SOL    HW223721   4.755   6.214   0.479
 7608SOL     OW23722   3.296   4.112   2.844
 7608SOL    HW123723   3.251   4.193   2.806
 7608SOL    HW223724   3.252   4.029   2.808
 7609SOL     OW23725   6.943   4.459   3.245
 7609SOL    HW123726   6.988   4.372   3.265
 7609SOL    HW223727   6.994   4.508   3.174
 7610SOL     OW23728   6.196   6.798   6.479
 7610SOL    HW123729   6.125   6.740   6.518
 7610SOL    HW223730   6.176   6.814   6.382
 7611SOL     OW23731   0.852   2.177   0.281
 7611SOL    HW123732   0.768   2.131   0.253
 7611SOL    HW223733   0.847   2.196   0.379
 7612SOL     OW23734   4.507   2.544   4.734
 7612SOL    HW123735   4.433   2.485   4.766
 7612SOL    HW223736   4.486   2.579   4.643
 7613SOL     OW23737   5.195   2.325   1.985
 7613SOL    HW123738   5.148   2.332   1.897
 7613SOL    HW223739   5.145   2.376   2.054
 7614SOL     OW23740   5.045   2.837   1.588
 7614SOL    HW123741   5.039   2.860   1.491
 7614SOL    HW223742   4.956   2.854   1.632
 7615SOL     OW23743   4.795   4.106   6.174
 7615SOL    HW123744   4.795   4.155   6.087
 7615SOL    HW223745   4.733   4.027   6.167
 7616SOL     OW23746   6.846   4.578   4.630
 7616SOL    HW123747   6.750   4.601   4.621
 7616SOL    HW223748   6.897   4.658   4.660
 7617SOL     OW23749   2.865   5.559   2.962
 7617SOL    HW123750   2.920   5.557   3.045
 7617SOL    HW223751   2.848   5.654   2.936
 7618SOL     OW23752   0.577   2.116   0.266
 7618SOL    HW123753   0.553   2.191   0.205
 7618SOL    HW223754   0.541   2.030   0.229
 7619SOL     OW23755   5.526   2.984   4.945
 7619SOL    HW123756   5.461   3.023   4.880
 7619SOL    HW223757   5.493   3.001   5.038
 7620SOL     OW23758   4.059   5.083   6.998
 7620SOL    HW123759   4.066   5.092   0.082
 7620SOL    HW223760   4.053   5.173   6.956
 7621SOL     OW23761   0.385   1.570   0.566
 7621SOL    HW123762   0.440   1.649   0.592
 7621SOL    HW223763   0.375   1.509   0.644
 7622SOL     OW23764   4.701   4.956   1.703
 7622SOL    HW123765   4.769   4.947   1.630
 7622SOL    HW223766   4.713   4.881   1.769
 7623SOL     OW23767   4.619   4.575   6.825
 7623SOL    HW123768   4.684   4.651   6.824
 7623SOL    HW223769   4.669   4.489   6.837
 7624SOL     OW23770   6.962   2.650   4.633
 7624SOL    HW123771   6.992   2.698   4.551
 7624SOL    HW223772   0.017   2.584   4.661
 7625SOL     OW23773   4.298   0.516   1.509
 7625SOL    HW123774   4.393   0.520   1.538
 7625SOL    HW223775   4.274   0.599   1.459
 7626SOL     OW23776   6.846   6.406   4.606
 7626SOL    HW123777   6.865   6.438   4.699
 7626SOL    HW223778   6.915   6.338   4.580
 7627SOL     OW23779   4.914   3.015   0.119
 7627SOL    HW123780   5.005   2.990   0.086
 7627SOL    HW223781   4.916   3.021   0.219
 7628SOL     OW23782   3.515   0.624   1.988
 7628SOL    HW123783   3.495   0.554   1.919
 7628SOL    HW223784   3.439   0.688   1.994
 7629SOL     OW23785   6.648   0.106   3.068
 7629SOL    HW123786   6.564   0.076   3.113
 7629SOL    HW223787   6.716   0.032   3.072
 7630SOL     OW23788   5.396   6.862   1.916
 7630SOL    HW123789   5.449   6.946   1.904
 7630SOL    HW223790   5.310   6.870   1.867
 7631SOL     OW23791   0.650   0.794   4.961
 7631SOL    HW123792   0.646   0.760   4.867
 7631SOL    HW223793   0.698   0.881   4.963
 7632SOL     OW23794   3.503   2.470   1.674
 7632SOL    HW123795   3.414   2.428   1.657
 7632SOL    HW223796   3.563   2.405   1.722
 7633SOL     OW23797   4.173   2.429   0.495
 7633SOL    HW123798   4.240   2.369   0.540
 7633SOL    HW223799   4.194   2.436   0.398
 7634SOL     OW23800   1.510   1.309   2.439
 7634SOL    HW123801   1.568   1.328   2.360
 7634SOL    HW223802   1.493   1.394   2.489
 7635SOL     OW23803   2.727   5.989   5.139
 7635SOL    HW123804   2.739   6.087   5.153
 7635SOL    HW223805   2.694   5.972   5.046
 7636SOL     OW23806   1.508   2.302   3.364
 7636SOL    HW123807   1.540   2.289   3.458
 7636SOL    HW223808   1.473   2.216   3.328
 7637SOL     OW23809   2.935   6.469   2.542
 7637SOL    HW123810   2.969   6.524   2.466
 7637SOL    HW223811   2.933   6.526   2.625
 7638SOL     OW23812   3.900   5.606   1.975
 7638SOL    HW123813   3.930   5.695   2.008
 7638SOL    HW223814   3.845   5.618   1.892
 7639SOL     OW23815   1.520   2.260   0.823
 7639SOL    HW123816   1.582   2.317   0.769
 7639SOL    HW223817   1.464   2.204   0.761
 7640SOL     OW23818   3.566   2.088   0.296
 7640SOL    HW123819   3.658   2.050   0.308
 7640SOL    HW223820   3.573   2.184   0.270
 7641SOL     OW23821   0.812   4.693   1.813
 7641SOL    HW123822   0.822   4.761   1.886
 7641SOL    HW223823   0.768   4.611   1.849
 7642SOL     OW23824   2.883   1.556   2.549
 7642SOL    HW123825   2.980   1.557   2.572
 7642SOL    HW223826   2.834   1.493   2.610
 7643SOL     OW23827   5.137   2.774   4.026
 7643SOL    HW123828   5.078   2.824   4.089
 7643SOL    HW223829   5.152   2.829   3.944
 7644SOL     OW23830   5.850   2.038   2.473
 7644SOL    HW123831   5.915   2.113   2.460
 7644SOL    HW223832   5.779   2.043   2.403
 7645SOL     OW23833   4.406   4.013   5.366
 7645SOL    HW123834   4.366   3.923   5.349
 7645SOL    HW223835   4.334   4.083   5.359
 7646SOL     OW23836   2.174   2.360   2.166
 7646SOL    HW123837   2.091   2.381   2.218
 7646SOL    HW223838   2.191   2.261   2.170
 7647SOL     OW23839   0.126   3.279   2.267
 7647SOL    HW123840   0.117   3.182   2.289
 7647SOL    HW223841   0.167   3.290   2.177
 7648SOL     OW23842   3.601   1.199   3.528
 7648SOL    HW123843   3.570   1.120   3.476
 7648SOL    HW223844   3.605   1.279   3.468
 7649SOL     OW23845   1.205   1.463   2.767
 7649SOL    HW123846   1.224   1.400   2.843
 7649SOL    HW223847   1.257   1.547   2.780
 7650SOL     OW23848   5.245   2.785   1.278
 7650SOL    HW123849   5.146   2.794   1.287
 7650SOL    HW223850   5.270   2.780   1.181
 7651SOL     OW23851   2.745   6.470   5.279
 7651SOL    HW123852   2.800   6.547   5.245
 7651SOL    HW223853   2.704   6.496   5.367
 7652SOL     OW23854   6.999   4.054   3.796
 7652SOL    HW123855   6.963   3.979   3.851
 7652SOL    HW223856   6.930   4.126   3.787
 7653SOL     OW23857   2.434   1.675   0.802
 7653SOL    HW123858   2.366   1.740   0.768
 7653SOL    HW223859   2.516   1.680   0.744
 7654SOL     OW23860   4.870   3.720   4.246
 7654SOL    HW123861   4.824   3.640   4.284
 7654SOL    HW223862   4.895   3.703   4.151
 7655SOL     OW23863   3.246   0.121   3.374
 7655SOL    HW123864   3.291   0.051   3.428
 7655SOL    HW223865   3.313   0.192   3.350
 7656SOL     OW23866   1.869   5.108   6.292
 7656SOL    HW123867   1.779   5.080   6.326
 7656SOL    HW223868   1.926   5.140   6.368
 7657SOL     OW23869   2.741   2.293   3.010
 7657SOL    HW123870   2.706   2.229   3.078
 7657SOL    HW223871   2.693   2.381   3.018
 7658SOL     OW23872   4.034   6.361   5.982
 7658SOL    HW123873   3.991   6.337   6.069
 7658SOL    HW223874   4.084   6.447   5.992
 7659SOL     OW23875   5.447   5.585   6.810
 7659SOL    HW123876   5.461   5.603   6.713
 7659SOL    HW223877   5.381   5.650   6.847
 7660SOL     OW23878   0.329   6.517   4.049
 7660SOL    HW123879   0.380   6.591   4.007
 7660SOL    HW223880   0.387   6.472   4.118
 7661SOL     OW23881   5.720   2.331   4.228
 7661SOL    HW123882   5.775   2.409   4.197
 7661SOL    HW223883   5.774   2.247   4.221
 7662SOL     OW23884   0.625   2.388   2.352
 7662SOL    HW123885   0.530   2.373   2.326
 7662SOL    HW223886   0.655   2.313   2.413
 7663SOL     OW23887   0.116   6.811   6.083
 7663SOL    HW123888   0.033   6.856   6.050
 7663SOL    HW223889   0.091   6.726   6.129
 7664SOL     OW23890   3.935   0.770   2.101
 7664SOL    HW123891   3.892   0.776   2.192
 7664SOL    HW223892   4.014   0.709   2.106
 7665SOL     OW23893   5.069   0.247   4.782
 7665SOL    HW123894   5.087   0.325   4.841
 7665SOL    HW223895   5.001   0.271   4.714
 7666SOL     OW23896   0.875   6.776   1.696
 7666SOL    HW123897   0.967   6.769   1.658
 7666SOL    HW223898   0.810   6.730   1.635
 7667SOL     OW23899   4.600   5.937   1.669
 7667SOL    HW123900   4.549   5.862   1.626
 7667SOL    HW223901   4.552   5.968   1.750
 7668SOL     OW23902   2.528   4.331   0.901
 7668SOL    HW123903   2.486   4.261   0.958
 7668SOL    HW223904   2.627   4.333   0.919
 7669SOL     OW23905   5.777   1.991   6.205
 7669SOL    HW123906   5.784   1.956   6.111
 7669SOL    HW223907   5.776   1.915   6.269
 7670SOL     OW23908   1.462   4.781   6.211
 7670SOL    HW123909   1.383   4.815   6.159
 7670SOL    HW223910   1.453   4.683   6.226
 7671SOL     OW23911   4.474   0.773   4.810
 7671SOL    HW123912   4.555   0.778   4.869
 7671SOL    HW223913   4.473   0.851   4.748
 7672SOL     OW23914   5.888   6.402   3.726
 7672SOL    HW123915   5.974   6.396   3.777
 7672SOL    HW223916   5.815   6.359   3.779
 7673SOL     OW23917   2.106   5.184   6.981
 7673SOL    HW123918   2.090   5.094   6.942
 7673SOL    HW223919   2.204   5.197   6.997
 7674SOL     OW23920   6.240   2.474   4.035
 7674SOL    HW123921   6.239   2.571   4.008
 7674SOL    HW223922   6.156   2.430   4.006
 7675SOL     OW23923   4.855   0.228   2.615
 7675SOL    HW123924   4.947   0.194   2.633
 7675SOL    HW223925   4.855   0.286   2.534
 7676SOL     OW23926   1.652   2.187   0.447
 7676SOL    HW123927   1.710   2.230   0.379
 7676SOL    HW223928   1.618   2.099   0.412
 7677SOL     OW23929   6.914   3.830   2.455
 7677SOL    HW123930   6.969   3.749   2.477
 7677SOL    HW223931   6.817   3.810   2.470
 7678SOL     OW23932   2.069   1.523   5.822
 7678SOL    HW123933   2.121   1.536   5.738
 7678SOL    HW223934   2.132   1.510   5.898
 7679SOL     OW23935   2.108   6.148   5.750
 7679SOL    HW123936   2.202   6.170   5.777
 7679SOL    HW223937   2.045   6.211   5.796
 7680SOL     OW23938   1.460   2.170   0.134
 7680SOL    HW123939   1.497   2.084   0.170
 7680SOL    HW223940   1.532   2.239   0.132
 7681SOL     OW23941   3.331   0.229   0.365
 7681SOL    HW123942   3.387   0.147   0.361
 7681SOL    HW223943   3.388   0.309   0.347
 7682SOL     OW23944   3.420   0.480   1.781
 7682SOL    HW123945   3.450   0.515   1.692
 7682SOL    HW223946   3.323   0.501   1.794
 7683SOL     OW23947   6.570   2.154   3.962
 7683SOL    HW123948   6.632   2.130   4.036
 7683SOL    HW223949   6.476   2.132   3.988
 7684SOL     OW23950   4.396   1.845   1.231
 7684SOL    HW123951   4.339   1.779   1.282
 7684SOL    HW223952   4.483   1.802   1.208
 7685SOL     OW23953   2.966   3.343   0.176
 7685SOL    HW123954   2.910   3.407   0.121
 7685SOL    HW223955   3.052   3.387   0.200
 7686SOL     OW23956   5.157   0.353   3.352
 7686SOL    HW123957   5.094   0.427   3.331
 7686SOL    HW223958   5.105   0.269   3.368
 7687SOL     OW23959   6.069   5.047   5.417
 7687SOL    HW123960   6.041   5.011   5.506
 7687SOL    HW223961   6.123   5.131   5.430
 7688SOL     OW23962   0.619   6.872   5.289
 7688SOL    HW123963   0.635   6.788   5.340
 7688SOL    HW223964   0.575   6.940   5.347
 7689SOL     OW23965   4.911   5.694   3.431
 7689SOL    HW123966   4.817   5.726   3.428
 7689SOL    HW223967   4.973   5.772   3.443
 7690SOL     OW23968   6.229   5.125   0.894
 7690SOL    HW123969   6.253   5.090   0.985
 7690SOL    HW223970   6.221   5.049   0.830
 7691SOL     OW23971   5.234   3.081   4.029
 7691SOL    HW123972   5.313   3.025   4.054
 7691SOL    HW223973   5.152   3.044   4.073
 7692SOL     OW23974   1.101   6.496   1.749
 7692SOL    HW123975   1.078   6.591   1.729
 7692SOL    HW223976   1.097   6.481   1.848
 7693SOL     OW23977   3.487   6.897   1.557
 7693SOL    HW123978   3.543   6.972   1.524
 7693SOL    HW223979   3.542   6.837   1.615
 7694SOL     OW23980   0.112   4.323   4.199
 7694SOL    HW123981   0.200   4.313   4.246
 7694SOL    HW223982   0.075   4.233   4.179
 7695SOL     OW23983   3.529   6.583   0.191
 7695SOL    HW123984   3.614   6.634   0.202
 7695SOL    HW223985   3.466   6.606   0.265
 7696SOL     OW23986   6.453   1.638   4.782
 7696SOL    HW123987   6.541   1.637   4.829
 7696SOL    HW223988   6.403   1.721   4.806
 7697SOL     OW23989   2.771   0.305   1.986
 7697SOL    HW123990   2.764   0.239   2.061
 7697SOL    HW223991   2.790   0.257   1.901
 7698SOL     OW23992   0.033   2.028   4.406
 7698SOL    HW123993   6.950   2.037   4.420
 7698SOL    HW223994   0.052   1.940   4.362
 7699SOL     OW23995   3.959   5.281   6.615
 7699SOL    HW123996   4.022   5.333   6.559
 7699SOL    HW223997   3.983   5.292   6.712
 7700SOL     OW23998   4.741   6.305   5.002
 7700SOL    HW123999   4.799   6.378   4.967
 7700SOL    HW224000   4.781   6.216   4.979
 7701SOL     OW24001   6.572   1.650   6.489
 7701SOL    HW124002   6.474   1.672   6.495
 7701SOL    HW224003   6.626   1.734   6.497
 7702SOL     OW24004   2.846   6.544   6.246
 7702SOL    HW124005   2.760   6.503   6.275
 7702SOL    HW224006   2.904   6.473   6.205
 7703SOL     OW24007   6.518   0.379   5.005
 7703SOL    HW124008   6.508   0.463   5.059
 7703SOL    HW224009   6.489   0.396   4.911
 7704SOL     OW24010   5.180   4.682   5.493
 7704SOL    HW124011   5.275   4.668   5.522
 7704SOL    HW224012   5.130   4.596   5.498
 7705SOL     OW24013   4.140   4.956   6.144
 7705SOL    HW124014   4.219   4.994   6.097
 7705SOL    HW224015   4.056   4.994   6.105
 7706SOL     OW24016   4.456   1.947   5.487
 7706SOL    HW124017   4.408   1.967   5.402
 7706SOL    HW224018   4.441   1.851   5.512
 7707SOL     OW24019   1.230   6.223   6.509
 7707SOL    HW124020   1.158   6.157   6.488
 7707SOL    HW224021   1.275   6.197   6.595
 7708SOL     OW24022   5.346   6.412   5.212
 7708SOL    HW124023   5.445   6.397   5.212
 7708SOL    HW224024   5.310   6.398   5.119
 7709SOL     OW24025   5.689   4.136   1.406
 7709SOL    HW124026   5.596   4.168   1.427
 7709SOL    HW224027   5.710   4.156   1.311
 7710SOL     OW24028   3.730   1.262   0.876
 7710SOL    HW124029   3.791   1.305   0.809
 7710SOL    HW224030   3.695   1.176   0.838
 7711SOL     OW24031   6.340   5.804   5.207
 7711SOL    HW124032   6.384   5.749   5.135
 7711SOL    HW224033   6.259   5.849   5.169
 7712SOL     OW24034   5.741   4.598   1.884
 7712SOL    HW124035   5.658   4.609   1.830
 7712SOL    HW224036   5.736   4.513   1.936
 7713SOL     OW24037   1.166   5.057   0.427
 7713SOL    HW124038   1.180   5.143   0.380
 7713SOL    HW224039   1.159   4.983   0.360
 7714SOL     OW24040   6.520   4.702   5.305
 7714SOL    HW124041   6.582   4.640   5.352
 7714SOL    HW224042   6.481   4.767   5.371
 7715SOL     OW24043   4.819   1.930   0.824
 7715SOL    HW124044   4.754   1.986   0.772
 7715SOL    HW224045   4.908   1.976   0.827
 7716SOL     OW24046   6.436   3.944   3.681
 7716SOL    HW124047   6.441   3.845   3.667
 7716SOL    HW224048   6.396   3.963   3.770
 7717SOL     OW24049   1.795   0.991   4.853
 7717SOL    HW124050   1.857   0.942   4.792
 7717SOL    HW224051   1.702   0.959   4.839
 7718SOL     OW24052   1.969   1.914   3.244
 7718SOL    HW124053   1.881   1.953   3.218
 7718SOL    HW224054   1.954   1.830   3.298
 7719SOL     OW24055   0.387   3.843   4.322
 7719SOL    HW124056   0.319   3.805   4.260
 7719SOL    HW224057   0.348   3.851   4.414
 7720SOL     OW24058   0.041   0.002   0.767
 7720SOL    HW124059   0.050   7.005   0.669
 7720SOL    HW224060   0.026   0.099   0.788
 7721SOL     OW24061   1.212   4.773   2.368
 7721SOL    HW124062   1.197   4.808   2.460
 7721SOL    HW224063   1.299   4.806   2.333
 7722SOL     OW24064   0.040   5.617   2.949
 7722SOL    HW124065   6.979   5.672   2.914
 7722SOL    HW224066   0.029   5.603   3.047
 7723SOL     OW24067   6.670   3.891   0.030
 7723SOL    HW124068   6.613   3.863   6.968
 7723SOL    HW224069   6.680   3.815   0.094
 7724SOL     OW24070   2.480   4.392   1.870
 7724SOL    HW124071   2.471   4.298   1.837
 7724SOL    HW224072   2.491   4.454   1.792
 7725SOL     OW24073   4.902   3.180   3.838
 7725SOL    HW124074   4.990   3.211   3.804
 7725SOL    HW224075   4.915   3.102   3.899
 7726SOL     OW24076   0.921   6.130   4.752
 7726SOL    HW124077   1.009   6.141   4.799
 7726SOL    HW224078   0.937   6.107   4.656
 7727SOL     OW24079   0.067   0.699   2.988
 7727SOL    HW124080   0.059   0.719   2.891
 7727SOL    HW224081   6.992   0.712   3.032
 7728SOL     OW24082   1.137   4.970   3.430
 7728SOL    HW124083   1.219   5.026   3.419
 7728SOL    HW224084   1.149   4.908   3.508
 7729SOL     OW24085   6.016   3.285   0.686
 7729SOL    HW124086   5.978   3.325   0.603
 7729SOL    HW224087   5.950   3.291   0.760
 7730SOL     OW24088   5.527   5.819   2.091
 7730SOL    HW124089   5.501   5.879   2.015
 7730SOL    HW224090   5.626   5.805   2.090
 7731SOL     OW24091   6.763   1.167   0.565
 7731SOL    HW124092   6.856   1.130   0.554
 7731SOL    HW224093   6.710   1.148   0.483
 7732SOL     OW24094   4.491   6.197   0.715
 7732SOL    HW124095   4.460   6.102   0.721
 7732SOL    HW224096   4.549   6.217   0.794
 7733SOL     OW24097   4.124   6.708   2.293
 7733SOL    HW124098   4.059   6.771   2.337
 7733SOL    HW224099   4.132   6.625   2.349
 7734SOL     OW24100   2.275   4.825   3.349
 7734SOL    HW124101   2.347   4.784   3.405
 7734SOL    HW224102   2.258   4.918   3.380
 7735SOL     OW24103   4.510   6.171   6.458
 7735SOL    HW124104   4.538   6.265   6.476
 7735SOL    HW224105   4.539   6.112   6.533
 7736SOL     OW24106   4.258   3.968   6.777
 7736SOL    HW124107   4.197   4.029   6.827
 7736SOL    HW224108   4.317   4.022   6.716
 7737SOL     OW24109   4.216   0.934   1.962
 7737SOL    HW124110   4.245   0.865   1.896
 7737SOL    HW224111   4.121   0.959   1.945
 7738SOL     OW24112   1.581   5.755   6.419
 7738SOL    HW124113   1.495   5.804   6.435
 7738SOL    HW224114   1.657   5.820   6.416
 7739SOL     OW24115   0.321   1.384   2.037
 7739SOL    HW124116   0.412   1.345   2.024
 7739SOL    HW224117   0.253   1.311   2.033
 7740SOL     OW24118   1.725   0.615   2.805
 7740SOL    HW124119   1.722   0.555   2.885
 7740SOL    HW224120   1.656   0.687   2.816
 7741SOL     OW24121   1.176   6.086   4.810
 7741SOL    HW124122   1.249   6.120   4.869
 7741SOL    HW224123   1.201   6.101   4.715
 7742SOL     OW24124   6.156   1.954   3.093
 7742SOL    HW124125   6.210   1.949   3.177
 7742SOL    HW224126   6.176   1.874   3.036
 7743SOL     OW24127   4.888   2.267   6.401
 7743SOL    HW124128   4.880   2.244   6.304
 7743SOL    HW224129   4.811   2.227   6.451
 7744SOL     OW24130   0.820   6.350   3.660
 7744SOL    HW124131   0.862   6.286   3.725
 7744SOL    HW224132   0.737   6.388   3.699
 7745SOL     OW24133   3.073   1.312   5.512
 7745SOL    HW124134   2.999   1.290   5.575
 7745SOL    HW224135   3.074   1.246   5.436
 7746SOL     OW24136   2.268   6.740   0.092
 7746SOL    HW124137   2.218   6.682   0.156
 7746SOL    HW224138   2.367   6.729   0.106
 7747SOL     OW24139   4.201   5.664   1.539
 7747SOL    HW124140   4.159   5.603   1.607
 7747SOL    HW224141   4.182   5.629   1.447
 7748SOL     OW24142   3.590   3.287   5.654
 7748SOL    HW124143   3.658   3.277   5.727
 7748SOL    HW224144   3.533   3.368   5.672
 7749SOL     OW24145   3.001   3.083   5.559
 7749SOL    HW124146   3.040   3.168   5.525
 7749SOL    HW224147   3.071   3.011   5.555
 7750SOL     OW24148   6.741   5.906   1.515
 7750SOL    HW124149   6.726   5.914   1.614
 7750SOL    HW224150   6.656   5.924   1.467
 7751SOL     OW24151   1.822   1.214   2.210
 7751SOL    HW124152   1.915   1.242   2.236
 7751SOL    HW224153   1.763   1.295   2.206
 7752SOL     OW24154   5.194   0.028   5.663
 7752SOL    HW124155   5.112   0.064   5.708
 7752SOL    HW224156   5.275   0.077   5.696
 7753SOL     OW24157   2.376   1.532   4.575
 7753SOL    HW124158   2.337   1.468   4.509
 7753SOL    HW224159   2.336   1.515   4.665
 7754SOL     OW24160   3.591   5.828   1.616
 7754SOL    HW124161   3.619   5.851   1.523
 7754SOL    HW224162   3.579   5.912   1.669
 7755SOL     OW24163   1.281   2.331   6.206
 7755SOL    HW124164   1.372   2.364   6.182
 7755SOL    HW224165   1.288   2.252   6.266
 7756SOL     OW24166   3.221   6.202   1.289
 7756SOL    HW124167   3.314   6.166   1.290
 7756SOL    HW224168   3.190   6.212   1.194
 7757SOL     OW24169   6.872   4.795   1.336
 7757SOL    HW124170   6.864   4.877   1.279
 7757SOL    HW224171   6.962   4.754   1.323
 7758SOL     OW24172   1.622   6.706   5.612
 7758SOL    HW124173   1.671   6.641   5.555
 7758SOL    HW224174   1.611   6.670   5.704
 7759SOL     OW24175   2.703   1.200   5.599
 7759SOL    HW124176   2.749   1.182   5.686
 7759SOL    HW224177   2.711   1.297   5.577
 7760SOL     OW24178   5.445   2.262   2.303
 7760SOL    HW124179   5.435   2.353   2.263
 7760SOL    HW224180   5.426   2.267   2.401
 7761SOL     OW24181   6.863   5.688   4.880
 7761SOL    HW124182   6.832   5.667   4.787
 7761SOL    HW224183   6.932   5.760   4.876
 7762SOL     OW24184   2.055   0.200   3.569
 7762SOL    HW124185   2.011   0.287   3.588
 7762SOL    HW224186   1.987   0.135   3.534
 7763SOL     OW24187   2.471   0.214   6.113
 7763SOL    HW124188   2.388   0.258   6.146
 7763SOL    HW224189   2.504   0.262   6.031
 7764SOL     OW24190   3.176   4.046   6.289
 7764SOL    HW124191   3.103   4.035   6.355
 7764SOL    HW224192   3.210   3.956   6.261
 7765SOL     OW24193   6.274   3.077   4.600
 7765SOL    HW124194   6.204   3.116   4.659
 7765SOL    HW224195   6.364   3.109   4.630
 7766SOL     OW24196   0.052   4.330   0.324
 7766SOL    HW124197   0.136   4.354   0.275
 7766SOL    HW224198   6.989   4.341   0.263
 7767SOL     OW24199   4.937   6.487   2.179
 7767SOL    HW124200   4.929   6.585   2.163
 7767SOL    HW224201   4.929   6.438   2.092
 7768SOL     OW24202   4.641   4.766   3.990
 7768SOL    HW124203   4.689   4.758   4.077
 7768SOL    HW224204   4.705   4.796   3.920
 7769SOL     OW24205   3.783   1.635   4.653
 7769SOL    HW124206   3.753   1.692   4.729
 7769SOL    HW224207   3.837   1.690   4.589
 7770SOL     OW24208   0.249   3.526   4.428
 7770SOL    HW124209   0.210   3.437   4.402
 7770SOL    HW224210   0.256   3.531   4.527
 7771SOL     OW24211   2.919   1.640   6.271
 7771SOL    HW124212   2.912   1.570   6.200
 7771SOL    HW224213   2.948   1.598   6.357
 7772SOL     OW24214   5.186   0.437   1.407
 7772SOL    HW124215   5.234   0.412   1.491
 7772SOL    HW224216   5.187   0.360   1.343
 7773SOL     OW24217   2.697   5.729   5.689
 7773SOL    HW124218   2.665   5.712   5.783
 7773SOL    HW224219   2.620   5.721   5.626
 7774SOL     OW24220   4.867   2.340   4.675
 7774SOL    HW124221   4.782   2.328   4.623
 7774SOL    HW224222   4.873   2.434   4.708
 7775SOL     OW24223   4.060   6.772   0.110
 7775SOL    HW124224   4.160   6.770   0.101
 7775SOL    HW224225   4.021   6.825   0.035
 7776SOL     OW24226   0.710   6.486   6.446
 7776SOL    HW124227   0.787   6.427   6.422
 7776SOL    HW224228   0.718   6.573   6.397
 7777SOL     OW24229   6.773   5.375   4.843
 7777SOL    HW124230   6.708   5.336   4.908
 7777SOL    HW224231   6.829   5.444   4.889
 7778SOL     OW24232   5.581   4.097   2.250
 7778SOL    HW124233   5.514   4.028   2.276
 7778SOL    HW224234   5.550   4.145   2.168
 7779SOL     OW24235   2.868   0.409   2.573
 7779SOL    HW124236   2.857   0.404   2.672
 7779SOL    HW224237   2.962   0.437   2.552
 7780SOL     OW24238   0.655   5.795   5.719
 7780SOL    HW124239   0.602   5.821   5.639
 7780SOL    HW224240   0.706   5.874   5.753
 7781SOL     OW24241   1.252   4.074   0.287
 7781SOL    HW124242   1.227   4.118   0.200
 7781SOL    HW224243   1.333   4.119   0.325
 7782SOL     OW24244   5.682   5.249   3.793
 7782SOL    HW124245   5.613   5.305   3.746
 7782SOL    HW224246   5.643   5.159   3.814
 7783SOL     OW24247   0.686   0.148   5.891
 7783SOL    HW124248   0.740   0.070   5.922
 7783SOL    HW224249   0.731   0.233   5.919
 7784SOL     OW24250   2.837   2.621   1.538
 7784SOL    HW124251   2.800   2.539   1.494
 7784SOL    HW224252   2.933   2.606   1.561
 7785SOL     OW24253   1.368   6.801   3.921
 7785SOL    HW124254   1.323   6.817   3.834
 7785SOL    HW224255   1.361   6.704   3.946
 7786SOL     OW24256   4.446   0.815   6.954
 7786SOL    HW124257   4.405   0.907   6.955
 7786SOL    HW224258   4.545   0.822   6.944
 7787SOL     OW24259   1.987   2.984   0.436
 7787SOL    HW124260   1.892   2.963   0.413
 7787SOL    HW224261   2.003   3.082   0.421
 7788SOL     OW24262   1.216   6.271   2.293
 7788SOL    HW124263   1.208   6.189   2.237
 7788SOL    HW224264   1.303   6.269   2.342
 7789SOL     OW24265   3.267   0.319   6.395
 7789SOL    HW124266   3.356   0.333   6.439
 7789SOL    HW224267   3.276   0.331   6.296
 7790SOL     OW24268   6.369   5.039   2.481
 7790SOL    HW124269   6.384   4.954   2.431
 7790SOL    HW224270   6.313   5.101   2.425
 7791SOL     OW24271   2.704   5.908   2.134
 7791SOL    HW124272   2.783   5.861   2.171
 7791SOL    HW224273   2.678   5.867   2.046
 7792SOL     OW24274   0.771   0.397   2.748
 7792SOL    HW124275   0.808   0.369   2.836
 7792SOL    HW224276   0.684   0.349   2.732
 7793SOL     OW24277   4.708   0.641   6.827
 7793SOL    HW124278   4.648   0.649   6.746
 7793SOL    HW224279   4.711   0.729   6.874
 7794SOL     OW24280   0.469   5.495   1.824
 7794SOL    HW124281   0.391   5.436   1.805
 7794SOL    HW224282   0.486   5.554   1.745
 7795SOL     OW24283   3.403   5.764   5.813
 7795SOL    HW124284   3.453   5.755   5.899
 7795SOL    HW224285   3.457   5.819   5.749
 7796SOL     OW24286   2.883   2.893   5.821
 7796SOL    HW124287   2.869   2.820   5.754
 7796SOL    HW224288   2.859   2.981   5.780
 7797SOL     OW24289   0.732   5.330   1.333
 7797SOL    HW124290   0.690   5.255   1.384
 7797SOL    HW224291   0.689   5.337   1.243
 7798SOL     OW24292   1.744   1.267   2.652
 7798SOL    HW124293   1.681   1.277   2.728
 7798SOL    HW224294   1.737   1.175   2.615
 7799SOL     OW24295   2.554   5.792   2.857
 7799SOL    HW124296   2.527   5.696   2.859
 7799SOL    HW224297   2.531   5.832   2.769
 7800SOL     OW24298   0.132   5.964   2.984
 7800SOL    HW124299   0.168   5.895   2.921
 7800SOL    HW224300   0.206   6.000   3.040
 7801SOL     OW24301   1.579   1.268   2.894
 7801SOL    HW124302   1.521   1.198   2.852
 7801SOL    HW224303   1.540   1.358   2.878
 7802SOL     OW24304   6.934   4.046   0.131
 7802SOL    HW124305   6.943   3.983   0.053
 7802SOL    HW224306   6.911   4.137   0.098
 7803SOL     OW24307   4.544   1.906   7.000
 7803SOL    HW124308   4.592   1.974   0.041
 7803SOL    HW224309   4.581   1.815   0.006
 7804SOL     OW24310   3.824   1.904   4.531
 7804SOL    HW124311   3.850   1.999   4.549
 7804SOL    HW224312   3.745   1.902   4.470
 7805SOL     OW24313   4.912   3.521   2.631
 7805SOL    HW124314   4.935   3.599   2.574
 7805SOL    HW224315   4.890   3.442   2.574
 7806SOL     OW24316   6.180   2.358   6.241
 7806SOL    HW124317   6.132   2.270   6.239
 7806SOL    HW224318   6.272   2.345   6.278
 7807SOL     OW24319   1.079   4.177   5.272
 7807SOL    HW124320   0.984   4.148   5.287
 7807SOL    HW224321   1.118   4.125   5.196
 7808SOL     OW24322   5.035   4.245   2.671
 7808SOL    HW124323   4.960   4.216   2.731
 7808SOL    HW224324   5.067   4.167   2.617
 7809SOL     OW24325   5.235   4.751   4.859
 7809SOL    HW124326   5.284   4.734   4.774
 7809SOL    HW224327   5.157   4.688   4.866
 7810SOL     OW24328   3.799   6.817   4.580
 7810SOL    HW124329   3.700   6.800   4.585
 7810SOL    HW224330   3.843   6.776   4.660
 7811SOL     OW24331   2.077   5.942   2.794
 7811SOL    HW124332   1.996   5.966   2.847
 7811SOL    HW224333   2.058   5.861   2.739
 7812SOL     OW24334   2.280   3.270   5.248
 7812SOL    HW124335   2.325   3.354   5.278
 7812SOL    HW224336   2.350   3.203   5.221
 7813SOL     OW24337   4.501   2.712   1.317
 7813SOL    HW124338   4.418   2.657   1.331
 7813SOL    HW224339   4.527   2.709   1.220
 7814SOL     OW24340   6.593   3.555   2.363
 7814SOL    HW124341   6.664   3.626   2.360
 7814SOL    HW224342   6.620   3.483   2.427
 7815SOL     OW24343   5.702   2.066   5.345
 7815SOL    HW124344   5.782   2.073   5.404
 7815SOL    HW224345   5.678   2.157   5.310
 7816SOL     OW24346   0.539   2.335   5.653
 7816SOL    HW124347   0.597   2.304   5.577
 7816SOL    HW224348   0.513   2.257   5.709
 7817SOL     OW24349   4.583   3.759   5.525
 7817SOL    HW124350   4.534   3.840   5.555
 7817SOL    HW224351   4.644   3.783   5.449
 7818SOL     OW24352   4.974   1.188   2.492
 7818SOL    HW124353   4.942   1.094   2.508
 7818SOL    HW224354   5.074   1.188   2.488
 7819SOL     OW24355   6.835   3.380   3.875
 7819SOL    HW124356   6.832   3.336   3.786
 7819SOL    HW224357   6.930   3.387   3.905
 7820SOL     OW24358   2.041   1.577   5.458
 7820SOL    HW124359   2.124   1.576   5.514
 7820SOL    HW224360   2.067   1.580   5.361
 7821SOL     OW24361   5.442   5.988   0.383
 7821SOL    HW124362   5.480   6.009   0.473
 7821SOL    HW224363   5.509   5.936   0.330
 7822SOL     OW24364   0.819   1.507   6.111
 7822SOL    HW124365   0.822   1.525   6.209
 7822SOL    HW224366   0.724   1.492   6.083
 7823SOL     OW24367   1.274   4.119   6.055
 7823SOL    HW124368   1.275   4.117   5.955
 7823SOL    HW224369   1.193   4.072   6.089
 7824SOL     OW24370   6.288   0.272   4.418
 7824SOL    HW124371   6.386   0.279   4.399
 7824SOL    HW224372   6.275   0.248   4.514
 7825SOL     OW24373   1.904   2.715   1.446
 7825SOL    HW124374   1.900   2.800   1.498
 7825SOL    HW224375   1.998   2.698   1.415
 7826SOL     OW24376   5.141   2.321   6.486
 7826SOL    HW124377   5.046   2.301   6.460
 7826SOL    HW224378   5.175   2.249   6.545
 7827SOL     OW24379   3.239   5.014   1.297
 7827SOL    HW124380   3.207   5.072   1.222
 7827SOL    HW224381   3.182   5.028   1.377
 7828SOL     OW24382   0.591   5.475   0.433
 7828SOL    HW124383   0.537   5.397   0.402
 7828SOL    HW224384   0.562   5.500   0.525
 7829SOL     OW24385   2.051   3.313   1.287
 7829SOL    HW124386   2.052   3.217   1.315
 7829SOL    HW224387   2.034   3.370   1.367
 7830SOL     OW24388   5.656   3.805   5.784
 7830SOL    HW124389   5.691   3.768   5.870
 7830SOL    HW224390   5.579   3.865   5.802
 7831SOL     OW24391   1.102   5.010   6.940
 7831SOL    HW124392   1.153   5.069   6.878
 7831SOL    HW224393   1.166   4.960   6.999
 7832SOL     OW24394   3.628   0.614   4.938
 7832SOL    HW124395   3.724   0.610   4.911
 7832SOL    HW224396   3.602   0.710   4.954
 7833SOL     OW24397   1.119   0.614   0.581
 7833SOL    HW124398   1.108   0.609   0.482
 7833SOL    HW224399   1.114   0.709   0.611
 7834SOL     OW24400   0.234   1.756   2.417
 7834SOL    HW124401   0.250   1.766   2.318
 7834SOL    HW224402   0.214   1.846   2.456
 7835SOL     OW24403   2.043   2.597   4.890
 7835SOL    HW124404   2.085   2.669   4.944
 7835SOL    HW224405   1.947   2.619   4.874
 7836SOL     OW24406   3.445   0.998   6.240
 7836SOL    HW124407   3.370   0.943   6.278
 7836SOL    HW224408   3.521   0.937   6.218
 7837SOL     OW24409   6.248   6.304   1.549
 7837SOL    HW124410   6.308   6.383   1.538
 7837SOL    HW224411   6.254   6.245   1.468
 7838SOL     OW24412   4.604   6.442   6.523
 7838SOL    HW124413   4.654   6.523   6.491
 7838SOL    HW224414   4.620   6.431   6.621
 7839SOL     OW24415   6.748   4.222   4.702
 7839SOL    HW124416   6.827   4.192   4.649
 7839SOL    HW224417   6.666   4.220   4.645
 7840SOL     OW24418   5.108   3.850   3.803
 7840SOL    HW124419   5.130   3.946   3.819
 7840SOL    HW224420   5.193   3.799   3.786
 7841SOL     OW24421   5.499   1.805   6.582
 7841SOL    HW124422   5.461   1.752   6.507
 7841SOL    HW224423   5.592   1.775   6.602
 7842SOL     OW24424   1.470   1.168   3.211
 7842SOL    HW124425   1.411   1.162   3.291
 7842SOL    HW224426   1.425   1.124   3.133
 7843SOL     OW24427   5.703   4.616   1.551
 7843SOL    HW124428   5.769   4.564   1.606
 7843SOL    HW224429   5.677   4.562   1.471
 7844SOL     OW24430   4.596   0.720   3.767
 7844SOL    HW124431   4.637   0.713   3.859
 7844SOL    HW224432   4.551   0.634   3.744
 7845SOL     OW24433   0.494   1.035   3.896
 7845SOL    HW124434   0.560   0.964   3.920
 7845SOL    HW224435   0.499   1.053   3.798
 7846SOL     OW24436   2.111   0.316   1.679
 7846SOL    HW124437   2.107   0.356   1.588
 7846SOL    HW224438   2.173   0.370   1.737
 7847SOL     OW24439   0.198   1.629   1.337
 7847SOL    HW124440   0.259   1.708   1.332
 7847SOL    HW224441   0.172   1.601   1.244
 7848SOL     OW24442   2.729   4.504   1.156
 7848SOL    HW124443   2.807   4.563   1.173
 7848SOL    HW224444   2.663   4.551   1.097
 7849SOL     OW24445   5.755   4.048   4.438
 7849SOL    HW124446   5.824   4.120   4.430
 7849SOL    HW224447   5.673   4.085   4.480
 7850SOL     OW24448   0.371   0.712   3.769
 7850SOL    HW124449   0.466   0.723   3.738
 7850SOL    HW224450   0.371   0.687   3.866
 7851SOL     OW24451   6.811   6.749   0.788
 7851SOL    HW124452   6.830   6.694   0.707
 7851SOL    HW224453   6.895   6.760   0.842
 7852SOL     OW24454   3.177   6.606   6.385
 7852SOL    HW124455   3.093   6.643   6.423
 7852SOL    HW224456   3.158   6.521   6.337
 7853SOL     OW24457   4.247   1.471   1.051
 7853SOL    HW124458   4.345   1.453   1.048
 7853SOL    HW224459   4.209   1.432   1.135
 7854SOL     OW24460   3.618   4.452   0.830
 7854SOL    HW124461   3.686   4.382   0.851
 7854SOL    HW224462   3.605   4.511   0.910
 7855SOL     OW24463   4.493   5.253   5.954
 7855SOL    HW124464   4.417   5.273   6.016
 7855SOL    HW224465   4.468   5.179   5.892
 7856SOL     OW24466   6.048   4.776   3.973
 7856SOL    HW124467   6.095   4.714   3.910
 7856SOL    HW224468   5.989   4.838   3.921
 7857SOL     OW24469   6.896   2.609   5.738
 7857SOL    HW124470   6.834   2.622   5.815
 7857SOL    HW224471   6.949   2.692   5.723
 7858SOL     OW24472   5.248   5.204   3.667
 7858SOL    HW124473   5.320   5.145   3.704
 7858SOL    HW224474   5.170   5.147   3.639
 7859SOL     OW24475   6.964   3.900   5.957
 7859SOL    HW124476   6.930   3.854   5.875
 7859SOL    HW224477   6.989   3.831   6.026
 7860SOL     OW24478   3.722   6.297   2.636
 7860SOL    HW124479   3.788   6.231   2.672
 7860SOL    HW224480   3.661   6.251   2.571
 7861SOL     OW24481   4.303   5.827   1.959
 7861SOL    HW124482   4.339   5.734   1.955
 7861SOL    HW224483   4.203   5.824   1.952
 7862SOL     OW24484   2.793   4.379   1.618
 7862SOL    HW124485   2.826   4.422   1.702
 7862SOL    HW224486   2.837   4.422   1.539
 7863SOL     OW24487   0.213   5.756   3.534
 7863SOL    HW124488   0.298   5.805   3.518
 7863SOL    HW224489   0.198   5.747   3.633
 7864SOL     OW24490   0.099   5.704   5.903
 7864SOL    HW124491   0.053   5.785   5.867
 7864SOL    HW224492   0.075   5.692   5.999
 7865SOL     OW24493   4.465   6.654   4.214
 7865SOL    HW124494   4.471   6.734   4.273
 7865SOL    HW224495   4.479   6.571   4.268
 7866SOL     OW24496   2.672   1.957   1.409
 7866SOL    HW124497   2.728   1.914   1.339
 7866SOL    HW224498   2.718   1.950   1.497
 7867SOL     OW24499   5.786   5.130   2.941
 7867SOL    HW124500   5.860   5.110   2.877
 7867SOL    HW224501   5.816   5.199   3.007
 7868SOL     OW24502   5.267   6.953   2.753
 7868SOL    HW124503   5.220   6.865   2.764
 7868SOL    HW224504   5.364   6.937   2.738
 7869SOL     OW24505   6.192   3.782   0.863
 7869SOL    HW124506   6.216   3.798   0.768
 7869SOL    HW224507   6.268   3.737   0.910
 7870SOL     OW24508   5.544   5.904   3.669
 7870SOL    HW124509   5.521   5.845   3.592
 7870SOL    HW224510   5.586   5.988   3.635
 7871SOL     OW24511   5.809   4.175   3.263
 7871SOL    HW124512   5.830   4.096   3.205
 7871SOL    HW224513   5.890   4.200   3.316
 7872SOL     OW24514   0.980   4.257   1.937
 7872SOL    HW124515   0.988   4.287   1.842
 7872SOL    HW224516   0.883   4.246   1.960
 7873SOL     OW24517   5.941   0.414   5.672
 7873SOL    HW124518   6.001   0.355   5.724
 7873SOL    HW224519   5.990   0.497   5.645
 7874SOL     OW24520   6.249   1.388   6.643
 7874SOL    HW124521   6.182   1.372   6.715
 7874SOL    HW224522   6.337   1.410   6.684
 7875SOL     OW24523   4.092   3.380   6.426
 7875SOL    HW124524   4.184   3.417   6.442
 7875SOL    HW224525   4.025   3.455   6.428
 7876SOL     OW24526   0.062   6.425   4.774
 7876SOL    HW124527   0.036   6.462   4.864
 7876SOL    HW224528   0.157   6.448   4.755
 7877SOL     OW24529   0.394   2.694   2.345
 7877SOL    HW124530   0.436   2.768   2.292
 7877SOL    HW224531   0.404   2.713   2.443
 7878SOL     OW24532   4.681   5.105   3.483
 7878SOL    HW124533   4.636   5.026   3.524
 7878SOL    HW224534   4.704   5.085   3.388
 7879SOL     OW24535   4.417   5.843   3.210
 7879SOL    HW124536   4.407   5.794   3.297
 7879SOL    HW224537   4.439   5.777   3.137
 7880SOL     OW24538   0.171   5.955   1.466
 7880SOL    HW124539   0.214   6.044   1.484
 7880SOL    HW224540   0.084   5.969   1.418
 7881SOL     OW24541   0.046   3.566   4.757
 7881SOL    HW124542   0.048   3.634   4.683
 7881SOL    HW224543   6.967   3.542   4.778
 7882SOL     OW24544   1.745   2.316   3.240
 7882SOL    HW124545   1.822   2.329   3.301
 7882SOL    HW224546   1.660   2.323   3.292
 7883SOL     OW24547   1.572   0.496   1.278
 7883SOL    HW124548   1.558   0.398   1.263
 7883SOL    HW224549   1.642   0.510   1.347
 7884SOL     OW24550   1.235   3.883   3.402
 7884SOL    HW124551   1.240   3.787   3.430
 7884SOL    HW224552   1.286   3.897   3.317
 7885SOL     OW24553   5.418   5.635   2.967
 7885SOL    HW124554   5.455   5.727   2.954
 7885SOL    HW224555   5.318   5.638   2.958
 7886SOL     OW24556   5.782   3.901   1.103
 7886SOL    HW124557   5.850   3.837   1.068
 7886SOL    HW224558   5.705   3.851   1.142
 7887SOL     OW24559   3.170   2.930   5.126
 7887SOL    HW124560   3.126   2.873   5.196
 7887SOL    HW224561   3.205   3.014   5.169
 7888SOL     OW24562   0.524   0.465   4.675
 7888SOL    HW124563   0.472   0.399   4.727
 7888SOL    HW224564   0.472   0.550   4.667
 7889SOL     OW24565   0.718   5.419   6.519
 7889SOL    HW124566   0.779   5.365   6.577
 7889SOL    HW224567   0.667   5.483   6.576
 7890SOL     OW24568   1.515   3.163   3.900
 7890SOL    HW124569   1.432   3.216   3.919
 7890SOL    HW224570   1.514   3.079   3.953
 7891SOL     OW24571   1.009   3.187   4.265
 7891SOL    HW124572   0.934   3.125   4.292
 7891SOL    HW224573   0.973   3.262   4.211
 7892SOL     OW24574   1.506   2.082   4.213
 7892SOL    HW124575   1.459   2.139   4.145
 7892SOL    HW224576   1.488   1.985   4.192
 7893SOL     OW24577   5.857   6.086   2.397
 7893SOL    HW124578   5.812   6.010   2.443
 7893SOL    HW224579   5.873   6.160   2.462
 7894SOL     OW24580   3.163   1.064   0.994
 7894SOL    HW124581   3.069   1.098   0.987
 7894SOL    HW224582   3.168   0.996   1.067
 7895SOL     OW24583   3.704   6.395   4.414
 7895SOL    HW124584   3.732   6.485   4.445
 7895SOL    HW224585   3.743   6.325   4.474
 7896SOL     OW24586   5.192   2.752   1.881
 7896SOL    HW124587   5.158   2.762   1.974
 7896SOL    HW224588   5.162   2.830   1.826
 7897SOL     OW24589   3.264   3.387   6.668
 7897SOL    HW124590   3.265   3.396   6.568
 7897SOL    HW224591   3.175   3.352   6.697
 7898SOL     OW24592   4.518   0.453   3.730
 7898SOL    HW124593   4.561   0.421   3.815
 7898SOL    HW224594   4.556   0.402   3.653
 7899SOL     OW24595   5.116   6.887   2.435
 7899SOL    HW124596   5.163   6.971   2.409
 7899SOL    HW224597   5.050   6.906   2.507
 7900SOL     OW24598   0.575   3.811   0.323
 7900SOL    HW124599   0.664   3.790   0.282
 7900SOL    HW224600   0.508   3.742   0.295
 7901SOL     OW24601   5.117   1.211   5.835
 7901SOL    HW124602   5.020   1.193   5.849
 7901SOL    HW224603   5.167   1.124   5.833
 7902SOL     OW24604   6.401   6.389   3.726
 7902SOL    HW124605   6.305   6.415   3.715
 7902SOL    HW224606   6.433   6.415   3.818
 7903SOL     OW24607   4.202   1.966   3.210
 7903SOL    HW124608   4.156   1.917   3.136
 7903SOL    HW224609   4.138   2.029   3.254
 7904SOL     OW24610   6.161   0.414   3.547
 7904SOL    HW124611   6.239   0.419   3.485
 7904SOL    HW224612   6.146   0.319   3.576
 7905SOL     OW24613   5.833   1.351   0.569
 7905SOL    HW124614   5.748   1.400   0.550
 7905SOL    HW224615   5.906   1.417   0.586
 7906SOL     OW24616   0.927   5.707   0.478
 7906SOL    HW124617   0.958   5.722   0.572
 7906SOL    HW224618   0.924   5.609   0.460
 7907SOL     OW24619   6.082   0.836   2.931
 7907SOL    HW124620   6.061   0.779   2.852
 7907SOL    HW224621   6.048   0.929   2.915
 7908SOL     OW24622   1.153   1.930   6.647
 7908SOL    HW124623   1.221   1.865   6.680
 7908SOL    HW224624   1.092   1.885   6.582
 7909SOL     OW24625   4.883   4.186   3.499
 7909SOL    HW124626   4.978   4.161   3.519
 7909SOL    HW224627   4.822   4.140   3.564
 7910SOL     OW24628   1.501   3.311   1.451
 7910SOL    HW124629   1.555   3.391   1.426
 7910SOL    HW224630   1.505   3.244   1.377
 7911SOL     OW24631   0.790   4.052   1.245
 7911SOL    HW124632   0.773   4.147   1.271
 7911SOL    HW224633   0.884   4.028   1.268
 7912SOL     OW24634   4.981   4.134   0.633
 7912SOL    HW124635   5.021   4.043   0.624
 7912SOL    HW224636   4.906   4.130   0.699
 7913SOL     OW24637   1.518   4.669   0.948
 7913SOL    HW124638   1.444   4.614   0.910
 7913SOL    HW224639   1.524   4.653   1.047
 7914SOL     OW24640   0.167   4.328   0.036
 7914SOL    HW124641   0.236   4.316   0.107
 7914SOL    HW224642   0.181   4.260   6.979
 7915SOL     OW24643   4.689   1.740   2.783
 7915SOL    HW124644   4.623   1.813   2.767
 7915SOL    HW224645   4.641   1.652   2.786
 7916SOL     OW24646   0.686   0.173   4.871
 7916SOL    HW124647   0.710   0.244   4.937
 7916SOL    HW224648   0.684   0.084   4.916
 7917SOL     OW24649   3.935   2.626   5.630
 7917SOL    HW124650   3.977   2.716   5.627
 7917SOL    HW224651   3.926   2.590   5.537
 7918SOL     OW24652   0.267   1.158   5.220
 7918SOL    HW124653   0.319   1.100   5.158
 7918SOL    HW224654   0.202   1.101   5.272
 7919SOL     OW24655   1.322   5.048   1.958
 7919SOL    HW124656   1.409   5.036   1.912
 7919SOL    HW224657   1.258   4.976   1.929
 7920SOL     OW24658   5.065   0.848   1.828
 7920SOL    HW124659   5.148   0.900   1.808
 7920SOL    HW224660   5.055   0.837   1.927
 7921SOL     OW24661   5.800   0.894   1.473
 7921SOL    HW124662   5.865   0.837   1.524
 7921SOL    HW224663   5.753   0.955   1.537
 7922SOL     OW24664   0.312   6.366   0.173
 7922SOL    HW124665   0.358   6.447   0.136
 7922SOL    HW224666   0.306   6.374   0.272
 7923SOL     OW24667   3.454   1.776   6.396
 7923SOL    HW124668   3.361   1.738   6.391
 7923SOL    HW224669   3.519   1.710   6.357
 7924SOL     OW24670   4.789   0.140   1.732
 7924SOL    HW124671   4.757   0.107   1.821
 7924SOL    HW224672   4.874   0.192   1.744
 7925SOL     OW24673   1.221   6.624   0.886
 7925SOL    HW124674   1.295   6.621   0.819
 7925SOL    HW224675   1.137   6.588   0.845
 7926SOL     OW24676   4.947   1.412   6.682
 7926SOL    HW124677   5.002   1.469   6.743
 7926SOL    HW224678   4.986   1.319   6.680
 7927SOL     OW24679   5.058   6.954   1.506
 7927SOL    HW124680   5.012   6.865   1.504
 7927SOL    HW224681   5.011   0.002   1.444
 7928SOL     OW24682   0.223   1.657   3.768
 7928SOL    HW124683   0.321   1.666   3.783
 7928SOL    HW224684   0.192   1.728   3.705
 7929SOL     OW24685   4.382   3.583   6.196
 7929SOL    HW124686   4.380   3.483   6.193
 7929SOL    HW224687   4.355   3.614   6.287
 7930SOL     OW24688   3.700   5.339   6.502
 7930SOL    HW124689   3.771   5.298   6.558
 7930SOL    HW224690   3.638   5.393   6.559
 7931SOL     OW24691   4.345   2.605   0.643
 7931SOL    HW124692   4.310   2.575   0.732
 7931SOL    HW224693   4.308   2.547   0.571
 7932SOL     OW24694   0.884   4.847   0.799
 7932SOL    HW124695   0.898   4.932   0.749
 7932SOL    HW224696   0.825   4.864   0.878
 7933SOL     OW24697   6.868   0.400   5.802
 7933SOL    HW124698   6.849   0.449   5.888
 7933SOL    HW224699   6.796   0.422   5.736
 7934SOL     OW24700   1.350   4.944   0.109
 7934SOL    HW124701   1.435   4.896   0.132
 7934SOL    HW224702   1.368   5.043   0.105
 7935SOL     OW24703   5.022   5.399   2.596
 7935SOL    HW124704   5.104   5.362   2.637
 7935SOL    HW224705   4.970   5.326   2.551
 7936SOL     OW24706   2.781   5.453   3.370
 7936SOL    HW124707   2.880   5.443   3.373
 7936SOL    HW224708   2.757   5.532   3.314
 7937SOL     OW24709   1.848   5.791   4.181
 7937SOL    HW124710   1.757   5.832   4.174
 7937SOL    HW224711   1.876   5.757   4.092
 7938SOL     OW24712   5.614   6.196   5.261
 7938SOL    HW124713   5.631   6.294   5.270
 7938SOL    HW224714   5.640   6.166   5.169
 7939SOL     OW24715   0.817   1.714   5.913
 7939SOL    HW124716   0.821   1.634   5.973
 7939SOL    HW224717   0.878   1.700   5.835
 7940SOL     OW24718   3.376   1.777   2.817
 7940SOL    HW124719   3.311   1.785   2.892
 7940SOL    HW224720   3.376   1.683   2.783
 7941SOL     OW24721   4.908   6.641   3.140
 7941SOL    HW124722   4.971   6.703   3.187
 7941SOL    HW224723   4.834   6.615   3.202
 7942SOL     OW24724   1.022   3.066   3.187
 7942SOL    HW124725   1.082   3.082   3.109
 7942SOL    HW224726   0.956   3.141   3.194
 7943SOL     OW24727   0.773   4.508   5.602
 7943SOL    HW124728   0.867   4.537   5.619
 7943SOL    HW224729   0.740   4.455   5.680
 7944SOL     OW24730   0.429   2.636   1.731
 7944SOL    HW124731   0.386   2.637   1.821
 7944SOL    HW224732   0.528   2.631   1.741
 7945SOL     OW24733   6.145   5.527   2.759
 7945SOL    HW124734   6.233   5.486   2.783
 7945SOL    HW224735   6.158   5.590   2.682
 7946SOL     OW24736   3.503   6.652   5.934
 7946SOL    HW124737   3.590   6.603   5.941
 7946SOL    HW224738   3.498   6.723   6.003
 7947SOL     OW24739   2.349   1.987   5.238
 7947SOL    HW124740   2.261   2.004   5.283
 7947SOL    HW224741   2.377   1.892   5.254
 7948SOL     OW24742   0.842   5.226   0.823
 7948SOL    HW124743   0.935   5.217   0.790
 7948SOL    HW224744   0.778   5.202   0.750
 7949SOL     OW24745   4.334   3.908   6.150
 7949SOL    HW124746   4.241   3.895   6.183
 7949SOL    HW224747   4.354   3.840   6.079
 7950SOL     OW24748   4.889   6.091   4.934
 7950SOL    HW124749   4.973   6.082   4.988
 7950SOL    HW224750   4.900   6.042   4.847
 7951SOL     OW24751   2.055   5.111   2.172
 7951SOL    HW124752   2.130   5.142   2.231
 7951SOL    HW224753   2.074   5.137   2.077
 7952SOL     OW24754   6.881   3.497   0.086
 7952SOL    HW124755   6.973   3.524   0.057
 7952SOL    HW224756   6.842   3.570   0.142
 7953SOL     OW24757   4.363   1.911   1.592
 7953SOL    HW124758   4.263   1.908   1.596
 7953SOL    HW224759   4.392   1.977   1.522
 7954SOL     OW24760   3.594   3.879   6.296
 7954SOL    HW124761   3.572   3.902   6.202
 7954SOL    HW224762   3.539   3.935   6.358
 7955SOL     OW24763   2.238   1.305   6.734
 7955SOL    HW124764   2.205   1.223   6.686
 7955SOL    HW224765   2.162   1.368   6.748
 7956SOL     OW24766   5.852   1.461   1.878
 7956SOL    HW124767   5.770   1.480   1.932
 7956SOL    HW224768   5.853   1.365   1.851
 7957SOL     OW24769   2.335   1.105   6.913
 7957SOL    HW124770   2.277   1.172   6.866
 7957SOL    HW224771   2.336   1.020   6.861
 7958SOL     OW24772   5.413   3.898   6.009
 7958SOL    HW124773   5.352   3.933   5.939
 7958SOL    HW224774   5.382   3.808   6.040
 7959SOL     OW24775   4.954   0.293   6.663
 7959SOL    HW124776   4.873   0.313   6.719
 7959SOL    HW224777   5.003   0.215   6.702
 7960SOL     OW24778   1.055   1.408   6.014
 7960SOL    HW124779   1.020   1.333   5.959
 7960SOL    HW224780   0.979   1.466   6.044
 7961SOL     OW24781   6.220   0.193   0.585
 7961SOL    HW124782   6.128   0.160   0.565
 7961SOL    HW224783   6.238   0.277   0.534
 7962SOL     OW24784   0.342   1.834   6.132
 7962SOL    HW124785   0.308   1.790   6.049
 7962SOL    HW224786   0.442   1.830   6.133
 7963SOL     OW24787   6.561   5.483   4.020
 7963SOL    HW124788   6.634   5.517   4.080
 7963SOL    HW224789   6.575   5.517   3.927
 7964SOL     OW24790   6.112   3.008   1.883
 7964SOL    HW124791   6.064   2.922   1.901
 7964SOL    HW224792   6.058   3.085   1.918
 7965SOL     OW24793   3.785   2.188   6.159
 7965SOL    HW124794   3.837   2.192   6.244
 7965SOL    HW224795   3.749   2.095   6.147
 7966SOL     OW24796   3.222   2.927   5.546
 7966SOL    HW124797   3.271   2.942   5.461
 7966SOL    HW224798   3.271   2.859   5.601
 7967SOL     OW24799   1.897   5.372   1.814
 7967SOL    HW124800   1.804   5.380   1.849
 7967SOL    HW224801   1.951   5.450   1.844
 7968SOL     OW24802   6.223   2.053   5.149
 7968SOL    HW124803   6.291   2.060   5.222
 7968SOL    HW224804   6.175   2.140   5.140
 7969SOL     OW24805   5.080   5.952   0.688
 7969SOL    HW124806   5.166   5.999   0.712
 7969SOL    HW224807   5.049   5.897   0.766
 7970SOL     OW24808   5.796   3.481   2.787
 7970SOL    HW124809   5.798   3.384   2.760
 7970SOL    HW224810   5.722   3.527   2.739
 7971SOL     OW24811   3.038   0.821   1.846
 7971SOL    HW124812   2.941   0.823   1.869
 7971SOL    HW224813   3.081   0.907   1.873
 7972SOL     OW24814   3.687   3.466   2.019
 7972SOL    HW124815   3.626   3.437   2.093
 7972SOL    HW224816   3.714   3.561   2.034
 7973SOL     OW24817   5.428   3.965   4.720
 7973SOL    HW124818   5.469   4.022   4.649
 7973SOL    HW224819   5.464   3.872   4.712
 7974SOL     OW24820   6.133   1.083   5.982
 7974SOL    HW124821   6.111   1.073   5.885
 7974SOL    HW224822   6.055   1.124   6.029
 7975SOL     OW24823   5.045   0.259   0.948
 7975SOL    HW124824   4.985   0.196   0.900
 7975SOL    HW224825   4.990   0.322   1.004
 7976SOL     OW24826   1.152   0.120   6.036
 7976SOL    HW124827   1.119   0.085   5.948
 7976SOL    HW224828   1.135   0.219   6.041
 7977SOL     OW24829   4.336   6.009   2.572
 7977SOL    HW124830   4.300   6.088   2.522
 7977SOL    HW224831   4.416   5.972   2.524
 7978SOL     OW24832   0.215   2.586   6.415
 7978SOL    HW124833   0.309   2.616   6.427
 7978SOL    HW224834   0.152   2.654   6.453
 7979SOL     OW24835   1.975   4.435   5.756
 7979SOL    HW124836   1.910   4.359   5.758
 7979SOL    HW224837   2.058   4.407   5.706
 7980SOL     OW24838   2.734   5.612   6.788
 7980SOL    HW124839   2.673   5.533   6.784
 7980SOL    HW224840   2.733   5.660   6.700
 7981SOL     OW24841   0.398   5.189   1.818
 7981SOL    HW124842   0.426   5.094   1.825
 7981SOL    HW224843   0.478   5.249   1.821
 7982SOL     OW24844   1.557   1.755   6.147
 7982SOL    HW124845   1.555   1.756   6.047
 7982SOL    HW224846   1.588   1.844   6.180
 7983SOL     OW24847   6.212   1.871   1.316
 7983SOL    HW124848   6.159   1.786   1.321
 7983SOL    HW224849   6.150   1.949   1.326
 7984SOL     OW24850   0.293   1.137   0.479
 7984SOL    HW124851   0.294   1.094   0.570
 7984SOL    HW224852   0.347   1.081   0.415
 7985SOL     OW24853   2.534   2.103   5.042
 7985SOL    HW124854   2.483   2.068   4.964
 7985SOL    HW224855   2.483   2.085   5.126
 7986SOL     OW24856   3.187   0.892   5.844
 7986SOL    HW124857   3.216   0.948   5.921
 7986SOL    HW224858   3.245   0.910   5.764
 7987SOL     OW24859   1.897   3.164   0.657
 7987SOL    HW124860   1.961   3.217   0.714
 7987SOL    HW224861   1.930   3.163   0.562
 7988SOL     OW24862   1.585   0.727   2.527
 7988SOL    HW124863   1.683   0.708   2.534
 7988SOL    HW224864   1.569   0.796   2.456
 7989SOL     OW24865   2.682   3.367   0.032
 7989SOL    HW124866   2.733   3.299   6.994
 7989SOL    HW224867   2.642   3.433   6.985
 7990SOL     OW24868   2.470   5.121   4.557
 7990SOL    HW124869   2.483   5.110   4.459
 7990SOL    HW224870   2.488   5.215   4.583
 7991SOL     OW24871   5.960   1.489   3.717
 7991SOL    HW124872   5.900   1.409   3.709
 7991SOL    HW224873   5.965   1.517   3.813
 7992SOL     OW24874   1.312   0.585   0.257
 7992SOL    HW124875   1.345   0.676   0.282
 7992SOL    HW224876   1.222   0.570   0.298
 7993SOL     OW24877   6.882   0.035   1.427
 7993SOL    HW124878   6.928   6.965   1.453
 7993SOL    HW224879   6.856   0.086   1.509
 7994SOL     OW24880   5.018   0.703   3.258
 7994SOL    HW124881   4.926   0.740   3.268
 7994SOL    HW224882   5.067   0.710   3.345
 7995SOL     OW24883   6.152   5.301   3.481
 7995SOL    HW124884   6.066   5.352   3.482
 7995SOL    HW224885   6.186   5.292   3.575
 7996SOL     OW24886   3.636   6.099   4.562
 7996SOL    HW124887   3.637   6.030   4.489
 7996SOL    HW224888   3.546   6.099   4.606
 7997SOL     OW24889   6.894   1.910   0.089
 7997SOL    HW124890   6.961   1.953   0.150
 7997SOL    HW224891   6.923   1.816   0.070
 7998SOL     OW24892   3.354   6.886   6.722
 7998SOL    HW124893   3.338   6.796   6.762
 7998SOL    HW224894   3.290   6.951   6.760
 7999SOL     OW24895   0.908   0.950   5.793
 7999SOL    HW124896   0.877   0.974   5.701
 7999SOL    HW224897   0.915   0.851   5.801
 8000SOL     OW24898   5.684   6.652   6.027
 8000SOL    HW124899   5.691   6.751   6.019
 8000SOL    HW224900   5.775   6.613   6.039
 8001SOL     OW24901   4.352   6.086   1.446
 8001SOL    HW124902   4.387   6.013   1.389
 8001SOL    HW224903   4.345   6.055   1.541
 8002SOL     OW24904   1.012   0.683   5.358
 8002SOL    HW124905   0.992   0.607   5.420
 8002SOL    HW224906   0.983   0.659   5.266
 8003SOL     OW24907   2.127   5.703   1.509
 8003SOL    HW124908   2.224   5.692   1.531
 8003SOL    HW224909   2.081   5.614   1.518
 8004SOL     OW24910   2.050   3.403   3.596
 8004SOL    HW124911   1.980   3.416   3.525
 8004SOL    HW224912   2.123   3.345   3.560
 8005SOL     OW24913   2.397   0.518   3.512
 8005SOL    HW124914   2.340   0.439   3.534
 8005SOL    HW224915   2.460   0.536   3.588
 8006SOL     OW24916   2.327   6.062   5.111
 8006SOL    HW124917   2.365   6.132   5.173
 8006SOL    HW224918   2.344   5.971   5.149
 8007SOL     OW24919   5.932   2.084   6.565
 8007SOL    HW124920   5.909   2.091   6.662
 8007SOL    HW224921   5.865   2.135   6.511
 8008SOL     OW24922   3.392   5.730   6.707
 8008SOL    HW124923   3.312   5.728   6.647
 8008SOL    HW224924   3.379   5.801   6.776
 8009SOL     OW24925   4.632   1.010   0.363
 8009SOL    HW124926   4.667   1.024   0.456
 8009SOL    HW224927   4.559   1.076   0.344
 8010SOL     OW24928   2.720   2.296   5.027
 8010SOL    HW124929   2.794   2.263   4.969
 8010SOL    HW224930   2.641   2.236   5.017
 8011SOL     OW24931   3.386   2.178   1.477
 8011SOL    HW124932   3.419   2.180   1.571
 8011SOL    HW224933   3.351   2.268   1.451
 8012SOL     OW24934   1.304   2.742   6.722
 8012SOL    HW124935   1.380   2.805   6.713
 8012SOL    HW224936   1.339   2.649   6.734
 8013SOL     OW24937   1.675   3.907   3.377
 8013SOL    HW124938   1.630   3.963   3.446
 8013SOL    HW224939   1.686   3.814   3.411
 8014SOL     OW24940   2.198   0.243   4.556
 8014SOL    HW124941   2.103   0.270   4.569
 8014SOL    HW224942   2.212   0.150   4.592
 8015SOL     OW24943   2.043   0.605   5.973
 8015SOL    HW124944   1.984   0.651   5.907
 8015SOL    HW224945   2.133   0.588   5.932
 8016SOL     OW24946   3.951   1.329   4.979
 8016SOL    HW124947   3.977   1.235   4.957
 8016SOL    HW224948   3.856   1.344   4.954
 8017SOL     OW24949   6.335   6.909   6.732
 8017SOL    HW124950   6.250   6.867   6.702
 8017SOL    HW224951   6.369   6.970   6.660
 8018SOL     OW24952   3.215   2.791   0.239
 8018SOL    HW124953   3.287   2.724   0.222
 8018SOL    HW224954   3.164   2.808   0.154
 8019SOL     OW24955   1.901   4.415   1.544
 8019SOL    HW124956   1.915   4.319   1.569
 8019SOL    HW224957   1.921   4.428   1.447
 8020SOL     OW24958   6.529   0.192   6.424
 8020SOL    HW124959   6.466   0.268   6.413
 8020SOL    HW224960   6.535   0.167   6.521
 8021SOL     OW24961   1.770   2.915   1.813
 8021SOL    HW124962   1.684   2.966   1.822
 8021SOL    HW224963   1.751   2.817   1.820
 8022SOL     OW24964   6.358   0.731   2.064
 8022SOL    HW124965   6.344   0.633   2.078
 8022SOL    HW224966   6.437   0.746   2.004
 8023SOL     OW24967   5.791   4.399   2.582
 8023SOL    HW124968   5.767   4.330   2.650
 8023SOL    HW224969   5.874   4.446   2.609
 8024SOL     OW24970   1.237   5.107   6.150
 8024SOL    HW124971   1.139   5.115   6.128
 8024SOL    HW224972   1.280   5.196   6.142
 8025SOL     OW24973   1.386   5.410   0.894
 8025SOL    HW124974   1.485   5.420   0.907
 8025SOL    HW224975   1.348   5.359   0.971
 8026SOL     OW24976   6.874   4.746   0.906
 8026SOL    HW124977   6.839   4.653   0.918
 8026SOL    HW224978   6.798   4.808   0.889
 8027SOL     OW24979   3.287   6.556   6.081
 8027SOL    HW124980   3.334   6.509   6.156
 8027SOL    HW224981   3.346   6.558   6.000
 8028SOL     OW24982   3.376   4.936   5.138
 8028SOL    HW124983   3.420   4.982   5.061
 8028SOL    HW224984   3.277   4.945   5.131
 8029SOL     OW24985   4.903   2.312   2.165
 8029SOL    HW124986   4.890   2.248   2.089
 8029SOL    HW224987   4.961   2.269   2.235
 8030SOL     OW24988   5.855   5.482   1.350
 8030SOL    HW124989   5.845   5.550   1.422
 8030SOL    HW224990   5.773   5.425   1.346
 8031SOL     OW24991   0.117   6.325   3.140
 8031SOL    HW124992   0.107   6.374   3.053
 8031SOL    HW224993   0.041   6.261   3.151
 8032SOL     OW24994   5.229   3.796   1.711
 8032SOL    HW124995   5.230   3.895   1.693
 8032SOL    HW224996   5.319   3.758   1.693
 8033SOL     OW24997   4.496   3.191   6.922
 8033SOL    HW124998   4.452   3.271   6.962
 8033SOL    HW224999   4.581   3.172   6.970
 8034SOL     OW25000   4.903   6.741   5.715
 8034SOL    HW125001   4.843   6.686   5.657
 8034SOL    HW225002   4.857   6.826   5.741
 8035SOL     OW25003   5.351   2.017   2.205
 8035SOL    HW125004   5.373   2.113   2.224
 8035SOL    HW225005   5.290   2.012   2.126
 8036SOL     OW25006   0.040   3.630   3.663
 8036SOL    HW125007   0.052   3.727   3.643
 8036SOL    HW225008   0.131   3.587   3.672
 8037SOL     OW25009   1.558   3.418   6.969
 8037SOL    HW125010   1.517   3.447   0.041
 8037SOL    HW225011   1.594   3.497   6.921
 8038SOL     OW25012   4.216   6.711   2.931
 8038SOL    HW125013   4.294   6.654   2.959
 8038SOL    HW225014   4.161   6.660   2.864
 8039SOL     OW25015   6.871   1.724   4.506
 8039SOL    HW125016   6.802   1.796   4.511
 8039SOL    HW225017   6.832   1.643   4.462
 8040SOL     OW25018   1.558   6.579   6.660
 8040SOL    HW125019   1.590   6.647   6.594
 8040SOL    HW225020   1.632   6.515   6.680
 8041SOL     OW25021   3.142   0.944   2.814
 8041SOL    HW125022   3.199   0.862   2.800
 8041SOL    HW225023   3.054   0.931   2.769
 8042SOL     OW25024   4.523   4.007   5.629
 8042SOL    HW125025   4.487   4.014   5.537
 8042SOL    HW225026   4.622   4.003   5.626
 8043SOL     OW25027   3.408   4.926   0.231
 8043SOL    HW125028   3.353   4.859   0.280
 8043SOL    HW225029   3.475   4.879   0.173
 8044SOL     OW25030   3.668   3.747   0.730
 8044SOL    HW125031   3.652   3.654   0.698
 8044SOL    HW225032   3.744   3.747   0.796
 8045SOL     OW25033   6.565   2.068   2.463
 8045SOL    HW125034   6.487   2.121   2.497
 8045SOL    HW225035   6.646   2.087   2.519
 8046SOL     OW25036   0.559   4.672   2.042
 8046SOL    HW125037   0.552   4.631   1.951
 8046SOL    HW225038   0.647   4.647   2.082
 8047SOL     OW25039   3.419   6.557   6.499
 8047SOL    HW125040   3.328   6.580   6.465
 8047SOL    HW225041   3.417   6.553   6.599
 8048SOL     OW25042   3.026   2.481   0.129
 8048SOL    HW125043   3.086   2.543   0.080
 8048SOL    HW225044   2.958   2.533   0.180
 8049SOL     OW25045   0.331   6.864   0.341
 8049SOL    HW125046   0.305   6.769   0.355
 8049SOL    HW225047   0.351   6.880   0.244
 8050SOL     OW25048   2.147   3.489   4.111
 8050SOL    HW125049   2.090   3.553   4.162
 8050SOL    HW225050   2.164   3.525   4.019
 8051SOL     OW25051   5.170   6.476   4.650
 8051SOL    HW125052   5.136   6.488   4.743
 8051SOL    HW225053   5.154   6.382   4.621
 8052SOL     OW25054   2.620   2.182   1.226
 8052SOL    HW125055   2.609   2.113   1.297
 8052SOL    HW225056   2.716   2.208   1.219
 8053SOL     OW25057   3.188   3.227   5.315
 8053SOL    HW125058   3.205   3.263   5.406
 8053SOL    HW225059   3.275   3.216   5.266
 8054SOL     OW25060   6.892   4.110   4.339
 8054SOL    HW125061   6.899   4.204   4.371
 8054SOL    HW225062   6.880   4.049   4.418
 8055SOL     OW25063   6.662   0.468   5.645
 8055SOL    HW125064   6.613   0.528   5.582
 8055SOL    HW225065   6.605   0.452   5.726
 8056SOL     OW25066   3.174   0.341   4.898
 8056SOL    HW125067   3.273   0.350   4.887
 8056SOL    HW225068   3.150   0.244   4.910
 8057SOL     OW25069   2.451   2.570   2.704
 8057SOL    HW125070   2.500   2.485   2.688
 8057SOL    HW225071   2.466   2.632   2.627
 8058SOL     OW25072   3.078   6.618   2.329
 8058SOL    HW125073   3.116   6.711   2.327
 8058SOL    HW225074   3.041   6.596   2.239
 8059SOL     OW25075   2.803   0.752   5.392
 8059SOL    HW125076   2.708   0.786   5.394
 8059SOL    HW225077   2.863   0.819   5.435
 8060SOL     OW25078   0.387   2.250   6.346
 8060SOL    HW125079   0.317   2.294   6.290
 8060SOL    HW225080   0.396   2.299   6.433
 8061SOL     OW25081   0.853   0.291   2.454
 8061SOL    HW125082   0.776   0.354   2.443
 8061SOL    HW225083   0.882   0.290   2.550
 8062SOL     OW25084   4.076   5.225   4.240
 8062SOL    HW125085   4.039   5.275   4.318
 8062SOL    HW225086   4.155   5.273   4.204
 8063SOL     OW25087   2.801   0.880   3.034
 8063SOL    HW125088   2.891   0.860   3.071
 8063SOL    HW225089   2.781   0.978   3.045
 8064SOL     OW25090   6.062   2.400   0.378
 8064SOL    HW125091   5.992   2.404   0.449
 8064SOL    HW225092   6.034   2.335   0.307
 8065SOL     OW25093   2.794   6.474   4.350
 8065SOL    HW125094   2.866   6.523   4.399
 8065SOL    HW225095   2.827   6.451   4.258
 8066SOL     OW25096   6.532   6.914   4.892
 8066SOL    HW125097   6.476   6.958   4.962
 8066SOL    HW225098   6.479   6.844   4.845
 8067SOL     OW25099   5.007   2.216   3.111
 8067SOL    HW125100   5.042   2.309   3.122
 8067SOL    HW225101   4.914   2.219   3.075
 8068SOL     OW25102   0.508   5.063   1.132
 8068SOL    HW125103   0.420   5.035   1.093
 8068SOL    HW225104   0.510   5.038   1.229
 8069SOL     OW25105   2.188   4.578   1.831
 8069SOL    HW125106   2.265   4.581   1.767
 8069SOL    HW225107   2.106   4.613   1.786
 8070SOL     OW25108   3.843   2.801   0.160
 8070SOL    HW125109   3.848   2.857   0.078
 8070SOL    HW225110   3.885   2.712   0.142
 8071SOL     OW25111   3.063   6.643   5.490
 8071SOL    HW125112   2.994   6.600   5.548
 8071SOL    HW225113   3.076   6.588   5.407
 8072SOL     OW25114   3.475   1.801   1.328
 8072SOL    HW125115   3.461   1.705   1.304
 8072SOL    HW225116   3.443   1.859   1.253
 8073SOL     OW25117   3.270   5.536   5.629
 8073SOL    HW125118   3.349   5.570   5.680
 8073SOL    HW225119   3.207   5.492   5.692
 8074SOL     OW25120   2.736   1.522   0.887
 8074SOL    HW125121   2.685   1.463   0.824
 8074SOL    HW225122   2.745   1.613   0.846
 8075SOL     OW25123   6.917   0.398   0.257
 8075SOL    HW125124   6.922   0.437   0.348
 8075SOL    HW225125   7.009   0.388   0.219
 8076SOL     OW25126   6.184   6.731   5.518
 8076SOL    HW125127   6.279   6.732   5.484
 8076SOL    HW225128   6.121   6.724   5.440
 8077SOL     OW25129   3.226   6.007   2.491
 8077SOL    HW125130   3.150   6.021   2.427
 8077SOL    HW225131   3.190   5.966   2.575
 8078SOL     OW25132   0.550   1.929   2.000
 8078SOL    HW125133   0.606   1.994   1.949
 8078SOL    HW225134   0.464   1.914   1.952
 8079SOL     OW25135   6.879   1.487   3.593
 8079SOL    HW125136   6.831   1.539   3.663
 8079SOL    HW225137   6.819   1.417   3.555
 8080SOL     OW25138   1.271   2.270   2.447
 8080SOL    HW125139   1.264   2.186   2.393
 8080SOL    HW225140   1.291   2.247   2.542
 8081SOL     OW25141   6.089   5.337   6.039
 8081SOL    HW125142   6.109   5.257   6.096
 8081SOL    HW225143   5.996   5.331   6.004
 8082SOL     OW25144   3.420   0.659   2.383
 8082SOL    HW125145   3.365   0.584   2.346
 8082SOL    HW225146   3.516   0.645   2.359
 8083SOL     OW25147   5.069   2.621   3.739
 8083SOL    HW125148   5.095   2.699   3.797
 8083SOL    HW225149   4.979   2.638   3.700
 8084SOL     OW25150   2.536   0.572   0.293
 8084SOL    HW125151   2.448   0.572   0.246
 8084SOL    HW225152   2.609   0.560   0.226
 8085SOL     OW25153   5.598   5.948   2.624
 8085SOL    HW125154   5.510   5.904   2.645
 8085SOL    HW225155   5.615   5.942   2.526
 8086SOL     OW25156   6.988   0.665   1.436
 8086SOL    HW125157   6.909   0.615   1.471
 8086SOL    HW225158   6.961   0.758   1.412
 8087SOL     OW25159   1.383   0.454   0.017
 8087SOL    HW125160   1.461   0.392   0.013
 8087SOL    HW225161   1.365   0.480   0.111
 8088SOL     OW25162   5.396   0.526   0.349
 8088SOL    HW125163   5.325   0.546   0.416
 8088SOL    HW225164   5.355   0.518   0.258
 8089SOL     OW25165   5.494   3.035   6.881
 8089SOL    HW125166   5.526   3.091   6.805
 8089SOL    HW225167   5.560   2.961   6.899
 8090SOL     OW25168   3.859   0.998   6.181
 8090SOL    HW125169   3.883   1.094   6.189
 8090SOL    HW225170   3.818   0.981   6.092
 8091SOL     OW25171   1.715   3.862   4.745
 8091SOL    HW125172   1.709   3.918   4.827
 8091SOL    HW225173   1.623   3.830   4.719
 8092SOL     OW25174   4.825   2.026   5.175
 8092SOL    HW125175   4.901   2.054   5.234
 8092SOL    HW225176   4.844   2.051   5.081
 8093SOL     OW25177   2.576   5.310   3.276
 8093SOL    HW125178   2.662   5.345   3.314
 8093SOL    HW225179   2.500   5.364   3.312
 8094SOL     OW25180   0.296   2.863   4.916
 8094SOL    HW125181   0.310   2.855   4.818
 8094SOL    HW225182   0.234   2.939   4.935
 8095SOL     OW25183   0.868   4.124   4.665
 8095SOL    HW125184   0.894   4.050   4.726
 8095SOL    HW225185   0.940   4.193   4.662
 8096SOL     OW25186   2.454   0.626   2.244
 8096SOL    HW125187   2.389   0.551   2.235
 8096SOL    HW225188   2.411   0.702   2.293
 8097SOL     OW25189   4.786   0.052   4.928
 8097SOL    HW125190   4.720   6.994   4.947
 8097SOL    HW225191   4.825   0.039   4.837
 8098SOL     OW25192   2.286   6.462   3.702
 8098SOL    HW125193   2.279   6.557   3.732
 8098SOL    HW225194   2.371   6.422   3.737
 8099SOL     OW25195   5.031   6.368   4.248
 8099SOL    HW125196   5.069   6.275   4.250
 8099SOL    HW225197   5.106   6.434   4.235
 8100SOL     OW25198   6.527   1.474   6.690
 8100SOL    HW125199   6.551   1.542   6.621
 8100SOL    HW225200   6.607   1.416   6.709
 8101SOL     OW25201   1.710   5.966   1.034
 8101SOL    HW125202   1.723   5.978   0.936
 8101SOL    HW225203   1.705   5.868   1.055
 8102SOL     OW25204   0.682   3.735   2.728
 8102SOL    HW125205   0.692   3.790   2.645
 8102SOL    HW225206   0.755   3.667   2.731
 8103SOL     OW25207   3.301   6.994   1.271
 8103SOL    HW125208   3.271   6.900   1.259
 8103SOL    HW225209   3.336   7.007   1.363
 8104SOL     OW25210   1.595   0.673   6.360
 8104SOL    HW125211   1.645   0.675   6.274
 8104SOL    HW225212   1.659   0.661   6.436
 8105SOL     OW25213   6.702   2.821   2.538
 8105SOL    HW125214   6.742   2.752   2.597
 8105SOL    HW225215   6.646   2.884   2.592
 8106SOL     OW25216   3.162   5.594   3.399
 8106SOL    HW125217   3.107   5.591   3.316
 8106SOL    HW225218   3.232   5.665   3.390
 8107SOL     OW25219   1.066   5.644   3.798
 8107SOL    HW125220   1.125   5.642   3.717
 8107SOL    HW225221   1.123   5.655   3.879
 8108SOL     OW25222   6.847   2.745   6.834
 8108SOL    HW125223   6.791   2.824   6.858
 8108SOL    HW225224   6.791   2.662   6.841
 8109SOL     OW25225   6.943   3.445   6.591
 8109SOL    HW125226   6.848   3.437   6.560
 8109SOL    HW225227   6.985   3.354   6.595
 8110SOL     OW25228   4.308   5.794   2.242
 8110SOL    HW125229   4.377   5.725   2.265
 8110SOL    HW225230   4.320   5.823   2.147
 8111SOL     OW25231   4.621   1.540   4.469
 8111SOL    HW125232   4.664   1.576   4.386
 8111SOL    HW225233   4.646   1.444   4.482
 8112SOL     OW25234   2.374   2.658   4.461
 8112SOL    HW125235   2.361   2.744   4.412
 8112SOL    HW225236   2.369   2.674   4.560
 8113SOL     OW25237   0.253   4.062   0.820
 8113SOL    HW125238   0.218   4.060   0.726
 8113SOL    HW225239   0.294   4.151   0.839
 8114SOL     OW25240   2.109   3.639   2.604
 8114SOL    HW125241   2.013   3.666   2.608
 8114SOL    HW225242   2.158   3.678   2.683
 8115SOL     OW25243   3.566   6.799   6.468
 8115SOL    HW125244   3.499   6.734   6.504
 8115SOL    HW225245   3.526   6.891   6.467
 8116SOL     OW25246   4.083   5.044   0.310
 8116SOL    HW125247   4.182   5.046   0.296
 8116SOL    HW225248   4.051   5.134   0.338
 8117SOL     OW25249   1.816   0.290   3.157
 8117SOL    HW125250   1.768   0.203   3.157
 8117SOL    HW225251   1.901   0.281   3.209
 8118SOL     OW25252   5.212   3.686   5.761
 8118SOL    HW125253   5.185   3.605   5.813
 8118SOL    HW225254   5.201   3.768   5.817
 8119SOL     OW25255   5.581   6.427   6.126
 8119SOL    HW125256   5.494   6.458   6.165
 8119SOL    HW225257   5.606   6.486   6.049
 8120SOL     OW25258   3.282   4.422   0.922
 8120SOL    HW125259   3.230   4.413   1.008
 8120SOL    HW225260   3.380   4.419   0.942
 8121SOL     OW25261   0.623   5.043   1.451
 8121SOL    HW125262   0.697   5.033   1.384
 8121SOL    HW225263   0.635   4.975   1.523
 8122SOL     OW25264   0.405   4.746   2.712
 8122SOL    HW125265   0.311   4.758   2.681
 8122SOL    HW225266   0.446   4.835   2.732
 8123SOL     OW25267   6.665   2.163   6.685
 8123SOL    HW125268   6.745   2.111   6.713
 8123SOL    HW225269   6.644   2.233   6.753
 8124SOL     OW25270   4.816   5.838   1.929
 8124SOL    HW125271   4.846   5.798   2.015
 8124SOL    HW225272   4.758   5.918   1.947
 8125SOL     OW25273   1.445   2.061   3.324
 8125SOL    HW125274   1.447   1.988   3.392
 8125SOL    HW225275   1.399   2.028   3.242
 8126SOL     OW25276   5.272   5.117   3.393
 8126SOL    HW125277   5.233   5.150   3.478
 8126SOL    HW225278   5.350   5.173   3.367
 8127SOL     OW25279   2.561   3.554   6.114
 8127SOL    HW125280   2.619   3.603   6.050
 8127SOL    HW225281   2.606   3.469   6.142
 8128SOL     OW25282   2.718   2.243   2.207
 8128SOL    HW125283   2.763   2.280   2.126
 8128SOL    HW225284   2.664   2.315   2.251
 8129SOL     OW25285   3.677   1.398   5.822
 8129SOL    HW125286   3.673   1.324   5.890
 8129SOL    HW225287   3.601   1.389   5.758
 8130SOL     OW25288   0.653   4.631   6.664
 8130SOL    HW125289   0.694   4.653   6.576
 8130SOL    HW225290   0.683   4.541   6.694
 8131SOL     OW25291   2.644   1.587   1.635
 8131SOL    HW125292   2.638   1.659   1.566
 8131SOL    HW225293   2.733   1.592   1.681
 8132SOL     OW25294   5.354   6.761   5.306
 8132SOL    HW125295   5.265   6.722   5.331
 8132SOL    HW225296   5.366   6.756   5.207
 8133SOL     OW25297   3.023   5.173   2.440
 8133SOL    HW125298   2.925   5.193   2.448
 8133SOL    HW225299   3.038   5.111   2.362
 8134SOL     OW25300   0.448   2.136   6.867
 8134SOL    HW125301   0.359   2.101   6.838
 8134SOL    HW225302   0.439   2.231   6.896
 8135SOL     OW25303   2.597   0.185   1.612
 8135SOL    HW125304   2.506   0.144   1.607
 8135SOL    HW225305   2.590   0.276   1.653
 8136SOL     OW25306   4.309   5.354   2.824
 8136SOL    HW125307   4.224   5.301   2.832
 8136SOL    HW225308   4.300   5.439   2.877
 8137SOL     OW25309   2.877   1.598   5.007
 8137SOL    HW125310   2.843   1.689   4.983
 8137SOL    HW225311   2.849   1.533   4.936
 8138SOL     OW25312   5.191   1.096   1.372
 8138SOL    HW125313   5.195   1.112   1.274
 8138SOL    HW225314   5.145   1.173   1.417
 8139SOL     OW25315   0.241   0.430   1.567
 8139SOL    HW125316   0.290   0.514   1.546
 8139SOL    HW225317   0.145   0.439   1.540
 8140SOL     OW25318   5.975   0.366   5.964
 8140SOL    HW125319   5.987   0.465   5.961
 8140SOL    HW225320   5.925   0.341   6.047
 8141SOL     OW25321   4.501   5.300   5.257
 8141SOL    HW125322   4.468   5.340   5.342
 8141SOL    HW225323   4.496   5.369   5.184
 8142SOL     OW25324   0.220   5.448   0.179
 8142SOL    HW125325   0.137   5.416   0.224
 8142SOL    HW225326   0.252   5.532   0.223
 8143SOL     OW25327   5.977   4.446   0.639
 8143SOL    HW125328   5.882   4.415   0.642
 8143SOL    HW225329   5.980   4.546   0.642
 8144SOL     OW25330   5.914   6.174   6.785
 8144SOL    HW125331   5.857   6.131   6.715
 8144SOL    HW225332   6.005   6.133   6.784
 8145SOL     OW25333   5.019   5.993   1.763
 8145SOL    HW125334   4.931   5.987   1.717
 8145SOL    HW225335   5.005   6.010   1.861
 8146SOL     OW25336   4.182   0.743   4.866
 8146SOL    HW125337   4.279   0.722   4.879
 8146SOL    HW225338   4.164   0.761   4.769
 8147SOL     OW25339   6.046   2.242   2.462
 8147SOL    HW125340   6.115   2.303   2.500
 8147SOL    HW225341   6.091   2.170   2.408
 8148SOL     OW25342   5.206   4.365   1.704
 8148SOL    HW125343   5.173   4.275   1.676
 8148SOL    HW225344   5.280   4.355   1.770
 8149SOL     OW25345   2.239   5.930   2.006
 8149SOL    HW125346   2.322   5.939   2.061
 8149SOL    HW225347   2.249   5.982   1.921
 8150SOL     OW25348   0.469   4.801   6.767
 8150SOL    HW125349   0.413   4.858   6.706
 8150SOL    HW225350   0.523   4.737   6.713
 8151SOL     OW25351   6.350   2.364   1.765
 8151SOL    HW125352   6.387   2.349   1.857
 8151SOL    HW225353   6.368   2.284   1.708
 8152SOL     OW25354   0.640   2.469   2.767
 8152SOL    HW125355   0.622   2.378   2.728
 8152SOL    HW225356   0.736   2.493   2.751
 8153SOL     OW25357   3.379   0.324   2.584
 8153SOL    HW125358   3.455   0.377   2.547
 8153SOL    HW225359   3.340   0.267   2.511
 8154SOL     OW25360   2.891   5.715   3.801
 8154SOL    HW125361   2.829   5.662   3.742
 8154SOL    HW225362   2.984   5.681   3.790
 8155SOL     OW25363   2.340   3.715   1.674
 8155SOL    HW125364   2.354   3.645   1.744
 8155SOL    HW225365   2.269   3.686   1.610
 8156SOL     OW25366   4.756   0.106   6.040
 8156SOL    HW125367   4.702   0.114   6.124
 8156SOL    HW225368   4.781   0.198   6.008
 8157SOL     OW25369   5.871   5.381   6.476
 8157SOL    HW125370   5.940   5.445   6.444
 8157SOL    HW225371   5.811   5.355   6.401
 8158SOL     OW25372   0.248   5.261   1.004
 8158SOL    HW125373   0.268   5.316   1.086
 8158SOL    HW225374   0.251   5.164   1.028
 8159SOL     OW25375   2.561   6.198   2.511
 8159SOL    HW125376   2.659   6.213   2.520
 8159SOL    HW225377   2.531   6.228   2.420
 8160SOL     OW25378   4.607   1.697   1.972
 8160SOL    HW125379   4.605   1.776   2.034
 8160SOL    HW225380   4.582   1.726   1.880
 8161SOL     OW25381   5.122   1.209   0.129
 8161SOL    HW125382   5.164   1.134   0.181
 8161SOL    HW225383   5.194   1.266   0.089
 8162SOL     OW25384   6.843   6.699   6.127
 8162SOL    HW125385   6.750   6.674   6.153
 8162SOL    HW225386   6.844   6.729   6.032
 8163SOL     OW25387   2.596   3.851   5.608
 8163SOL    HW125388   2.694   3.863   5.626
 8163SOL    HW225389   2.549   3.939   5.622
 8164SOL     OW25390   5.737   3.740   0.592
 8164SOL    HW125391   5.711   3.661   0.646
 8164SOL    HW225392   5.660   3.768   0.534
 8165SOL     OW25393   0.921   5.083   6.412
 8165SOL    HW125394   0.937   5.164   6.469
 8165SOL    HW225395   0.825   5.078   6.387
 8166SOL     OW25396   2.521   0.974   2.091
 8166SOL    HW125397   2.463   0.896   2.068
 8166SOL    HW225398   2.581   0.994   2.014
 8167SOL     OW25399   5.663   1.298   4.462
 8167SOL    HW125400   5.650   1.205   4.425
 8167SOL    HW225401   5.638   1.365   4.392
 8168SOL     OW25402   3.347   1.121   2.757
 8168SOL    HW125403   3.330   1.145   2.661
 8168SOL    HW225404   3.268   1.075   2.795
 8169SOL     OW25405   5.170   3.646   1.343
 8169SOL    HW125406   5.258   3.636   1.389
 8169SOL    HW225407   5.102   3.588   1.388
 8170SOL     OW25408   1.845   6.020   2.929
 8170SOL    HW125409   1.808   5.947   2.985
 8170SOL    HW225410   1.830   6.108   2.974
 8171SOL     OW25411   1.262   1.655   6.728
 8171SOL    HW125412   1.224   1.654   6.635
 8171SOL    HW225413   1.192   1.626   6.793
 8172SOL     OW25414   0.587   0.799   1.390
 8172SOL    HW125415   0.671   0.852   1.379
 8172SOL    HW225416   0.536   0.799   1.304
 8173SOL     OW25417   3.831   2.012   0.336
 8173SOL    HW125418   3.830   1.971   0.245
 8173SOL    HW225419   3.877   2.101   0.333
 8174SOL     OW25420   5.066   1.724   0.919
 8174SOL    HW125421   5.021   1.788   0.858
 8174SOL    HW225422   5.068   1.761   1.012
 8175SOL     OW25423   0.323   2.449   6.169
 8175SOL    HW125424   0.320   2.514   6.245
 8175SOL    HW225425   0.375   2.489   6.094
 8176SOL     OW25426   2.827   5.989   1.884
 8176SOL    HW125427   2.923   5.994   1.858
 8176SOL    HW225428   2.772   5.964   1.805
 8177SOL     OW25429   1.923   5.987   4.402
 8177SOL    HW125430   1.903   5.949   4.311
 8177SOL    HW225431   2.018   5.968   4.426
 8178SOL     OW25432   1.919   6.783   6.555
 8178SOL    HW125433   1.972   6.820   6.478
 8178SOL    HW225434   1.964   6.703   6.592
 8179SOL     OW25435   3.817   2.998   6.963
 8179SOL    HW125436   3.872   3.043   6.893
 8179SOL    HW225437   3.722   3.026   6.954
 8180SOL     OW25438   6.654   0.037   4.313
 8180SOL    HW125439   6.738   0.046   4.260
 8180SOL    HW225440   6.589   0.107   4.285
 8181SOL     OW25441   2.339   0.833   2.369
 8181SOL    HW125442   2.366   0.927   2.389
 8181SOL    HW225443   2.256   0.833   2.313
 8182SOL     OW25444   4.068   1.799   6.845
 8182SOL    HW125445   4.084   1.742   6.926
 8182SOL    HW225446   4.153   1.847   6.820
 8183SOL     OW25447   0.583   2.143   4.974
 8183SOL    HW125448   0.682   2.145   4.991
 8183SOL    HW225449   0.558   2.222   4.918
 8184SOL     OW25450   5.579   1.820   5.622
 8184SOL    HW125451   5.539   1.843   5.533
 8184SOL    HW225452   5.668   1.865   5.630
 8185SOL     OW25453   3.255   0.769   0.597
 8185SOL    HW125454   3.242   0.683   0.547
 8185SOL    HW225455   3.302   0.750   0.684
 8186SOL     OW25456   2.957   6.200   6.682
 8186SOL    HW125457   2.940   6.215   6.584
 8186SOL    HW225458   3.014   6.119   6.694
 8187SOL     OW25459   1.897   2.192   4.982
 8187SOL    HW125460   1.970   2.161   4.921
 8187SOL    HW225461   1.936   2.236   5.062
 8188SOL     OW25462   5.597   1.701   2.571
 8188SOL    HW125463   5.644   1.782   2.609
 8188SOL    HW225464   5.657   1.657   2.503
 8189SOL     OW25465   5.147   4.049   2.495
 8189SOL    HW125466   5.178   3.958   2.468
 8189SOL    HW225467   5.220   4.115   2.477
 8190SOL     OW25468   5.424   5.439   4.520
 8190SOL    HW125469   5.358   5.505   4.483
 8190SOL    HW225470   5.380   5.349   4.526
 8191SOL     OW25471   2.389   5.359   3.478
 8191SOL    HW125472   2.429   5.437   3.526
 8191SOL    HW225473   2.290   5.368   3.477
 8192SOL     OW25474   2.372   5.988   6.992
 8192SOL    HW125475   2.397   6.076   0.016
 8192SOL    HW225476   2.275   5.969   7.010
 8193SOL     OW25477   6.264   6.766   4.323
 8193SOL    HW125478   6.230   6.677   4.354
 8193SOL    HW225479   6.214   6.794   4.241
 8194SOL     OW25480   6.228   2.807   0.119
 8194SOL    HW125481   6.317   2.775   0.152
 8194SOL    HW225482   6.156   2.771   0.178
 8195SOL     OW25483   0.711   1.014   0.887
 8195SOL    HW125484   0.773   0.938   0.910
 8195SOL    HW225485   0.759   1.101   0.901
 8196SOL     OW25486   3.835   6.998   5.643
 8196SOL    HW125487   3.927   6.961   5.652
 8196SOL    HW225488   3.768   6.924   5.647
 8197SOL     OW25489   5.154   1.592   6.177
 8197SOL    HW125490   5.056   1.599   6.160
 8197SOL    HW225491   5.193   1.521   6.117
 8198SOL     OW25492   3.268   6.829   2.089
 8198SOL    HW125493   3.198   6.852   2.156
 8198SOL    HW225494   3.311   6.912   2.055
 8199SOL     OW25495   6.563   3.972   0.422
 8199SOL    HW125496   6.530   4.062   0.452
 8199SOL    HW225497   6.532   3.954   0.329
 8200SOL     OW25498   4.422   3.844   1.315
 8200SOL    HW125499   4.497   3.795   1.271
 8200SOL    HW225500   4.456   3.888   1.399
 8201SOL     OW25501   5.439   0.989   4.621
 8201SOL    HW125502   5.423   1.038   4.535
 8201SOL    HW225503   5.528   1.016   4.659
 8202SOL     OW25504   1.520   5.623   4.421
 8202SOL    HW125505   1.557   5.531   4.439
 8202SOL    HW225506   1.582   5.692   4.458
 8203SOL     OW25507   4.606   3.250   0.532
 8203SOL    HW125508   4.535   3.320   0.540
 8203SOL    HW225509   4.687   3.290   0.488
 8204SOL     OW25510   3.681   6.017   0.912
 8204SOL    HW125511   3.740   5.981   0.984
 8204SOL    HW225512   3.737   6.054   0.838
 8205SOL     OW25513   5.986   4.697   1.862
 8205SOL    HW125514   6.043   4.649   1.929
 8205SOL    HW225515   5.892   4.662   1.866
 8206SOL     OW25516   3.213   2.414   5.594
 8206SOL    HW125517   3.206   2.471   5.512
 8206SOL    HW225518   3.164   2.329   5.579
 8207SOL     OW25519   3.652   4.656   5.348
 8207SOL    HW125520   3.557   4.686   5.354
 8207SOL    HW225521   3.693   4.693   5.264
 8208SOL     OW25522   2.102   6.729   1.280
 8208SOL    HW125523   2.132   6.779   1.199
 8208SOL    HW225524   2.159   6.647   1.291
 8209SOL     OW25525   0.740   1.117   5.262
 8209SOL    HW125526   0.715   1.024   5.290
 8209SOL    HW225527   0.802   1.112   5.184
 8210SOL     OW25528   3.584   1.231   0.276
 8210SOL    HW125529   3.582   1.273   0.367
 8210SOL    HW225530   3.623   1.295   0.211
 8211SOL     OW25531   3.610   4.159   4.330
 8211SOL    HW125532   3.704   4.135   4.354
 8211SOL    HW225533   3.559   4.176   4.414
 8212SOL     OW25534   2.780   0.829   0.630
 8212SOL    HW125535   2.818   0.871   0.547
 8212SOL    HW225536   2.747   0.901   0.691
 8213SOL     OW25537   4.328   5.458   3.271
 8213SOL    HW125538   4.421   5.470   3.237
 8213SOL    HW225539   4.330   5.400   3.353
 8214SOL     OW25540   2.171   5.885   4.453
 8214SOL    HW125541   2.230   5.865   4.375
 8214SOL    HW225542   2.226   5.926   4.526
 8215SOL     OW25543   4.272   5.493   0.227
 8215SOL    HW125544   4.369   5.486   0.201
 8215SOL    HW225545   4.258   5.447   0.315
 8216SOL     OW25546   5.059   6.827   3.240
 8216SOL    HW125547   5.069   6.865   3.332
 8216SOL    HW225548   5.145   6.836   3.191
 8217SOL     OW25549   2.266   4.105   2.469
 8217SOL    HW125550   2.266   4.007   2.451
 8217SOL    HW225551   2.316   4.152   2.396
 8218SOL     OW25552   2.046   0.051   4.928
 8218SOL    HW125553   2.050   6.969   4.907
 8218SOL    HW225554   1.974   0.095   4.874
 8219SOL     OW25555   3.020   4.355   1.111
 8219SOL    HW125556   3.049   4.339   1.016
 8219SOL    HW225557   2.923   4.378   1.113
 8220SOL     OW25558   3.344   4.352   5.309
 8220SOL    HW125559   3.392   4.283   5.255
 8220SOL    HW225560   3.248   4.356   5.280
 8221SOL     OW25561   6.184   3.988   3.546
 8221SOL    HW125562   6.278   3.979   3.580
 8221SOL    HW225563   6.120   3.963   3.618
 8222SOL     OW25564   5.869   2.458   0.596
 8222SOL    HW125565   5.811   2.489   0.672
 8222SOL    HW225566   5.899   2.364   0.613
 8223SOL     OW25567   0.038   5.119   5.508
 8223SOL    HW125568   0.067   5.166   5.424
 8223SOL    HW225569   7.011   5.032   5.485
 8224SOL     OW25570   4.588   1.681   1.100
 8224SOL    HW125571   4.522   1.608   1.117
 8224SOL    HW225572   4.680   1.643   1.097
 8225SOL     OW25573   4.108   6.922   0.760
 8225SOL    HW125574   4.080   7.012   0.727
 8225SOL    HW225575   4.203   6.905   0.734
 8226SOL     OW25576   3.491   0.591   0.459
 8226SOL    HW125577   3.437   0.673   0.478
 8226SOL    HW225578   3.473   0.522   0.528
 8227SOL     OW25579   5.779   0.978   2.472
 8227SOL    HW125580   5.774   0.984   2.373
 8227SOL    HW225581   5.697   0.932   2.507
 8228SOL     OW25582   0.512   1.279   5.248
 8228SOL    HW125583   0.427   1.228   5.237
 8228SOL    HW225584   0.590   1.217   5.241
 8229SOL     OW25585   4.267   4.560   0.985
 8229SOL    HW125586   4.240   4.620   0.910
 8229SOL    HW225587   4.322   4.484   0.950
 8230SOL     OW25588   4.319   7.014   5.464
 8230SOL    HW125589   4.351   0.090   5.490
 8230SOL    HW225590   4.282   6.967   5.544
 8231SOL     OW25591   3.473   1.350   2.403
 8231SOL    HW125592   3.490   1.444   2.372
 8231SOL    HW225593   3.500   1.286   2.332
 8232SOL     OW25594   5.261   1.383   2.177
 8232SOL    HW125595   5.169   1.355   2.204
 8232SOL    HW225596   5.324   1.307   2.190
 8233SOL     OW25597   0.986   0.357   5.781
 8233SOL    HW125598   1.026   0.267   5.765
 8233SOL    HW225599   0.926   0.353   5.861
 8234SOL     OW25600   3.430   3.027   0.250
 8234SOL    HW125601   3.364   2.954   0.234
 8234SOL    HW225602   3.399   3.085   0.326
 8235SOL     OW25603   0.064   4.721   6.648
 8235SOL    HW125604   0.010   4.703   6.565
 8235SOL    HW225605   0.040   4.654   6.718
 8236SOL     OW25606   0.153   5.987   6.066
 8236SOL    HW125607   0.069   5.937   6.047
 8236SOL    HW225608   0.160   6.005   6.165
 8237SOL     OW25609   4.298   5.285   6.154
 8237SOL    HW125610   4.202   5.313   6.155
 8237SOL    HW225611   4.306   5.192   6.191
 8238SOL     OW25612   1.516   5.772   6.937
 8238SOL    HW125613   1.480   5.807   6.851
 8238SOL    HW225614   1.611   5.802   6.949
 8239SOL     OW25615   0.332   1.064   4.784
 8239SOL    HW125616   0.282   1.079   4.699
 8239SOL    HW225617   0.355   0.967   4.793
 8240SOL     OW25618   3.009   3.260   3.011
 8240SOL    HW125619   2.983   3.180   2.957
 8240SOL    HW225620   3.010   3.341   2.951
 8241SOL     OW25621   1.493   3.214   0.260
 8241SOL    HW125622   1.471   3.141   0.195
 8241SOL    HW225623   1.582   3.253   0.236
 8242SOL     OW25624   0.947   3.535   4.598
 8242SOL    HW125625   0.910   3.578   4.680
 8242SOL    HW225626   1.018   3.593   4.558
 8243SOL     OW25627   0.516   4.664   5.633
 8243SOL    HW125628   0.560   4.579   5.602
 8243SOL    HW225629   0.521   4.669   5.733
 8244SOL     OW25630   1.259   0.883   3.242
 8244SOL    HW125631   1.172   0.896   3.289
 8244SOL    HW225632   1.312   0.812   3.289
 8245SOL     OW25633   4.385   1.788   3.586
 8245SOL    HW125634   4.312   1.821   3.646
 8245SOL    HW225635   4.437   1.716   3.634
 8246SOL     OW25636   1.056   3.921   6.410
 8246SOL    HW125637   1.141   3.868   6.418
 8246SOL    HW225638   1.003   3.912   6.494
 8247SOL     OW25639   3.036   5.171   3.512
 8247SOL    HW125640   3.101   5.151   3.585
 8247SOL    HW225641   2.946   5.136   3.536
 8248SOL     OW25642   1.381   6.141   4.035
 8248SOL    HW125643   1.348   6.077   4.105
 8248SOL    HW225644   1.415   6.224   4.080
 8249SOL     OW25645   2.321   1.858   5.515
 8249SOL    HW125646   2.370   1.942   5.538
 8249SOL    HW225647   2.233   1.881   5.473
 8250SOL     OW25648   3.115   1.873   0.827
 8250SOL    HW125649   3.090   1.803   0.893
 8250SOL    HW225650   3.130   1.831   0.738
 8251SOL     OW25651   6.414   2.107   4.692
 8251SOL    HW125652   6.342   2.163   4.732
 8251SOL    HW225653   6.503   2.141   4.722
 8252SOL     OW25654   2.523   2.050   6.468
 8252SOL    HW125655   2.461   2.058   6.546
 8252SOL    HW225656   2.563   2.139   6.448
 8253SOL     OW25657   4.005   5.957   6.311
 8253SOL    HW125658   3.967   5.889   6.374
 8253SOL    HW225659   4.105   5.950   6.310
 8254SOL     OW25660   6.120   4.800   6.159
 8254SOL    HW125661   6.096   4.797   6.062
 8254SOL    HW225662   6.037   4.790   6.214
 8255SOL     OW25663   0.762   0.154   6.345
 8255SOL    HW125664   0.809   0.089   6.404
 8255SOL    HW225665   0.759   0.119   6.251
 8256SOL     OW25666   6.979   6.827   3.423
 8256SOL    HW125667   6.980   6.732   3.393
 8256SOL    HW225668   6.932   6.884   3.356
 8257SOL     OW25669   5.777   4.369   4.265
 8257SOL    HW125670   5.815   4.458   4.291
 8257SOL    HW225671   5.851   4.306   4.244
 8258SOL     OW25672   5.493   2.669   1.144
 8258SOL    HW125673   5.567   2.727   1.179
 8258SOL    HW225674   5.469   2.601   1.213
 8259SOL     OW25675   4.268   1.967   4.303
 8259SOL    HW125676   4.181   2.012   4.322
 8259SOL    HW225677   4.277   1.886   4.360
 8260SOL     OW25678   1.874   6.580   0.606
 8260SOL    HW125679   1.917   6.499   0.566
 8260SOL    HW225680   1.909   6.662   0.559
 8261SOL     OW25681   5.745   6.531   3.398
 8261SOL    HW125682   5.684   6.453   3.412
 8261SOL    HW225683   5.789   6.522   3.308
 8262SOL     OW25684   0.430   5.224   0.344
 8262SOL    HW125685   0.442   5.143   0.402
 8262SOL    HW225686   0.355   5.208   0.280
 8263SOL     OW25687   6.829   2.960   6.469
 8263SOL    HW125688   6.843   2.929   6.375
 8263SOL    HW225689   6.866   2.892   6.533
 8264SOL     OW25690   1.502   0.041   1.406
 8264SOL    HW125691   1.586   0.095   1.412
 8264SOL    HW225692   1.450   0.052   1.491
 8265SOL     OW25693   4.075   0.558   1.666
 8265SOL    HW125694   4.146   0.523   1.605
 8265SOL    HW225695   4.046   0.648   1.635
 8266SOL     OW25696   3.052   0.024   4.622
 8266SOL    HW125697   2.991   0.079   4.678
 8266SOL    HW225698   3.018   0.022   4.528
 8267SOL     OW25699   1.672   4.843   2.072
 8267SOL    HW125700   1.670   4.874   1.977
 8267SOL    HW225701   1.718   4.913   2.128
 8268SOL     OW25702   2.457   3.886   6.591
 8268SOL    HW125703   2.470   3.971   6.539
 8268SOL    HW225704   2.411   3.819   6.533
 8269SOL     OW25705   4.777   2.834   3.015
 8269SOL    HW125706   4.784   2.899   3.091
 8269SOL    HW225707   4.747   2.745   3.050
 8270SOL     OW25708   2.859   6.833   5.668
 8270SOL    HW125709   2.784   6.894   5.639
 8270SOL    HW225710   2.834   6.788   5.753
 8271SOL     OW25711   5.776   6.090   4.574
 8271SOL    HW125712   5.792   6.073   4.671
 8271SOL    HW225713   5.779   6.004   4.523
 8272SOL     OW25714   0.791   0.175   2.070
 8272SOL    HW125715   0.696   0.188   2.041
 8272SOL    HW225716   0.817   0.079   2.056
 8273SOL     OW25717   3.095   0.238   0.166
 8273SOL    HW125718   3.193   0.256   0.169
 8273SOL    HW225719   3.056   0.277   0.083
 8274SOL     OW25720   4.132   4.275   6.903
 8274SOL    HW125721   4.090   4.338   6.969
 8274SOL    HW225722   4.115   4.309   6.810
 8275SOL     OW25723   6.646   0.255   4.497
 8275SOL    HW125724   6.627   0.165   4.536
 8275SOL    HW225725   6.669   0.246   4.400
 8276SOL     OW25726   0.044   2.383   5.796
 8276SOL    HW125727   6.998   2.449   5.751
 8276SOL    HW225728   0.139   2.410   5.779
 8277SOL     OW25729   2.060   5.431   5.529
 8277SOL    HW125730   2.147   5.385   5.510
 8277SOL    HW225731   1.990   5.395   5.466
 8278SOL     OW25732   3.600   1.248   6.060
 8278SOL    HW125733   3.685   1.255   6.112
 8278SOL    HW225734   3.531   1.199   6.114
 8279SOL     OW25735   4.937   5.836   6.889
 8279SOL    HW125736   4.978   5.775   6.822
 8279SOL    HW225737   5.008   5.872   6.950
 8280SOL     OW25738   4.669   2.519   0.141
 8280SOL    HW125739   4.719   2.464   0.074
 8280SOL    HW225740   4.687   2.616   0.126
 8281SOL     OW25741   1.946   4.622   0.364
 8281SOL    HW125742   2.043   4.600   0.362
 8281SOL    HW225743   1.927   4.693   0.296
 8282SOL     OW25744   2.590   2.208   0.952
 8282SOL    HW125745   2.539   2.294   0.952
 8282SOL    HW225746   2.620   2.187   1.045
 8283SOL     OW25747   0.718   5.199   3.607
 8283SOL    HW125748   0.639   5.174   3.551
 8283SOL    HW225749   0.802   5.188   3.554
 8284SOL     OW25750   2.024   2.774   2.628
 8284SOL    HW125751   2.119   2.790   2.603
 8284SOL    HW225752   2.020   2.702   2.697
 8285SOL     OW25753   3.399   3.701   5.967
 8285SOL    HW125754   3.429   3.792   5.995
 8285SOL    HW225755   3.316   3.708   5.913
 8286SOL     OW25756   5.679   1.091   4.703
 8286SOL    HW125757   5.779   1.094   4.699
 8286SOL    HW225758   5.645   1.180   4.733
 8287SOL     OW25759   1.287   6.853   4.460
 8287SOL    HW125760   1.319   6.831   4.368
 8287SOL    HW225761   1.247   6.771   4.502
 8288SOL     OW25762   2.017   2.137   2.415
 8288SOL    HW125763   2.075   2.184   2.482
 8288SOL    HW225764   2.074   2.091   2.347
 8289SOL     OW25765   5.762   1.052   5.724
 8289SOL    HW125766   5.667   1.048   5.693
 8289SOL    HW225767   5.768   1.109   5.806
 8290SOL     OW25768   3.880   2.973   1.562
 8290SOL    HW125769   3.881   3.014   1.471
 8290SOL    HW225770   3.878   3.045   1.631
 8291SOL     OW25771   5.725   6.566   6.413
 8291SOL    HW125772   5.683   6.485   6.453
 8291SOL    HW225773   5.664   6.645   6.425
 8292SOL     OW25774   1.497   4.856   5.895
 8292SOL    HW125775   1.398   4.851   5.883
 8292SOL    HW225776   1.529   4.776   5.945
 8293SOL     OW25777   2.258   4.879   1.578
 8293SOL    HW125778   2.274   4.918   1.668
 8293SOL    HW225779   2.224   4.785   1.588
 8294SOL     OW25780   6.843   3.846   5.331
 8294SOL    HW125781   6.908   3.814   5.401
 8294SOL    HW225782   6.816   3.940   5.352
 8295SOL     OW25783   4.911   3.866   3.494
 8295SOL    HW125784   4.847   3.911   3.557
 8295SOL    HW225785   4.984   3.930   3.470
 8296SOL     OW25786   3.399   5.974   6.894
 8296SOL    HW125787   3.375   6.060   6.848
 8296SOL    HW225788   3.378   5.982   6.991
 8297SOL     OW25789   6.126   4.035   2.355
 8297SOL    HW125790   6.109   3.975   2.277
 8297SOL    HW225791   6.055   4.105   2.359
 8298SOL     OW25792   0.873   1.072   6.412
 8298SOL    HW125793   0.847   1.057   6.508
 8298SOL    HW225794   0.972   1.062   6.403
 8299SOL     OW25795   6.961   3.838   1.774
 8299SOL    HW125796   6.881   3.779   1.777
 8299SOL    HW225797   6.975   3.880   1.864
 8300SOL     OW25798   6.080   5.538   4.568
 8300SOL    HW125799   6.077   5.451   4.520
 8300SOL    HW225800   6.045   5.526   4.661
 8301SOL     OW25801   4.422   0.019   6.969
 8301SOL    HW125802   4.476   0.078   0.015
 8301SOL    HW225803   4.326   0.045   6.973
 8302SOL     OW25804   2.995   6.478   4.971
 8302SOL    HW125805   2.899   6.499   4.949
 8302SOL    HW225806   3.052   6.498   4.891
 8303SOL     OW25807   6.727   0.389   2.332
 8303SOL    HW125808   6.682   0.304   2.307
 8303SOL    HW225809   6.709   0.409   2.428
 8304SOL     OW25810   5.654   4.241   3.667
 8304SOL    HW125811   5.661   4.144   3.644
 8304SOL    HW225812   5.746   4.280   3.670
 8305SOL     OW25813   4.595   5.504   4.502
 8305SOL    HW125814   4.660   5.573   4.470
 8305SOL    HW225815   4.529   5.546   4.563
 8306SOL     OW25816   6.602   0.718   2.681
 8306SOL    HW125817   6.641   0.809   2.697
 8306SOL    HW225818   6.624   0.659   2.758
 8307SOL     OW25819   1.128   5.144   0.903
 8307SOL    HW125820   1.200   5.192   0.954
 8307SOL    HW225821   1.045   5.140   0.958
 8308SOL     OW25822   1.251   4.530   0.352
 8308SOL    HW125823   1.342   4.489   0.366
 8308SOL    HW225824   1.182   4.458   0.354
 8309SOL     OW25825   6.610   4.913   4.826
 8309SOL    HW125826   6.611   4.836   4.891
 8309SOL    HW225827   6.548   4.984   4.860
 8310SOL     OW25828   0.568   6.578   0.751
 8310SOL    HW125829   0.613   6.506   0.698
 8310SOL    HW225830   0.610   6.666   0.729
 8311SOL     OW25831   5.673   6.319   3.871
 8311SOL    HW125832   5.590   6.374   3.882
 8311SOL    HW225833   5.664   6.235   3.924
 8312SOL     OW25834   5.143   0.111   0.444
 8312SOL    HW125835   5.099   0.200   0.430
 8312SOL    HW225836   5.206   0.093   0.368
 8313SOL     OW25837   3.614   6.817   5.647
 8313SOL    HW125838   3.567   6.790   5.731
 8313SOL    HW225839   3.623   6.738   5.587
 8314SOL     OW25840   5.220   6.261   6.468
 8314SOL    HW125841   5.227   6.335   6.401
 8314SOL    HW225842   5.176   6.295   6.551
 8315SOL     OW25843   3.605   3.572   3.918
 8315SOL    HW125844   3.668   3.632   3.969
 8315SOL    HW225845   3.590   3.488   3.970
 8316SOL     OW25846   1.022   3.377   0.011
 8316SOL    HW125847   1.074   3.368   6.941
 8316SOL    HW225848   1.049   3.304   0.074
 8317SOL     OW25849   2.147   2.022   4.871
 8317SOL    HW125850   2.130   2.086   4.947
 8317SOL    HW225851   2.214   1.953   4.900
 8318SOL     OW25852   4.024   0.787   6.256
 8318SOL    HW125853   4.052   0.733   6.177
 8318SOL    HW225854   3.947   0.846   6.231
 8319SOL     OW25855   1.443   0.442   5.944
 8319SOL    HW125856   1.516   0.438   6.013
 8319SOL    HW225857   1.354   0.428   5.989
 8320SOL     OW25858   3.230   4.151   4.050
 8320SOL    HW125859   3.273   4.136   4.138
 8320SOL    HW225860   3.133   4.128   4.056
 8321SOL     OW25861   0.127   0.546   6.707
 8321SOL    HW125862   0.187   0.574   6.631
 8321SOL    HW225863   0.037   0.588   6.696
 8322SOL     OW25864   0.101   1.324   0.432
 8322SOL    HW125865   0.152   1.242   0.459
 8322SOL    HW225866   0.103   1.390   0.507
 8323SOL     OW25867   5.072   4.589   1.730
 8323SOL    HW125868   5.014   4.603   1.650
 8323SOL    HW225869   5.123   4.503   1.720
 8324SOL     OW25870   6.275   0.837   6.971
 8324SOL    HW125871   6.210   0.854   6.897
 8324SOL    HW225872   6.315   0.923   7.002
 8325SOL     OW25873   1.220   5.343   5.086
 8325SOL    HW125874   1.254   5.259   5.129
 8325SOL    HW225875   1.132   5.367   5.126
 8326SOL     OW25876   2.753   3.917   0.426
 8326SOL    HW125877   2.661   3.958   0.426
 8326SOL    HW225878   2.781   3.897   0.520
 8327SOL     OW25879   0.755   0.851   5.306
 8327SOL    HW125880   0.666   0.813   5.278
 8327SOL    HW225881   0.827   0.811   5.250
 8328SOL     OW25882   0.753   6.019   5.870
 8328SOL    HW125883   0.848   6.048   5.877
 8328SOL    HW225884   0.695   6.099   5.855
 8329SOL     OW25885   0.836   2.198   5.057
 8329SOL    HW125886   0.828   2.281   5.113
 8329SOL    HW225887   0.911   2.210   4.992
 8330SOL     OW25888   3.899   1.152   6.435
 8330SOL    HW125889   3.892   1.195   6.525
 8330SOL    HW225890   3.881   1.054   6.444
 8331SOL     OW25891   2.033   2.099   0.551
 8331SOL    HW125892   2.027   2.008   0.509
 8331SOL    HW225893   2.057   2.167   0.481
 8332SOL     OW25894   5.023   4.819   2.250
 8332SOL    HW125895   5.058   4.904   2.289
 8332SOL    HW225896   5.037   4.744   2.315
 8333SOL     OW25897   1.905   4.962   0.769
 8333SOL    HW125898   1.875   4.937   0.677
 8333SOL    HW225899   1.844   4.920   0.837
 8334SOL     OW25900   3.631   1.388   6.464
 8334SOL    HW125901   3.598   1.298   6.436
 8334SOL    HW225902   3.712   1.412   6.411
 8335SOL     OW25903   4.299   2.849   6.708
 8335SOL    HW125904   4.371   2.813   6.648
 8335SOL    HW225905   4.243   2.773   6.741
 8336SOL     OW25906   1.483   3.369   2.052
 8336SOL    HW125907   1.461   3.295   2.116
 8336SOL    HW225908   1.453   3.456   2.092
 8337SOL     OW25909   1.284   0.858   4.734
 8337SOL    HW125910   1.250   0.952   4.728
 8337SOL    HW225911   1.384   0.858   4.733
 8338SOL     OW25912   3.863   4.913   2.244
 8338SOL    HW125913   3.767   4.901   2.217
 8338SOL    HW225914   3.869   4.980   2.318
 8339SOL     OW25915   6.988   1.007   0.590
 8339SOL    HW125916   0.047   0.941   0.575
 8339SOL    HW225917   6.976   1.021   0.688
 8340SOL     OW25918   5.135   2.762   1.006
 8340SOL    HW125919   5.189   2.800   0.930
 8340SOL    HW225920   5.064   2.701   0.969
 8341SOL     OW25921   3.570   0.572   6.187
 8341SOL    HW125922   3.590   0.644   6.120
 8341SOL    HW225923   3.560   0.485   6.140
 8342SOL     OW25924   3.333   6.128   0.393
 8342SOL    HW125925   3.425   6.148   0.424
 8342SOL    HW225926   3.296   6.051   0.446
 8343SOL     OW25927   6.508   5.222   3.883
 8343SOL    HW125928   6.487   5.138   3.933
 8343SOL    HW225929   6.500   5.301   3.945
 8344SOL     OW25930   0.634   4.412   4.238
 8344SOL    HW125931   0.684   4.378   4.158
 8344SOL    HW225932   0.596   4.502   4.216
 8345SOL     OW25933   5.144   1.279   3.391
 8345SOL    HW125934   5.049   1.308   3.380
 8345SOL    HW225935   5.174   1.231   3.309
 8346SOL     OW25936   4.215   2.937   6.130
 8346SOL    HW125937   4.173   2.849   6.153
 8346SOL    HW225938   4.175   3.008   6.188
 8347SOL     OW25939   2.048   6.730   6.299
 8347SOL    HW125940   2.146   6.709   6.299
 8347SOL    HW225941   1.997   6.655   6.340
 8348SOL     OW25942   3.020   6.914   0.946
 8348SOL    HW125943   3.025   7.007   0.981
 8348SOL    HW225944   3.105   6.865   0.968
 8349SOL     OW25945   0.887   6.717   1.967
 8349SOL    HW125946   0.877   6.733   1.869
 8349SOL    HW225947   0.957   6.647   1.983
 8350SOL     OW25948   2.747   0.035   6.179
 8350SOL    HW125949   2.743   6.973   6.114
 8350SOL    HW225950   2.683   0.106   6.150
 8351SOL     OW25951   6.305   5.487   4.110
 8351SOL    HW125952   6.318   5.461   4.206
 8351SOL    HW225953   6.394   5.499   4.067
 8352SOL     OW25954   2.821   6.250   2.471
 8352SOL    HW125955   2.880   6.170   2.458
 8352SOL    HW225956   2.872   6.320   2.522
 8353SOL     OW25957   1.186   4.073   1.606
 8353SOL    HW125958   1.220   4.037   1.693
 8353SOL    HW225959   1.247   4.044   1.532
 8354SOL     OW25960   3.575   6.504   3.934
 8354SOL    HW125961   3.556   6.559   3.853
 8354SOL    HW225962   3.515   6.532   4.008
 8355SOL     OW25963   1.421   0.494   6.462
 8355SOL    HW125964   1.494   0.538   6.410
 8355SOL    HW225965   1.333   0.534   6.437
 8356SOL     OW25966   1.252   5.654   1.833
 8356SOL    HW125967   1.159   5.674   1.864
 8356SOL    HW225968   1.301   5.604   1.905
 8357SOL     OW25969   3.839   5.744   6.417
 8357SOL    HW125970   3.743   5.748   6.441
 8357SOL    HW225971   3.855   5.668   6.354
 8358SOL     OW25972   1.301   2.665   6.095
 8358SOL    HW125973   1.324   2.657   5.998
 8358SOL    HW225974   1.348   2.593   6.146
 8359SOL     OW25975   2.493   0.903   4.688
 8359SOL    HW125976   2.411   0.942   4.729
 8359SOL    HW225977   2.551   0.976   4.651
 8360SOL     OW25978   4.648   6.943   0.717
 8360SOL    HW125979   4.585   6.987   0.781
 8360SOL    HW225980   4.629   6.845   0.713
 8361SOL     OW25981   2.410   0.020   6.426
 8361SOL    HW125982   2.366   0.046   6.340
 8361SOL    HW225983   2.468   0.095   6.458
 8362SOL     OW25984   6.073   1.884   0.512
 8362SOL    HW125985   6.119   1.795   0.513
 8362SOL    HW225986   6.120   1.945   0.449
 8363SOL     OW25987   4.150   1.937   0.486
 8363SOL    HW125988   4.148   1.945   0.386
 8363SOL    HW225989   4.061   1.965   0.523
 8364SOL     OW25990   0.781   3.354   3.919
 8364SOL    HW125991   0.797   3.276   3.857
 8364SOL    HW225992   0.685   3.380   3.914
 8365SOL     OW25993   1.965   2.523   2.735
 8365SOL    HW125994   1.891   2.564   2.680
 8365SOL    HW225995   1.926   2.485   2.819
 8366SOL     OW25996   4.395   5.426   1.268
 8366SOL    HW125997   4.335   5.373   1.328
 8366SOL    HW225998   4.487   5.426   1.306
 8367SOL     OW25999   3.087   5.222   5.077
 8367SOL    HW126000   2.992   5.241   5.053
 8367SOL    HW226001   3.126   5.157   5.012
 8368SOL     OW26002   0.665   6.319   0.100
 8368SOL    HW126003   0.744   6.264   0.071
 8368SOL    HW226004   0.649   6.304   0.197
 8369SOL     OW26005   0.980   1.846   1.578
 8369SOL    HW126006   1.066   1.839   1.527
 8369SOL    HW226007   0.920   1.911   1.531
 8370SOL     OW26008   2.745   1.666   6.963
 8370SOL    HW126009   2.735   1.618   6.876
 8370SOL    HW226010   2.777   1.759   6.947
 8371SOL     OW26011   1.521   3.051   5.785
 8371SOL    HW126012   1.593   3.021   5.723
 8371SOL    HW226013   1.438   3.070   5.734
 8372SOL     OW26014   2.229   6.503   1.348
 8372SOL    HW126015   2.178   6.425   1.311
 8372SOL    HW226016   2.312   6.470   1.393
 8373SOL     OW26017   0.498   1.642   4.489
 8373SOL    HW126018   0.437   1.568   4.517
 8373SOL    HW226019   0.491   1.656   4.390
 8374SOL     OW26020   1.121   0.381   4.165
 8374SOL    HW126021   1.112   0.480   4.175
 8374SOL    HW226022   1.203   0.350   4.214
 8375SOL     OW26023   3.676   0.834   5.303
 8375SOL    HW126024   3.713   0.921   5.335
 8375SOL    HW226025   3.585   0.848   5.264
 8376SOL     OW26026   1.600   1.340   3.643
 8376SOL    HW126027   1.588   1.242   3.631
 8376SOL    HW226028   1.525   1.389   3.597
 8377SOL     OW26029   5.097   5.657   0.830
 8377SOL    HW126030   5.130   5.615   0.915
 8377SOL    HW226031   5.000   5.681   0.841
 8378SOL     OW26032   5.387   5.195   3.013
 8378SOL    HW126033   5.369   5.122   2.947
 8378SOL    HW226034   5.413   5.154   3.100
 8379SOL     OW26035   4.949   2.228   1.377
 8379SOL    HW126036   4.922   2.298   1.443
 8379SOL    HW226037   4.916   2.253   1.286
 8380SOL     OW26038   6.524   6.900   0.004
 8380SOL    HW126039   6.514   6.810   0.048
 8380SOL    HW226040   6.529   6.971   0.074
 8381SOL     OW26041   0.390   2.621   3.429
 8381SOL    HW126042   0.390   2.698   3.365
 8381SOL    HW226043   0.420   2.539   3.381
 8382SOL     OW26044   2.486   0.633   1.036
 8382SOL    HW126045   2.558   0.607   0.971
 8382SOL    HW226046   2.411   0.676   0.986
 8383SOL     OW26047   2.586   0.452   5.150
 8383SOL    HW126048   2.667   0.413   5.107
 8383SOL    HW226049   2.506   0.434   5.093
 8384SOL     OW26050   6.884   1.810   1.213
 8384SOL    HW126051   6.896   1.725   1.161
 8384SOL    HW226052   6.787   1.836   1.212
 8385SOL     OW26053   4.720   3.097   0.743
 8385SOL    HW126054   4.682   3.170   0.688
 8385SOL    HW226055   4.658   3.077   0.819
 8386SOL     OW26056   1.954   5.679   1.002
 8386SOL    HW126057   1.856   5.675   1.020
 8386SOL    HW226058   2.002   5.699   1.088
 8387SOL     OW26059   2.069   1.745   1.621
 8387SOL    HW126060   1.978   1.755   1.662
 8387SOL    HW226061   2.060   1.724   1.524
 8388SOL     OW26062   1.297   6.857   0.362
 8388SOL    HW126063   1.318   6.866   0.459
 8388SOL    HW226064   1.198   6.867   0.348
 8389SOL     OW26065   1.804   3.175   3.896
 8389SOL    HW126066   1.708   3.161   3.874
 8389SOL    HW226067   1.861   3.145   3.820
 8390SOL     OW26068   3.503   0.343   6.521
 8390SOL    HW126069   3.475   0.410   6.590
 8390SOL    HW226070   3.601   0.323   6.532
 8391SOL     OW26071   5.103   5.373   0.715
 8391SOL    HW126072   5.025   5.322   0.751
 8391SOL    HW226073   5.120   5.453   0.773
 8392SOL     OW26074   6.646   5.521   5.261
 8392SOL    HW126075   6.574   5.461   5.227
 8392SOL    HW226076   6.717   5.466   5.306
 8393SOL     OW26077   0.317   0.431   3.922
 8393SOL    HW126078   0.324   0.380   3.836
 8393SOL    HW226079   0.234   0.402   3.971
 8394SOL     OW26080   0.920   1.794   2.453
 8394SOL    HW126081   0.939   1.780   2.550
 8394SOL    HW226082   0.848   1.731   2.424
 8395SOL     OW26083   0.804   6.541   4.015
 8395SOL    HW126084   0.858   6.516   4.095
 8395SOL    HW226085   0.861   6.596   3.953
 8396SOL     OW26086   4.654   4.407   2.575
 8396SOL    HW126087   4.591   4.418   2.498
 8396SOL    HW226088   4.746   4.432   2.547
 8397SOL     OW26089   2.170   6.863   2.620
 8397SOL    HW126090   2.239   6.926   2.586
 8397SOL    HW226091   2.131   6.899   2.705
 8398SOL     OW26092   3.633   1.786   0.252
 8398SOL    HW126093   3.673   1.816   0.165
 8398SOL    HW226094   3.540   1.752   0.235
 8399SOL     OW26095   6.442   6.190   0.275
 8399SOL    HW126096   6.354   6.190   0.227
 8399SOL    HW226097   6.508   6.135   0.223
 8400SOL     OW26098   0.983   0.605   2.914
 8400SOL    HW126099   1.072   0.650   2.908
 8400SOL    HW226100   0.996   0.506   2.919
 8401SOL     OW26101   4.357   3.202   5.808
 8401SOL    HW126102   4.378   3.158   5.720
 8401SOL    HW226103   4.442   3.224   5.856
 8402SOL     OW26104   3.081   1.631   5.779
 8402SOL    HW126105   3.124   1.712   5.739
 8402SOL    HW226106   3.001   1.606   5.724
 8403SOL     OW26107   0.678   1.536   3.319
 8403SOL    HW126108   0.683   1.635   3.305
 8403SOL    HW226109   0.739   1.490   3.255
 8404SOL     OW26110   5.609   6.330   6.509
 8404SOL    HW126111   5.552   6.264   6.460
 8404SOL    HW226112   5.609   6.308   6.606
 8405SOL     OW26113   1.816   1.469   0.054
 8405SOL    HW126114   1.861   1.480   0.142
 8405SOL    HW226115   1.847   1.384   0.011
 8406SOL     OW26116   3.885   1.558   0.921
 8406SOL    HW126117   3.893   1.650   0.883
 8406SOL    HW226118   3.961   1.502   0.889
 8407SOL     OW26119   5.709   5.428   4.513
 8407SOL    HW126120   5.610   5.420   4.514
 8407SOL    HW226121   5.735   5.505   4.454
 8408SOL     OW26122   4.952   1.622   3.842
 8408SOL    HW126123   4.877   1.625   3.908
 8408SOL    HW226124   4.940   1.544   3.781
 8409SOL     OW26125   6.465   2.456   3.867
 8409SOL    HW126126   6.488   2.386   3.799
 8409SOL    HW226127   6.368   2.447   3.892
 8410SOL     OW26128   4.309   0.956   1.551
 8410SOL    HW126129   4.251   1.036   1.549
 8410SOL    HW226130   4.399   0.980   1.588
 8411SOL     OW26131   1.845   5.287   4.114
 8411SOL    HW126132   1.896   5.321   4.193
 8411SOL    HW226133   1.800   5.201   4.138
 8412SOL     OW26134   4.002   1.672   1.194
 8412SOL    HW126135   3.933   1.601   1.199
 8412SOL    HW226136   4.078   1.641   1.136
 8413SOL     OW26137   4.739   4.677   0.630
 8413SOL    HW126138   4.701   4.630   0.710
 8413SOL    HW226139   4.677   4.665   0.552
 8414SOL     OW26140   3.764   0.226   1.780
 8414SOL    HW126141   3.703   0.231   1.859
 8414SOL    HW226142   3.800   0.317   1.760
 8415SOL     OW26143   0.424   4.929   3.753
 8415SOL    HW126144   0.438   5.028   3.765
 8415SOL    HW226145   0.345   4.914   3.694
 8416SOL     OW26146   4.813   4.746   3.182
 8416SOL    HW126147   4.874   4.681   3.228
 8416SOL    HW226148   4.758   4.794   3.250
 8417SOL     OW26149   1.578   6.183   5.288
 8417SOL    HW126150   1.652   6.143   5.235
 8417SOL    HW226151   1.499   6.199   5.228
 8418SOL     OW26152   5.601   5.071   1.805
 8418SOL    HW126153   5.643   5.027   1.884
 8418SOL    HW226154   5.503   5.053   1.804
 8419SOL     OW26155   4.300   0.502   1.890
 8419SOL    HW126156   4.265   0.558   1.815
 8419SOL    HW226157   4.337   0.417   1.853
 8420SOL     OW26158   3.906   6.415   0.950
 8420SOL    HW126159   3.821   6.462   0.975
 8420SOL    HW226160   3.934   6.444   0.858
 8421SOL     OW26161   3.199   6.587   1.297
 8421SOL    HW126162   3.290   6.568   1.333
 8421SOL    HW226163   3.130   6.549   1.358
 8422SOL     OW26164   4.817   6.047   1.296
 8422SOL    HW126165   4.755   6.055   1.218
 8422SOL    HW226166   4.911   6.049   1.264
 8423SOL     OW26167   4.269   4.323   6.477
 8423SOL    HW126168   4.309   4.414   6.466
 8423SOL    HW226169   4.275   4.272   6.391
 8424SOL     OW26170   2.626   2.359   2.609
 8424SOL    HW126171   2.721   2.347   2.634
 8424SOL    HW226172   2.618   2.367   2.510
 8425SOL     OW26173   6.724   5.499   1.121
 8425SOL    HW126174   6.689   5.453   1.039
 8425SOL    HW226175   6.665   5.577   1.143
 8426SOL     OW26176   3.735   3.031   4.133
 8426SOL    HW126177   3.774   3.004   4.220
 8426SOL    HW226178   3.796   3.003   4.059
 8427SOL     OW26179   1.443   4.234   5.755
 8427SOL    HW126180   1.459   4.327   5.789
 8427SOL    HW226181   1.474   4.227   5.661
 8428SOL     OW26182   6.536   4.619   2.119
 8428SOL    HW126183   6.607   4.554   2.146
 8428SOL    HW226184   6.446   4.580   2.140
 8429SOL     OW26185   2.116   4.413   4.389
 8429SOL    HW126186   2.202   4.393   4.437
 8429SOL    HW226187   2.116   4.364   4.302
 8430SOL     OW26188   3.827   5.160   3.046
 8430SOL    HW126189   3.872   5.191   3.129
 8430SOL    HW226190   3.775   5.076   3.065
 8431SOL     OW26191   2.401   4.926   0.897
 8431SOL    HW126192   2.499   4.947   0.901
 8431SOL    HW226193   2.350   5.008   0.871
 8432SOL     OW26194   4.723   5.272   6.102
 8432SOL    HW126195   4.767   5.194   6.058
 8432SOL    HW226196   4.630   5.283   6.066
 8433SOL     OW26197   0.143   2.223   6.668
 8433SOL    HW126198   0.186   2.272   6.743
 8433SOL    HW226199   0.102   2.288   6.605
 8434SOL     OW26200   2.859   0.179   5.011
 8434SOL    HW126201   2.955   0.154   5.000
 8434SOL    HW226202   2.853   0.273   5.044
 8435SOL     OW26203   5.078   1.644   1.348
 8435SOL    HW126204   5.005   1.588   1.387
 8435SOL    HW226205   5.163   1.592   1.349
 8436SOL     OW26206   3.853   6.686   3.837
 8436SOL    HW126207   3.755   6.680   3.821
 8436SOL    HW226208   3.900   6.614   3.785
 8437SOL     OW26209   1.777   6.718   2.230
 8437SOL    HW126210   1.679   6.699   2.232
 8437SOL    HW226211   1.823   6.645   2.179
 8438SOL     OW26212   3.147   4.813   2.388
 8438SOL    HW126213   3.063   4.821   2.442
 8438SOL    HW226214   3.125   4.781   2.296
 8439SOL     OW26215   6.610   5.731   1.905
 8439SOL    HW126216   6.629   5.822   1.869
 8439SOL    HW226217   6.515   5.706   1.886
 8440SOL     OW26218   0.573   0.751   2.477
 8440SOL    HW126219   0.498   0.711   2.530
 8440SOL    HW226220   0.538   0.784   2.390
 8441SOL     OW26221   6.174   6.025   0.348
 8441SOL    HW126222   6.259   6.039   0.400
 8441SOL    HW226223   6.150   5.928   0.350
 8442SOL     OW26224   3.837   3.198   6.100
 8442SOL    HW126225   3.798   3.229   6.013
 8442SOL    HW226226   3.856   3.100   6.095
 8443SOL     OW26227   1.603   6.825   3.206
 8443SOL    HW126228   1.586   6.787   3.115
 8443SOL    HW226229   1.624   6.750   3.269
 8444SOL     OW26230   3.378   6.440   3.567
 8444SOL    HW126231   3.389   6.341   3.572
 8444SOL    HW226232   3.327   6.464   3.484
 8445SOL     OW26233   3.354   5.084   2.008
 8445SOL    HW126234   3.349   5.032   2.093
 8445SOL    HW226235   3.272   5.141   1.999
 8446SOL     OW26236   4.667   5.453   1.612
 8446SOL    HW126237   4.704   5.493   1.696
 8446SOL    HW226238   4.697   5.507   1.534
 8447SOL     OW26239   5.530   2.347   1.928
 8447SOL    HW126240   5.616   2.355   1.978
 8447SOL    HW226241   5.458   2.396   1.977
 8448SOL     OW26242   6.761   3.700   5.086
 8448SOL    HW126243   6.691   3.631   5.102
 8448SOL    HW226244   6.764   3.763   5.163
 8449SOL     OW26245   0.007   2.831   4.435
 8449SOL    HW126246   0.009   2.905   4.502
 8449SOL    HW226247   0.001   2.870   4.343
 8450SOL     OW26248   2.002   5.951   2.086
 8450SOL    HW126249   1.935   5.922   2.018
 8450SOL    HW226250   2.094   5.940   2.049
 8451SOL     OW26251   4.275   2.739   0.324
 8451SOL    HW126252   4.319   2.677   0.259
 8451SOL    HW226253   4.309   2.831   0.311
 8452SOL     OW26254   0.172   0.070   1.402
 8452SOL    HW126255   0.074   0.075   1.417
 8452SOL    HW226256   0.217   0.040   1.486
 8453SOL     OW26257   6.228   4.475   6.048
 8453SOL    HW126258   6.308   4.470   5.988
 8453SOL    HW226259   6.173   4.555   6.023
 8454SOL     OW26260   1.340   5.376   1.681
 8454SOL    HW126261   1.315   5.470   1.655
 8454SOL    HW226262   1.361   5.373   1.778
 8455SOL     OW26263   4.977   2.168   0.569
 8455SOL    HW126264   4.943   2.163   0.475
 8455SOL    HW226265   4.994   2.076   0.603
 8456SOL     OW26266   5.520   4.849   3.333
 8456SOL    HW126267   5.439   4.832   3.277
 8456SOL    HW226268   5.602   4.838   3.277
 8457SOL     OW26269   6.702   6.327   5.915
 8457SOL    HW126270   6.650   6.241   5.918
 8457SOL    HW226271   6.743   6.344   6.004
 8458SOL     OW26272   1.990   1.138   6.691
 8458SOL    HW126273   2.057   1.122   6.618
 8458SOL    HW226274   1.905   1.090   6.668
 8459SOL     OW26275   3.241   6.749   1.086
 8459SOL    HW126276   3.200   6.711   1.169
 8459SOL    HW226277   3.239   6.680   1.014
 8460SOL     OW26278   4.601   2.665   5.700
 8460SOL    HW126279   4.505   2.642   5.714
 8460SOL    HW226280   4.615   2.695   5.605
 8461SOL     OW26281   0.953   3.652   2.226
 8461SOL    HW126282   1.010   3.574   2.255
 8461SOL    HW226283   0.859   3.621   2.214
 8462SOL     OW26284   3.157   2.538   0.405
 8462SOL    HW126285   3.113   2.476   0.339
 8462SOL    HW226286   3.137   2.632   0.380
 8463SOL     OW26287   6.975   1.774   0.453
 8463SOL    HW126288   6.933   1.801   0.539
 8463SOL    HW226289   6.909   1.725   0.396
 8464SOL     OW26290   6.897   4.546   5.096
 8464SOL    HW126291   6.927   4.636   5.066
 8464SOL    HW226292   6.898   4.483   5.018
 8465SOL     OW26293   3.208   2.214   0.470
 8465SOL    HW126294   3.308   2.204   0.469
 8465SOL    HW226295   3.166   2.130   0.438
 8466SOL     OW26296   6.134   6.924   5.005
 8466SOL    HW126297   6.069   6.853   5.034
 8466SOL    HW226298   6.187   6.892   4.927
 8467SOL     OW26299   4.084   1.030   1.313
 8467SOL    HW126300   4.113   1.119   1.350
 8467SOL    HW226301   4.010   0.994   1.370
 8468SOL     OW26302   5.978   3.391   0.199
 8468SOL    HW126303   5.903   3.331   0.173
 8468SOL    HW226304   5.953   3.486   0.179
 8469SOL     OW26305   2.870   1.902   5.336
 8469SOL    HW126306   2.933   1.880   5.410
 8469SOL    HW226307   2.804   1.970   5.367
 8470SOL     OW26308   1.176   4.836   0.277
 8470SOL    HW126309   1.227   4.876   0.201
 8470SOL    HW226310   1.212   4.744   0.297
 8471SOL     OW26311   4.095   0.149   5.121
 8471SOL    HW126312   4.184   0.119   5.085
 8471SOL    HW226313   4.088   0.125   5.217
 8472SOL     OW26314   5.549   1.321   5.422
 8472SOL    HW126315   5.599   1.306   5.337
 8472SOL    HW226316   5.581   1.405   5.465
 8473SOL     OW26317   5.424   5.515   0.383
 8473SOL    HW126318   5.350   5.548   0.441
 8473SOL    HW226319   5.397   5.523   0.287
 8474SOL     OW26320   3.310   4.050   2.234
 8474SOL    HW126321   3.281   4.146   2.234
 8474SOL    HW226322   3.231   3.992   2.254
 8475SOL     OW26323   6.480   2.776   2.394
 8475SOL    HW126324   6.511   2.769   2.299
 8475SOL    HW226325   6.559   2.773   2.455
 8476SOL     OW26326   6.476   1.625   1.677
 8476SOL    HW126327   6.475   1.645   1.775
 8476SOL    HW226328   6.554   1.669   1.634
 8477SOL     OW26329   4.084   6.560   2.753
 8477SOL    HW126330   4.053   6.476   2.797
 8477SOL    HW226331   4.149   6.538   2.681
 8478SOL     OW26332   0.752   0.921   5.565
 8478SOL    HW126333   0.772   0.886   5.473
 8478SOL    HW226334   0.731   1.018   5.560
 8479SOL     OW26335   1.204   2.993   1.325
 8479SOL    HW126336   1.304   2.987   1.321
 8479SOL    HW226337   1.177   3.089   1.332
 8480SOL     OW26338   5.497   3.675   6.915
 8480SOL    HW126339   5.448   3.735   6.852
 8480SOL    HW226340   5.526   3.727   6.995
 8481SOL     OW26341   5.047   2.288   5.011
 8481SOL    HW126342   5.024   2.252   4.921
 8481SOL    HW226343   4.973   2.348   5.042
 8482SOL     OW26344   5.013   0.346   1.972
 8482SOL    HW126345   5.101   0.391   1.984
 8482SOL    HW226346   4.947   0.411   1.934
 8483SOL     OW26347   2.749   5.693   3.214
 8483SOL    HW126348   2.708   5.733   3.296
 8483SOL    HW226349   2.740   5.758   3.138
 8484SOL     OW26350   6.960   6.169   4.669
 8484SOL    HW126351   6.908   6.119   4.738
 8484SOL    HW226352   0.015   6.225   4.713
 8485SOL     OW26353   3.822   2.583   0.503
 8485SOL    HW126354   3.863   2.540   0.422
 8485SOL    HW226355   3.784   2.672   0.477
 8486SOL     OW26356   1.968   0.679   2.978
 8486SOL    HW126357   1.874   0.663   3.009
 8486SOL    HW226358   1.978   0.644   2.884
 8487SOL     OW26359   5.592   2.126   6.347
 8487SOL    HW126360   5.658   2.085   6.283
 8487SOL    HW226361   5.641   2.179   6.416
 8488SOL     OW26362   5.115   6.021   2.775
 8488SOL    HW126363   5.122   6.114   2.739
 8488SOL    HW226364   5.136   6.022   2.873
 8489SOL     OW26365   6.631   0.791   1.378
 8489SOL    HW126366   6.547   0.751   1.416
 8489SOL    HW226367   6.680   0.722   1.325
 8490SOL     OW26368   3.103   6.756   5.780
 8490SOL    HW126369   3.017   6.762   5.730
 8490SOL    HW226370   3.086   6.769   5.878
 8491SOL     OW26371   1.792   6.110   2.402
 8491SOL    HW126372   1.739   6.193   2.387
 8491SOL    HW226373   1.887   6.125   2.375
 8492SOL     OW26374   5.823   5.219   4.108
 8492SOL    HW126375   5.769   5.155   4.162
 8492SOL    HW226376   5.763   5.283   4.061
 8493SOL     OW26377   1.840   1.867   6.819
 8493SOL    HW126378   1.871   1.818   6.901
 8493SOL    HW226379   1.821   1.802   6.746
 8494SOL     OW26380   3.934   5.219   2.368
 8494SOL    HW126381   3.885   5.244   2.285
 8494SOL    HW226382   3.977   5.300   2.408
 8495SOL     OW26383   0.237   5.349   0.573
 8495SOL    HW126384   0.278   5.334   0.484
 8495SOL    HW226385   0.301   5.323   0.645
 8496SOL     OW26386   6.472   1.190   2.767
 8496SOL    HW126387   6.427   1.169   2.854
 8496SOL    HW226388   6.430   1.136   2.694
 8497SOL     OW26389   0.249   0.987   3.026
 8497SOL    HW126390   0.237   0.911   2.962
 8497SOL    HW226391   0.308   0.957   3.102
 8498SOL     OW26392   6.761   6.541   3.371
 8498SOL    HW126393   6.703   6.621   3.353
 8498SOL    HW226394   6.733   6.500   3.458
 8499SOL     OW26395   0.815   4.127   0.079
 8499SOL    HW126396   0.816   4.108   0.177
 8499SOL    HW226397   0.801   4.042   0.029
 8500SOL     OW26398   1.406   6.737   5.449
 8500SOL    HW126399   1.433   6.682   5.370
 8500SOL    HW226400   1.472   6.722   5.523
 8501SOL     OW26401   0.455   2.605   6.515
 8501SOL    HW126402   0.412   2.566   6.597
 8501SOL    HW226403   0.542   2.559   6.498
 8502SOL     OW26404   0.537   3.090   1.500
 8502SOL    HW126405   0.612   3.064   1.560
 8502SOL    HW226406   0.545   3.040   1.414
 8503SOL     OW26407   0.241   5.770   5.321
 8503SOL    HW126408   0.280   5.721   5.398
 8503SOL    HW226409   0.307   5.837   5.287
 8504SOL     OW26410   1.423   5.665   2.094
 8504SOL    HW126411   1.522   5.683   2.094
 8504SOL    HW226412   1.374   5.750   2.112
 8505SOL     OW26413   6.068   3.528   2.791
 8505SOL    HW126414   5.971   3.503   2.800
 8505SOL    HW226415   6.076   3.622   2.760
 8506SOL     OW26416   1.717   0.414   6.724
 8506SOL    HW126417   1.645   0.366   6.674
 8506SOL    HW226418   1.772   0.468   6.660
 8507SOL     OW26419   3.938   6.736   4.792
 8507SOL    HW126420   3.871   6.747   4.865
 8507SOL    HW226421   4.026   6.773   4.822
 8508SOL     OW26422   4.247   1.573   5.182
 8508SOL    HW126423   4.157   1.534   5.200
 8508SOL    HW226424   4.237   1.664   5.142
 8509SOL     OW26425   5.829   0.042   3.136
 8509SOL    HW126426   5.774   6.982   3.172
 8509SOL    HW226427   5.900   0.066   3.202
 8510SOL     OW26428   5.331   3.708   2.754
 8510SOL    HW126429   5.325   3.808   2.762
 8510SOL    HW226430   5.261   3.675   2.691
 8511SOL     OW26431   6.232   2.757   2.511
 8511SOL    HW126432   6.323   2.771   2.473
 8511SOL    HW226433   6.170   2.728   2.438
 8512SOL     OW26434   2.547   6.818   2.681
 8512SOL    HW126435   2.603   6.893   2.715
 8512SOL    HW226436   2.500   6.774   2.758
 8513SOL     OW26437   6.996   5.557   1.093
 8513SOL    HW126438   0.043   5.497   1.042
 8513SOL    HW226439   6.903   5.519   1.089
 8514SOL     OW26440   2.889   0.591   3.374
 8514SOL    HW126441   2.964   0.586   3.440
 8514SOL    HW226442   2.853   0.499   3.359
 8515SOL     OW26443   4.685   2.413   1.034
 8515SOL    HW126444   4.696   2.393   0.936
 8515SOL    HW226445   4.588   2.424   1.055
 8516SOL     OW26446   0.115   2.024   2.555
 8516SOL    HW126447   0.110   2.074   2.469
 8516SOL    HW226448   0.029   1.976   2.571
 8517SOL     OW26449   0.750   2.494   5.465
 8517SOL    HW126450   0.759   2.530   5.371
 8517SOL    HW226451   0.748   2.394   5.462
 8518SOL     OW26452   4.048   4.383   0.179
 8518SOL    HW126453   4.001   4.353   0.261
 8518SOL    HW226454   3.995   4.455   0.135
 8519SOL     OW26455   2.035   5.564   1.929
 8519SOL    HW126456   2.130   5.591   1.946
 8519SOL    HW226457   1.980   5.584   2.009
 8520SOL     OW26458   3.853   1.651   0.395
 8520SOL    HW126459   3.807   1.631   0.481
 8520SOL    HW226460   3.800   1.720   0.345
 8521SOL     OW26461   1.927   5.836   5.414
 8521SOL    HW126462   1.894   5.767   5.478
 8521SOL    HW226463   2.010   5.803   5.369
 8522SOL     OW26464   1.349   5.477   2.298
 8522SOL    HW126465   1.391   5.387   2.286
 8522SOL    HW226466   1.397   5.544   2.241
 8523SOL     OW26467   2.889   6.985   6.428
 8523SOL    HW126468   2.823   7.003   6.500
 8523SOL    HW226469   2.854   0.006   6.341
 8524SOL     OW26470   1.364   2.971   4.519
 8524SOL    HW126471   1.317   3.051   4.483
 8524SOL    HW226472   1.463   2.984   4.511
 8525SOL     OW26473   6.270   3.860   3.322
 8525SOL    HW126474   6.197   3.904   3.375
 8525SOL    HW226475   6.317   3.793   3.378
 8526SOL     OW26476   2.585   3.718   1.568
 8526SOL    HW126477   2.629   3.799   1.606
 8526SOL    HW226478   2.488   3.737   1.553
 8527SOL     OW26479   4.197   6.855   4.864
 8527SOL    HW126480   4.225   6.950   4.855
 8527SOL    HW226481   4.272   6.801   4.902
 8528SOL     OW26482   5.593   3.194   5.918
 8528SOL    HW126483   5.630   3.265   5.979
 8528SOL    HW226484   5.584   3.231   5.826
 8529SOL     OW26485   1.242   0.058   0.030
 8529SOL    HW126486   1.225   0.108   0.114
 8529SOL    HW226487   1.270   6.979   0.052
 8530SOL     OW26488   1.020   5.080   5.672
 8530SOL    HW126489   1.070   5.136   5.738
 8530SOL    HW226490   1.032   5.118   5.580
 8531SOL     OW26491   5.551   4.283   3.218
 8531SOL    HW126492   5.488   4.216   3.258
 8531SOL    HW226493   5.645   4.252   3.231
 8532SOL     OW26494   4.320   4.775   4.970
 8532SOL    HW126495   4.260   4.800   5.046
 8532SOL    HW226496   4.362   4.686   4.989
 8533SOL     OW26497   1.950   0.704   5.124
 8533SOL    HW126498   1.895   0.787   5.132
 8533SOL    HW226499   2.040   0.719   5.164
 8534SOL     OW26500   0.149   4.831   2.687
 8534SOL    HW126501   0.105   4.872   2.607
 8534SOL    HW226502   0.149   4.897   2.763
 8535SOL     OW26503   1.027   2.193   4.883
 8535SOL    HW126504   1.110   2.184   4.938
 8535SOL    HW226505   1.046   2.253   4.805
 8536SOL     OW26506   6.097   2.565   4.951
 8536SOL    HW126507   6.183   2.556   4.901
 8536SOL    HW226508   6.021   2.572   4.886
 8537SOL     OW26509   6.451   1.597   0.640
 8537SOL    HW126510   6.528   1.537   0.662
 8537SOL    HW226511   6.462   1.684   0.688
 8538SOL     OW26512   0.994   0.997   4.830
 8538SOL    HW126513   0.948   1.001   4.741
 8538SOL    HW226514   0.998   0.902   4.860
 8539SOL     OW26515   6.300   2.166   2.802
 8539SOL    HW126516   6.275   2.077   2.764
 8539SOL    HW226517   6.228   2.198   2.863
 8540SOL     OW26518   3.746   1.959   0.620
 8540SOL    HW126519   3.649   1.948   0.638
 8540SOL    HW226520   3.764   1.941   0.523
 8541SOL     OW26521   2.618   1.496   5.486
 8541SOL    HW126522   2.677   1.463   5.413
 8541SOL    HW226523   2.657   1.579   5.526
 8542SOL     OW26524   3.383   4.445   6.439
 8542SOL    HW126525   3.337   4.460   6.526
 8542SOL    HW226526   3.351   4.511   6.372
 8543SOL     OW26527   2.850   1.617   5.276
 8543SOL    HW126528   2.816   1.707   5.303
 8543SOL    HW226529   2.871   1.617   5.178
 8544SOL     OW26530   5.359   2.977   5.182
 8544SOL    HW126531   5.378   2.880   5.193
 8544SOL    HW226532   5.274   3.000   5.230
 8545SOL     OW26533   3.128   6.617   4.744
 8545SOL    HW126534   3.226   6.633   4.755
 8545SOL    HW226535   3.078   6.698   4.775
 8546SOL     OW26536   5.543   0.612   1.115
 8546SOL    HW126537   5.515   0.585   1.023
 8546SOL    HW226538   5.511   0.704   1.135
 8547SOL     OW26539   6.450   0.573   5.393
 8547SOL    HW126540   6.401   0.623   5.465
 8547SOL    HW226541   6.428   0.475   5.400
 8548SOL     OW26542   0.820   2.780   5.319
 8548SOL    HW126543   0.796   2.876   5.330
 8548SOL    HW226544   0.858   2.744   5.404
 8549SOL     OW26545   1.030   2.009   4.113
 8549SOL    HW126546   1.096   1.992   4.040
 8549SOL    HW226547   1.021   2.108   4.127
 8550SOL     OW26548   0.780   3.843   6.177
 8550SOL    HW126549   0.774   3.893   6.090
 8550SOL    HW226550   0.873   3.811   6.191
 8551SOL     OW26551   2.293   2.302   6.896
 8551SOL    HW126552   2.264   2.311   6.991
 8551SOL    HW226553   2.228   2.244   6.846
 8552SOL     OW26554   3.281   0.459   2.229
 8552SOL    HW126555   3.241   0.374   2.263
 8552SOL    HW226556   3.269   0.464   2.130
 8553SOL     OW26557   3.800   4.394   0.369
 8553SOL    HW126558   3.812   4.361   0.463
 8553SOL    HW226559   3.813   4.494   0.367
 8554SOL     OW26560   1.076   6.278   1.420
 8554SOL    HW126561   1.134   6.299   1.499
 8554SOL    HW226562   1.045   6.184   1.426
 8555SOL     OW26563   4.360   1.768   3.287
 8555SOL    HW126564   4.312   1.853   3.268
 8555SOL    HW226565   4.403   1.774   3.377
 8556SOL     OW26566   1.764   6.192   5.496
 8556SOL    HW126567   1.844   6.141   5.463
 8556SOL    HW226568   1.694   6.194   5.425
 8557SOL     OW26569   6.672   1.002   0.781
 8557SOL    HW126570   6.630   1.064   0.715
 8557SOL    HW226571   6.762   1.037   0.807
 8558SOL     OW26572   2.215   4.837   2.817
 8558SOL    HW126573   2.308   4.822   2.784
 8558SOL    HW226574   2.162   4.752   2.808
 8559SOL     OW26575   0.833   6.772   2.810
 8559SOL    HW126576   0.816   6.825   2.893
 8559SOL    HW226577   0.931   6.768   2.792
 8560SOL     OW26578   1.578   5.524   1.522
 8560SOL    HW126579   1.532   5.438   1.544
 8560SOL    HW226580   1.541   5.598   1.578
 8561SOL     OW26581   4.064   6.925   3.267
 8561SOL    HW126582   4.162   6.933   3.252
 8561SOL    HW226583   4.023   6.875   3.191
 8562SOL     OW26584   4.172   0.525   6.864
 8562SOL    HW126585   4.189   0.448   6.802
 8562SOL    HW226586   4.128   0.600   6.814
 8563SOL     OW26587   1.004   5.723   1.940
 8563SOL    HW126588   0.964   5.795   1.883
 8563SOL    HW226589   0.963   5.726   2.032
 8564SOL     OW26590   3.570   5.965   6.447
 8564SOL    HW126591   3.514   5.988   6.367
 8564SOL    HW226592   3.552   5.870   6.474
 8565SOL     OW26593   3.759   5.124   1.613
 8565SOL    HW126594   3.773   5.025   1.609
 8565SOL    HW226595   3.669   5.146   1.576
 8566SOL     OW26596   2.660   0.921   2.382
 8566SOL    HW126597   2.656   0.860   2.462
 8566SOL    HW226598   2.601   0.885   2.310
 8567SOL     OW26599   1.692   2.102   2.005
 8567SOL    HW126600   1.698   2.100   1.905
 8567SOL    HW226601   1.778   2.137   2.043
 8568SOL     OW26602   6.569   1.083   0.377
 8568SOL    HW126603   6.504   1.015   0.410
 8568SOL    HW226604   6.612   1.050   0.293
 8569SOL     OW26605   4.714   2.037   5.540
 8569SOL    HW126606   4.621   2.013   5.512
 8569SOL    HW226607   4.745   2.117   5.489
 8570SOL     OW26608   1.960   1.822   3.969
 8570SOL    HW126609   2.047   1.870   3.958
 8570SOL    HW226610   1.967   1.731   3.929
 8571SOL     OW26611   1.239   0.751   4.460
 8571SOL    HW126612   1.222   0.762   4.558
 8571SOL    HW226613   1.180   0.814   4.410
 8572SOL     OW26614   1.849   4.200   5.798
 8572SOL    HW126615   1.751   4.180   5.810
 8572SOL    HW226616   1.901   4.158   5.872
 8573SOL     OW26617   2.887   6.265   6.953
 8573SOL    HW126618   2.875   6.364   6.956
 8573SOL    HW226619   2.887   6.235   6.857
 8574SOL     OW26620   6.575   6.746   5.872
 8574SOL    HW126621   6.674   6.760   5.879
 8574SOL    HW226622   6.551   6.720   5.779
 8575SOL     OW26623   3.828   0.824   2.339
 8575SOL    HW126624   3.760   0.751   2.330
 8575SOL    HW226625   3.836   0.850   2.436
 8576SOL     OW26626   1.919   4.659   4.141
 8576SOL    HW126627   1.856   4.714   4.197
 8576SOL    HW226628   1.916   4.564   4.172
 8577SOL     OW26629   1.519   0.904   5.745
 8577SOL    HW126630   1.422   0.886   5.729
 8577SOL    HW226631   1.557   0.833   5.804
 8578SOL     OW26632   5.994   5.758   5.932
 8578SOL    HW126633   6.089   5.773   5.958
 8578SOL    HW226634   5.990   5.708   5.845
 8579SOL     OW26635   1.601   6.018   1.824
 8579SOL    HW126636   1.582   6.098   1.766
 8579SOL    HW226637   1.515   5.971   1.845
 8580SOL     OW26638   1.453   6.351   0.794
 8580SOL    HW126639   1.543   6.324   0.760
 8580SOL    HW226640   1.429   6.441   0.756
 8581SOL     OW26641   3.769   4.841   1.574
 8581SOL    HW126642   3.800   4.849   1.480
 8581SOL    HW226643   3.700   4.769   1.581
 8582SOL     OW26644   5.054   4.446   5.428
 8582SOL    HW126645   4.960   4.422   5.405
 8582SOL    HW226646   5.089   4.382   5.497
 8583SOL     OW26647   3.595   6.780   2.930
 8583SOL    HW126648   3.647   6.766   2.846
 8583SOL    HW226649   3.622   6.710   2.997
 8584SOL     OW26650   0.233   0.564   5.274
 8584SOL    HW126651   0.207   0.489   5.335
 8584SOL    HW226652   0.329   0.588   5.289
 8585SOL     OW26653   6.026   1.537   0.715
 8585SOL    HW126654   6.093   1.588   0.662
 8585SOL    HW226655   6.072   1.479   0.782
 8586SOL     OW26656   4.493   6.489   1.414
 8586SOL    HW126657   4.565   6.539   1.462
 8586SOL    HW226658   4.534   6.432   1.343
 8587SOL     OW26659   1.001   1.636   4.990
 8587SOL    HW126660   1.056   1.624   5.072
 8587SOL    HW226661   0.979   1.732   4.978
 8588SOL     OW26662   4.634   1.198   7.000
 8588SOL    HW126663   4.537   1.222   7.007
 8588SOL    HW226664   4.644   1.120   6.939
 8589SOL     OW26665   6.706   3.120   5.186
 8589SOL    HW126666   6.758   3.105   5.270
 8589SOL    HW226667   6.760   3.092   5.107
 8590SOL     OW26668   0.253   0.184   2.447
 8590SOL    HW126669   0.320   0.258   2.439
 8590SOL    HW226670   0.301   0.098   2.463
 8591SOL     OW26671   6.815   4.612   0.257
 8591SOL    HW126672   6.799   4.589   0.161
 8591SOL    HW226673   6.834   4.528   0.309
 8592SOL     OW26674   0.398   3.033   0.362
 8592SOL    HW126675   0.306   3.041   0.323
 8592SOL    HW226676   0.398   2.961   0.432
 8593SOL     OW26677   3.611   1.072   6.628
 8593SOL    HW126678   3.690   1.014   6.610
 8593SOL    HW226679   3.640   1.168   6.629
 8594SOL     OW26680   6.561   2.900   5.813
 8594SOL    HW126681   6.489   2.843   5.852
 8594SOL    HW226682   6.522   2.958   5.740
 8595SOL     OW26683   6.723   0.611   3.926
 8595SOL    HW126684   6.650   0.542   3.919
 8595SOL    HW226685   6.699   0.678   3.996
 8596SOL     OW26686   1.354   4.168   2.880
 8596SOL    HW126687   1.364   4.188   2.782
 8596SOL    HW226688   1.282   4.100   2.893
 8597SOL     OW26689   5.813   2.153   0.870
 8597SOL    HW126690   5.817   2.055   0.892
 8597SOL    HW226691   5.860   2.205   0.942
 8598SOL     OW26692   5.342   0.169   5.841
 8598SOL    HW126693   5.290   0.177   5.926
 8598SOL    HW226694   5.438   0.152   5.862
 8599SOL     OW26695   1.169   2.530   4.429
 8599SOL    HW126696   1.256   2.538   4.477
 8599SOL    HW226697   1.103   2.595   4.467
 8600SOL     OW26698   5.190   3.645   0.541
 8600SOL    HW126699   5.167   3.575   0.473
 8600SOL    HW226700   5.279   3.624   0.582
 8601SOL     OW26701   6.779   1.552   3.853
 8601SOL    HW126702   6.713   1.538   3.927
 8601SOL    HW226703   6.767   1.645   3.815
 8602SOL     OW26704   2.301   6.476   3.043
 8602SOL    HW126705   2.212   6.452   3.082
 8602SOL    HW226706   2.294   6.480   2.944
 8603SOL     OW26707   5.183   0.421   6.759
 8603SOL    HW126708   5.100   0.369   6.740
 8603SOL    HW226709   5.261   0.358   6.764
 8604SOL     OW26710   1.056   2.724   6.214
 8604SOL    HW126711   1.067   2.768   6.303
 8604SOL    HW226712   1.140   2.677   6.189
 8605SOL     OW26713   0.769   4.508   3.788
 8605SOL    HW126714   0.708   4.587   3.777
 8605SOL    HW226715   0.838   4.527   3.858
 8606SOL     OW26716   2.951   1.587   0.143
 8606SOL    HW126717   2.876   1.632   0.095
 8606SOL    HW226718   2.965   1.495   0.106
 8607SOL     OW26719   2.853   4.501   6.663
 8607SOL    HW126720   2.949   4.470   6.666
 8607SOL    HW226721   2.826   4.531   6.754
 8608SOL     OW26722   2.142   5.238   1.943
 8608SOL    HW126723   2.214   5.297   1.980
 8608SOL    HW226724   2.086   5.291   1.879
 8609SOL     OW26725   5.021   0.734   4.128
 8609SOL    HW126726   5.069   0.770   4.048
 8609SOL    HW226727   4.927   0.768   4.128
 8610SOL     OW26728   0.018   0.258   3.357
 8610SOL    HW126729   7.013   0.352   3.328
 8610SOL    HW226730   6.983   0.194   3.299
 8611SOL     OW26731   3.226   1.155   4.086
 8611SOL    HW126732   3.218   1.180   4.183
 8611SOL    HW226733   3.322   1.158   4.059
 8612SOL     OW26734   3.041   3.564   1.488
 8612SOL    HW126735   3.037   3.643   1.549
 8612SOL    HW226736   3.082   3.487   1.536
 8613SOL     OW26737   3.138   2.667   1.736
 8613SOL    HW126738   3.163   2.571   1.721
 8613SOL    HW226739   3.093   2.676   1.825
 8614SOL     OW26740   1.630   2.549   3.580
 8614SOL    HW126741   1.604   2.457   3.611
 8614SOL    HW226742   1.552   2.611   3.593
 8615SOL     OW26743   4.435   1.616   4.961
 8615SOL    HW126744   4.417   1.563   5.044
 8615SOL    HW226745   4.532   1.640   4.957
 8616SOL     OW26746   2.484   4.596   1.653
 8616SOL    HW126747   2.495   4.611   1.555
 8616SOL    HW226748   2.558   4.642   1.702
 8617SOL     OW26749   5.765   0.995   3.888
 8617SOL    HW126750   5.865   0.996   3.879
 8617SOL    HW226751   5.726   1.066   3.829
 8618SOL     OW26752   6.493   4.445   0.785
 8618SOL    HW126753   6.481   4.347   0.801
 8618SOL    HW226754   6.495   4.493   0.872
 8619SOL     OW26755   4.096   5.085   3.492
 8619SOL    HW126756   4.089   4.992   3.527
 8619SOL    HW226757   4.192   5.114   3.493
 8620SOL     OW26758   1.901   0.244   4.606
 8620SOL    HW126759   1.868   0.182   4.677
 8620SOL    HW226760   1.848   0.329   4.608
 8621SOL     OW26761   4.871   3.155   2.244
 8621SOL    HW126762   4.874   3.087   2.318
 8621SOL    HW226763   4.810   3.123   2.172
 8622SOL     OW26764   5.713   4.933   1.590
 8622SOL    HW126765   5.680   4.989   1.666
 8622SOL    HW226766   5.664   4.845   1.590
 8623SOL     OW26767   0.946   3.940   4.844
 8623SOL    HW126768   1.032   3.953   4.893
 8623SOL    HW226769   0.892   3.870   4.889
 8624SOL     OW26770   4.033   3.454   5.782
 8624SOL    HW126771   4.028   3.539   5.835
 8624SOL    HW226772   4.024   3.476   5.685
 8625SOL     OW26773   4.251   0.876   6.022
 8625SOL    HW126774   4.332   0.848   5.972
 8625SOL    HW226775   4.271   0.957   6.076
 8626SOL     OW26776   3.609   3.301   6.225
 8626SOL    HW126777   3.547   3.223   6.221
 8626SOL    HW226778   3.697   3.276   6.185
 8627SOL     OW26779   2.456   1.445   2.574
 8627SOL    HW126780   2.423   1.486   2.659
 8627SOL    HW226781   2.475   1.517   2.507
 8628SOL     OW26782   6.315   6.701   6.908
 8628SOL    HW126783   6.352   6.786   6.870
 8628SOL    HW226784   6.378   6.665   6.977
 8629SOL     OW26785   1.354   6.377   5.517
 8629SOL    HW126786   1.298   6.437   5.459
 8629SOL    HW226787   1.413   6.320   5.459
 8630SOL     OW26788   4.849   4.036   4.380
 8630SOL    HW126789   4.851   4.035   4.280
 8630SOL    HW226790   4.941   4.053   4.415
 8631SOL     OW26791   1.546   6.222   6.150
 8631SOL    HW126792   1.476   6.286   6.181
 8631SOL    HW226793   1.522   6.188   6.059
 8632SOL     OW26794   4.009   4.046   5.162
 8632SOL    HW126795   4.089   4.096   5.196
 8632SOL    HW226796   3.927   4.101   5.177
 8633SOL     OW26797   5.949   3.581   5.722
 8633SOL    HW126798   5.939   3.659   5.659
 8633SOL    HW226799   6.028   3.527   5.695
 8634SOL     OW26800   4.977   4.499   0.141
 8634SOL    HW126801   5.010   4.470   0.231
 8634SOL    HW226802   4.877   4.493   0.139
 8635SOL     OW26803   5.979   2.833   6.813
 8635SOL    HW126804   5.944   2.825   6.906
 8635SOL    HW226805   5.945   2.919   6.773
 8636SOL     OW26806   4.628   5.786   1.020
 8636SOL    HW126807   4.549   5.744   1.064
 8636SOL    HW226808   4.607   5.881   0.998
 8637SOL     OW26809   2.144   1.583   6.239
 8637SOL    HW126810   2.049   1.551   6.230
 8637SOL    HW226811   2.190   1.575   6.150
 8638SOL     OW26812   3.888   2.546   5.341
 8638SOL    HW126813   3.972   2.566   5.291
 8638SOL    HW226814   3.852   2.457   5.313
 8639SOL     OW26815   4.200   3.513   0.072
 8639SOL    HW126816   4.129   3.473   0.130
 8639SOL    HW226817   4.162   3.536   6.998
 8640SOL     OW26818   4.304   2.993   1.002
 8640SOL    HW126819   4.282   2.911   1.055
 8640SOL    HW226820   4.246   2.996   0.920
 8641SOL     OW26821   4.016   4.960   4.326
 8641SOL    HW126822   3.916   4.958   4.333
 8641SOL    HW226823   4.045   5.045   4.283
 8642SOL     OW26824   0.576   6.995   3.342
 8642SOL    HW126825   0.609   6.917   3.288
 8642SOL    HW226826   0.568   0.060   3.283
 8643SOL     OW26827   2.366   0.483   0.086
 8643SOL    HW126828   2.317   0.421   0.025
 8643SOL    HW226829   2.381   0.571   0.039
 8644SOL     OW26830   6.336   2.978   6.065
 8644SOL    HW126831   6.245   2.990   6.104
 8644SOL    HW226832   6.359   2.881   6.062
 8645SOL     OW26833   4.461   4.789   1.651
 8645SOL    HW126834   4.452   4.726   1.574
 8645SOL    HW226835   4.528   4.860   1.628
 8646SOL     OW26836   0.234   1.802   0.142
 8646SOL    HW126837   0.224   1.739   0.220
 8646SOL    HW226838   0.331   1.817   0.125
 8647SOL     OW26839   2.769   5.104   0.458
 8647SOL    HW126840   2.794   5.152   0.375
 8647SOL    HW226841   2.687   5.049   0.442
 8648SOL     OW26842   6.095   6.296   1.059
 8648SOL    HW126843   6.155   6.281   0.980
 8648SOL    HW226844   6.003   6.263   1.037
 8649SOL     OW26845   5.530   6.337   0.201
 8649SOL    HW126846   5.505   6.432   0.183
 8649SOL    HW226847   5.518   6.282   0.118
 8650SOL     OW26848   1.642   6.688   4.479
 8650SOL    HW126849   1.601   6.598   4.466
 8650SOL    HW226850   1.652   6.733   4.390
 8651SOL     OW26851   3.306   1.611   0.902
 8651SOL    HW126852   3.280   1.613   0.999
 8651SOL    HW226853   3.250   1.676   0.851
 8652SOL     OW26854   1.124   4.856   3.687
 8652SOL    HW126855   1.128   4.893   3.779
 8652SOL    HW226856   1.186   4.777   3.679
 8653SOL     OW26857   6.582   1.302   5.636
 8653SOL    HW126858   6.551   1.275   5.545
 8653SOL    HW226859   6.602   1.400   5.637
 8654SOL     OW26860   0.396   5.009   0.544
 8654SOL    HW126861   0.414   4.996   0.641
 8654SOL    HW226862   0.442   4.938   0.491
 8655SOL     OW26863   5.635   0.831   5.315
 8655SOL    HW126864   5.713   0.881   5.352
 8655SOL    HW226865   5.551   0.883   5.332
 8656SOL     OW26866   5.589   0.829   2.018
 8656SOL    HW126867   5.615   0.747   2.071
 8656SOL    HW226868   5.586   0.806   1.921
 8657SOL     OW26869   5.564   5.784   0.192
 8657SOL    HW126870   5.506   5.706   0.168
 8657SOL    HW226871   5.629   5.758   0.263
 8658SOL     OW26872   6.427   5.778   0.898
 8658SOL    HW126873   6.377   5.864   0.895
 8658SOL    HW226874   6.369   5.706   0.937
 8659SOL     OW26875   4.493   2.400   2.896
 8659SOL    HW126876   4.496   2.440   2.804
 8659SOL    HW226877   4.511   2.302   2.891
 8660SOL     OW26878   0.164   2.610   2.456
 8660SOL    HW126879   0.247   2.638   2.408
 8660SOL    HW226880   0.179   2.521   2.499
 8661SOL     OW26881   5.842   4.189   1.910
 8661SOL    HW126882   5.846   4.179   1.811
 8661SOL    HW226883   5.932   4.167   1.949
 8662SOL     OW26884   3.880   5.989   2.186
 8662SOL    HW126885   3.858   6.074   2.137
 8662SOL    HW226886   3.807   5.922   2.172
 8663SOL     OW26887   2.756   5.094   2.296
 8663SOL    HW126888   2.700   5.014   2.274
 8663SOL    HW226889   2.838   5.094   2.238
 8664SOL     OW26890   2.491   5.245   2.430
 8664SOL    HW126891   2.512   5.150   2.403
 8664SOL    HW226892   2.407   5.275   2.385
 8665SOL     OW26893   6.426   5.640   4.470
 8665SOL    HW126894   6.377   5.576   4.411
 8665SOL    HW226895   6.524   5.624   4.462
 8666SOL     OW26896   5.266   0.645   4.653
 8666SOL    HW126897   5.261   0.602   4.563
 8666SOL    HW226898   5.361   0.673   4.671
 8667SOL     OW26899   5.024   1.678   4.310
 8667SOL    HW126900   5.097   1.742   4.283
 8667SOL    HW226901   5.054   1.584   4.291
 8668SOL     OW26902   5.224   3.142   4.934
 8668SOL    HW126903   5.276   3.117   5.016
 8668SOL    HW226904   5.208   3.241   4.933
 8669SOL     OW26905   0.312   6.534   6.169
 8669SOL    HW126906   0.221   6.530   6.129
 8669SOL    HW226907   0.354   6.443   6.167
 8670SOL     OW26908   4.872   5.147   5.739
 8670SOL    HW126909   4.953   5.147   5.681
 8670SOL    HW226910   4.790   5.159   5.682
 8671SOL     OW26911   0.545   1.686   2.274
 8671SOL    HW126912   0.541   1.687   2.374
 8671SOL    HW226913   0.570   1.595   2.242
 8672SOL     OW26914   0.988   0.344   3.501
 8672SOL    HW126915   0.913   0.280   3.519
 8672SOL    HW226916   1.076   0.299   3.517
 8673SOL     OW26917   6.555   1.405   0.035
 8673SOL    HW126918   6.503   1.338   6.997
 8673SOL    HW226919   6.546   1.385   0.133
 8674SOL     OW26920   6.760   4.870   2.628
 8674SOL    HW126921   6.713   4.958   2.632
 8674SOL    HW226922   6.788   4.851   2.533
 8675SOL     OW26923   4.458   1.116   5.301
 8675SOL    HW126924   4.435   1.213   5.300
 8675SOL    HW226925   4.418   1.073   5.383
 8676SOL     OW26926   5.364   0.698   1.321
 8676SOL    HW126927   5.287   0.756   1.347
 8676SOL    HW226928   5.329   0.613   1.281
 8677SOL     OW26929   1.915   5.985   5.965
 8677SOL    HW126930   1.975   5.964   5.888
 8677SOL    HW226931   1.903   5.903   6.020
 8678SOL     OW26932   0.571   6.795   0.488
 8678SOL    HW126933   0.567   6.823   0.584
 8678SOL    HW226934   0.512   6.854   0.433
 8679SOL     OW26935   2.194   1.078   3.805
 8679SOL    HW126936   2.257   1.110   3.734
 8679SOL    HW226937   2.100   1.090   3.775
 8680SOL     OW26938   6.096   2.773   6.520
 8680SOL    HW126939   6.062   2.760   6.614
 8680SOL    HW226940   6.054   2.705   6.460
 8681SOL     OW26941   4.558   5.190   1.584
 8681SOL    HW126942   4.622   5.119   1.614
 8681SOL    HW226943   4.609   5.270   1.554
 8682SOL     OW26944   6.745   0.601   1.202
 8682SOL    HW126945   6.685   0.532   1.161
 8682SOL    HW226946   6.840   0.570   1.197
 8683SOL     OW26947   1.604   2.829   4.793
 8683SOL    HW126948   1.558   2.773   4.724
 8683SOL    HW226949   1.629   2.917   4.752
 8684SOL     OW26950   0.110   3.238   4.606
 8684SOL    HW126951   0.091   3.262   4.511
 8684SOL    HW226952   0.117   3.139   4.615
 8685SOL     OW26953   5.444   3.383   6.541
 8685SOL    HW126954   5.359   3.336   6.515
 8685SOL    HW226955   5.497   3.325   6.603
 8686SOL     OW26956   5.843   6.819   2.409
 8686SOL    HW126957   5.866   6.893   2.346
 8686SOL    HW226958   5.913   6.747   2.402
 8687SOL     OW26959   5.954   5.012   3.216
 8687SOL    HW126960   5.860   5.031   3.246
 8687SOL    HW226961   6.018   5.042   3.287
 8688SOL     OW26962   1.212   3.851   0.045
 8688SOL    HW126963   1.175   3.772   7.012
 8688SOL    HW226964   1.253   3.821   0.132
 8689SOL     OW26965   4.743   3.221   0.064
 8689SOL    HW126966   4.737   3.279   0.145
 8689SOL    HW226967   4.793   3.137   0.087
 8690SOL     OW26968   0.492   2.948   2.628
 8690SOL    HW126969   0.567   2.933   2.564
 8690SOL    HW226970   0.512   2.904   2.715
 8691SOL     OW26971   3.111   1.922   5.192
 8691SOL    HW126972   3.175   1.991   5.226
 8691SOL    HW226973   3.018   1.946   5.220
 8692SOL     OW26974   3.867   0.865   5.089
 8692SOL    HW126975   3.860   0.786   5.028
 8692SOL    HW226976   3.827   0.843   5.178
 8693SOL     OW26977   6.420   1.459   6.188
 8693SOL    HW126978   6.367   1.463   6.272
 8693SOL    HW226979   6.395   1.535   6.128
 8694SOL     OW26980   5.761   1.980   4.892
 8694SOL    HW126981   5.830   2.051   4.886
 8694SOL    HW226982   5.670   2.020   4.879
 8695SOL     OW26983   4.318   2.541   5.865
 8695SOL    HW126984   4.315   2.640   5.853
 8695SOL    HW226985   4.233   2.501   5.831
 8696SOL     OW26986   2.414   5.840   5.252
 8696SOL    HW126987   2.429   5.744   5.227
 8696SOL    HW226988   2.487   5.870   5.313
 8697SOL     OW26989   0.675   4.220   6.181
 8697SOL    HW126990   0.706   4.207   6.086
 8697SOL    HW226991   0.580   4.191   6.189
 8698SOL     OW26992   5.464   6.010   5.400
 8698SOL    HW126993   5.522   5.948   5.453
 8698SOL    HW226994   5.521   6.077   5.353
 8699SOL     OW26995   2.085   3.046   6.133
 8699SOL    HW126996   2.146   3.124   6.127
 8699SOL    HW226997   2.132   2.970   6.177
 8700SOL     OW26998   1.327   1.229   5.157
 8700SOL    HW126999   1.371   1.207   5.244
 8700SOL    HW227000   1.350   1.323   5.131
 8701SOL     OW27001   1.971   1.385   6.809
 8701SOL    HW127002   1.880   1.422   6.790
 8701SOL    HW227003   1.978   1.293   6.771
 8702SOL     OW27004   4.923   5.061   2.137
 8702SOL    HW127005   4.967   4.972   2.140
 8702SOL    HW227006   4.825   5.051   2.150
 8703SOL     OW27007   3.229   5.061   6.947
 8703SOL    HW127008   3.167   5.102   6.881
 8703SOL    HW227009   3.260   5.132   7.011
 8704SOL     OW27010   6.689   3.611   3.772
 8704SOL    HW127011   6.746   3.671   3.716
 8704SOL    HW227012   6.747   3.553   3.829
 8705SOL     OW27013   4.497   1.797   6.402
 8705SOL    HW127014   4.481   1.888   6.440
 8705SOL    HW227015   4.412   1.762   6.362
 8706SOL     OW27016   5.515   2.129   7.008
 8706SOL    HW127017   5.504   2.083   6.920
 8706SOL    HW227018   5.458   2.084   0.062
 8707SOL     OW27019   1.003   2.796   4.126
 8707SOL    HW127020   1.022   2.732   4.051
 8707SOL    HW227021   1.048   2.883   4.108
 8708SOL     OW27022   3.873   1.662   4.244
 8708SOL    HW127023   3.949   1.602   4.267
 8708SOL    HW227024   3.895   1.715   4.162
 8709SOL     OW27025   6.894   0.007   6.880
 8709SOL    HW127026   6.896   0.098   6.839
 8709SOL    HW227027   6.886   0.015   6.979
 8710SOL     OW27028   1.834   2.317   3.673
 8710SOL    HW127029   1.862   2.232   3.629
 8710SOL    HW227030   1.776   2.297   3.752
 8711SOL     OW27031   1.315   6.591   1.918
 8711SOL    HW127032   1.406   6.617   1.950
 8711SOL    HW227033   1.289   6.650   1.842
 8712SOL     OW27034   3.114   1.377   3.933
 8712SOL    HW127035   3.163   1.415   3.855
 8712SOL    HW227036   3.163   1.298   3.968
 8713SOL     OW27037   0.197   4.179   1.461
 8713SOL    HW127038   0.236   4.178   1.553
 8713SOL    HW227039   0.110   4.228   1.462
 8714SOL     OW27040   0.827   6.766   0.112
 8714SOL    HW127041   0.749   6.705   0.126
 8714SOL    HW227042   0.881   6.732   0.035
 8715SOL     OW27043   3.727   1.561   6.928
 8715SOL    HW127044   3.671   1.643   6.923
 8715SOL    HW227045   3.819   1.585   6.961
 8716SOL     OW27046   0.168   6.441   0.989
 8716SOL    HW127047   0.201   6.380   1.061
 8716SOL    HW227048   0.069   6.454   0.999
 8717SOL     OW27049   1.910   3.650   5.924
 8717SOL    HW127050   1.894   3.739   5.967
 8717SOL    HW227051   1.991   3.655   5.866
 8718SOL     OW27052   2.143   2.714   6.537
 8718SOL    HW127053   2.142   2.687   6.634
 8718SOL    HW227054   2.052   2.746   6.511
 8719SOL     OW27055   4.251   0.877   0.163
 8719SOL    HW127056   4.250   0.777   0.163
 8719SOL    HW227057   4.181   0.911   0.100
 8720SOL     OW27058   0.048   5.714   6.180
 8720SOL    HW127059   0.039   5.744   6.275
 8720SOL    HW227060   0.009   5.622   6.170
 8721SOL     OW27061   6.250   7.001   0.189
 8721SOL    HW127062   6.343   0.023   0.187
 8721SOL    HW227063   6.220   6.981   0.095
 8722SOL     OW27064   3.415   1.198   0.059
 8722SOL    HW127065   3.475   1.224   0.135
 8722SOL    HW227066   3.320   1.220   0.081
 8723SOL     OW27067   5.492   0.169   2.458
 8723SOL    HW127068   5.532   0.256   2.485
 8723SOL    HW227069   5.534   0.095   2.509
 8724SOL     OW27070   5.668   0.636   4.391
 8724SOL    HW127071   5.586   0.691   4.370
 8724SOL    HW227072   5.746   0.697   4.403
 8725SOL     OW27073   0.703   6.323   5.351
 8725SOL    HW127074   0.684   6.271   5.267
 8725SOL    HW227075   0.646   6.288   5.425
 8726SOL     OW27076   6.743   0.658   0.297
 8726SOL    HW127077   6.812   0.652   0.225
 8726SOL    HW227078   6.662   0.606   0.270
 8727SOL     OW27079   5.630   6.825   6.704
 8727SOL    HW127080   5.616   6.818   6.605
 8727SOL    HW227081   5.643   6.921   6.729
 8728SOL     OW27082   5.457   1.653   2.041
 8728SOL    HW127083   5.459   1.692   2.133
 8728SOL    HW227084   5.363   1.630   2.016
 8729SOL     OW27085   3.013   5.319   5.659
 8729SOL    HW127086   3.062   5.307   5.746
 8729SOL    HW227087   3.058   5.267   5.587
 8730SOL     OW27088   5.120   4.601   3.570
 8730SOL    HW127089   5.066   4.658   3.632
 8730SOL    HW227090   5.188   4.657   3.524
 8731SOL     OW27091   0.561   3.023   2.915
 8731SOL    HW127092   0.579   2.955   2.986
 8731SOL    HW227093   0.464   3.047   2.916
 8732SOL     OW27094   5.723   4.362   2.077
 8732SOL    HW127095   5.628   4.333   2.087
 8732SOL    HW227096   5.773   4.294   2.023
 8733SOL     OW27097   0.782   5.934   0.890
 8733SOL    HW127098   0.766   5.962   0.985
 8733SOL    HW227099   0.864   5.877   0.886
 8734SOL     OW27100   6.499   3.134   2.254
 8734SOL    HW127101   6.570   3.069   2.281
 8734SOL    HW227102   6.467   3.111   2.162
 8735SOL     OW27103   1.004   3.032   5.408
 8735SOL    HW127104   1.082   2.987   5.365
 8735SOL    HW227105   1.004   3.012   5.506
 8736SOL     OW27106   0.612   5.417   2.352
 8736SOL    HW127107   0.536   5.351   2.352
 8736SOL    HW227108   0.682   5.387   2.416
 8737SOL     OW27109   2.658   6.390   6.648
 8737SOL    HW127110   2.751   6.429   6.652
 8737SOL    HW227111   2.592   6.459   6.677
 8738SOL     OW27112   2.153   5.056   3.419
 8738SOL    HW127113   2.136   5.068   3.321
 8738SOL    HW227114   2.113   5.133   3.469
 8739SOL     OW27115   5.167   4.237   5.911
 8739SOL    HW127116   5.142   4.263   6.004
 8739SOL    HW227117   5.241   4.296   5.879
 8740SOL     OW27118   3.644   1.835   2.811
 8740SOL    HW127119   3.549   1.804   2.815
 8740SOL    HW227120   3.653   1.904   2.739
 8741SOL     OW27121   2.437   0.393   2.524
 8741SOL    HW127122   2.522   0.394   2.472
 8741SOL    HW227123   2.453   0.349   2.613
 8742SOL     OW27124   3.878   0.082   2.017
 8742SOL    HW127125   3.873   7.010   1.967
 8742SOL    HW227126   3.876   0.158   1.951
 8743SOL     OW27127   1.724   1.156   1.694
 8743SOL    HW127128   1.683   1.172   1.784
 8743SOL    HW227129   1.794   1.225   1.676
 8744SOL     OW27130   4.708   2.728   0.794
 8744SOL    HW127131   4.694   2.817   0.751
 8744SOL    HW227132   4.806   2.710   0.802
 8745SOL     OW27133   6.576   2.621   6.342
 8745SOL    HW127134   6.675   2.610   6.328
 8745SOL    HW227135   6.546   2.563   6.418
 8746SOL     OW27136   4.806   5.556   4.956
 8746SOL    HW127137   4.798   5.457   4.949
 8746SOL    HW227138   4.777   5.587   5.047
 8747SOL     OW27139   6.833   1.489   2.398
 8747SOL    HW127140   6.885   1.574   2.393
 8747SOL    HW227141   6.741   1.509   2.433
 8748SOL     OW27142   1.015   2.091   4.428
 8748SOL    HW127143   1.111   2.108   4.406
 8748SOL    HW227144   0.994   2.125   4.520
 8749SOL     OW27145   1.826   0.952   5.129
 8749SOL    HW127146   1.811   0.974   5.033
 8749SOL    HW227147   1.888   1.018   5.170
 8750SOL     OW27148   3.958   3.222   5.602
 8750SOL    HW127149   4.054   3.212   5.574
 8750SOL    HW227150   3.952   3.227   5.701
 8751SOL     OW27151   6.794   0.363   1.043
 8751SOL    HW127152   6.887   0.395   1.063
 8751SOL    HW227153   6.774   0.283   1.099
 8752SOL     OW27154   4.684   3.018   6.459
 8752SOL    HW127155   4.661   3.008   6.556
 8752SOL    HW227156   4.752   3.090   6.448
 8753SOL     OW27157   2.042   3.634   6.942
 8753SOL    HW127158   2.081   3.656   0.016
 8753SOL    HW227159   2.058   3.537   6.921
 8754SOL     OW27160   2.986   4.978   5.948
 8754SOL    HW127161   3.008   4.977   5.850
 8754SOL    HW227162   3.015   4.891   5.989
 8755SOL     OW27163   1.804   1.033   1.117
 8755SOL    HW127164   1.850   1.053   1.030
 8755SOL    HW227165   1.829   1.102   1.185
 8756SOL     OW27166   1.501   2.814   3.632
 8756SOL    HW127167   1.510   2.819   3.731
 8756SOL    HW227168   1.416   2.860   3.604
 8757SOL     OW27169   5.000   5.908   6.219
 8757SOL    HW127170   4.975   5.819   6.180
 8757SOL    HW227171   4.917   5.962   6.234
 8758SOL     OW27172   4.568   6.510   3.998
 8758SOL    HW127173   4.530   6.579   4.059
 8758SOL    HW227174   4.576   6.546   3.906
 8759SOL     OW27175   6.046   2.064   0.030
 8759SOL    HW127176   6.075   1.988   0.089
 8759SOL    HW227177   5.961   2.040   6.998
 8760SOL     OW27178   2.425   1.701   4.315
 8760SOL    HW127179   2.414   1.636   4.389
 8760SOL    HW227180   2.522   1.716   4.297
 8761SOL     OW27181   6.157   1.956   1.716
 8761SOL    HW127182   6.071   1.982   1.672
 8761SOL    HW227183   6.184   1.864   1.686
 8762SOL     OW27184   1.426   6.076   4.400
 8762SOL    HW127185   1.499   6.054   4.336
 8762SOL    HW227186   1.457   6.058   4.494
 8763SOL     OW27187   6.009   0.243   5.031
 8763SOL    HW127188   5.956   0.327   5.026
 8763SOL    HW227189   6.101   0.262   5.065
 8764SOL     OW27190   4.784   6.258   5.977
 8764SOL    HW127191   4.700   6.213   6.006
 8764SOL    HW227192   4.812   6.324   6.047
 8765SOL     OW27193   5.457   1.159   5.082
 8765SOL    HW127194   5.377   1.200   5.038
 8765SOL    HW227195   5.506   1.229   5.134
 8766SOL     OW27196   4.217   4.189   5.331
 8766SOL    HW127197   4.224   4.270   5.273
 8766SOL    HW227198   4.141   4.200   5.394
 8767SOL     OW27199   3.738   6.897   3.441
 8767SOL    HW127200   3.740   6.908   3.342
 8767SOL    HW227201   3.832   6.885   3.474
 8768SOL     OW27202   0.605   1.558   1.330
 8768SOL    HW127203   0.643   1.636   1.379
 8768SOL    HW227204   0.624   1.474   1.381
 8769SOL     OW27205   0.157   1.001   2.193
 8769SOL    HW127206   0.061   1.019   2.172
 8769SOL    HW227207   0.209   1.087   2.193
 8770SOL     OW27208   5.162   4.563   2.162
 8770SOL    HW127209   5.207   4.642   2.203
 8770SOL    HW227210   5.075   4.591   2.123
 8771SOL     OW27211   0.316   2.799   6.193
 8771SOL    HW127212   0.398   2.852   6.171
 8771SOL    HW227213   0.274   2.837   6.276
 8772SOL     OW27214   4.797   0.559   5.792
 8772SOL    HW127215   4.865   0.626   5.764
 8772SOL    HW227216   4.712   0.606   5.817
 8773SOL     OW27217   5.626   2.451   3.069
 8773SOL    HW127218   5.672   2.540   3.068
 8773SOL    HW227219   5.582   2.438   3.158
 8774SOL     OW27220   0.579   0.084   6.678
 8774SOL    HW127221   0.666   0.128   6.657
 8774SOL    HW227222   0.506   0.130   6.627
 8775SOL     OW27223   5.056   1.369   5.619
 8775SOL    HW127224   5.138   1.361   5.561
 8775SOL    HW227225   5.058   1.296   5.688
 8776SOL     OW27226   4.835   3.169   1.459
 8776SOL    HW127227   4.882   3.257   1.469
 8776SOL    HW227228   4.834   3.122   1.547
 8777SOL     OW27229   0.343   3.752   3.226
 8777SOL    HW127230   0.253   3.742   3.269
 8777SOL    HW227231   0.367   3.668   3.179
 8778SOL     OW27232   4.918   3.383   5.787
 8778SOL    HW127233   4.896   3.477   5.763
 8778SOL    HW227234   4.998   3.381   5.847
 8779SOL     OW27235   3.031   5.697   2.626
 8779SOL    HW127236   3.108   5.667   2.571
 8779SOL    HW227237   2.983   5.617   2.662
 8780SOL     OW27238   0.693   6.093   3.065
 8780SOL    HW127239   0.755   6.039   3.122
 8780SOL    HW227240   0.628   6.032   3.019
 8781SOL     OW27241   4.500   6.875   2.957
 8781SOL    HW127242   4.582   6.917   2.995
 8781SOL    HW227243   4.519   6.842   2.865
 8782SOL     OW27244   6.125   1.497   1.777
 8782SOL    HW127245   6.107   1.402   1.755
 8782SOL    HW227246   6.078   1.557   1.711
 8783SOL     OW27247   6.291   3.722   3.925
 8783SOL    HW127248   6.358   3.648   3.919
 8783SOL    HW227249   6.202   3.688   3.895
 8784SOL     OW27250   6.484   6.277   0.877
 8784SOL    HW127251   6.581   6.287   0.851
 8784SOL    HW227252   6.478   6.226   0.962
 8785SOL     OW27253   0.085   5.117   6.156
 8785SOL    HW127254   0.071   5.182   6.230
 8785SOL    HW227255   0.180   5.121   6.125
 8786SOL     OW27256   3.662   1.692   2.422
 8786SOL    HW127257   3.758   1.698   2.451
 8786SOL    HW227258   3.617   1.779   2.438
 8787SOL     OW27259   3.581   0.974   2.180
 8787SOL    HW127260   3.657   0.917   2.147
 8787SOL    HW227261   3.495   0.924   2.167
 8788SOL     OW27262   6.618   1.154   5.055
 8788SOL    HW127263   6.527   1.193   5.064
 8788SOL    HW227264   6.631   1.117   4.963
 8789SOL     OW27265   6.611   4.333   5.464
 8789SOL    HW127266   6.525   4.312   5.417
 8789SOL    HW227267   6.667   4.393   5.407
 8790SOL     OW27268   6.401   1.684   6.816
 8790SOL    HW127269   6.487   1.732   6.830
 8790SOL    HW227270   6.419   1.586   6.804
 8791SOL     OW27271   4.960   6.458   4.902
 8791SOL    HW127272   5.043   6.404   4.916
 8791SOL    HW227273   4.984   6.549   4.867
 8792SOL     OW27274   3.076   4.898   2.777
 8792SOL    HW127275   2.988   4.909   2.729
 8792SOL    HW227276   3.150   4.893   2.710
 8793SOL     OW27277   0.845   4.888   3.647
 8793SOL    HW127278   0.839   4.985   3.626
 8793SOL    HW227279   0.941   4.863   3.662
 8794SOL     OW27280   6.643   0.665   3.663
 8794SOL    HW127281   6.674   0.644   3.756
 8794SOL    HW227282   6.552   0.626   3.649
 8795SOL     OW27283   1.127   5.014   4.851
 8795SOL    HW127284   1.083   4.947   4.912
 8795SOL    HW227285   1.071   5.097   4.848
 8796SOL     OW27286   6.075   3.638   3.478
 8796SOL    HW127287   6.015   3.703   3.525
 8796SOL    HW227288   6.022   3.556   3.454
 8797SOL     OW27289   6.887   0.135   4.235
 8797SOL    HW127290   6.964   0.159   4.294
 8797SOL    HW227291   6.888   0.193   4.153
 8798SOL     OW27292   4.452   6.562   5.684
 8798SOL    HW127293   4.441   6.463   5.684
 8798SOL    HW227294   4.528   6.588   5.744
 8799SOL     OW27295   2.679   4.664   2.452
 8799SOL    HW127296   2.658   4.579   2.500
 8799SOL    HW227297   2.660   4.653   2.355
 8800SOL     OW27298   5.786   5.368   5.660
 8800SOL    HW127299   5.796   5.329   5.752
 8800SOL    HW227300   5.707   5.429   5.659
 8801SOL     OW27301   5.971   1.901   5.078
 8801SOL    HW127302   5.906   1.950   5.019
 8801SOL    HW227303   6.056   1.952   5.083
 8802SOL     OW27304   1.610   5.458   5.395
 8802SOL    HW127305   1.539   5.509   5.348
 8802SOL    HW227306   1.616   5.489   5.490
 8803SOL     OW27307   6.920   0.963   0.042
 8803SOL    HW127308   6.907   0.961   0.141
 8803SOL    HW227309   6.842   0.917   7.013
 8804SOL     OW27310   1.508   6.155   1.187
 8804SOL    HW127311   1.539   6.087   1.120
 8804SOL    HW227312   1.579   6.224   1.199
 8805SOL     OW27313   3.749   5.294   3.966
 8805SOL    HW127314   3.841   5.255   3.962
 8805SOL    HW227315   3.732   5.348   3.884
 8806SOL     OW27316   2.063   5.389   0.394
 8806SOL    HW127317   2.150   5.363   0.435
 8806SOL    HW227318   2.020   5.309   0.351
 8807SOL     OW27319   4.568   1.969   6.721
 8807SOL    HW127320   4.578   1.882   6.674
 8807SOL    HW227321   4.568   1.955   6.820
 8808SOL     OW27322   0.503   2.333   0.113
 8808SOL    HW127323   0.419   2.378   0.142
 8808SOL    HW227324   0.563   2.400   0.068
 8809SOL     OW27325   2.403   4.420   3.325
 8809SOL    HW127326   2.433   4.466   3.409
 8809SOL    HW227327   2.341   4.346   3.348
 8810SOL     OW27328   5.688   1.329   5.164
 8810SOL    HW127329   5.770   1.278   5.139
 8810SOL    HW227330   5.710   1.427   5.171
 8811SOL     OW27331   3.902   0.455   2.709
 8811SOL    HW127332   3.880   0.523   2.779
 8811SOL    HW227333   4.001   0.450   2.696
 8812SOL     OW27334   3.306   0.483   6.704
 8812SOL    HW127335   3.260   0.512   6.788
 8812SOL    HW227336   3.244   0.426   6.650
 8813SOL     OW27337   1.760   4.137   2.430
 8813SOL    HW127338   1.745   4.229   2.392
 8813SOL    HW227339   1.843   4.138   2.485
 8814SOL     OW27340   5.523   6.778   0.449
 8814SOL    HW127341   5.544   6.868   0.487
 8814SOL    HW227342   5.484   6.720   0.521
 8815SOL     OW27343   5.695   0.058   1.463
 8815SOL    HW127344   5.681   0.153   1.438
 8815SOL    HW227345   5.788   0.046   1.497
 8816SOL     OW27346   0.575   6.830   6.664
 8816SOL    HW127347   0.566   6.926   6.690
 8816SOL    HW227348   0.582   6.823   6.564
 8817SOL     OW27349   0.275   3.696   4.141
 8817SOL    HW127350   0.319   3.616   4.182
 8817SOL    HW227351   0.177   3.680   4.134
 8818SOL     OW27352   0.894   6.317   3.397
 8818SOL    HW127353   0.882   6.312   3.496
 8818SOL    HW227354   0.914   6.411   3.370
 8819SOL     OW27355   5.880   4.395   5.464
 8819SOL    HW127356   5.883   4.297   5.445
 8819SOL    HW227357   5.973   4.428   5.483
 8820SOL     OW27358   2.789   1.735   4.644
 8820SOL    HW127359   2.770   1.688   4.558
 8820SOL    HW227360   2.882   1.715   4.674
 8821SOL     OW27361   1.409   5.561   0.093
 8821SOL    HW127362   1.444   5.470   0.070
 8821SOL    HW227363   1.434   5.625   0.020
 8822SOL     OW27364   0.644   0.504   3.221
 8822SOL    HW127365   0.733   0.521   3.263
 8822SOL    HW227366   0.644   0.538   3.127
 8823SOL     OW27367   2.393   0.739   2.006
 8823SOL    HW127368   2.351   0.668   1.950
 8823SOL    HW227369   2.437   0.697   2.086
 8824SOL     OW27370   1.085   0.985   1.127
 8824SOL    HW127371   1.163   1.003   1.067
 8824SOL    HW227372   1.116   0.941   1.211
 8825SOL     OW27373   0.783   0.502   1.567
 8825SOL    HW127374   0.764   0.456   1.654
 8825SOL    HW227375   0.833   0.440   1.507
 8826SOL     OW27376   0.946   3.343   1.567
 8826SOL    HW127377   0.852   3.308   1.567
 8826SOL    HW227378   0.997   3.304   1.643
 8827SOL     OW27379   3.918   0.165   2.675
 8827SOL    HW127380   3.895   0.262   2.678
 8827SOL    HW227381   3.834   0.111   2.668
 8828SOL     OW27382   3.580   4.343   6.276
 8828SOL    HW127383   3.539   4.293   6.199
 8828SOL    HW227384   3.509   4.389   6.328
 8829SOL     OW27385   6.043   1.708   1.604
 8829SOL    HW127386   6.094   1.656   1.536
 8829SOL    HW227387   5.970   1.759   1.559
 8830SOL     OW27388   1.642   1.626   2.863
 8830SOL    HW127389   1.725   1.682   2.862
 8830SOL    HW227390   1.627   1.587   2.772
 8831SOL     OW27391   6.070   3.021   2.351
 8831SOL    HW127392   6.058   2.951   2.423
 8831SOL    HW227393   6.146   2.994   2.292
 8832SOL     OW27394   0.489   6.422   4.250
 8832SOL    HW127395   0.552   6.490   4.287
 8832SOL    HW227396   0.414   6.407   4.315
 8833SOL     OW27397   3.740   3.792   0.296
 8833SOL    HW127398   3.720   3.854   0.372
 8833SOL    HW227399   3.755   3.700   0.331
 8834SOL     OW27400   6.293   3.245   4.867
 8834SOL    HW127401   6.235   3.212   4.942
 8834SOL    HW227402   6.359   3.174   4.844
 8835SOL     OW27403   5.750   1.692   6.645
 8835SOL    HW127404   5.777   1.639   6.564
 8835SOL    HW227405   5.827   1.747   6.676
 8836SOL     OW27406   5.411   2.288   0.502
 8836SOL    HW127407   5.482   2.242   0.555
 8836SOL    HW227408   5.452   2.364   0.451
 8837SOL     OW27409   6.840   0.178   1.931
 8837SOL    HW127410   6.888   0.143   2.012
 8837SOL    HW227411   6.744   0.192   1.953
 8838SOL     OW27412   0.740   4.765   2.492
 8838SOL    HW127413   0.711   4.847   2.444
 8838SOL    HW227414   0.678   4.690   2.470
 8839SOL     OW27415   3.925   5.734   2.630
 8839SOL    HW127416   3.924   5.640   2.664
 8839SOL    HW227417   3.863   5.790   2.685
 8840SOL     OW27418   5.943   0.156   1.917
 8840SOL    HW127419   6.016   0.192   1.858
 8840SOL    HW227420   5.859   0.206   1.899
 8841SOL     OW27421   4.963   1.390   2.748
 8841SOL    HW127422   5.056   1.413   2.722
 8841SOL    HW227423   4.899   1.446   2.695
 8842SOL     OW27424   3.395   3.987   3.852
 8842SOL    HW127425   3.439   4.060   3.799
 8842SOL    HW227426   3.308   4.021   3.889
 8843SOL     OW27427   1.648   3.250   4.354
 8843SOL    HW127428   1.706   3.223   4.278
 8843SOL    HW227429   1.620   3.169   4.406
 8844SOL     OW27430   0.027   1.909   4.958
 8844SOL    HW127431   0.043   1.902   5.057
 8844SOL    HW227432   6.949   1.878   4.937
 8845SOL     OW27433   2.524   4.780   0.086
 8845SOL    HW127434   2.591   4.854   0.096
 8845SOL    HW227435   2.518   4.753   7.005
 8846SOL     OW27436   5.467   4.694   4.245
 8846SOL    HW127437   5.388   4.710   4.304
 8846SOL    HW227438   5.455   4.607   4.197
 8847SOL     OW27439   1.854   0.918   2.794
 8847SOL    HW127440   1.795   0.866   2.733
 8847SOL    HW227441   1.801   0.947   2.874
 8848SOL     OW27442   3.215   2.075   2.165
 8848SOL    HW127443   3.158   2.074   2.083
 8848SOL    HW227444   3.163   2.112   2.241
 8849SOL     OW27445   3.108   4.916   3.356
 8849SOL    HW127446   3.083   5.012   3.356
 8849SOL    HW227447   3.195   4.904   3.307
 8850SOL     OW27448   2.896   1.188   0.910
 8850SOL    HW127449   2.937   1.255   0.848
 8850SOL    HW227450   2.844   1.235   0.981
 8851SOL     OW27451   1.217   4.649   2.114
 8851SOL    HW127452   1.188   4.726   2.170
 8851SOL    HW227453   1.161   4.644   2.031
 8852SOL     OW27454   5.171   3.044   6.253
 8852SOL    HW127455   5.225   3.129   6.243
 8852SOL    HW227456   5.110   3.035   6.174
 8853SOL     OW27457   3.287   0.422   4.238
 8853SOL    HW127458   3.312   0.326   4.223
 8853SOL    HW227459   3.192   0.436   4.212
 8854SOL     OW27460   2.428   0.719   6.104
 8854SOL    HW127461   2.518   0.761   6.099
 8854SOL    HW227462   2.363   0.784   6.143
 8855SOL     OW27463   6.856   6.199   0.187
 8855SOL    HW127464   6.918   6.202   0.265
 8855SOL    HW227465   6.815   6.289   0.173
 8856SOL     OW27466   6.309   0.031   5.739
 8856SOL    HW127467   6.315   0.122   5.778
 8856SOL    HW227468   6.220   7.006   5.759
 8857SOL     OW27469   6.270   1.871   3.718
 8857SOL    HW127470   6.246   1.953   3.666
 8857SOL    HW227471   6.220   1.792   3.683
 8858SOL     OW27472   2.170   3.294   5.560
 8858SOL    HW127473   2.097   3.318   5.496
 8858SOL    HW227474   2.132   3.287   5.653
 8859SOL     OW27475   0.489   7.012   5.496
 8859SOL    HW127476   0.390   0.002   5.480
 8859SOL    HW227477   0.518   0.075   5.551
 8860SOL     OW27478   1.562   3.709   2.898
 8860SOL    HW127479   1.608   3.632   2.941
 8860SOL    HW227480   1.471   3.720   2.938
 8861SOL     OW27481   3.272   2.105   6.291
 8861SOL    HW127482   3.205   2.037   6.320
 8861SOL    HW227483   3.225   2.189   6.263
 8862SOL     OW27484   6.357   1.374   3.632
 8862SOL    HW127485   6.295   1.375   3.710
 8862SOL    HW227486   6.378   1.279   3.607
 8863SOL     OW27487   1.353   5.348   4.640
 8863SOL    HW127488   1.330   5.441   4.613
 8863SOL    HW227489   1.374   5.345   4.738
 8864SOL     OW27490   2.357   3.436   6.542
 8864SOL    HW127491   2.412   3.352   6.539
 8864SOL    HW227492   2.263   3.414   6.569
 8865SOL     OW27493   3.154   1.738   4.985
 8865SOL    HW127494   3.077   1.674   4.992
 8865SOL    HW227495   3.158   1.795   5.067
 8866SOL     OW27496   5.007   7.010   4.308
 8866SOL    HW127497   5.080   6.991   4.373
 8866SOL    HW227498   4.958   6.926   4.287
 8867SOL     OW27499   5.018   2.800   2.926
 8867SOL    HW127500   5.023   2.734   2.851
 8867SOL    HW227501   4.922   2.816   2.951
 8868SOL     OW27502   5.869   4.105   0.845
 8868SOL    HW127503   5.931   4.040   0.887
 8868SOL    HW227504   5.893   4.198   0.873
 8869SOL     OW27505   4.116   5.340   3.536
 8869SOL    HW127506   4.205   5.352   3.581
 8869SOL    HW227507   4.086   5.245   3.549
 8870SOL     OW27508   3.702   6.836   0.420
 8870SOL    HW127509   3.628   6.886   0.375
 8870SOL    HW227510   3.667   6.791   0.502
 8871SOL     OW27511   3.475   1.214   3.977
 8871SOL    HW127512   3.473   1.313   3.966
 8871SOL    HW227513   3.528   1.172   3.903
 8872SOL     OW27514   1.601   4.289   4.171
 8872SOL    HW127515   1.604   4.216   4.102
 8872SOL    HW227516   1.540   4.261   4.245
 8873SOL     OW27517   6.366   6.134   1.708
 8873SOL    HW127518   6.307   6.206   1.671
 8873SOL    HW227519   6.453   6.174   1.738
 8874SOL     OW27520   2.006   0.086   1.099
 8874SOL    HW127521   1.917   0.045   1.116
 8874SOL    HW227522   2.038   0.059   1.008
 8875SOL     OW27523   1.239   2.564   4.784
 8875SOL    HW127524   1.140   2.550   4.789
 8875SOL    HW227525   1.286   2.480   4.812
 8876SOL     OW27526   0.812   0.212   4.588
 8876SOL    HW127527   0.799   0.206   4.687
 8876SOL    HW227528   0.875   0.287   4.567
 8877SOL     OW27529   3.055   0.552   4.720
 8877SOL    HW127530   3.113   0.486   4.768
 8877SOL    HW227531   3.031   0.626   4.783
 8878SOL     OW27532   0.898   5.410   0.411
 8878SOL    HW127533   0.801   5.391   0.427
 8878SOL    HW227534   0.952   5.370   0.485
 8879SOL     OW27535   6.084   5.323   1.320
 8879SOL    HW127536   5.998   5.356   1.282
 8879SOL    HW227537   6.076   5.315   1.419
 8880SOL     OW27538   0.020   5.546   4.413
 8880SOL    HW127539   0.042   5.635   4.454
 8880SOL    HW227540   7.013   5.481   4.486
 8881SOL     OW27541   5.794   0.100   3.926
 8881SOL    HW127542   5.839   0.059   4.006
 8881SOL    HW227543   5.820   0.050   3.844
 8882SOL     OW27544   5.039   1.437   0.662
 8882SOL    HW127545   5.076   1.448   0.754
 8882SOL    HW227546   5.026   1.339   0.643
 8883SOL     OW27547   0.642   1.195   5.591
 8883SOL    HW127548   0.719   1.235   5.541
 8883SOL    HW227549   0.558   1.245   5.568
 8884SOL     OW27550   5.919   6.105   6.390
 8884SOL    HW127551   5.852   6.086   6.461
 8884SOL    HW227552   5.925   6.027   6.327
 8885SOL     OW27553   6.681   3.995   1.495
 8885SOL    HW127554   6.710   3.900   1.506
 8885SOL    HW227555   6.705   4.026   1.403
 8886SOL     OW27556   3.294   6.344   5.832
 8886SOL    HW127557   3.317   6.265   5.774
 8886SOL    HW227558   3.198   6.369   5.818
 8887SOL     OW27559   3.172   1.619   1.161
 8887SOL    HW127560   3.172   1.713   1.193
 8887SOL    HW227561   3.085   1.575   1.186
 8888SOL     OW27562   0.519   1.892   1.626
 8888SOL    HW127563   0.534   1.826   1.553
 8888SOL    HW227564   0.430   1.876   1.669
 8889SOL     OW27565   5.391   6.390   5.775
 8889SOL    HW127566   5.342   6.364   5.692
 8889SOL    HW227567   5.458   6.461   5.752
 8890SOL     OW27568   6.647   5.994   4.588
 8890SOL    HW127569   6.630   6.056   4.664
 8890SOL    HW227570   6.685   6.045   4.511
 8891SOL     OW27571   6.195   3.253   6.512
 8891SOL    HW127572   6.164   3.262   6.606
 8891SOL    HW227573   6.252   3.171   6.503
 8892SOL     OW27574   3.243   6.151   3.522
 8892SOL    HW127575   3.227   6.054   3.543
 8892SOL    HW227576   3.164   6.205   3.552
 8893SOL     OW27577   1.138   0.789   1.650
 8893SOL    HW127578   1.176   0.799   1.742
 8893SOL    HW227579   1.038   0.791   1.654
 8894SOL     OW27580   3.829   3.181   5.367
 8894SOL    HW127581   3.732   3.181   5.392
 8894SOL    HW227582   3.884   3.207   5.446
 8895SOL     OW27583   6.625   1.358   2.013
 8895SOL    HW127584   6.554   1.428   2.016
 8895SOL    HW227585   6.602   1.283   2.075
 8896SOL     OW27586   1.773   3.439   4.513
 8896SOL    HW127587   1.746   3.367   4.450
 8896SOL    HW227588   1.771   3.405   4.607
 8897SOL     OW27589   1.845   1.794   2.928
 8897SOL    HW127590   1.903   1.730   2.978
 8897SOL    HW227591   1.893   1.880   2.915
 8898SOL     OW27592   6.017   3.583   4.515
 8898SOL    HW127593   6.044   3.513   4.582
 8898SOL    HW227594   6.004   3.540   4.426
 8899SOL     OW27595   1.480   4.333   0.392
 8899SOL    HW127596   1.563   4.307   0.343
 8899SOL    HW227597   1.505   4.375   0.479
 8900SOL     OW27598   5.502   3.948   3.165
 8900SOL    HW127599   5.596   3.958   3.197
 8900SOL    HW227600   5.503   3.914   3.071
 8901SOL     OW27601   2.851   1.097   4.302
 8901SOL    HW127602   2.766   1.149   4.300
 8901SOL    HW227603   2.881   1.085   4.396
 8902SOL     OW27604   3.091   6.104   7.013
 8902SOL    HW127605   3.073   6.006   7.002
 8902SOL    HW227606   3.004   6.154   7.008
 8903SOL     OW27607   1.982   0.966   4.206
 8903SOL    HW127608   1.955   0.984   4.301
 8903SOL    HW227609   1.942   0.879   4.176
 8904SOL     OW27610   6.733   5.135   3.720
 8904SOL    HW127611   6.762   5.059   3.778
 8904SOL    HW227612   6.660   5.185   3.765
 8905SOL     OW27613   2.184   4.046   4.587
 8905SOL    HW127614   2.141   3.967   4.630
 8905SOL    HW227615   2.241   4.094   4.654
 8906SOL     OW27616   6.668   6.911   6.754
 8906SOL    HW127617   6.742   6.936   6.817
 8906SOL    HW227618   6.594   6.867   6.806
 8907SOL     OW27619   3.368   1.866   4.671
 8907SOL    HW127620   3.407   1.810   4.745
 8907SOL    HW227621   3.330   1.950   4.709
 8908SOL     OW27622   1.641   2.785   7.014
 8908SOL    HW127623   1.621   2.711   0.064
 8908SOL    HW227624   1.720   2.837   0.031
 8909SOL     OW27625   2.151   0.736   4.846
 8909SOL    HW127626   2.063   0.691   4.854
 8909SOL    HW227627   2.217   0.674   4.803
 8910SOL     OW27628   2.130   3.518   6.269
 8910SOL    HW127629   2.189   3.537   6.191
 8910SOL    HW227630   2.034   3.517   6.240
 8911SOL     OW27631   3.903   2.080   4.804
 8911SOL    HW127632   3.832   2.104   4.738
 8911SOL    HW227633   3.901   2.145   4.880
 8912SOL     OW27634   4.034   1.516   6.726
 8912SOL    HW127635   4.013   1.613   6.737
 8912SOL    HW227636   3.957   1.469   6.684
 8913SOL     OW27637   4.451   5.286   0.686
 8913SOL    HW127638   4.367   5.258   0.733
 8913SOL    HW227639   4.459   5.236   0.600
 8914SOL     OW27640   4.339   0.707   5.458
 8914SOL    HW127641   4.391   0.666   5.383
 8914SOL    HW227642   4.372   0.799   5.475
 8915SOL     OW27643   1.221   2.861   3.848
 8915SOL    HW127644   1.188   2.916   3.925
 8915SOL    HW227645   1.213   2.914   3.763
 8916SOL     OW27646   0.193   3.443   2.013
 8916SOL    HW127647   0.264   3.374   1.997
 8916SOL    HW227648   0.131   3.445   1.934
 8917SOL     OW27649   5.573   4.911   6.324
 8917SOL    HW127650   5.528   4.979   6.382
 8917SOL    HW227651   5.616   4.841   6.381
 8918SOL     OW27652   6.818   5.823   0.876
 8918SOL    HW127653   6.724   5.795   0.894
 8918SOL    HW227654   6.875   5.742   0.861
 8919SOL     OW27655   4.408   3.476   0.676
 8919SOL    HW127656   4.321   3.428   0.667
 8919SOL    HW227657   4.391   3.571   0.702
 8920SOL     OW27658   6.859   6.536   6.371
 8920SOL    HW127659   6.952   6.570   6.356
 8920SOL    HW227660   6.809   6.598   6.431
 8921SOL     OW27661   2.346   1.833   3.281
 8921SOL    HW127662   2.312   1.895   3.210
 8921SOL    HW227663   2.414   1.882   3.337
 8922SOL     OW27664   2.699   4.752   1.534
 8922SOL    HW127665   2.705   4.748   1.634
 8922SOL    HW227666   2.627   4.691   1.503
 8923SOL     OW27667   1.388   3.371   6.104
 8923SOL    HW127668   1.450   3.345   6.031
 8923SOL    HW227669   1.317   3.433   6.068
 8924SOL     OW27670   3.238   5.586   6.013
 8924SOL    HW127671   3.284   5.648   6.076
 8924SOL    HW227672   3.153   5.628   5.980
 8925SOL     OW27673   0.978   0.576   1.881
 8925SOL    HW127674   0.952   0.624   1.965
 8925SOL    HW227675   1.077   0.568   1.876
 8926SOL     OW27676   5.901   3.398   0.457
 8926SOL    HW127677   5.890   3.497   0.465
 8926SOL    HW227678   5.941   3.375   0.369
 8927SOL     OW27679   1.645   2.046   5.043
 8927SOL    HW127680   1.628   2.132   5.091
 8927SOL    HW227681   1.724   2.056   4.983
 8928SOL     OW27682   6.658   0.878   5.128
 8928SOL    HW127683   6.636   0.973   5.107
 8928SOL    HW227684   6.757   0.868   5.138
 8929SOL     OW27685   0.507   3.643   3.441
 8929SOL    HW127686   0.599   3.623   3.407
 8929SOL    HW227687   0.454   3.689   3.369
 8930SOL     OW27688   1.904   4.679   4.734
 8930SOL    HW127689   1.946   4.623   4.806
 8930SOL    HW227690   1.975   4.709   4.671
 8931SOL     OW27691   3.583   2.895   0.587
 8931SOL    HW127692   3.597   2.870   0.491
 8931SOL    HW227693   3.595   2.993   0.598
 8932SOL     OW27694   5.595   0.392   6.675
 8932SOL    HW127695   5.659   0.386   6.751
 8932SOL    HW227696   5.514   0.444   6.703
 8933SOL     OW27697   1.006   1.960   5.542
 8933SOL    HW127698   0.970   1.982   5.452
 8933SOL    HW227699   1.106   1.962   5.540
 8934SOL     OW27700   2.479   5.659   4.093
 8934SOL    HW127701   2.534   5.722   4.148
 8934SOL    HW227702   2.539   5.587   4.056
 8935SOL     OW27703   5.002   4.013   1.884
 8935SOL    HW127704   4.988   4.066   1.967
 8935SOL    HW227705   4.914   3.992   1.842
 8936SOL     OW27706   0.577   3.836   0.797
 8936SOL    HW127707   0.656   3.846   0.858
 8936SOL    HW227708   0.493   3.833   0.851
 8937SOL     OW27709   0.211   0.687   4.294
 8937SOL    HW127710   0.292   0.744   4.298
 8937SOL    HW227711   0.192   0.649   4.384
 8938SOL     OW27712   6.873   1.367   0.299
 8938SOL    HW127713   6.953   1.335   0.349
 8938SOL    HW227714   6.791   1.320   0.332
 8939SOL     OW27715   6.485   2.803   4.750
 8939SOL    HW127716   6.566   2.858   4.728
 8939SOL    HW227717   6.425   2.856   4.810
 8940SOL     OW27718   5.566   1.972   0.540
 8940SOL    HW127719   5.583   1.879   0.574
 8940SOL    HW227720   5.617   2.038   0.594
 8941SOL     OW27721   4.902   2.168   1.894
 8941SOL    HW127722   4.802   2.160   1.892
 8941SOL    HW227723   4.941   2.104   1.827
 8942SOL     OW27724   0.566   5.341   4.189
 8942SOL    HW127725   0.526   5.250   4.189
 8942SOL    HW227726   0.603   5.361   4.098
 8943SOL     OW27727   4.398   4.671   6.974
 8943SOL    HW127728   4.385   4.748   6.911
 8943SOL    HW227729   4.473   4.613   6.940
 8944SOL     OW27730   4.893   4.868   4.742
 8944SOL    HW127731   4.797   4.843   4.739
 8944SOL    HW227732   4.928   4.856   4.835
 8945SOL     OW27733   0.007   2.110   4.676
 8945SOL    HW127734   0.049   2.115   4.586
 8945SOL    HW227735   0.075   2.132   4.746
 8946SOL     OW27736   3.394   0.244   4.659
 8946SOL    HW127737   3.445   0.267   4.576
 8946SOL    HW227738   3.452   0.261   4.739
 8947SOL     OW27739   1.705   3.727   6.212
 8947SOL    HW127740   1.744   3.768   6.129
 8947SOL    HW227741   1.735   3.780   6.292
 8948SOL     OW27742   6.499   5.717   3.534
 8948SOL    HW127743   6.577   5.656   3.524
 8948SOL    HW227744   6.499   5.783   3.459
 8949SOL     OW27745   3.753   5.973   0.095
 8949SOL    HW127746   3.729   5.935   0.006
 8949SOL    HW227747   3.741   6.073   0.093
 8950SOL     OW27748   4.580   3.463   1.362
 8950SOL    HW127749   4.511   3.488   1.430
 8950SOL    HW227750   4.564   3.369   1.331
 8951SOL     OW27751   2.327   1.362   4.361
 8951SOL    HW127752   2.338   1.263   4.372
 8951SOL    HW227753   2.277   1.381   4.277
 8952SOL     OW27754   2.229   5.180   2.939
 8952SOL    HW127755   2.290   5.214   2.866
 8952SOL    HW227756   2.269   5.096   2.978
 8953SOL     OW27757   1.994   4.736   1.121
 8953SOL    HW127758   2.039   4.792   1.052
 8953SOL    HW227759   2.059   4.713   1.193
 8954SOL     OW27760   0.299   6.341   3.817
 8954SOL    HW127761   0.260   6.414   3.761
 8954SOL    HW227762   0.295   6.367   3.913
 8955SOL     OW27763   6.857   2.929   2.344
 8955SOL    HW127764   6.903   2.857   2.293
 8955SOL    HW227765   6.779   2.891   2.394
 8956SOL     OW27766   0.817   0.370   6.527
 8956SOL    HW127767   0.875   0.324   6.593
 8956SOL    HW227768   0.789   0.305   6.456
 8957SOL     OW27769   1.681   5.057   1.562
 8957SOL    HW127770   1.597   5.034   1.514
 8957SOL    HW227771   1.759   5.048   1.500
 8958SOL     OW27772   1.448   2.500   5.231
 8958SOL    HW127773   1.504   2.427   5.191
 8958SOL    HW227774   1.388   2.461   5.301
 8959SOL     OW27775   1.079   3.435   2.342
 8959SOL    HW127776   1.052   3.351   2.389
 8959SOL    HW227777   1.137   3.490   2.402
 8960SOL     OW27778   6.791   4.944   3.965
 8960SOL    HW127779   6.874   4.998   3.977
 8960SOL    HW227780   6.815   4.850   3.939
 8961SOL     OW27781   3.976   1.189   3.925
 8961SOL    HW127782   4.054   1.128   3.911
 8961SOL    HW227783   3.894   1.148   3.884
 8962SOL     OW27784   0.037   6.140   1.659
 8962SOL    HW127785   0.036   6.226   1.608
 8962SOL    HW227786   0.012   6.065   1.599
 8963SOL     OW27787   3.607   6.297   4.880
 8963SOL    HW127788   3.615   6.281   4.978
 8963SOL    HW227789   3.680   6.249   4.832
 8964SOL     OW27790   4.848   3.915   3.026
 8964SOL    HW127791   4.867   3.877   3.116
 8964SOL    HW227792   4.895   3.860   2.956
 8965SOL     OW27793   3.596   5.095   0.379
 8965SOL    HW127794   3.549   5.024   0.327
 8965SOL    HW227795   3.627   5.167   0.317
 8966SOL     OW27796   6.380   4.699   6.547
 8966SOL    HW127797   6.361   4.714   6.450
 8966SOL    HW227798   6.471   4.733   6.568
 8967SOL     OW27799   4.269   0.737   2.738
 8967SOL    HW127800   4.240   0.745   2.833
 8967SOL    HW227801   4.325   0.816   2.713
 8968SOL     OW27802   2.946   4.825   1.430
 8968SOL    HW127803   2.865   4.791   1.477
 8968SOL    HW227804   2.956   4.923   1.447
 8969SOL     OW27805   0.495   0.810   3.171
 8969SOL    HW127806   0.575   0.751   3.182
 8969SOL    HW227807   0.414   0.762   3.206
 8970SOL     OW27808   1.350   2.463   6.778
 8970SOL    HW127809   1.427   2.448   6.841
 8970SOL    HW227810   1.318   2.374   6.744
 8971SOL     OW27811   4.599   6.569   1.663
 8971SOL    HW127812   4.561   6.477   1.669
 8971SOL    HW227813   4.542   6.632   1.714
 8972SOL     OW27814   5.250   4.418   0.357
 8972SOL    HW127815   5.345   4.420   0.325
 8972SOL    HW227816   5.245   4.459   0.447
 8973SOL     OW27817   0.088   2.709   2.705
 8973SOL    HW127818   0.145   2.665   2.775
 8973SOL    HW227819   0.112   2.673   2.615
 8974SOL     OW27820   2.160   3.793   3.768
 8974SOL    HW127821   2.181   3.864   3.836
 8974SOL    HW227822   2.145   3.837   3.679
 8975SOL     OW27823   0.205   0.187   0.071
 8975SOL    HW127824   0.194   0.284   0.091
 8975SOL    HW227825   0.131   0.135   0.113
 8976SOL     OW27826   6.759   6.307   0.856
 8976SOL    HW127827   6.820   6.229   0.842
 8976SOL    HW227828   6.780   6.350   0.944
 8977SOL     OW27829   6.918   4.682   6.439
 8977SOL    HW127830   6.848   4.657   6.372
 8977SOL    HW227831   6.994   4.617   6.433
 8978SOL     OW27832   5.416   6.225   4.603
 8978SOL    HW127833   5.394   6.214   4.506
 8978SOL    HW227834   5.484   6.297   4.614
 8979SOL     OW27835   1.100   5.448   6.076
 8979SOL    HW127836   1.035   5.373   6.086
 8979SOL    HW227837   1.086   5.514   6.149
 8980SOL     OW27838   5.084   1.947   5.525
 8980SOL    HW127839   5.096   1.965   5.623
 8980SOL    HW227840   5.128   1.861   5.501
 8981SOL     OW27841   5.005   2.348   5.624
 8981SOL    HW127842   5.086   2.317   5.573
 8981SOL    HW227843   5.023   2.339   5.722
 8982SOL     OW27844   6.667   2.047   1.767
 8982SOL    HW127845   6.595   2.091   1.714
 8982SOL    HW227846   6.641   1.953   1.789
 8983SOL     OW27847   1.283   5.277   1.111
 8983SOL    HW127848   1.257   5.359   1.162
 8983SOL    HW227849   1.366   5.238   1.151
 8984SOL     OW27850   5.989   0.186   4.412
 8984SOL    HW127851   6.060   0.254   4.431
 8984SOL    HW227852   5.964   0.140   4.498
 8985SOL     OW27853   4.039   2.182   1.130
 8985SOL    HW127854   3.985   2.187   1.046
 8985SOL    HW227855   4.038   2.087   1.164
 8986SOL     OW27856   5.333   4.264   2.420
 8986SOL    HW127857   5.407   4.197   2.422
 8986SOL    HW227858   5.367   4.352   2.452
 8987SOL     OW27859   3.140   0.493   1.158
 8987SOL    HW127860   3.076   0.500   1.082
 8987SOL    HW227861   3.091   0.468   1.241
 8988SOL     OW27862   1.933   5.170   0.214
 8988SOL    HW127863   1.994   5.177   0.135
 8988SOL    HW227864   1.855   5.112   0.190
 8989SOL     OW27865   4.931   3.115   2.945
 8989SOL    HW127866   5.021   3.113   2.988
 8989SOL    HW227867   4.860   3.103   3.014
 8990SOL     OW27868   2.306   6.167   1.178
 8990SOL    HW127869   2.381   6.230   1.158
 8990SOL    HW227870   2.273   6.125   1.094
 8991SOL     OW27871   2.620   2.408   1.500
 8991SOL    HW127872   2.584   2.442   1.586
 8991SOL    HW227873   2.548   2.412   1.430
 8992SOL     OW27874   0.420   3.473   0.706
 8992SOL    HW127875   0.457   3.561   0.679
 8992SOL    HW227876   0.378   3.480   0.796
 8993SOL     OW27877   5.058   2.484   3.165
 8993SOL    HW127878   4.983   2.547   3.184
 8993SOL    HW227879   5.133   2.533   3.120
 8994SOL     OW27880   2.023   4.925   4.254
 8994SOL    HW127881   2.070   5.005   4.291
 8994SOL    HW227882   2.069   4.894   4.172
 8995SOL     OW27883   1.483   2.298   5.425
 8995SOL    HW127884   1.518   2.295   5.518
 8995SOL    HW227885   1.383   2.298   5.426
 8996SOL     OW27886   0.912   3.804   1.833
 8996SOL    HW127887   0.997   3.770   1.874
 8996SOL    HW227888   0.834   3.754   1.872
 8997SOL     OW27889   5.519   1.074   6.417
 8997SOL    HW127890   5.425   1.043   6.405
 8997SOL    HW227891   5.534   1.099   6.513
 8998SOL     OW27892   0.095   1.783   5.215
 8998SOL    HW127893   0.184   1.755   5.179
 8998SOL    HW227894   0.102   1.878   5.248
 8999SOL     OW27895   4.926   0.998   6.174
 8999SOL    HW127896   4.859   1.040   6.236
 8999SOL    HW227897   4.885   0.918   6.130
 9000SOL     OW27898   2.481   4.411   6.521
 9000SOL    HW127899   2.415   4.380   6.452
 9000SOL    HW227900   2.546   4.337   6.540
 9001SOL     OW27901   1.223   4.520   2.576
 9001SOL    HW127902   1.246   4.571   2.660
 9001SOL    HW227903   1.132   4.547   2.545
 9002SOL     OW27904   6.973   5.447   5.837
 9002SOL    HW127905   6.964   5.423   5.934
 9002SOL    HW227906   6.993   5.545   5.829
 9003SOL     OW27907   6.076   2.316   0.914
 9003SOL    HW127908   6.021   2.369   0.978
 9003SOL    HW227909   6.103   2.230   0.956
 9004SOL     OW27910   5.166   6.623   2.023
 9004SOL    HW127911   5.168   6.723   2.014
 9004SOL    HW227912   5.200   6.598   2.114
 9005SOL     OW27913   5.274   2.476   3.589
 9005SOL    HW127914   5.234   2.422   3.516
 9005SOL    HW227915   5.202   2.508   3.650
 9006SOL     OW27916   0.982   5.740   0.910
 9006SOL    HW127917   1.000   5.779   1.000
 9006SOL    HW227918   1.020   5.647   0.906
 9007SOL     OW27919   3.246   5.242   3.725
 9007SOL    HW127920   3.315   5.300   3.681
 9007SOL    HW227921   3.252   5.252   3.824
 9008SOL     OW27922   6.231   4.774   2.227
 9008SOL    HW127923   6.251   4.731   2.138
 9008SOL    HW227924   6.318   4.799   2.271
 9009SOL     OW27925   2.842   6.619   1.053
 9009SOL    HW127926   2.767   6.662   1.103
 9009SOL    HW227927   2.876   6.540   1.104
 9010SOL     OW27928   1.083   6.655   4.996
 9010SOL    HW127929   0.997   6.609   5.016
 9010SOL    HW227930   1.065   6.739   4.944
 9011SOL     OW27931   3.721   2.270   1.395
 9011SOL    HW127932   3.626   2.252   1.417
 9011SOL    HW227933   3.767   2.185   1.371
 9012SOL     OW27934   1.765   5.573   0.711
 9012SOL    HW127935   1.713   5.653   0.681
 9012SOL    HW227936   1.856   5.575   0.671
 9013SOL     OW27937   6.354   5.611   4.744
 9013SOL    HW127938   6.368   5.623   4.646
 9013SOL    HW227939   6.375   5.516   4.769
 9014SOL     OW27940   1.420   1.484   0.364
 9014SOL    HW127941   1.394   1.528   0.450
 9014SOL    HW227942   1.413   1.385   0.374
 9015SOL     OW27943   6.759   1.575   6.995
 9015SOL    HW127944   6.823   1.560   6.920
 9015SOL    HW227945   6.678   1.518   6.982
 9016SOL     OW27946   6.536   6.111   5.870
 9016SOL    HW127947   6.480   6.080   5.793
 9016SOL    HW227948   6.490   6.088   5.956
 9017SOL     OW27949   5.768   2.177   3.398
 9017SOL    HW127950   5.756   2.194   3.496
 9017SOL    HW227951   5.859   2.208   3.370
 9018SOL     OW27952   3.633   1.525   5.140
 9018SOL    HW127953   3.533   1.516   5.145
 9018SOL    HW227954   3.659   1.617   5.171
 9019SOL     OW27955   1.685   0.009   0.015
 9019SOL    HW127956   1.645   6.961   0.081
 9019SOL    HW227957   1.682   6.984   6.938
 9020SOL     OW27958   1.692   3.865   2.168
 9020SOL    HW127959   1.727   3.921   2.242
 9020SOL    HW227960   1.722   3.770   2.180
 9021SOL     OW27961   6.907   6.333   4.027
 9021SOL    HW127962   6.930   6.359   3.933
 9021SOL    HW227963   6.836   6.393   4.063
 9022SOL     OW27964   2.718   0.552   0.512
 9022SOL    HW127965   2.659   0.564   0.432
 9022SOL    HW227966   2.729   0.640   0.558
 9023SOL     OW27967   4.054   3.254   3.527
 9023SOL    HW127968   3.970   3.258   3.472
 9023SOL    HW227969   4.112   3.332   3.504
 9024SOL     OW27970   1.837   6.162   6.194
 9024SOL    HW127971   1.747   6.183   6.232
 9024SOL    HW227972   1.827   6.139   6.097
 9025SOL     OW27973   6.165   5.949   1.760
 9025SOL    HW127974   6.089   5.967   1.698
 9025SOL    HW227975   6.246   5.997   1.729
 9026SOL     OW27976   3.630   3.279   4.062
 9026SOL    HW127977   3.678   3.196   4.092
 9026SOL    HW227978   3.625   3.279   3.962
 9027SOL     OW27979   2.427   1.497   3.645
 9027SOL    HW127980   2.337   1.541   3.651
 9027SOL    HW227981   2.416   1.403   3.613
 9028SOL     OW27982   2.018   4.468   6.423
 9028SOL    HW127983   2.030   4.533   6.498
 9028SOL    HW227984   1.990   4.518   6.340
 9029SOL     OW27985   3.793   5.327   4.848
 9029SOL    HW127986   3.701   5.337   4.885
 9029SOL    HW227987   3.814   5.406   4.791
 9030SOL     OW27988   1.520   0.473   2.524
 9030SOL    HW127989   1.560   0.563   2.538
 9030SOL    HW227990   1.431   0.468   2.571
 9031SOL     OW27991   3.027   5.218   6.053
 9031SOL    HW127992   3.082   5.270   5.987
 9031SOL    HW227993   3.018   5.123   6.022
 9032SOL     OW27994   3.702   3.011   1.113
 9032SOL    HW127995   3.654   2.959   1.043
 9032SOL    HW227996   3.794   3.034   1.081
 9033SOL     OW27997   2.147   3.224   4.121
 9033SOL    HW127998   2.165   3.322   4.119
 9033SOL    HW227999   2.169   3.184   4.032
 9034SOL     OW28000   2.505   6.434   5.065
 9034SOL    HW128001   2.564   6.469   5.138
 9034SOL    HW228002   2.463   6.348   5.094
 9035SOL     OW28003   0.607   6.849   5.671
 9035SOL    HW128004   0.552   6.837   5.753
 9035SOL    HW228005   0.557   6.907   5.606
 9036SOL     OW28006   2.416   2.158   5.449
 9036SOL    HW128007   2.381   2.195   5.363
 9036SOL    HW228008   2.440   2.233   5.511
 9037SOL     OW28009   1.870   3.773   6.570
 9037SOL    HW128010   1.917   3.767   6.482
 9037SOL    HW228011   1.935   3.804   6.641
 9038SOL     OW28012   5.665   0.977   6.051
 9038SOL    HW128013   5.591   1.034   6.015
 9038SOL    HW228014   5.746   1.033   6.067
 9039SOL     OW28015   2.089   4.449   5.236
 9039SOL    HW128016   2.173   4.396   5.234
 9039SOL    HW228017   2.063   4.465   5.332
 9040SOL     OW28018   2.876   0.866   3.593
 9040SOL    HW128019   2.853   0.770   3.609
 9040SOL    HW228020   2.965   0.886   3.634
 9041SOL     OW28021   0.601   1.426   2.202
 9041SOL    HW128022   0.638   1.365   2.273
 9041SOL    HW228023   0.561   1.371   2.129
 9042SOL     OW28024   2.654   6.518   3.625
 9042SOL    HW128025   2.585   6.465   3.674
 9042SOL    HW228026   2.737   6.523   3.680
 9043SOL     OW28027   2.037   1.889   5.800
 9043SOL    HW128028   1.999   1.820   5.740
 9043SOL    HW228029   2.077   1.963   5.745
 9044SOL     OW28030   6.433   0.921   0.579
 9044SOL    HW128031   6.402   1.009   0.617
 9044SOL    HW228032   6.447   0.856   0.654
 9045SOL     OW28033   3.651   1.065   2.528
 9045SOL    HW128034   3.701   1.148   2.555
 9045SOL    HW228035   3.636   1.065   2.429
 9046SOL     OW28036   3.612   3.854   5.305
 9046SOL    HW128037   3.600   3.915   5.227
 9046SOL    HW228038   3.649   3.767   5.274
 9047SOL     OW28039   1.741   4.256   5.354
 9047SOL    HW128040   1.780   4.253   5.262
 9047SOL    HW228041   1.790   4.191   5.412
 9048SOL     OW28042   0.781   3.612   5.643
 9048SOL    HW128043   0.702   3.577   5.694
 9048SOL    HW228044   0.826   3.536   5.596
 9049SOL     OW28045   4.960   6.245   6.984
 9049SOL    HW128046   4.886   6.185   6.953
 9049SOL    HW228047   4.921   6.330   0.004
 9050SOL     OW28048   1.265   5.410   6.753
 9050SOL    HW128049   1.195   5.429   6.822
 9050SOL    HW228050   1.261   5.480   6.682
 9051SOL     OW28051   4.542   6.052   1.184
 9051SOL    HW128052   4.456   6.100   1.166
 9051SOL    HW228053   4.524   5.965   1.228
 9052SOL     OW28054   2.937   4.856   4.413
 9052SOL    HW128055   2.914   4.814   4.501
 9052SOL    HW228056   2.862   4.845   4.349
 9053SOL     OW28057   2.584   2.063   4.034
 9053SOL    HW128058   2.548   2.128   4.102
 9053SOL    HW228059   2.659   2.106   3.985
 9054SOL     OW28060   1.868   0.776   2.176
 9054SOL    HW128061   1.931   0.853   2.167
 9054SOL    HW228062   1.913   0.703   2.227
 9055SOL     OW28063   0.581   4.356   3.290
 9055SOL    HW128064   0.533   4.433   3.249
 9055SOL    HW228065   0.522   4.275   3.289
 9056SOL     OW28066   4.984   0.622   1.468
 9056SOL    HW128067   5.013   0.711   1.433
 9056SOL    HW228068   5.052   0.553   1.444
 9057SOL     OW28069   6.461   4.776   5.763
 9057SOL    HW128070   6.376   4.828   5.772
 9057SOL    HW228071   6.495   4.784   5.669
 9058SOL     OW28072   2.009   1.828   4.409
 9058SOL    HW128073   1.922   1.824   4.458
 9058SOL    HW228074   2.082   1.795   4.469
 9059SOL     OW28075   6.714   0.594   2.908
 9059SOL    HW128076   6.732   0.497   2.927
 9059SOL    HW228077   6.749   0.649   2.984
 9060SOL     OW28078   6.469   3.698   2.659
 9060SOL    HW128079   6.396   3.636   2.629
 9060SOL    HW228080   6.545   3.645   2.697
 9061SOL     OW28081   4.564   5.434   3.166
 9061SOL    HW128082   4.551   5.335   3.164
 9061SOL    HW228083   4.585   5.466   3.074
 9062SOL     OW28084   1.017   5.093   1.804
 9062SOL    HW128085   0.995   5.155   1.880
 9062SOL    HW228086   1.011   4.999   1.836
 9063SOL     OW28087   3.311   0.794   2.005
 9063SOL    HW128088   3.334   0.846   1.923
 9063SOL    HW228089   3.246   0.845   2.060
 9064SOL     OW28090   6.261   4.336   4.344
 9064SOL    HW128091   6.340   4.331   4.283
 9064SOL    HW228092   6.229   4.431   4.348
 9065SOL     OW28093   2.741   6.197   5.835
 9065SOL    HW128094   2.653   6.168   5.797
 9065SOL    HW228095   2.806   6.212   5.761
 9066SOL     OW28096   6.567   0.420   6.143
 9066SOL    HW128097   6.590   0.324   6.159
 9066SOL    HW228098   6.650   0.476   6.154
 9067SOL     OW28099   6.554   6.150   4.297
 9067SOL    HW128100   6.650   6.139   4.326
 9067SOL    HW228101   6.516   6.061   4.273
 9068SOL     OW28102   3.535   6.557   5.240
 9068SOL    HW128103   3.483   6.567   5.155
 9068SOL    HW228104   3.622   6.605   5.232
 9069SOL     OW28105   4.441   1.905   2.784
 9069SOL    HW128106   4.356   1.930   2.738
 9069SOL    HW228107   4.423   1.837   2.855
 9070SOL     OW28108   1.715   2.343   6.355
 9070SOL    HW128109   1.658   2.422   6.377
 9070SOL    HW228110   1.709   2.276   6.429
 9071SOL     OW28111   4.903   0.286   6.378
 9071SOL    HW128112   4.929   0.379   6.351
 9071SOL    HW228113   4.916   0.275   6.477
 9072SOL     OW28114   5.399   6.539   1.315
 9072SOL    HW128115   5.359   6.499   1.397
 9072SOL    HW228116   5.382   6.638   1.314
 9073SOL     OW28117   3.708   6.085   1.622
 9073SOL    HW128118   3.615   6.117   1.603
 9073SOL    HW228119   3.771   6.123   1.554
 9074SOL     OW28120   1.500   0.867   1.570
 9074SOL    HW128121   1.427   0.799   1.560
 9074SOL    HW228122   1.522   0.905   1.480
 9075SOL     OW28123   0.513   0.158   2.046
 9075SOL    HW128124   0.429   0.208   2.026
 9075SOL    HW228125   0.490   0.066   2.077
 9076SOL     OW28126   4.648   1.540   3.933
 9076SOL    HW128127   4.567   1.574   3.980
 9076SOL    HW228128   4.689   1.466   3.987
 9077SOL     OW28129   4.596   1.580   6.280
 9077SOL    HW128130   4.626   1.524   6.357
 9077SOL    HW228131   4.548   1.661   6.315
 9078SOL     OW28132   5.441   5.168   6.746
 9078SOL    HW128133   5.480   5.168   6.838
 9078SOL    HW228134   5.503   5.216   6.684
 9079SOL     OW28135   1.711   6.970   4.638
 9079SOL    HW128136   1.638   6.953   4.572
 9079SOL    HW228137   1.748   6.882   4.670
 9080SOL     OW28138   6.219   3.089   0.205
 9080SOL    HW128139   6.235   3.007   0.150
 9080SOL    HW228140   6.265   3.079   0.293
 9081SOL     OW28141   3.585   1.600   1.840
 9081SOL    HW128142   3.534   1.634   1.919
 9081SOL    HW228143   3.630   1.515   1.862
 9082SOL     OW28144   2.268   6.557   5.020
 9082SOL    HW128145   2.241   6.603   5.105
 9082SOL    HW228146   2.364   6.530   5.026
 9083SOL     OW28147   4.087   3.854   6.599
 9083SOL    HW128148   4.148   3.892   6.669
 9083SOL    HW228149   4.079   3.919   6.523
 9084SOL     OW28150   1.073   2.418   6.386
 9084SOL    HW128151   1.120   2.371   6.311
 9084SOL    HW228152   1.132   2.491   6.421
 9085SOL     OW28153   2.394   5.674   1.565
 9085SOL    HW128154   2.458   5.674   1.487
 9085SOL    HW228155   2.423   5.742   1.632
 9086SOL     OW28156   5.744   4.203   1.128
 9086SOL    HW128157   5.774   4.109   1.111
 9086SOL    HW228158   5.664   4.224   1.072
 9087SOL     OW28159   5.324   2.970   2.377
 9087SOL    HW128160   5.290   3.012   2.293
 9087SOL    HW228161   5.307   3.032   2.454
 9088SOL     OW28162   6.191   6.870   1.350
 9088SOL    HW128163   6.213   6.941   1.417
 9088SOL    HW228164   6.111   6.897   1.297
 9089SOL     OW28165   3.836   5.729   5.354
 9089SOL    HW128166   3.761   5.665   5.338
 9089SOL    HW228167   3.924   5.683   5.338
 9090SOL     OW28168   5.291   0.503   3.936
 9090SOL    HW128169   5.287   0.408   3.965
 9090SOL    HW228170   5.384   0.538   3.948
 9091SOL     OW28171   2.886   3.552   0.661
 9091SOL    HW128172   2.927   3.500   0.735
 9091SOL    HW228173   2.952   3.565   0.588
 9092SOL     OW28174   0.847   1.422   7.012
 9092SOL    HW128175   0.812   1.420   6.918
 9092SOL    HW228176   0.771   1.415   0.061
 9093SOL     OW28177   0.958   6.201   6.723
 9093SOL    HW128178   1.027   6.184   6.793
 9093SOL    HW228179   0.938   6.299   6.719
 9094SOL     OW28180   1.025   5.396   2.614
 9094SOL    HW128181   1.095   5.335   2.651
 9094SOL    HW228182   0.989   5.454   2.688
 9095SOL     OW28183   5.123   4.038   6.124
 9095SOL    HW128184   5.106   4.105   6.197
 9095SOL    HW228185   5.045   3.976   6.118
 9096SOL     OW28186   5.506   3.755   2.947
 9096SOL    HW128187   5.456   3.735   2.863
 9096SOL    HW228188   5.601   3.776   2.925
 9097SOL     OW28189   0.353   3.161   6.903
 9097SOL    HW128190   0.389   3.106   6.978
 9097SOL    HW228191   0.363   3.258   6.925
 9098SOL     OW28192   3.664   2.738   6.902
 9098SOL    HW128193   3.725   2.813   6.929
 9098SOL    HW228194   3.671   2.724   6.803
 9099SOL     OW28195   3.597   3.474   0.368
 9099SOL    HW128196   3.582   3.380   0.338
 9099SOL    HW228197   3.638   3.474   0.459
 9100SOL     OW28198   0.972   3.050   2.722
 9100SOL    HW128199   1.047   3.010   2.774
 9100SOL    HW228200   0.964   3.005   2.633
 9101SOL     OW28201   2.072   2.744   2.994
 9101SOL    HW128202   2.162   2.754   2.951
 9101SOL    HW228203   2.050   2.647   3.002
 9102SOL     OW28204   3.256   6.724   1.585
 9102SOL    HW128205   3.323   6.798   1.579
 9102SOL    HW228206   3.296   6.646   1.634
 9103SOL     OW28207   6.553   3.839   6.776
 9103SOL    HW128208   6.614   3.890   6.715
 9103SOL    HW228209   6.576   3.742   6.772
 9104SOL     OW28210   4.265   6.184   2.963
 9104SOL    HW128211   4.268   6.198   3.062
 9104SOL    HW228212   4.355   6.151   2.932
 9105SOL     OW28213   1.685   0.902   0.761
 9105SOL    HW128214   1.594   0.861   0.769
 9105SOL    HW228215   1.719   0.891   0.667
 9106SOL     OW28216   6.000   4.102   6.697
 9106SOL    HW128217   5.965   4.194   6.714
 9106SOL    HW228218   6.033   4.096   6.603
 9107SOL     OW28219   3.612   0.772   5.563
 9107SOL    HW128220   3.695   0.734   5.606
 9107SOL    HW228221   3.636   0.810   5.474
 9108SOL     OW28222   5.199   3.313   5.875
 9108SOL    HW128223   5.292   3.339   5.903
 9108SOL    HW228224   5.204   3.242   5.805
 9109SOL     OW28225   1.409   2.623   2.782
 9109SOL    HW128226   1.432   2.612   2.879
 9109SOL    HW228227   1.462   2.558   2.728
 9110SOL     OW28228   2.111   4.317   4.134
 9110SOL    HW128229   2.106   4.400   4.078
 9110SOL    HW228230   2.205   4.284   4.136
 9111SOL     OW28231   4.103   3.238   6.987
 9111SOL    HW128232   4.025   3.278   0.020
 9111SOL    HW228233   4.114   3.282   6.898
 9112SOL     OW28234   0.710   4.443   4.981
 9112SOL    HW128235   0.790   4.412   4.929
 9112SOL    HW228236   0.632   4.383   4.961
 9113SOL     OW28237   4.401   6.728   0.617
 9113SOL    HW128238   4.349   6.762   0.539
 9113SOL    HW228239   4.416   6.630   0.607
 9114SOL     OW28240   1.397   4.934   1.100
 9114SOL    HW128241   1.433   4.842   1.117
 9114SOL    HW228242   1.451   5.001   1.151
 9115SOL     OW28243   1.071   5.482   5.793
 9115SOL    HW128244   0.977   5.452   5.810
 9115SOL    HW228245   1.119   5.491   5.880
 9116SOL     OW28246   6.619   1.786   0.359
 9116SOL    HW128247   6.553   1.731   0.309
 9116SOL    HW228248   6.711   1.751   0.343
 9117SOL     OW28249   5.708   3.039   0.613
 9117SOL    HW128250   5.789   2.982   0.630
 9117SOL    HW228251   5.671   3.018   0.523
 9118SOL     OW28252   6.429   5.497   0.339
 9118SOL    HW128253   6.399   5.469   0.248
 9118SOL    HW228254   6.419   5.596   0.348
 9119SOL     OW28255   5.423   1.079   1.569
 9119SOL    HW128256   5.346   1.058   1.508
 9119SOL    HW228257   5.408   1.167   1.613
 9120SOL     OW28258   5.962   2.484   5.778
 9120SOL    HW128259   5.939   2.436   5.863
 9120SOL    HW228260   5.894   2.555   5.761
 9121SOL     OW28261   2.873   2.327   5.989
 9121SOL    HW128262   2.811   2.310   6.066
 9121SOL    HW228263   2.936   2.401   6.013
 9122SOL     OW28264   2.120   4.295   1.850
 9122SOL    HW128265   2.180   4.374   1.837
 9122SOL    HW228266   2.157   4.235   1.921
 9123SOL     OW28267   3.470   6.855   4.255
 9123SOL    HW128268   3.434   6.771   4.294
 9123SOL    HW228269   3.531   6.899   4.321
 9124SOL     OW28270   5.436   6.737   6.125
 9124SOL    HW128271   5.360   6.719   6.063
 9124SOL    HW228272   5.521   6.706   6.083
 9125SOL     OW28273   4.929   4.229   2.075
 9125SOL    HW128274   4.927   4.299   2.003
 9125SOL    HW228275   5.007   4.245   2.135
 9126SOL     OW28276   5.768   2.570   1.285
 9126SOL    HW128277   5.782   2.663   1.319
 9126SOL    HW228278   5.680   2.535   1.317
 9127SOL     OW28279   6.696   1.480   5.976
 9127SOL    HW128280   6.733   1.529   6.055
 9127SOL    HW228281   6.756   1.404   5.954
 9128SOL     OW28282   4.774   1.788   4.969
 9128SOL    HW128283   4.748   1.728   4.893
 9128SOL    HW228284   4.731   1.877   4.957
 9129SOL     OW28285   0.326   2.875   0.828
 9129SOL    HW128286   0.277   2.890   0.914
 9129SOL    HW228287   0.413   2.924   0.830
 9130SOL     OW28288   0.149   3.518   0.372
 9130SOL    HW128289   0.164   3.617   0.374
 9130SOL    HW228290   0.065   3.496   0.421
 9131SOL     OW28291   0.054   2.848   5.647
 9131SOL    HW128292   0.127   2.807   5.701
 9131SOL    HW228293   0.076   2.943   5.627
 9132SOL     OW28294   0.384   4.836   4.345
 9132SOL    HW128295   0.405   4.782   4.427
 9132SOL    HW228296   0.305   4.797   4.299
 9133SOL     OW28297   3.913   5.886   1.689
 9133SOL    HW128298   3.835   5.948   1.697
 9133SOL    HW228299   3.974   5.920   1.617
 9134SOL     OW28300   4.700   5.962   0.218
 9134SOL    HW128301   4.644   6.008   0.287
 9134SOL    HW228302   4.652   5.881   0.185
 9135SOL     OW28303   6.299   6.622   1.666
 9135SOL    HW128304   6.362   6.549   1.691
 9135SOL    HW228305   6.349   6.708   1.658
 9136SOL     OW28306   5.371   5.669   6.213
 9136SOL    HW128307   5.286   5.710   6.246
 9136SOL    HW228308   5.425   5.738   6.166
 9137SOL     OW28309   5.175   2.093   1.276
 9137SOL    HW128310   5.153   2.005   1.234
 9137SOL    HW228311   5.098   2.123   1.332
 9138SOL     OW28312   0.429   6.060   5.668
 9138SOL    HW128313   0.340   6.105   5.653
 9138SOL    HW228314   0.436   6.030   5.763
 9139SOL     OW28315   2.218   1.788   4.582
 9139SOL    HW128316   2.245   1.803   4.677
 9139SOL    HW228317   2.265   1.706   4.547
 9140SOL     OW28318   6.304   3.293   3.194
 9140SOL    HW128319   6.331   3.242   3.113
 9140SOL    HW228320   6.230   3.357   3.170
 9141SOL     OW28321   5.933   0.563   6.917
 9141SOL    HW128322   5.916   0.621   6.837
 9141SOL    HW228323   5.931   0.620   7.000
 9142SOL     OW28324   0.372   2.154   1.486
 9142SOL    HW128325   0.344   2.239   1.531
 9142SOL    HW228326   0.411   2.092   1.554
 9143SOL     OW28327   6.182   3.266   0.990
 9143SOL    HW128328   6.111   3.207   0.952
 9143SOL    HW228329   6.153   3.302   1.079
 9144SOL     OW28330   2.395   5.132   5.592
 9144SOL    HW128331   2.414   5.035   5.575
 9144SOL    HW228332   2.322   5.163   5.532
 9145SOL     OW28333   0.024   5.613   0.379
 9145SOL    HW128334   0.109   5.605   0.430
 9145SOL    HW228335   7.008   5.522   0.352
 9146SOL     OW28336   5.196   2.996   2.960
 9146SOL    HW128337   5.202   3.001   3.060
 9146SOL    HW228338   5.133   2.923   2.934
 9147SOL     OW28339   6.155   0.674   4.565
 9147SOL    HW128340   6.249   0.659   4.536
 9147SOL    HW228341   6.140   0.633   4.655
 9148SOL     OW28342   4.878   6.379   0.788
 9148SOL    HW128343   4.973   6.385   0.815
 9148SOL    HW228344   4.820   6.419   0.859
 9149SOL     OW28345   6.034   3.342   3.445
 9149SOL    HW128346   6.063   3.249   3.423
 9149SOL    HW228347   6.072   3.368   3.534
 9150SOL     OW28348   3.016   4.907   1.803
 9150SOL    HW128349   3.024   4.823   1.750
 9150SOL    HW228350   2.940   4.898   1.868
 9151SOL     OW28351   1.752   4.641   3.654
 9151SOL    HW128352   1.745   4.556   3.602
 9151SOL    HW228353   1.841   4.683   3.638
 9152SOL     OW28354   2.388   4.392   4.692
 9152SOL    HW128355   2.340   4.436   4.767
 9152SOL    HW228356   2.408   4.297   4.717
 9153SOL     OW28357   1.139   3.580   0.480
 9153SOL    HW128358   1.060   3.630   0.515
 9153SOL    HW228359   1.117   3.541   0.391
 9154SOL     OW28360   4.516   4.241   6.162
 9154SOL    HW128361   4.570   4.229   6.246
 9154SOL    HW228362   4.563   4.305   6.102
 9155SOL     OW28363   1.771   3.935   1.889
 9155SOL    HW128364   1.720   4.019   1.869
 9155SOL    HW228365   1.761   3.912   1.986
 9156SOL     OW28366   1.174   2.276   1.190
 9156SOL    HW128367   1.218   2.285   1.279
 9156SOL    HW228368   1.180   2.181   1.159
 9157SOL     OW28369   6.784   4.553   5.357
 9157SOL    HW128370   6.814   4.540   5.262
 9157SOL    HW228371   6.843   4.620   5.401
 9158SOL     OW28372   5.644   3.252   4.608
 9158SOL    HW128373   5.720   3.188   4.615
 9158SOL    HW228374   5.558   3.203   4.620
 9159SOL     OW28375   2.001   0.568   2.291
 9159SOL    HW128376   2.067   0.540   2.361
 9159SOL    HW228377   1.959   0.488   2.250
 9160SOL     OW28378   5.975   0.022   5.221
 9160SOL    HW128379   6.024   6.964   5.175
 9160SOL    HW228380   5.979   0.105   5.166
 9161SOL     OW28381   4.843   3.981   4.965
 9161SOL    HW128382   4.813   3.992   4.870
 9161SOL    HW228383   4.771   3.936   5.018
 9162SOL     OW28384   4.434   1.000   4.358
 9162SOL    HW128385   4.369   1.058   4.407
 9162SOL    HW228386   4.413   0.904   4.376
 9163SOL     OW28387   1.775   2.737   4.456
 9163SOL    HW128388   1.776   2.753   4.357
 9163SOL    HW228389   1.864   2.700   4.484
 9164SOL     OW28390   2.608   0.419   5.973
 9164SOL    HW128391   2.544   0.474   5.919
 9164SOL    HW228392   2.631   0.335   5.923
 9165SOL     OW28393   6.115   1.950   5.959
 9165SOL    HW128394   6.170   1.963   6.041
 9165SOL    HW228395   6.120   2.031   5.902
 9166SOL     OW28396   4.056   6.061   1.520
 9166SOL    HW128397   4.033   5.978   1.469
 9166SOL    HW228398   3.989   6.133   1.498
 9167SOL     OW28399   2.577   2.302   6.607
 9167SOL    HW128400   2.587   2.280   6.704
 9167SOL    HW228401   2.650   2.363   6.578
 9168SOL     OW28402   0.315   0.333   6.791
 9168SOL    HW128403   0.322   0.325   6.891
 9168SOL    HW228404   0.250   0.406   6.769
 9169SOL     OW28405   6.027   0.581   5.295
 9169SOL    HW128406   6.024   0.621   5.386
 9169SOL    HW228407   6.097   0.627   5.240
 9170SOL     OW28408   1.471   6.083   6.939
 9170SOL    HW128409   1.442   6.031   6.859
 9170SOL    HW228410   1.440   6.037   0.007
 9171SOL     OW28411   4.476   4.976   0.981
 9171SOL    HW128412   4.499   5.070   0.956
 9171SOL    HW228413   4.391   4.975   1.033
 9172SOL     OW28414   4.355   1.003   2.649
 9172SOL    HW128415   4.259   1.010   2.621
 9172SOL    HW228416   4.412   0.980   2.570
 9173SOL     OW28417   6.703   3.408   5.169
 9173SOL    HW128418   6.706   3.309   5.178
 9173SOL    HW228419   6.611   3.441   5.189
 9174SOL     OW28420   5.678   3.960   1.930
 9174SOL    HW128421   5.625   3.923   1.854
 9174SOL    HW228422   5.723   4.044   1.901
 9175SOL     OW28423   0.539   0.250   5.297
 9175SOL    HW128424   0.533   0.349   5.288
 9175SOL    HW228425   0.627   0.225   5.338
 9176SOL     OW28426   2.625   1.266   4.226
 9176SOL    HW128427   2.664   1.307   4.144
 9176SOL    HW228428   2.532   1.301   4.240
 9177SOL     OW28429   0.518   5.002   5.042
 9177SOL    HW128430   0.591   4.999   4.974
 9177SOL    HW228431   0.483   5.095   5.049
 9178SOL     OW28432   1.509   4.764   0.435
 9178SOL    HW128433   1.436   4.815   0.480
 9178SOL    HW228434   1.494   4.666   0.446
 9179SOL     OW28435   2.734   4.805   4.256
 9179SOL    HW128436   2.797   4.764   4.190
 9179SOL    HW228437   2.654   4.841   4.209
 9180SOL     OW28438   6.425   2.527   3.439
 9180SOL    HW128439   6.456   2.605   3.493
 9180SOL    HW228440   6.499   2.496   3.380
 9181SOL     OW28441   4.267   1.989   5.252
 9181SOL    HW128442   4.227   2.072   5.213
 9181SOL    HW228443   4.321   1.942   5.182
 9182SOL     OW28444   2.993   6.461   1.456
 9182SOL    HW128445   2.977   6.555   1.488
 9182SOL    HW228446   3.042   6.410   1.527
 9183SOL     OW28447   4.821   5.673   0.281
 9183SOL    HW128448   4.870   5.588   0.299
 9183SOL    HW228449   4.790   5.673   0.186
 9184SOL     OW28450   4.527   1.918   0.479
 9184SOL    HW128451   4.491   1.879   0.395
 9184SOL    HW228452   4.613   1.873   0.502
 9185SOL     OW28453   4.649   6.944   4.608
 9185SOL    HW128454   4.744   6.968   4.626
 9185SOL    HW228455   4.620   6.987   4.522
 9186SOL     OW28456   5.508   5.951   4.649
 9186SOL    HW128457   5.573   5.951   4.725
 9186SOL    HW228458   5.484   6.046   4.626
 9187SOL     OW28459   2.470   1.990   0.482
 9187SOL    HW128460   2.400   2.042   0.531
 9187SOL    HW228461   2.556   1.994   0.533
 9188SOL     OW28462   1.336   6.608   0.270
 9188SOL    HW128463   1.324   6.690   0.326
 9188SOL    HW228464   1.249   6.559   0.265
 9189SOL     OW28465   3.099   6.023   1.775
 9189SOL    HW128466   3.186   6.001   1.820
 9189SOL    HW228467   3.116   6.059   1.684
 9190SOL     OW28468   2.756   4.595   5.835
 9190SOL    HW128469   2.702   4.511   5.837
 9190SOL    HW228470   2.737   4.649   5.917
 9191SOL     OW28471   6.452   2.291   6.540
 9191SOL    HW128472   6.521   2.284   6.611
 9191SOL    HW228473   6.374   2.233   6.563
 9192SOL     OW28474   1.379   2.705   5.845
 9192SOL    HW128475   1.378   2.804   5.862
 9192SOL    HW228476   1.370   2.687   5.747
 9193SOL     OW28477   3.449   4.087   6.418
 9193SOL    HW128478   3.357   4.079   6.380
 9193SOL    HW228479   3.444   4.082   6.518
 9194SOL     OW28480   3.429   0.952   3.468
 9194SOL    HW128481   3.526   0.943   3.446
 9194SOL    HW228482   3.400   0.876   3.526
 9195SOL     OW28483   1.287   1.775   3.149
 9195SOL    HW128484   1.379   1.740   3.165
 9195SOL    HW228485   1.222   1.723   3.205
 9196SOL     OW28486   5.312   0.378   2.622
 9196SOL    HW128487   5.291   0.449   2.688
 9196SOL    HW228488   5.412   0.372   2.610
 9197SOL     OW28489   1.724   4.860   1.226
 9197SOL    HW128490   1.815   4.841   1.190
 9197SOL    HW228491   1.705   4.799   1.303
 9198SOL     OW28492   5.999   4.578   6.860
 9198SOL    HW128493   5.955   4.640   6.925
 9198SOL    HW228494   6.030   4.629   6.780
 9199SOL     OW28495   1.090   3.699   5.449
 9199SOL    HW128496   1.148   3.658   5.520
 9199SOL    HW228497   1.085   3.798   5.463
 9200SOL     OW28498   2.906   6.545   6.985
 9200SOL    HW128499   2.952   6.627   0.003
 9200SOL    HW228500   2.896   6.550   6.885
 9201SOL     OW28501   6.835   3.281   0.271
 9201SOL    HW128502   6.931   3.255   0.283
 9201SOL    HW228503   6.830   3.357   0.206
 9202SOL     OW28504   0.917   6.469   2.490
 9202SOL    HW128505   0.870   6.487   2.576
 9202SOL    HW228506   0.938   6.556   2.445
 9203SOL     OW28507   0.289   3.942   5.478
 9203SOL    HW128508   0.211   4.000   5.455
 9203SOL    HW228509   0.326   3.971   5.566
 9204SOL     OW28510   5.405   3.149   6.124
 9204SOL    HW128511   5.463   3.157   6.043
 9204SOL    HW228512   5.451   3.192   6.202
 9205SOL     OW28513   5.355   5.676   3.475
 9205SOL    HW128514   5.295   5.603   3.506
 9205SOL    HW228515   5.450   5.643   3.475
 9206SOL     OW28516   3.748   5.208   3.380
 9206SOL    HW128517   3.657   5.198   3.339
 9206SOL    HW228518   3.740   5.201   3.479
 9207SOL     OW28519   4.823   4.043   5.708
 9207SOL    HW128520   4.908   4.027   5.658
 9207SOL    HW228521   4.827   3.996   5.796
 9208SOL     OW28522   5.656   4.909   3.732
 9208SOL    HW128523   5.727   4.909   3.803
 9208SOL    HW228524   5.613   4.818   3.728
 9209SOL     OW28525   4.242   0.418   0.330
 9209SOL    HW128526   4.272   0.482   0.260
 9209SOL    HW228527   4.228   0.328   0.290
 9210SOL     OW28528   0.270   0.854   2.367
 9210SOL    HW128529   0.329   0.799   2.307
 9210SOL    HW228530   0.219   0.920   2.311
 9211SOL     OW28531   0.478   2.953   5.692
 9211SOL    HW128532   0.407   2.884   5.708
 9211SOL    HW228533   0.447   3.017   5.622
 9212SOL     OW28534   4.412   6.060   4.478
 9212SOL    HW128535   4.386   6.112   4.397
 9212SOL    HW228536   4.330   6.019   4.518
 9213SOL     OW28537   5.810   2.820   5.300
 9213SOL    HW128538   5.878   2.799   5.229
 9213SOL    HW228539   5.806   2.919   5.314
 9214SOL     OW28540   0.077   3.771   6.210
 9214SOL    HW128541   0.165   3.745   6.171
 9214SOL    HW228542   0.047   3.701   6.274
 9215SOL     OW28543   0.845   2.778   1.592
 9215SOL    HW128544   0.811   2.864   1.554
 9215SOL    HW228545   0.837   2.705   1.524
 9216SOL     OW28546   3.429   0.231   2.109
 9216SOL    HW128547   3.349   0.173   2.092
 9216SOL    HW228548   3.470   0.206   2.197
 9217SOL     OW28549   0.151   2.871   6.421
 9217SOL    HW128550   0.085   2.842   6.489
 9217SOL    HW228551   0.118   2.953   6.375
 9218SOL     OW28552   2.043   0.711   6.714
 9218SOL    HW128553   2.111   0.664   6.659
 9218SOL    HW228554   2.008   0.648   6.784
 9219SOL     OW28555   5.687   3.526   0.764
 9219SOL    HW128556   5.595   3.562   0.776
 9219SOL    HW228557   5.684   3.443   0.708
 9220SOL     OW28558   1.510   6.385   1.508
 9220SOL    HW128559   1.579   6.317   1.485
 9220SOL    HW228560   1.477   6.430   1.425
 9221SOL     OW28561   2.988   0.762   3.212
 9221SOL    HW128562   3.086   0.747   3.201
 9221SOL    HW228563   2.951   0.695   3.277
 9222SOL     OW28564   2.523   6.408   6.145
 9222SOL    HW128565   2.508   6.464   6.226
 9222SOL    HW228566   2.498   6.313   6.165
 9223SOL     OW28567   0.883   2.214   3.655
 9223SOL    HW128568   0.915   2.120   3.644
 9223SOL    HW228569   0.812   2.234   3.587
 9224SOL     OW28570   1.234   5.339   4.290
 9224SOL    HW128571   1.318   5.285   4.281
 9224SOL    HW228572   1.160   5.280   4.324
 9225SOL     OW28573   2.925   6.709   6.460
 9225SOL    HW128574   2.900   6.668   6.373
 9225SOL    HW228575   2.925   6.809   6.451
 9226SOL     OW28576   6.379   0.220   1.723
 9226SOL    HW128577   6.465   0.269   1.709
 9226SOL    HW228578   6.304   0.285   1.731
 9227SOL     OW28579   1.703   5.999   0.549
 9227SOL    HW128580   1.661   5.909   0.535
 9227SOL    HW228581   1.756   5.999   0.634
 9228SOL     OW28582   1.531   2.299   6.071
 9228SOL    HW128583   1.589   2.304   6.153
 9228SOL    HW228584   1.543   2.382   6.017
 9229SOL     OW28585   1.129   5.209   5.418
 9229SOL    HW128586   1.156   5.160   5.335
 9229SOL    HW228587   1.192   5.285   5.433
 9230SOL     OW28588   4.901   2.256   3.540
 9230SOL    HW128589   4.986   2.286   3.498
 9230SOL    HW228590   4.854   2.193   3.478
 9231SOL     OW28591   0.637   3.701   4.495
 9231SOL    HW128592   0.669   3.614   4.459
 9231SOL    HW228593   0.561   3.735   4.439
 9232SOL     OW28594   3.946   5.262   0.427
 9232SOL    HW128595   3.920   5.180   0.478
 9232SOL    HW228596   3.906   5.343   0.471
 9233SOL     OW28597   5.381   5.266   1.977
 9233SOL    HW128598   5.297   5.246   1.926
 9233SOL    HW228599   5.371   5.353   2.025
 9234SOL     OW28600   3.433   6.401   6.262
 9234SOL    HW128601   3.423   6.404   6.362
 9234SOL    HW228602   3.529   6.395   6.238
 9235SOL     OW28603   1.702   3.417   2.989
 9235SOL    HW128604   1.765   3.345   3.018
 9235SOL    HW228605   1.629   3.426   3.056
 9236SOL     OW28606   1.821   4.589   5.935
 9236SOL    HW128607   1.821   4.688   5.946
 9236SOL    HW228608   1.879   4.564   5.857
 9237SOL     OW28609   1.853   5.645   4.630
 9237SOL    HW128610   1.901   5.631   4.543
 9237SOL    HW228611   1.900   5.716   4.682
 9238SOL     OW28612   3.318   1.664   0.191
 9238SOL    HW128613   3.306   1.574   0.231
 9238SOL    HW228614   3.326   1.732   0.263
 9239SOL     OW28615   6.421   4.002   0.197
 9239SOL    HW128616   6.346   3.986   0.132
 9239SOL    HW228617   6.467   4.087   0.173
 9240SOL     OW28618   5.039   1.311   1.465
 9240SOL    HW128619   5.002   1.309   1.557
 9240SOL    HW228620   4.976   1.358   1.403
 9241SOL     OW28621   0.789   5.474   5.800
 9241SOL    HW128622   0.749   5.417   5.727
 9241SOL    HW228623   0.751   5.566   5.795
 9242SOL     OW28624   1.243   5.126   6.722
 9242SOL    HW128625   1.230   5.093   6.628
 9242SOL    HW228626   1.278   5.220   6.720
 9243SOL     OW28627   6.421   6.701   1.288
 9243SOL    HW128628   6.328   6.733   1.307
 9243SOL    HW228629   6.420   6.602   1.272
 9244SOL     OW28630   4.460   5.481   6.289
 9244SOL    HW128631   4.428   5.413   6.223
 9244SOL    HW228632   4.457   5.572   6.248
 9245SOL     OW28633   1.827   5.248   3.121
 9245SOL    HW128634   1.904   5.185   3.130
 9245SOL    HW228635   1.742   5.200   3.144
 9246SOL     OW28636   0.040   5.766   2.632
 9246SOL    HW128637   0.127   5.809   2.655
 9246SOL    HW228638   6.986   5.790   2.700
 9247SOL     OW28639   1.115   6.763   2.783
 9247SOL    HW128640   1.169   6.846   2.793
 9247SOL    HW228641   1.171   6.692   2.741
 9248SOL     OW28642   2.200   2.070   4.346
 9248SOL    HW128643   2.166   1.986   4.388
 9248SOL    HW228644   2.208   2.056   4.247
 9249SOL     OW28645   3.981   3.789   0.159
 9249SOL    HW128646   3.897   3.827   0.199
 9249SOL    HW228647   4.008   3.844   0.080
 9250SOL     OW28648   5.473   3.385   3.822
 9250SOL    HW128649   5.412   3.459   3.850
 9250SOL    HW228650   5.493   3.326   3.900
 9251SOL     OW28651   4.121   1.841   2.393
 9251SOL    HW128652   4.195   1.798   2.341
 9251SOL    HW228653   4.104   1.933   2.357
 9252SOL     OW28654   5.637   0.314   4.608
 9252SOL    HW128655   5.635   0.349   4.514
 9252SOL    HW228656   5.706   0.364   4.661
 9253SOL     OW28657   5.618   6.466   5.239
 9253SOL    HW128658   5.611   6.549   5.294
 9253SOL    HW228659   5.674   6.483   5.158
 9254SOL     OW28660   6.191   4.720   2.852
 9254SOL    HW128661   6.137   4.792   2.896
 9254SOL    HW228662   6.272   4.760   2.810
 9255SOL     OW28663   4.520   3.866   0.074
 9255SOL    HW128664   4.421   3.870   0.089
 9255SOL    HW228665   4.567   3.869   0.163
 9256SOL     OW28666   4.298   6.945   2.770
 9256SOL    HW128667   4.300   6.871   2.704
 9256SOL    HW228668   4.344   6.917   2.854
 9257SOL     OW28669   6.926   3.730   2.902
 9257SOL    HW128670   6.978   3.786   2.838
 9257SOL    HW228671   6.989   3.684   2.965
 9258SOL     OW28672   3.293   3.367   3.398
 9258SOL    HW128673   3.392   3.366   3.415
 9258SOL    HW228674   3.246   3.411   3.475
 9259SOL     OW28675   1.605   2.422   6.973
 9259SOL    HW128676   1.679   2.449   6.911
 9259SOL    HW228677   1.643   2.372   0.036
 9260SOL     OW28678   4.820   2.140   4.860
 9260SOL    HW128679   4.830   2.222   4.804
 9260SOL    HW228680   4.791   2.063   4.803
 9261SOL     OW28681   4.743   0.836   6.995
 9261SOL    HW128682   4.775   0.912   6.939
 9261SOL    HW228683   4.781   0.844   0.073
 9262SOL     OW28684   0.204   3.743   5.809
 9262SOL    HW128685   0.210   3.690   5.893
 9262SOL    HW228686   0.109   3.747   5.778
 9263SOL     OW28687   5.141   6.248   1.713
 9263SOL    HW128688   5.180   6.268   1.803
 9263SOL    HW228689   5.083   6.167   1.719
 9264SOL     OW28690   5.284   4.486   0.703
 9264SOL    HW128691   5.344   4.515   0.777
 9264SOL    HW228692   5.284   4.555   0.631
 9265SOL     OW28693   3.511   1.997   0.020
 9265SOL    HW128694   3.531   1.989   0.118
 9265SOL    HW228695   3.561   2.075   6.997
 9266SOL     OW28696   2.337   0.088   1.566
 9266SOL    HW128697   2.345   7.003   1.570
 9266SOL    HW228698   2.252   0.115   1.612
 9267SOL     OW28699   0.134   3.071   4.958
 9267SOL    HW128700   0.191   3.150   4.981
 9267SOL    HW228701   0.089   3.038   5.040
 9268SOL     OW28702   0.887   5.345   1.659
 9268SOL    HW128703   0.822   5.354   1.735
 9268SOL    HW228704   0.933   5.256   1.665
 9269SOL     OW28705   2.866   1.429   6.068
 9269SOL    HW128706   2.952   1.441   6.019
 9269SOL    HW228707   2.826   1.341   6.044
 9270SOL     OW28708   4.409   6.517   6.067
 9270SOL    HW128709   4.390   6.424   6.037
 9270SOL    HW228710   4.322   6.566   6.080
 9271SOL     OW28711   0.427   0.475   0.073
 9271SOL    HW128712   0.386   0.538   0.007
 9271SOL    HW228713   0.520   0.505   0.095
 9272SOL     OW28714   1.504   5.443   4.151
 9272SOL    HW128715   1.477   5.379   4.224
 9272SOL    HW228716   1.598   5.472   4.165
 9273SOL     OW28717   6.093   6.338   3.547
 9273SOL    HW128718   6.146   6.261   3.583
 9273SOL    HW228719   6.007   6.346   3.597
 9274SOL     OW28720   6.405   2.739   0.368
 9274SOL    HW128721   6.472   2.813   0.358
 9274SOL    HW228722   6.349   2.756   0.449
 9275SOL     OW28723   0.125   1.371   6.648
 9275SOL    HW128724   0.079   1.399   6.732
 9275SOL    HW228725   0.180   1.447   6.614
 9276SOL     OW28726   2.059   3.860   2.376
 9276SOL    HW128727   2.055   3.760   2.378
 9276SOL    HW228728   2.054   3.892   2.281
 9277SOL     OW28729   5.195   3.245   0.055
 9277SOL    HW128730   5.251   3.239   0.137
 9277SOL    HW228731   5.115   3.301   0.072
 9278SOL     OW28732   1.684   0.502   5.819
 9278SOL    HW128733   1.595   0.513   5.864
 9278SOL    HW228734   1.696   0.407   5.791
 9279SOL     OW28735   4.954   1.044   1.623
 9279SOL    HW128736   5.029   1.111   1.626
 9279SOL    HW228737   4.926   1.022   1.716
 9280SOL     OW28738   1.900   2.067   3.538
 9280SOL    HW128739   1.950   2.085   3.454
 9280SOL    HW228740   1.960   2.024   3.605
 9281SOL     OW28741   2.706   4.770   0.755
 9281SOL    HW128742   2.662   4.680   0.757
 9281SOL    HW228743   2.776   4.774   0.826
 9282SOL     OW28744   4.645   1.128   4.227
 9282SOL    HW128745   4.570   1.091   4.282
 9282SOL    HW228746   4.611   1.151   4.136
 9283SOL     OW28747   5.518   0.545   3.678
 9283SOL    HW128748   5.528   0.540   3.777
 9283SOL    HW228749   5.563   0.628   3.644
 9284SOL     OW28750   3.610   3.465   5.999
 9284SOL    HW128751   3.533   3.527   5.987
 9284SOL    HW228752   3.610   3.430   6.093
 9285SOL     OW28753   4.973   2.949   1.353
 9285SOL    HW128754   4.929   2.949   1.263
 9285SOL    HW228755   4.933   3.022   1.409
 9286SOL     OW28756   5.187   6.160   0.385
 9286SOL    HW128757   5.274   6.111   0.386
 9286SOL    HW228758   5.202   6.253   0.352
 9287SOL     OW28759   3.295   5.311   6.598
 9287SOL    HW128760   3.371   5.362   6.640
 9287SOL    HW228761   3.215   5.371   6.591
 9288SOL     OW28762   4.237   1.433   3.661
 9288SOL    HW128763   4.194   1.344   3.646
 9288SOL    HW228764   4.272   1.468   3.575
 9289SOL     OW28765   3.969   1.391   2.442
 9289SOL    HW128766   3.921   1.348   2.365
 9289SOL    HW228767   4.067   1.370   2.437
 9290SOL     OW28768   5.465   1.033   3.205
 9290SOL    HW128769   5.496   0.961   3.267
 9290SOL    HW228770   5.373   1.012   3.172
 9291SOL     OW28771   1.640   6.810   4.230
 9291SOL    HW128772   1.678   6.903   4.229
 9291SOL    HW228773   1.542   6.815   4.210
 9292SOL     OW28774   0.873   3.737   0.195
 9292SOL    HW128775   0.919   3.764   0.111
 9292SOL    HW228776   0.925   3.664   0.240
 9293SOL     OW28777   5.617   4.118   6.932
 9293SOL    HW128778   5.692   4.062   6.968
 9293SOL    HW228779   5.625   4.124   6.833
 9294SOL     OW28780   3.402   0.837   5.219
 9294SOL    HW128781   3.389   0.742   5.193
 9294SOL    HW228782   3.330   0.864   5.283
 9295SOL     OW28783   5.336   2.514   4.117
 9295SOL    HW128784   5.248   2.533   4.160
 9295SOL    HW228785   5.322   2.486   4.023
 9296SOL     OW28786   0.103   6.616   6.802
 9296SOL    HW128787   0.117   6.571   6.714
 9296SOL    HW228788   0.191   6.638   6.843
 9297SOL     OW28789   6.545   0.543   0.122
 9297SOL    HW128790   6.547   0.450   0.158
 9297SOL    HW228791   6.473   0.551   0.054
 9298SOL     OW28792   1.022   0.374   5.133
 9298SOL    HW128793   1.043   0.361   5.230
 9298SOL    HW228794   0.924   0.363   5.118
 9299SOL     OW28795   0.673   2.700   4.927
 9299SOL    HW128796   0.620   2.766   4.873
 9299SOL    HW228797   0.742   2.749   4.980
 9300SOL     OW28798   0.584   4.899   5.519
 9300SOL    HW128799   0.552   4.815   5.563
 9300SOL    HW228800   0.601   4.881   5.422
 9301SOL     OW28801   4.942   4.406   3.786
 9301SOL    HW128802   4.884   4.355   3.850
 9301SOL    HW228803   4.889   4.432   3.706
 9302SOL     OW28804   2.146   2.987   3.974
 9302SOL    HW128805   2.123   3.056   3.905
 9302SOL    HW228806   2.081   2.993   4.050
 9303SOL     OW28807   3.096   4.848   0.746
 9303SOL    HW128808   3.054   4.932   0.711
 9303SOL    HW228809   3.160   4.872   0.820
 9304SOL     OW28810   4.530   4.496   2.337
 9304SOL    HW128811   4.483   4.523   2.253
 9304SOL    HW228812   4.597   4.425   2.317
 9305SOL     OW28813   3.186   0.945   1.252
 9305SOL    HW128814   3.202   0.846   1.248
 9305SOL    HW228815   3.271   0.991   1.281
 9306SOL     OW28816   0.186   4.599   4.513
 9306SOL    HW128817   0.180   4.601   4.413
 9306SOL    HW228818   0.120   4.664   4.551
 9307SOL     OW28819   1.939   3.565   1.906
 9307SOL    HW128820   2.028   3.525   1.928
 9307SOL    HW228821   1.950   3.637   1.837
 9308SOL     OW28822   1.853   3.836   0.270
 9308SOL    HW128823   1.919   3.910   0.260
 9308SOL    HW228824   1.760   3.872   0.261
 9309SOL     OW28825   3.530   4.708   5.915
 9309SOL    HW128826   3.450   4.769   5.919
 9309SOL    HW228827   3.504   4.623   5.868
 9310SOL     OW28828   4.479   4.832   6.524
 9310SOL    HW128829   4.404   4.893   6.551
 9310SOL    HW228830   4.565   4.883   6.528
 9311SOL     OW28831   4.144   5.056   2.288
 9311SOL    HW128832   4.160   5.002   2.371
 9311SOL    HW228833   4.074   5.125   2.307
 9312SOL     OW28834   1.298   3.528   1.311
 9312SOL    HW128835   1.228   3.553   1.378
 9312SOL    HW228836   1.307   3.428   1.308
 9313SOL     OW28837   0.607   0.533   1.098
 9313SOL    HW128838   0.693   0.517   1.049
 9313SOL    HW228839   0.624   0.530   1.197
 9314SOL     OW28840   5.036   5.329   6.322
 9314SOL    HW128841   5.059   5.231   6.318
 9314SOL    HW228842   4.938   5.339   6.341
 9315SOL     OW28843   6.055   0.602   4.816
 9315SOL    HW128844   5.994   0.577   4.892
 9315SOL    HW228845   6.147   0.619   4.851
 9316SOL     OW28846   4.156   5.788   5.473
 9316SOL    HW128847   4.115   5.707   5.430
 9316SOL    HW228848   4.155   5.777   5.572
 9317SOL     OW28849   5.795   5.270   3.306
 9317SOL    HW128850   5.831   5.344   3.249
 9317SOL    HW228851   5.835   5.276   3.397
 9318SOL     OW28852   6.221   0.306   5.742
 9318SOL    HW128853   6.264   0.316   5.652
 9318SOL    HW228854   6.230   0.393   5.792
 9319SOL     OW28855   1.892   2.965   0.067
 9319SOL    HW128856   1.864   2.956   0.162
 9319SOL    HW228857   1.939   3.052   0.053
 9320SOL     OW28858   3.952   0.012   4.941
 9320SOL    HW128859   4.024   6.963   4.915
 9320SOL    HW228860   3.983   0.069   5.016
 9321SOL     OW28861   6.994   0.181   3.776
 9321SOL    HW128862   0.045   0.118   3.818
 9321SOL    HW228863   0.028   0.256   3.731
 9322SOL     OW28864   0.596   4.322   0.056
 9322SOL    HW128865   0.655   4.243   0.075
 9322SOL    HW228866   0.650   4.406   0.065
 9323SOL     OW28867   1.297   0.658   5.415
 9323SOL    HW128868   1.313   0.603   5.497
 9323SOL    HW228869   1.199   0.676   5.405
 9324SOL     OW28870   1.564   4.451   0.618
 9324SOL    HW128871   1.489   4.479   0.678
 9324SOL    HW228872   1.634   4.403   0.673
 9325SOL     OW28873   4.834   0.539   0.051
 9325SOL    HW128874   4.821   0.539   0.150
 9325SOL    HW228875   4.777   0.610   0.010
 9326SOL     OW28876   2.317   5.549   0.122
 9326SOL    HW128877   2.312   5.475   0.188
 9326SOL    HW228878   2.405   5.596   0.131
 9327SOL     OW28879   5.651   0.513   3.043
 9327SOL    HW128880   5.637   0.455   3.123
 9327SOL    HW228881   5.628   0.607   3.065
 9328SOL     OW28882   2.693   0.533   5.660
 9328SOL    HW128883   2.652   0.610   5.709
 9328SOL    HW228884   2.751   0.568   5.586
 9329SOL     OW28885   6.038   3.983   1.507
 9329SOL    HW128886   5.963   4.042   1.538
 9329SOL    HW228887   6.039   3.899   1.562
 9330SOL     OW28888   6.016   6.574   6.360
 9330SOL    HW128889   6.076   6.512   6.410
 9330SOL    HW228890   5.927   6.578   6.406
 9331SOL     OW28891   2.483   1.094   0.126
 9331SOL    HW128892   2.473   1.003   0.165
 9331SOL    HW228893   2.427   1.101   0.044
 9332SOL     OW28894   3.994   3.983   1.856
 9332SOL    HW128895   3.902   4.016   1.835
 9332SOL    HW228896   4.002   3.971   1.955
 9333SOL     OW28897   4.293   3.716   0.700
 9333SOL    HW128898   4.271   3.779   0.625
 9333SOL    HW228899   4.314   3.769   0.782
 9334SOL     OW28900   6.110   5.829   3.693
 9334SOL    HW128901   6.188   5.809   3.752
 9334SOL    HW228902   6.116   5.775   3.609
 9335SOL     OW28903   0.805   1.447   6.517
 9335SOL    HW128904   0.885   1.404   6.476
 9335SOL    HW228905   0.733   1.457   6.449
 9336SOL     OW28906   3.164   5.799   5.694
 9336SOL    HW128907   3.107   5.718   5.684
 9336SOL    HW228908   3.257   5.772   5.718
 9337SOL     OW28909   4.447   1.885   4.733
 9337SOL    HW128910   4.439   1.832   4.649
 9337SOL    HW228911   4.356   1.912   4.764
 9338SOL     OW28912   5.241   0.549   2.037
 9338SOL    HW128913   5.182   0.611   2.088
 9338SOL    HW228914   5.296   0.495   2.100
 9339SOL     OW28915   5.946   6.994   1.567
 9339SOL    HW128916   6.045   6.986   1.558
 9339SOL    HW228917   5.905   6.903   1.575
 9340SOL     OW28918   5.519   4.153   4.538
 9340SOL    HW128919   5.469   4.124   4.456
 9340SOL    HW228920   5.487   4.243   4.566
 9341SOL     OW28921   6.822   5.751   0.512
 9341SOL    HW128922   6.773   5.710   0.589
 9341SOL    HW228923   6.913   5.710   0.504
 9342SOL     OW28924   2.161   6.503   4.012
 9342SOL    HW128925   2.099   6.528   4.086
 9342SOL    HW228926   2.255   6.498   4.047
 9343SOL     OW28927   5.920   4.067   2.866
 9343SOL    HW128928   5.916   4.048   2.964
 9343SOL    HW228929   5.957   3.988   2.819
 9344SOL     OW28930   4.846   6.473   2.794
 9344SOL    HW128931   4.855   6.535   2.717
 9344SOL    HW228932   4.918   6.492   2.861
 9345SOL     OW28933   5.923   5.242   2.514
 9345SOL    HW128934   6.009   5.288   2.488
 9345SOL    HW228935   5.915   5.157   2.463
 9346SOL     OW28936   6.298   1.201   1.119
 9346SOL    HW128937   6.361   1.160   1.185
 9346SOL    HW228938   6.331   1.292   1.094
 9347SOL     OW28939   2.682   3.578   0.930
 9347SOL    HW128940   2.703   3.603   0.835
 9347SOL    HW228941   2.640   3.487   0.932
 9348SOL     OW28942   3.442   6.360   2.072
 9348SOL    HW128943   3.424   6.443   2.125
 9348SOL    HW228944   3.495   6.296   2.127
 9349SOL     OW28945   6.350   5.662   3.750
 9349SOL    HW128946   6.409   5.693   3.676
 9349SOL    HW228947   6.340   5.562   3.745
 9350SOL     OW28948   0.737   3.011   5.067
 9350SOL    HW128949   0.640   2.985   5.069
 9350SOL    HW228950   0.758   3.065   5.148
 9351SOL     OW28951   3.063   0.218   6.799
 9351SOL    HW128952   3.059   0.191   6.703
 9351SOL    HW228953   3.089   0.315   6.805
 9352SOL     OW28954   3.799   1.678   6.631
 9352SOL    HW128955   3.821   1.753   6.694
 9352SOL    HW228956   3.702   1.654   6.639
 9353SOL     OW28957   0.292   4.659   0.319
 9353SOL    HW128958   0.352   4.626   0.246
 9353SOL    HW228959   0.340   4.728   0.373
 9354SOL     OW28960   6.914   2.004   6.419
 9354SOL    HW128961   6.994   1.968   6.467
 9354SOL    HW228962   6.942   2.043   6.332
 9355SOL     OW28963   0.243   1.823   4.571
 9355SOL    HW128964   0.173   1.796   4.505
 9355SOL    HW228965   0.300   1.895   4.532
 9356SOL     OW28966   4.717   0.349   1.984
 9356SOL    HW128967   4.755   0.257   1.976
 9356SOL    HW228968   4.687   0.365   2.078
 9357SOL     OW28969   1.961   2.783   5.936
 9357SOL    HW128970   2.055   2.774   5.903
 9357SOL    HW228971   1.905   2.710   5.898
 9358SOL     OW28972   6.263   3.326   2.150
 9358SOL    HW128973   6.333   3.261   2.179
 9358SOL    HW228974   6.243   3.313   2.053
 9359SOL     OW28975   1.581   4.464   5.859
 9359SOL    HW128976   1.664   4.511   5.888
 9359SOL    HW228977   1.502   4.502   5.907
 9360SOL     OW28978   1.152   4.619   6.182
 9360SOL    HW128979   1.226   4.570   6.227
 9360SOL    HW228980   1.183   4.709   6.154
 9361SOL     OW28981   1.920   5.352   2.848
 9361SOL    HW128982   1.974   5.436   2.846
 9361SOL    HW228983   1.915   5.316   2.941
 9362SOL     OW28984   1.550   1.055   2.564
 9362SOL    HW128985   1.504   1.000   2.494
 9362SOL    HW228986   1.511   1.147   2.565
 9363SOL     OW28987   2.999   5.414   1.785
 9363SOL    HW128988   2.932   5.342   1.801
 9363SOL    HW228989   2.968   5.499   1.829
 9364SOL     OW28990   2.705   1.985   6.869
 9364SOL    HW128991   2.658   1.930   6.938
 9364SOL    HW228992   2.657   2.071   6.855
 9365SOL     OW28993   3.406   1.940   3.460
 9365SOL    HW128994   3.470   2.016   3.460
 9365SOL    HW228995   3.410   1.893   3.548
 9366SOL     OW28996   2.903   5.616   6.459
 9366SOL    HW128997   2.819   5.561   6.463
 9366SOL    HW228998   2.881   5.711   6.482
 9367SOL     OW28999   6.572   6.351   2.255
 9367SOL    HW129000   6.514   6.293   2.198
 9367SOL    HW229001   6.650   6.298   2.288
 9368SOL     OW29002   3.214   0.525   2.683
 9368SOL    HW129003   3.162   0.555   2.603
 9368SOL    HW229004   3.274   0.450   2.657
 9369SOL     OW29005   6.569   6.561   3.895
 9369SOL    HW129006   6.607   6.652   3.878
 9369SOL    HW229007   6.607   6.525   3.981
 9370SOL     OW29008   5.541   0.481   4.891
 9370SOL    HW129009   5.539   0.530   4.804
 9370SOL    HW229010   5.568   0.386   4.876
 9371SOL     OW29011   2.300   5.921   0.386
 9371SOL    HW129012   2.211   5.921   0.340
 9371SOL    HW229013   2.340   5.830   0.382
 9372SOL     OW29014   5.548   6.744   1.631
 9372SOL    HW129015   5.533   6.742   1.532
 9372SOL    HW229016   5.637   6.703   1.652
 9373SOL     OW29017   4.702   2.664   1.497
 9373SOL    HW129018   4.691   2.714   1.584
 9373SOL    HW229019   4.619   2.676   1.442
 9374SOL     OW29020   0.426   2.854   6.635
 9374SOL    HW129021   0.434   2.764   6.591
 9374SOL    HW229022   0.503   2.868   6.697
 9375SOL     OW29023   0.302   2.263   1.045
 9375SOL    HW129024   0.349   2.330   0.987
 9375SOL    HW229025   0.367   2.196   1.079
 9376SOL     OW29026   2.131   3.743   1.263
 9376SOL    HW129027   2.033   3.728   1.275
 9376SOL    HW229028   2.181   3.661   1.291
 9377SOL     OW29029   1.985   5.162   2.652
 9377SOL    HW129030   1.955   5.229   2.720
 9377SOL    HW229031   1.963   5.070   2.685
 9378SOL     OW29032   3.289   1.067   3.088
 9378SOL    HW129033   3.264   1.060   3.184
 9378SOL    HW229034   3.291   1.163   3.060
 9379SOL     OW29035   5.091   0.382   5.058
 9379SOL    HW129036   5.062   0.444   5.131
 9379SOL    HW229037   5.159   0.426   5.001
 9380SOL     OW29038   3.653   5.522   5.255
 9380SOL    HW129039   3.577   5.579   5.224
 9380SOL    HW229040   3.636   5.427   5.229
 9381SOL     OW29041   5.528   3.001   5.451
 9381SOL    HW129042   5.506   2.936   5.378
 9381SOL    HW229043   5.551   2.951   5.534
 9382SOL     OW29044   4.333   0.578   3.480
 9382SOL    HW129045   4.334   0.503   3.415
 9382SOL    HW229046   4.240   0.613   3.490
 9383SOL     OW29047   5.632   4.641   3.984
 9383SOL    HW129048   5.623   4.622   3.887
 9383SOL    HW229049   5.555   4.696   4.015
 9384SOL     OW29050   3.647   0.347   2.001
 9384SOL    HW129051   3.571   0.295   2.040
 9384SOL    HW229052   3.612   0.421   1.944
 9385SOL     OW29053   4.297   1.423   4.151
 9385SOL    HW129054   4.335   1.334   4.123
 9385SOL    HW229055   4.343   1.496   4.100
 9386SOL     OW29056   3.432   5.720   5.492
 9386SOL    HW129057   3.422   5.756   5.399
 9386SOL    HW229058   3.367   5.646   5.507
 9387SOL     OW29059   2.944   2.263   0.481
 9387SOL    HW129060   3.036   2.234   0.457
 9387SOL    HW229061   2.948   2.348   0.534
 9388SOL     OW29062   2.056   6.109   3.601
 9388SOL    HW129063   2.054   6.010   3.616
 9388SOL    HW229064   2.132   6.132   3.540
 9389SOL     OW29065   2.999   6.957   2.823
 9389SOL    HW129066   3.068   0.013   2.810
 9389SOL    HW229067   3.018   6.881   2.761
 9390SOL     OW29068   5.803   5.311   5.930
 9390SOL    HW129069   5.748   5.380   5.976
 9390SOL    HW229070   5.760   5.222   5.940
 9391SOL     OW29071   0.344   6.931   6.149
 9391SOL    HW129072   0.260   6.883   6.123
 9391SOL    HW229073   0.333   6.970   6.240
 9392SOL     OW29074   5.151   4.446   5.175
 9392SOL    HW129075   5.079   4.423   5.110
 9392SOL    HW229076   5.116   4.435   5.268
 9393SOL     OW29077   2.704   6.975   5.219
 9393SOL    HW129078   2.774   6.997   5.151
 9393SOL    HW229079   2.662   0.044   5.252
 9394SOL     OW29080   6.337   0.255   0.845
 9394SOL    HW129081   6.277   0.241   0.924
 9394SOL    HW229082   6.293   0.223   0.762
 9395SOL     OW29083   1.996   0.982   0.918
 9395SOL    HW129084   2.091   1.005   0.939
 9395SOL    HW229085   1.990   0.884   0.896
 9396SOL     OW29086   1.459   4.541   4.439
 9396SOL    HW129087   1.443   4.583   4.528
 9396SOL    HW229088   1.555   4.513   4.432
 9397SOL     OW29089   2.638   6.420   5.911
 9397SOL    HW129090   2.602   6.425   6.004
 9397SOL    HW229091   2.679   6.330   5.897
 9398SOL     OW29092   5.857   1.205   6.083
 9398SOL    HW129093   5.769   1.243   6.053
 9398SOL    HW229094   5.915   1.280   6.116
 9399SOL     OW29095   0.920   3.407   4.147
 9399SOL    HW129096   0.872   3.384   4.063
 9399SOL    HW229097   0.900   3.501   4.173
 9400SOL     OW29098   4.439   0.430   1.126
 9400SOL    HW129099   4.350   0.417   1.168
 9400SOL    HW229100   4.436   0.403   1.030
 9401SOL     OW29101   6.978   1.803   2.869
 9401SOL    HW129102   6.916   1.724   2.873
 9401SOL    HW229103   0.055   1.775   2.895
 9402SOL     OW29104   1.275   3.545   2.789
 9402SOL    HW129105   1.271   3.629   2.843
 9402SOL    HW229106   1.192   3.491   2.805
 9403SOL     OW29107   6.396   1.496   1.974
 9403SOL    HW129108   6.392   1.594   1.958
 9403SOL    HW229109   6.324   1.450   1.922
 9404SOL     OW29110   0.270   1.903   1.380
 9404SOL    HW129111   0.181   1.887   1.421
 9404SOL    HW229112   0.307   1.990   1.413
 9405SOL     OW29113   1.577   4.092   3.967
 9405SOL    HW129114   1.672   4.111   3.942
 9405SOL    HW229115   1.527   4.062   3.887
 9406SOL     OW29116   0.892   3.113   6.632
 9406SOL    HW129117   0.837   3.077   6.707
 9406SOL    HW229118   0.868   3.064   6.547
 9407SOL     OW29119   2.538   5.386   4.626
 9407SOL    HW129120   2.509   5.387   4.721
 9407SOL    HW229121   2.559   5.479   4.596
 9408SOL     OW29122   0.532   2.187   6.089
 9408SOL    HW129123   0.620   2.182   6.135
 9408SOL    HW229124   0.461   2.212   6.155
 9409SOL     OW29125   6.150   5.683   1.855
 9409SOL    HW129126   6.188   5.776   1.849
 9409SOL    HW229127   6.224   5.616   1.843
 9410SOL     OW29128   3.577   1.063   1.900
 9410SOL    HW129129   3.533   1.108   1.978
 9410SOL    HW229130   3.508   1.012   1.848
 9411SOL     OW29131   3.922   3.161   3.265
 9411SOL    HW129132   3.978   3.243   3.264
 9411SOL    HW229133   3.925   3.117   3.175
 9412SOL     OW29134   1.623   0.145   2.211
 9412SOL    HW129135   1.610   0.244   2.219
 9412SOL    HW229136   1.534   0.099   2.215
 9413SOL     OW29137   4.547   5.324   4.311
 9413SOL    HW129138   4.624   5.261   4.297
 9413SOL    HW229139   4.571   5.390   4.383
 9414SOL     OW29140   3.318   1.392   3.730
 9414SOL    HW129141   3.348   1.298   3.710
 9414SOL    HW229142   3.388   1.456   3.698
 9415SOL     OW29143   2.047   0.039   1.728
 9415SOL    HW129144   2.055   6.997   1.646
 9415SOL    HW229145   2.048   0.135   1.702
 9416SOL     OW29146   0.067   0.687   5.794
 9416SOL    HW129147   0.020   0.760   5.745
 9416SOL    HW229148   0.095   0.616   5.730
 9417SOL     OW29149   3.709   6.564   1.092
 9417SOL    HW129150   3.633   6.502   1.113
 9417SOL    HW229151   3.736   6.613   1.175
 9418SOL     OW29152   2.464   1.213   2.281
 9418SOL    HW129153   2.460   1.146   2.206
 9418SOL    HW229154   2.426   1.300   2.250
 9419SOL     OW29155   1.163   3.361   6.763
 9419SOL    HW129156   1.153   3.459   6.743
 9419SOL    HW229157   1.096   3.309   6.710
 9420SOL     OW29158   5.246   4.201   0.173
 9420SOL    HW129159   5.171   4.136   0.160
 9420SOL    HW229160   5.224   4.264   0.248
 9421SOL     OW29161   2.984   5.195   4.202
 9421SOL    HW129162   3.079   5.207   4.232
 9421SOL    HW229163   2.937   5.132   4.264
 9422SOL     OW29164   2.676   6.152   3.780
 9422SOL    HW129165   2.769   6.189   3.781
 9422SOL    HW229166   2.648   6.132   3.874
 9423SOL     OW29167   3.908   6.296   3.144
 9423SOL    HW129168   3.965   6.303   3.062
 9423SOL    HW229169   3.899   6.386   3.186
 9424SOL     OW29170   5.437   2.016   4.111
 9424SOL    HW129171   5.436   2.096   4.171
 9424SOL    HW229172   5.527   1.974   4.112
 9425SOL     OW29173   5.641   5.151   0.977
 9425SOL    HW129174   5.691   5.076   1.021
 9425SOL    HW229175   5.701   5.197   0.912
 9426SOL     OW29176   2.577   1.863   5.823
 9426SOL    HW129177   2.614   1.946   5.783
 9426SOL    HW229178   2.561   1.877   5.921
 9427SOL     OW29179   2.413   5.885   3.068
 9427SOL    HW129180   2.462   5.838   2.995
 9427SOL    HW229181   2.459   5.971   3.089
 9428SOL     OW29182   6.755   0.069   0.687
 9428SOL    HW129183   6.790   7.012   0.748
 9428SOL    HW229184   6.727   0.148   0.742
 9429SOL     OW29185   2.455   2.431   3.813
 9429SOL    HW129186   2.460   2.440   3.714
 9429SOL    HW229187   2.370   2.474   3.846
 9430SOL     OW29188   0.226   2.238   4.854
 9430SOL    HW129189   0.215   2.139   4.855
 9430SOL    HW229190   0.321   2.262   4.871
 9431SOL     OW29191   6.626   4.849   1.187
 9431SOL    HW129192   6.693   4.904   1.137
 9431SOL    HW229193   6.672   4.796   1.258
 9432SOL     OW29194   6.095   1.513   4.509
 9432SOL    HW129195   6.193   1.496   4.522
 9432SOL    HW229196   6.044   1.429   4.527
 9433SOL     OW29197   3.838   6.554   3.189
 9433SOL    HW129198   3.777   6.526   3.115
 9433SOL    HW229199   3.787   6.555   3.275
 9434SOL     OW29200   6.169   5.699   3.453
 9434SOL    HW129201   6.178   5.672   3.357
 9434SOL    HW229202   6.256   5.685   3.500
 9435SOL     OW29203   0.243   1.813   3.026
 9435SOL    HW129204   0.207   1.898   3.062
 9435SOL    HW229205   0.296   1.766   3.097
 9436SOL     OW29206   1.338   1.221   2.704
 9436SOL    HW129207   1.286   1.136   2.693
 9436SOL    HW229208   1.277   1.294   2.735
 9437SOL     OW29209   0.717   5.051   3.361
 9437SOL    HW129210   0.682   5.051   3.268
 9437SOL    HW229211   0.813   5.080   3.360
 9438SOL     OW29212   1.518   6.712   2.043
 9438SOL    HW129213   1.593   6.742   1.985
 9438SOL    HW229214   1.476   6.791   2.087
 9439SOL     OW29215   0.621   3.329   1.621
 9439SOL    HW129216   0.609   3.421   1.582
 9439SOL    HW229217   0.563   3.264   1.570
 9440SOL     OW29218   3.739   4.887   3.654
 9440SOL    HW129219   3.691   4.866   3.568
 9440SOL    HW229220   3.837   4.876   3.641
 9441SOL     OW29221   6.546   6.154   5.473
 9441SOL    HW129222   6.504   6.063   5.468
 9441SOL    HW229223   6.645   6.145   5.469
 9442SOL     OW29224   4.654   3.433   1.716
 9442SOL    HW129225   4.576   3.374   1.698
 9442SOL    HW229226   4.712   3.391   1.785
 9443SOL     OW29227   2.515   5.367   0.628
 9443SOL    HW129228   2.495   5.459   0.663
 9443SOL    HW229229   2.603   5.337   0.663
 9444SOL     OW29230   1.880   4.327   0.690
 9444SOL    HW129231   1.877   4.426   0.675
 9444SOL    HW229232   1.902   4.280   0.604
 9445SOL     OW29233   6.945   2.642   3.054
 9445SOL    HW129234   6.897   2.571   3.002
 9445SOL    HW229235   6.932   2.731   3.009
 9446SOL     OW29236   0.197   5.033   4.452
 9446SOL    HW129237   0.228   5.002   4.542
 9446SOL    HW229238   0.245   4.982   4.381
 9447SOL     OW29239   5.411   5.075   3.843
 9447SOL    HW129240   5.400   5.110   3.936
 9447SOL    HW229241   5.441   4.980   3.846
 9448SOL     OW29242   6.697   0.175   6.213
 9448SOL    HW129243   6.660   0.185   6.306
 9448SOL    HW229244   6.792   0.207   6.212
 9449SOL     OW29245   5.904   6.554   0.066
 9449SOL    HW129246   5.999   6.579   0.086
 9449SOL    HW229247   5.847   6.635   0.070
 9450SOL     OW29248   2.114   5.355   3.502
 9450SOL    HW129249   2.114   5.373   3.601
 9450SOL    HW229250   2.021   5.360   3.467
 9451SOL     OW29251   4.123   6.088   6.000
 9451SOL    HW129252   4.120   6.135   6.088
 9451SOL    HW229253   4.042   6.112   5.946
 9452SOL     OW29254   1.013   4.185   6.781
 9452SOL    HW129255   0.938   4.121   6.767
 9452SOL    HW229256   1.006   4.225   6.872
 9453SOL     OW29257   2.907   4.816   2.518
 9453SOL    HW129258   2.870   4.884   2.582
 9453SOL    HW229259   2.834   4.756   2.488
 9454SOL     OW29260   3.548   3.001   6.198
 9454SOL    HW129261   3.622   2.994   6.131
 9454SOL    HW229262   3.477   2.934   6.176
 9455SOL     OW29263   2.446   2.159   2.514
 9455SOL    HW129264   2.541   2.168   2.542
 9455SOL    HW229265   2.431   2.068   2.474
 9456SOL     OW29266   5.850   4.173   1.621
 9456SOL    HW129267   5.898   4.261   1.619
 9456SOL    HW229268   5.787   4.167   1.543
 9457SOL     OW29269   0.328   4.796   3.986
 9457SOL    HW129270   0.346   4.894   3.996
 9457SOL    HW229271   0.298   4.777   3.893
 9458SOL     OW29272   6.847   4.019   0.392
 9458SOL    HW129273   6.875   4.022   0.296
 9458SOL    HW229274   6.747   4.008   0.398
 9459SOL     OW29275   5.403   4.800   3.980
 9459SOL    HW129276   5.368   4.875   4.036
 9459SOL    HW229277   5.327   4.743   3.949
 9460SOL     OW29278   2.000   3.272   4.695
 9460SOL    HW129279   2.064   3.245   4.767
 9460SOL    HW229280   2.048   3.327   4.627
 9461SOL     OW29281   0.663   1.675   1.995
 9461SOL    HW129282   0.662   1.647   2.091
 9461SOL    HW229283   0.615   1.762   1.985
 9462SOL     OW29284   1.927   2.645   3.760
 9462SOL    HW129285   2.023   2.653   3.787
 9462SOL    HW229286   1.918   2.577   3.688
 9463SOL     OW29287   5.683   6.548   1.383
 9463SOL    HW129288   5.586   6.564   1.363
 9463SOL    HW229289   5.697   6.452   1.408
 9464SOL     OW29290   5.772   6.669   0.387
 9464SOL    HW129291   5.685   6.713   0.409
 9464SOL    HW229292   5.769   6.574   0.416
 9465SOL     OW29293   6.832   4.280   1.620
 9465SOL    HW129294   6.767   4.225   1.568
 9465SOL    HW229295   6.847   4.237   1.710
 9466SOL     OW29296   3.435   4.106   5.685
 9466SOL    HW129297   3.346   4.101   5.639
 9466SOL    HW229298   3.466   4.201   5.686
 9467SOL     OW29299   0.826   2.583   1.392
 9467SOL    HW129300   0.786   2.492   1.398
 9467SOL    HW229301   0.893   2.586   1.318
 9468SOL     OW29302   6.706   3.532   6.087
 9468SOL    HW129303   6.661   3.619   6.109
 9468SOL    HW229304   6.658   3.457   6.131
 9469SOL     OW29305   6.991   5.740   1.284
 9469SOL    HW129306   6.958   5.713   1.375
 9469SOL    HW229307   6.990   5.661   1.223
 9470SOL     OW29308   4.526   3.535   6.821
 9470SOL    HW129309   4.496   3.549   6.916
 9470SOL    HW229310   4.452   3.560   6.759
 9471SOL     OW29311   6.484   1.654   5.272
 9471SOL    HW129312   6.453   1.596   5.197
 9471SOL    HW229313   6.546   1.724   5.238
 9472SOL     OW29314   0.785   3.868   5.556
 9472SOL    HW129315   0.872   3.902   5.521
 9472SOL    HW229316   0.796   3.774   5.586
 9473SOL     OW29317   3.098   4.303   6.228
 9473SOL    HW129318   3.117   4.396   6.258
 9473SOL    HW229319   3.181   4.247   6.238
 9474SOL     OW29320   6.005   3.442   2.137
 9474SOL    HW129321   6.100   3.410   2.145
 9474SOL    HW229322   5.943   3.366   2.159
 9475SOL     OW29323   4.679   3.547   0.242
 9475SOL    HW129324   4.644   3.599   0.321
 9475SOL    HW229325   4.741   3.605   0.190
 9476SOL     OW29326   4.013   3.570   5.209
 9476SOL    HW129327   4.054   3.495   5.157
 9476SOL    HW229328   4.056   3.657   5.183
 9477SOL     OW29329   0.642   2.756   1.141
 9477SOL    HW129330   0.569   2.690   1.161
 9477SOL    HW229331   0.730   2.715   1.166
 9478SOL     OW29332   5.152   3.108   1.059
 9478SOL    HW129333   5.089   3.035   1.032
 9478SOL    HW229334   5.105   3.196   1.055
 9479SOL     OW29335   4.120   6.533   0.805
 9479SOL    HW129336   4.124   6.557   0.902
 9479SOL    HW229337   4.209   6.499   0.775
 9480SOL     OW29338   5.857   5.313   0.454
 9480SOL    HW129339   5.835   5.228   0.407
 9480SOL    HW229340   5.772   5.360   0.479
 9481SOL     OW29341   5.402   2.175   2.595
 9481SOL    HW129342   5.480   2.234   2.575
 9481SOL    HW229343   5.352   2.211   2.674
 9482SOL     OW29344   6.746   0.409   2.596
 9482SOL    HW129345   6.752   0.435   2.692
 9482SOL    HW229346   6.837   0.417   2.554
 9483SOL     OW29347   1.303   0.962   0.534
 9483SOL    HW129348   1.209   0.997   0.530
 9483SOL    HW229349   1.367   1.038   0.544
 9484SOL     OW29350   2.993   6.839   4.810
 9484SOL    HW129351   2.898   6.820   4.835
 9484SOL    HW229352   2.995   6.906   4.736
 9485SOL     OW29353   0.011   1.809   0.790
 9485SOL    HW129354   0.111   1.804   0.786
 9485SOL    HW229355   6.996   1.902   0.772
 9486SOL     OW29356   4.562   6.241   1.596
 9486SOL    HW129357   4.568   6.149   1.559
 9486SOL    HW229358   4.490   6.292   1.548
 9487SOL     OW29359   3.347   4.005   4.254
 9487SOL    HW129360   3.415   4.072   4.286
 9487SOL    HW229361   3.284   3.984   4.329
 9488SOL     OW29362   2.589   0.447   1.222
 9488SOL    HW129363   2.545   0.513   1.162
 9488SOL    HW229364   2.529   0.427   1.300
 9489SOL     OW29365   4.995   4.617   1.268
 9489SOL    HW129366   5.072   4.554   1.254
 9489SOL    HW229367   4.932   4.578   1.335
 9490SOL     OW29368   6.716   6.403   3.603
 9490SOL    HW129369   6.771   6.336   3.553
 9490SOL    HW229370   6.632   6.359   3.635
 9491SOL     OW29371   5.998   5.408   4.225
 9491SOL    HW129372   5.974   5.505   4.223
 9491SOL    HW229373   5.925   5.355   4.181
 9492SOL     OW29374   3.406   3.288   5.141
 9492SOL    HW129375   3.484   3.330   5.187
 9492SOL    HW229376   3.438   3.238   5.060
 9493SOL     OW29377   3.228   5.649   4.619
 9493SOL    HW129378   3.328   5.641   4.619
 9493SOL    HW229379   3.197   5.679   4.709
 9494SOL     OW29380   5.817   3.224   2.246
 9494SOL    HW129381   5.878   3.162   2.295
 9494SOL    HW229382   5.722   3.197   2.264
 9495SOL     OW29383   6.961   1.719   2.393
 9495SOL    HW129384   0.045   1.712   2.408
 9495SOL    HW229385   6.920   1.776   2.464
 9496SOL     OW29386   5.031   2.373   1.776
 9496SOL    HW129387   4.985   2.462   1.787
 9496SOL    HW229388   4.978   2.302   1.823
 9497SOL     OW29389   4.836   6.174   5.296
 9497SOL    HW129390   4.806   6.206   5.206
 9497SOL    HW229391   4.908   6.235   5.331
 9498SOL     OW29392   6.623   4.483   4.902
 9498SOL    HW129393   6.565   4.408   4.871
 9498SOL    HW229394   6.717   4.467   4.874
 9499SOL     OW29395   0.638   6.211   5.099
 9499SOL    HW129396   0.687   6.234   5.015
 9499SOL    HW229397   0.631   6.112   5.107
 9500SOL     OW29398   4.110   6.497   0.361
 9500SOL    HW129399   4.197   6.446   0.359
 9500SOL    HW229400   4.058   6.476   0.278
 9501SOL     OW29401   1.912   1.481   3.940
 9501SOL    HW129402   1.816   1.504   3.956
 9501SOL    HW229403   1.934   1.397   3.988
 9502SOL     OW29404   6.094   3.837   4.883
 9502SOL    HW129405   6.157   3.765   4.911
 9502SOL    HW229406   6.145   3.923   4.872
 9503SOL     OW29407   6.765   2.677   0.430
 9503SOL    HW129408   6.853   2.670   0.383
 9503SOL    HW229409   6.778   2.721   0.520
 9504SOL     OW29410   6.630   4.179   1.965
 9504SOL    HW129411   6.618   4.110   1.893
 9504SOL    HW229412   6.587   4.148   2.049
 9505SOL     OW29413   5.218   4.265   5.578
 9505SOL    HW129414   5.279   4.283   5.501
 9505SOL    HW229415   5.253   4.310   5.660
 9506SOL     OW29416   1.546   2.595   0.904
 9506SOL    HW129417   1.561   2.571   0.809
 9506SOL    HW229418   1.589   2.527   0.964
 9507SOL     OW29419   6.853   0.912   1.467
 9507SOL    HW129420   6.829   0.997   1.514
 9507SOL    HW229421   6.771   0.874   1.425
 9508SOL     OW29422   5.835   1.510   2.790
 9508SOL    HW129423   5.809   1.587   2.849
 9508SOL    HW229424   5.755   1.451   2.777
 9509SOL     OW29425   0.228   0.924   3.473
 9509SOL    HW129426   0.266   0.867   3.400
 9509SOL    HW229427   0.181   0.865   3.539
 9510SOL     OW29428   1.474   3.444   3.162
 9510SOL    HW129429   1.385   3.401   3.148
 9510SOL    HW229430   1.462   3.530   3.211
 9511SOL     OW29431   1.784   0.938   1.516
 9511SOL    HW129432   1.701   0.882   1.516
 9511SOL    HW229433   1.770   1.019   1.574
 9512SOL     OW29434   6.523   2.356   0.656
 9512SOL    HW129435   6.440   2.365   0.602
 9512SOL    HW229436   6.499   2.333   0.750
 9513SOL     OW29437   3.011   4.667   6.221
 9513SOL    HW129438   2.974   4.620   6.301
 9513SOL    HW229439   2.978   4.762   6.220
 9514SOL     OW29440   3.066   4.771   6.812
 9514SOL    HW129441   3.064   4.782   6.712
 9514SOL    HW229442   3.124   4.692   6.835
 9515SOL     OW29443   2.233   5.962   2.566
 9515SOL    HW129444   2.172   5.981   2.642
 9515SOL    HW229445   2.180   5.928   2.488
 9516SOL     OW29446   5.582   4.825   0.323
 9516SOL    HW129447   5.557   4.903   0.380
 9516SOL    HW229448   5.653   4.772   0.367
 9517SOL     OW29449   1.811   3.832   1.284
 9517SOL    HW129450   1.773   3.808   1.374
 9517SOL    HW229451   1.748   3.894   1.237
 9518SOL     OW29452   2.282   1.873   0.691
 9518SOL    HW129453   2.185   1.851   0.689
 9518SOL    HW229454   2.294   1.972   0.684
 9519SOL     OW29455   2.921   3.304   5.240
 9519SOL    HW129456   3.011   3.269   5.267
 9519SOL    HW229457   2.931   3.358   5.156
 9520SOL     OW29458   2.862   0.418   2.843
 9520SOL    HW129459   2.924   0.496   2.845
 9520SOL    HW229460   2.887   0.352   2.913
 9521SOL     OW29461   5.925   5.593   2.540
 9521SOL    HW129462   5.956   5.602   2.445
 9521SOL    HW229463   5.984   5.528   2.588
 9522SOL     OW29464   3.459   5.278   1.249
 9522SOL    HW129465   3.525   5.253   1.178
 9522SOL    HW229466   3.376   5.314   1.206
 9523SOL     OW29467   3.315   5.355   5.193
 9523SOL    HW129468   3.225   5.317   5.173
 9523SOL    HW229469   3.319   5.450   5.160
 9524SOL     OW29470   4.217   2.656   1.679
 9524SOL    HW129471   4.159   2.597   1.623
 9524SOL    HW229472   4.161   2.726   1.723
 9525SOL     OW29473   2.632   2.726   6.186
 9525SOL    HW129474   2.610   2.662   6.112
 9525SOL    HW229475   2.590   2.815   6.165
 9526SOL     OW29476   5.226   5.806   1.836
 9526SOL    HW129477   5.151   5.859   1.795
 9526SOL    HW229478   5.200   5.778   1.928
 9527SOL     OW29479   0.903   0.320   1.361
 9527SOL    HW129480   0.956   0.277   1.288
 9527SOL    HW229481   0.842   0.252   1.402
 9528SOL     OW29482   6.690   0.843   6.892
 9528SOL    HW129483   6.726   0.909   6.826
 9528SOL    HW229484   6.650   0.765   6.843
 9529SOL     OW29485   0.144   2.919   5.236
 9529SOL    HW129486   0.080   2.844   5.254
 9529SOL    HW229487   0.237   2.889   5.254
 9530SOL     OW29488   1.436   3.249   3.616
 9530SOL    HW129489   1.449   3.348   3.624
 9530SOL    HW229490   1.474   3.204   3.697
 9531SOL     OW29491   3.491   5.235   3.232
 9531SOL    HW129492   3.455   5.315   3.281
 9531SOL    HW229493   3.495   5.256   3.134
 9532SOL     OW29494   0.116   6.215   2.262
 9532SOL    HW129495   0.095   6.255   2.351
 9532SOL    HW229496   0.153   6.286   2.202
 9533SOL     OW29497   0.026   0.724   5.309
 9533SOL    HW129498   6.985   0.684   5.382
 9533SOL    HW229499   0.099   0.661   5.284
 9534SOL     OW29500   6.182   2.707   5.326
 9534SOL    HW129501   6.249   2.641   5.293
 9534SOL    HW229502   6.222   2.761   5.400
 9535SOL     OW29503   2.290   1.546   6.015
 9535SOL    HW129504   2.384   1.515   6.003
 9535SOL    HW229505   2.281   1.640   5.980
 9536SOL     OW29506   2.531   4.928   5.264
 9536SOL    HW129507   2.489   4.971   5.184
 9536SOL    HW229508   2.610   4.874   5.235
 9537SOL     OW29509   2.682   0.128   2.196
 9537SOL    HW129510   2.588   0.158   2.211
 9537SOL    HW229511   2.734   0.138   2.281
 9538SOL     OW29512   6.269   1.874   4.843
 9538SOL    HW129513   6.305   1.958   4.803
 9538SOL    HW229514   6.210   1.828   4.776
 9539SOL     OW29515   2.309   4.318   6.301
 9539SOL    HW129516   2.282   4.392   6.239
 9539SOL    HW229517   2.229   4.283   6.348
 9540SOL     OW29518   4.549   4.294   5.175
 9540SOL    HW129519   4.591   4.206   5.197
 9540SOL    HW229520   4.519   4.294   5.080
 9541SOL     OW29521   2.280   2.238   5.936
 9541SOL    HW129522   2.271   2.153   5.987
 9541SOL    HW229523   2.377   2.263   5.930
 9542SOL     OW29524   4.778   3.799   5.345
 9542SOL    HW129525   4.794   3.746   5.262
 9542SOL    HW229526   4.853   3.783   5.409
 9543SOL     OW29527   4.528   0.480   4.388
 9543SOL    HW129528   4.481   0.402   4.429
 9543SOL    HW229529   4.606   0.505   4.445
 9544SOL     OW29530   5.555   0.832   2.332
 9544SOL    HW129531   5.465   0.844   2.290
 9544SOL    HW229532   5.622   0.888   2.284
 9545SOL     OW29533   6.576   5.226   2.905
 9545SOL    HW129534   6.577   5.249   3.002
 9545SOL    HW229535   6.591   5.128   2.894
 9546SOL     OW29536   2.536   3.821   6.837
 9546SOL    HW129537   2.506   3.844   6.744
 9546SOL    HW229538   2.522   3.900   6.896
 9547SOL     OW29539   2.702   6.014   4.465
 9547SOL    HW129540   2.721   6.087   4.400
 9547SOL    HW229541   2.786   5.991   4.515
 9548SOL     OW29542   0.113   5.587   5.151
 9548SOL    HW129543   0.167   5.650   5.207
 9548SOL    HW229544   0.018   5.589   5.182
 9549SOL     OW29545   3.240   4.917   0.941
 9549SOL    HW129546   3.262   4.977   1.018
 9549SOL    HW229547   3.301   4.838   0.941
 9550SOL     OW29548   6.993   0.988   6.080
 9550SOL    HW129549   6.988   1.040   5.994
 9550SOL    HW229550   0.073   0.981   6.109
 9551SOL     OW29551   0.234   6.930   4.165
 9551SOL    HW129552   0.208   6.838   4.136
 9551SOL    HW229553   0.333   6.937   4.170
 9552SOL     OW29554   1.648   6.366   2.438
 9552SOL    HW129555   1.716   6.339   2.506
 9552SOL    HW229556   1.633   6.465   2.443
 9553SOL     OW29557   5.858   4.410   6.497
 9553SOL    HW129558   5.923   4.466   6.444
 9553SOL    HW229559   5.768   4.413   6.454
 9554SOL     OW29560   2.844   1.197   1.450
 9554SOL    HW129561   2.886   1.142   1.378
 9554SOL    HW229562   2.906   1.271   1.476
 9555SOL     OW29563   6.611   2.448   1.033
 9555SOL    HW129564   6.538   2.462   0.967
 9555SOL    HW229565   6.601   2.513   1.108
 9556SOL     OW29566   2.392   1.967   1.394
 9556SOL    HW129567   2.365   1.876   1.362
 9556SOL    HW229568   2.492   1.970   1.406
 9557SOL     OW29569   6.062   0.544   2.561
 9557SOL    HW129570   5.990   0.478   2.541
 9557SOL    HW229571   6.150   0.497   2.567
 9558SOL     OW29572   6.718   5.552   3.804
 9558SOL    HW129573   6.797   5.523   3.750
 9558SOL    HW229574   6.729   5.648   3.829
 9559SOL     OW29575   6.939   4.403   2.579
 9559SOL    HW129576   6.909   4.307   2.576
 9559SOL    HW229577   7.001   4.421   2.503
 9560SOL     OW29578   2.079   1.608   2.581
 9560SOL    HW129579   2.140   1.680   2.548
 9560SOL    HW229580   1.984   1.639   2.575
 9561SOL     OW29581   3.137   0.061   0.501
 9561SOL    HW129582   3.060   0.118   0.529
 9561SOL    HW229583   3.206   0.118   0.456
 9562SOL     OW29584   3.330   5.984   4.530
 9562SOL    HW129585   3.326   6.072   4.483
 9562SOL    HW229586   3.253   5.927   4.500
 9563SOL     OW29587   6.131   6.230   6.945
 9563SOL    HW129588   6.037   6.224   6.912
 9563SOL    HW229589   6.131   6.269   0.023
 9564SOL     OW29590   2.433   0.360   6.686
 9564SOL    HW129591   2.486   0.349   6.602
 9564SOL    HW229592   2.336   0.347   6.666
 9565SOL     OW29593   4.399   5.800   5.338
 9565SOL    HW129594   4.417   5.896   5.315
 9565SOL    HW229595   4.319   5.796   5.399
 9566SOL     OW29596   3.292   4.527   6.888
 9566SOL    HW129597   3.306   4.469   6.968
 9566SOL    HW229598   3.254   4.472   6.813
 9567SOL     OW29599   6.072   5.210   6.532
 9567SOL    HW129600   6.070   5.222   6.433
 9567SOL    HW229601   6.008   5.273   6.575
 9568SOL     OW29602   4.493   3.377   6.491
 9568SOL    HW129603   4.439   3.402   6.411
 9568SOL    HW229604   4.436   3.325   6.555
 9569SOL     OW29605   5.998   0.707   0.655
 9569SOL    HW129606   5.993   0.626   0.597
 9569SOL    HW229607   5.978   0.788   0.600
 9570SOL     OW29608   0.768   1.410   1.879
 9570SOL    HW129609   0.857   1.409   1.923
 9570SOL    HW229610   0.713   1.487   1.914
 9571SOL     OW29611   2.944   3.056   0.417
 9571SOL    HW129612   3.042   3.069   0.431
 9571SOL    HW229613   2.895   3.080   0.502
 9572SOL     OW29614   1.340   5.010   0.823
 9572SOL    HW129615   1.246   5.043   0.832
 9572SOL    HW229616   1.365   4.958   0.905
 9573SOL     OW29617   0.527   1.084   6.872
 9573SOL    HW129618   0.622   1.053   6.866
 9573SOL    HW229619   0.506   1.143   6.795
 9574SOL     OW29620   3.221   3.500   5.185
 9574SOL    HW129621   3.217   3.521   5.283
 9574SOL    HW229622   3.287   3.426   5.170
 9575SOL     OW29623   6.065   0.980   1.074
 9575SOL    HW129624   6.086   1.068   1.031
 9575SOL    HW229625   6.115   0.908   1.027
 9576SOL     OW29626   3.860   0.898   3.222
 9576SOL    HW129627   3.836   0.803   3.200
 9576SOL    HW229628   3.883   0.946   3.138
 9577SOL     OW29629   0.906   0.637   2.128
 9577SOL    HW129630   0.908   0.545   2.166
 9577SOL    HW229631   0.957   0.698   2.188
 9578SOL     OW29632   5.821   2.849   2.689
 9578SOL    HW129633   5.865   2.938   2.691
 9578SOL    HW229634   5.884   2.779   2.724
 9579SOL     OW29635   0.925   6.794   2.523
 9579SOL    HW129636   0.948   6.879   2.475
 9579SOL    HW229637   0.974   6.791   2.610
 9580SOL     OW29638   5.461   3.409   6.934
 9580SOL    HW129639   5.440   3.507   6.932
 9580SOL    HW229640   5.383   3.360   6.973
 9581SOL     OW29641   2.219   4.763   6.221
 9581SOL    HW129642   2.127   4.724   6.220
 9581SOL    HW229643   2.283   4.698   6.180
 9582SOL     OW29644   4.386   4.645   3.946
 9582SOL    HW129645   4.477   4.684   3.961
 9582SOL    HW229646   4.357   4.595   4.027
 9583SOL     OW29647   2.069   3.293   1.851
 9583SOL    HW129648   2.115   3.311   1.764
 9583SOL    HW229649   2.126   3.325   1.927
 9584SOL     OW29650   5.811   5.861   6.806
 9584SOL    HW129651   5.852   5.884   6.894
 9584SOL    HW229652   5.836   5.768   6.779
 9585SOL     OW29653   5.987   0.112   2.558
 9585SOL    HW129654   5.924   0.044   2.598
 9585SOL    HW229655   6.080   0.077   2.563
 9586SOL     OW29656   5.521   3.369   3.554
 9586SOL    HW129657   5.511   3.375   3.654
 9586SOL    HW229658   5.432   3.387   3.511
 9587SOL     OW29659   6.024   0.244   1.461
 9587SOL    HW129660   5.949   0.188   1.497
 9587SOL    HW229661   5.992   0.294   1.380
 9588SOL     OW29662   0.255   0.994   1.336
 9588SOL    HW129663   0.215   0.937   1.407
 9588SOL    HW229664   0.193   1.069   1.314
 9589SOL     OW29665   2.428   6.497   6.401
 9589SOL    HW129666   2.360   6.549   6.453
 9589SOL    HW229667   2.406   6.399   6.405
 9590SOL     OW29668   0.154   3.603   2.261
 9590SOL    HW129669   0.242   3.649   2.248
 9590SOL    HW229670   0.132   3.549   2.180
 9591SOL     OW29671   2.259   6.768   0.713
 9591SOL    HW129672   2.294   6.709   0.641
 9591SOL    HW229673   2.181   6.723   0.757
 9592SOL     OW29674   4.095   5.203   2.938
 9592SOL    HW129675   4.154   5.213   3.018
 9592SOL    HW229676   4.002   5.183   2.967
 9593SOL     OW29677   5.435   2.265   4.254
 9593SOL    HW129678   5.375   2.339   4.224
 9593SOL    HW229679   5.525   2.276   4.212
 9594SOL     OW29680   6.651   6.716   2.990
 9594SOL    HW129681   6.596   6.685   3.068
 9594SOL    HW229682   6.676   6.637   2.934
 9595SOL     OW29683   2.082   5.516   4.863
 9595SOL    HW129684   2.021   5.576   4.812
 9595SOL    HW229685   2.147   5.571   4.915
 9596SOL     OW29686   0.131   5.321   5.674
 9596SOL    HW129687   0.067   5.360   5.740
 9596SOL    HW229688   0.082   5.260   5.612
 9597SOL     OW29689   0.343   4.196   2.047
 9597SOL    HW129690   0.283   4.134   1.997
 9597SOL    HW229691   0.311   4.203   2.142
 9598SOL     OW29692   0.068   4.155   5.406
 9598SOL    HW129693   0.059   4.247   5.368
 9598SOL    HW229694   6.999   4.131   5.454
 9599SOL     OW29695   3.601   0.227   5.178
 9599SOL    HW129696   3.685   0.194   5.134
 9599SOL    HW229697   3.540   0.265   5.108
 9600SOL     OW29698   1.587   0.512   5.523
 9600SOL    HW129699   1.518   0.442   5.505
 9600SOL    HW229700   1.617   0.506   5.618
 9601SOL     OW29701   0.140   4.045   6.252
 9601SOL    HW129702   0.112   3.951   6.273
 9601SOL    HW229703   0.101   4.072   6.164
 9602SOL     OW29704   6.671   4.905   5.907
 9602SOL    HW129705   6.600   4.866   5.848
 9602SOL    HW229706   6.761   4.891   5.864
 9603SOL     OW29707   2.625   6.328   4.522
 9603SOL    HW129708   2.677   6.383   4.457
 9603SOL    HW229709   2.688   6.271   4.576
 9604SOL     OW29710   4.849   1.007   0.770
 9604SOL    HW129711   4.776   1.041   0.710
 9604SOL    HW229712   4.876   0.915   0.741
 9605SOL     OW29713   1.297   4.747   5.582
 9605SOL    HW129714   1.320   4.817   5.515
 9605SOL    HW229715   1.358   4.669   5.571
 9606SOL     OW29716   0.973   6.891   3.217
 9606SOL    HW129717   0.912   6.920   3.290
 9606SOL    HW229718   1.068   6.910   3.244
 9607SOL     OW29719   0.792   1.019   1.783
 9607SOL    HW129720   0.712   1.068   1.746
 9607SOL    HW229721   0.794   0.927   1.746
 9608SOL     OW29722   6.603   6.825   2.066
 9608SOL    HW129723   6.538   6.828   2.142
 9608SOL    HW229724   6.696   6.831   2.101
 9609SOL     OW29725   1.798   4.282   4.696
 9609SOL    HW129726   1.859   4.257   4.621
 9609SOL    HW229727   1.720   4.220   4.697
 9610SOL     OW29728   1.807   2.542   5.930
 9610SOL    HW129729   1.826   2.503   6.020
 9610SOL    HW229730   1.709   2.558   5.920
 9611SOL     OW29731   6.616   0.309   0.834
 9611SOL    HW129732   6.516   0.313   0.837
 9611SOL    HW229733   6.653   0.333   0.923
 9612SOL     OW29734   6.724   2.918   1.188
 9612SOL    HW129735   6.632   2.958   1.195
 9612SOL    HW229736   6.738   2.884   1.095
 9613SOL     OW29737   5.401   6.752   4.036
 9613SOL    HW129738   5.338   6.828   4.046
 9613SOL    HW229739   5.493   6.781   4.061
 9614SOL     OW29740   3.875   3.945   2.365
 9614SOL    HW129741   3.875   3.910   2.271
 9614SOL    HW229742   3.813   4.023   2.371
 9615SOL     OW29743   2.420   5.553   2.914
 9615SOL    HW129744   2.386   5.522   3.003
 9615SOL    HW229745   2.387   5.491   2.843
 9616SOL     OW29746   3.858   3.119   1.342
 9616SOL    HW129747   3.793   3.124   1.266
 9616SOL    HW229748   3.907   3.206   1.348
 9617SOL     OW29749   1.232   3.613   3.488
 9617SOL    HW129750   1.264   3.531   3.537
 9617SOL    HW229751   1.135   3.626   3.504
 9618SOL     OW29752   3.860   6.785   6.505
 9618SOL    HW129753   3.899   6.804   6.595
 9618SOL    HW229754   3.762   6.805   6.506
 9619SOL     OW29755   1.774   5.883   0.253
 9619SOL    HW129756   1.693   5.931   0.287
 9619SOL    HW229757   1.757   5.852   0.160
 9620SOL     OW29758   4.126   0.343   6.229
 9620SOL    HW129759   4.110   0.266   6.292
 9620SOL    HW229760   4.076   0.423   6.262
 9621SOL     OW29761   1.119   0.209   2.193
 9621SOL    HW129762   1.214   0.240   2.183
 9621SOL    HW229763   1.059   0.287   2.208
 9622SOL     OW29764   7.005   1.480   6.875
 9622SOL    HW129765   6.998   1.442   6.967
 9622SOL    HW229766   0.057   1.554   6.874
 9623SOL     OW29767   4.638   5.826   6.356
 9623SOL    HW129768   4.679   5.912   6.325
 9623SOL    HW229769   4.566   5.798   6.293
 9624SOL     OW29770   5.357   5.245   5.073
 9624SOL    HW129771   5.317   5.218   5.160
 9624SOL    HW229772   5.455   5.260   5.084
 9625SOL     OW29773   5.433   4.353   6.524
 9625SOL    HW129774   5.409   4.384   6.616
 9625SOL    HW229775   5.402   4.259   6.510
 9626SOL     OW29776   1.719   4.468   4.474
 9626SOL    HW129777   1.759   4.448   4.564
 9626SOL    HW229778   1.777   4.429   4.403
 9627SOL     OW29779   1.838   4.083   5.533
 9627SOL    HW129780   1.849   4.135   5.617
 9627SOL    HW229781   1.917   4.023   5.519
 9628SOL     OW29782   5.944   4.079   0.184
 9628SOL    HW129783   5.972   4.095   0.278
 9628SOL    HW229784   5.929   4.167   0.138
 9629SOL     OW29785   6.684   6.316   3.177
 9629SOL    HW129786   6.630   6.344   3.098
 9629SOL    HW229787   6.703   6.395   3.235
 9630SOL     OW29788   6.213   6.186   5.694
 9630SOL    HW129789   6.219   6.281   5.665
 9630SOL    HW229790   6.144   6.178   5.766
 9631SOL     OW29791   4.672   1.065   1.221
 9631SOL    HW129792   4.757   1.068   1.169
 9631SOL    HW229793   4.616   0.988   1.189
 9632SOL     OW29794   2.004   5.465   1.543
 9632SOL    HW129795   1.953   5.470   1.629
 9632SOL    HW229796   2.080   5.401   1.552
 9633SOL     OW29797   3.818   2.880   2.191
 9633SOL    HW129798   3.844   2.853   2.098
 9633SOL    HW229799   3.829   2.802   2.252
 9634SOL     OW29800   5.674   4.225   2.740
 9634SOL    HW129801   5.735   4.159   2.785
 9634SOL    HW229802   5.610   4.261   2.808
 9635SOL     OW29803   0.269   3.975   3.858
 9635SOL    HW129804   0.282   4.026   3.943
 9635SOL    HW229805   0.189   4.010   3.809
 9636SOL     OW29806   4.433   1.430   5.548
 9636SOL    HW129807   4.440   1.381   5.635
 9636SOL    HW229808   4.352   1.400   5.499
 9637SOL     OW29809   2.664   2.893   1.498
 9637SOL    HW129810   2.603   2.905   1.577
 9637SOL    HW229811   2.728   2.818   1.516
 9638SOL     OW29812   0.031   4.159   5.997
 9638SOL    HW129813   6.979   4.234   5.999
 9638SOL    HW229814   6.999   4.074   5.972
 9639SOL     OW29815   4.543   2.472   1.961
 9639SOL    HW129816   4.475   2.461   1.888
 9639SOL    HW229817   4.598   2.554   1.942
 9640SOL     OW29818   4.111   1.351   2.191
 9640SOL    HW129819   4.129   1.418   2.119
 9640SOL    HW229820   4.014   1.326   2.190
 9641SOL     OW29821   5.597   5.435   3.064
 9641SOL    HW129822   5.521   5.493   3.034
 9641SOL    HW229823   5.568   5.339   3.061
 9642SOL     OW29824   1.589   0.155   4.050
 9642SOL    HW129825   1.647   0.115   4.121
 9642SOL    HW229826   1.618   0.250   4.034
 9643SOL     OW29827   4.811   4.020   3.715
 9643SOL    HW129828   4.764   3.977   3.792
 9643SOL    HW229829   4.897   4.060   3.746
 9644SOL     OW29830   2.262   6.182   4.683
 9644SOL    HW129831   2.220   6.222   4.764
 9644SOL    HW229832   2.279   6.254   4.615
 9645SOL     OW29833   1.482   4.330   5.074
 9645SOL    HW129834   1.485   4.382   5.159
 9645SOL    HW229835   1.568   4.343   5.024
 9646SOL     OW29836   2.823   6.413   4.082
 9646SOL    HW129837   2.743   6.465   4.053
 9646SOL    HW229838   2.906   6.464   4.060
 9647SOL     OW29839   6.475   5.891   3.324
 9647SOL    HW129840   6.414   5.970   3.318
 9647SOL    HW229841   6.484   5.849   3.234
 9648SOL     OW29842   5.290   2.926   1.628
 9648SOL    HW129843   5.359   2.884   1.570
 9648SOL    HW229844   5.202   2.880   1.614
 9649SOL     OW29845   2.026   3.749   6.330
 9649SOL    HW129846   2.074   3.836   6.325
 9649SOL    HW229847   2.091   3.674   6.316
 9650SOL     OW29848   6.334   4.892   3.638
 9650SOL    HW129849   6.244   4.905   3.680
 9650SOL    HW229850   6.395   4.846   3.702
 9651SOL     OW29851   3.302   1.130   0.769
 9651SOL    HW129852   3.254   1.099   0.687
 9651SOL    HW229853   3.242   1.120   0.849
 9652SOL     OW29854   0.653   4.534   1.014
 9652SOL    HW129855   0.748   4.546   0.986
 9652SOL    HW229856   0.649   4.462   1.084
 9653SOL     OW29857   4.378   4.638   5.714
 9653SOL    HW129858   4.422   4.549   5.716
 9653SOL    HW229859   4.314   4.646   5.791
 9654SOL     OW29860   3.299   3.026   2.970
 9654SOL    HW129861   3.377   2.963   2.970
 9654SOL    HW229862   3.261   3.033   3.062
 9655SOL     OW29863   0.090   1.551   0.614
 9655SOL    HW129864   0.044   1.639   0.616
 9655SOL    HW229865   0.188   1.564   0.626
 9656SOL     OW29866   4.770   2.605   0.372
 9656SOL    HW129867   4.691   2.659   0.398
 9656SOL    HW229868   4.746   2.544   0.297
 9657SOL     OW29869   5.182   4.086   3.522
 9657SOL    HW129870   5.210   4.049   3.611
 9657SOL    HW229871   5.219   4.029   3.449
 9658SOL     OW29872   5.199   1.976   2.525
 9658SOL    HW129873   5.278   2.034   2.544
 9658SOL    HW229874   5.169   1.931   2.609
 9659SOL     OW29875   3.021   1.295   0.030
 9659SOL    HW129876   3.028   1.343   6.958
 9659SOL    HW229877   3.043   1.198   0.017
 9660SOL     OW29878   0.460   6.594   1.317
 9660SOL    HW129879   0.492   6.688   1.306
 9660SOL    HW229880   0.533   6.538   1.355
 9661SOL     OW29881   4.407   5.662   1.136
 9661SOL    HW129882   4.385   5.627   1.045
 9661SOL    HW229883   4.397   5.589   1.203
 9662SOL     OW29884   5.352   4.183   6.946
 9662SOL    HW129885   5.307   4.194   0.020
 9662SOL    HW229886   5.445   4.150   6.961
 9663SOL     OW29887   0.581   4.480   2.497
 9663SOL    HW129888   0.519   4.512   2.569
 9663SOL    HW229889   0.556   4.387   2.470
 9664SOL     OW29890   5.045   4.148   3.761
 9664SOL    HW129891   5.145   4.140   3.760
 9664SOL    HW229892   5.020   4.243   3.779
 9665SOL     OW29893   6.644   6.395   5.653
 9665SOL    HW129894   6.588   6.317   5.624
 9665SOL    HW229895   6.661   6.387   5.752
 9666SOL     OW29896   6.353   4.598   1.245
 9666SOL    HW129897   6.371   4.661   1.321
 9666SOL    HW229898   6.314   4.514   1.281
 9667SOL     OW29899   4.560   3.977   1.078
 9667SOL    HW129900   4.607   3.905   1.130
 9667SOL    HW229901   4.555   4.060   1.133
 9668SOL     OW29902   1.181   0.800   6.035
 9668SOL    HW129903   1.135   0.746   5.964
 9668SOL    HW229904   1.140   0.891   6.038
 9669SOL     OW29905   2.966   0.426   0.643
 9669SOL    HW129906   2.942   0.381   0.556
 9669SOL    HW229907   2.892   0.485   0.672
 9670SOL     OW29908   0.597   5.972   5.455
 9670SOL    HW129909   0.534   5.963   5.532
 9670SOL    HW229910   0.545   5.985   5.371
 9671SOL     OW29911   0.785   4.475   0.348
 9671SOL    HW129912   0.762   4.493   0.252
 9671SOL    HW229913   0.722   4.525   0.407
 9672SOL     OW29914   1.577   5.030   2.917
 9672SOL    HW129915   1.613   4.943   2.952
 9672SOL    HW229916   1.479   5.021   2.898
 9673SOL     OW29917   3.599   3.953   1.346
 9673SOL    HW129918   3.594   4.028   1.411
 9673SOL    HW229919   3.507   3.932   1.312
 9674SOL     OW29920   3.619   6.515   2.727
 9674SOL    HW129921   3.520   6.518   2.745
 9674SOL    HW229922   3.641   6.430   2.679
 9675SOL     OW29923   5.404   3.916   0.086
 9675SOL    HW129924   5.398   4.012   0.112
 9675SOL    HW229925   5.312   3.883   0.063
 9676SOL     OW29926   1.404   3.281   6.607
 9676SOL    HW129927   1.356   3.277   6.695
 9676SOL    HW229928   1.501   3.263   6.622
 9677SOL     OW29929   6.346   5.276   6.488
 9677SOL    HW129930   6.360   5.361   6.538
 9677SOL    HW229931   6.250   5.247   6.497
 9678SOL     OW29932   3.272   3.684   4.579
 9678SOL    HW129933   3.217   3.736   4.645
 9678SOL    HW229934   3.216   3.664   4.498
 9679SOL     OW29935   2.642   1.917   4.252
 9679SOL    HW129936   2.615   1.977   4.177
 9679SOL    HW229937   2.720   1.956   4.300
 9680SOL     OW29938   5.116   0.155   5.229
 9680SOL    HW129939   5.168   0.172   5.312
 9680SOL    HW229940   5.097   0.241   5.182
 9681SOL     OW29941   2.918   1.616   1.731
 9681SOL    HW129942   2.907   1.629   1.829
 9681SOL    HW229943   3.015   1.605   1.709
 9682SOL     OW29944   4.755   4.450   3.534
 9682SOL    HW129945   4.709   4.492   3.456
 9682SOL    HW229946   4.787   4.359   3.509
 9683SOL     OW29947   2.693   6.655   0.599
 9683SOL    HW129948   2.666   6.726   0.535
 9683SOL    HW229949   2.765   6.598   0.559
 9684SOL     OW29950   0.844   3.625   4.857
 9684SOL    HW129951   0.894   3.680   4.924
 9684SOL    HW229952   0.753   3.603   4.894
 9685SOL     OW29953   4.561   3.742   0.433
 9685SOL    HW129954   4.502   3.773   0.507
 9685SOL    HW229955   4.657   3.747   0.463
 9686SOL     OW29956   0.679   3.037   0.478
 9686SOL    HW129957   0.637   3.068   0.563
 9686SOL    HW229958   0.608   3.002   0.417
 9687SOL     OW29959   6.376   0.164   2.070
 9687SOL    HW129960   6.340   0.123   1.986
 9687SOL    HW229961   6.471   0.137   2.083
 9688SOL     OW29962   0.760   3.976   0.963
 9688SOL    HW129963   0.835   3.912   0.949
 9688SOL    HW229964   0.764   4.013   1.055
 9689SOL     OW29965   0.883   4.594   6.206
 9689SOL    HW129966   0.850   4.592   6.112
 9689SOL    HW229967   0.982   4.578   6.207
 9690SOL     OW29968   4.252   5.841   5.973
 9690SOL    HW129969   4.211   5.782   6.042
 9690SOL    HW229970   4.203   5.928   5.969
 9691SOL     OW29971   3.220   3.877   2.519
 9691SOL    HW129972   3.264   3.788   2.518
 9691SOL    HW229973   3.200   3.904   2.614
 9692SOL     OW29974   4.891   5.218   0.800
 9692SOL    HW129975   4.830   5.150   0.761
 9692SOL    HW229976   4.838   5.286   0.850
 9693SOL     OW29977   5.538   4.452   4.149
 9693SOL    HW129978   5.614   4.414   4.202
 9693SOL    HW229979   5.573   4.498   4.068
 9694SOL     OW29980   4.007   0.564   1.312
 9694SOL    HW129981   4.047   0.653   1.331
 9694SOL    HW229982   3.920   0.555   1.360
 9695SOL     OW29983   0.102   3.192   2.676
 9695SOL    HW129984   0.161   3.111   2.683
 9695SOL    HW229985   0.012   3.164   2.642
 9696SOL     OW29986   5.789   1.622   2.408
 9696SOL    HW129987   5.800   1.526   2.384
 9696SOL    HW229988   5.880   1.665   2.416
 9697SOL     OW29989   0.355   6.645   0.943
 9697SOL    HW129990   0.297   6.564   0.933
 9697SOL    HW229991   0.450   6.620   0.926
 9698SOL     OW29992   5.937   2.934   6.352
 9698SOL    HW129993   5.989   2.964   6.271
 9698SOL    HW229994   6.000   2.895   6.419
 9699SOL     OW29995   0.854   6.103   7.005
 9699SOL    HW129996   0.782   6.050   6.961
 9699SOL    HW229997   0.932   6.044   0.009
 9700SOL     OW29998   6.340   5.381   3.720
 9700SOL    HW129999   6.258   5.390   3.777
 9700SOL    HW230000   6.406   5.322   3.766
 9701SOL     OW30001   4.324   3.714   5.966
 9701SOL    HW130002   4.348   3.662   5.884
 9701SOL    HW230003   4.331   3.655   6.046
 9702SOL     OW30004   4.020   2.663   6.956
 9702SOL    HW130005   4.075   2.600   7.010
 9702SOL    HW230006   4.057   2.756   6.965
 9703SOL     OW30007   5.484   3.700   4.498
 9703SOL    HW130008   5.503   3.715   4.595
 9703SOL    HW230009   5.536   3.621   4.466
 9704SOL     OW30010   3.252   5.376   2.394
 9704SOL    HW130011   3.225   5.307   2.460
 9704SOL    HW230012   3.339   5.349   2.351
 9705SOL     OW30013   6.305   4.340   5.746
 9705SOL    HW130014   6.392   4.355   5.698
 9705SOL    HW230015   6.293   4.242   5.763
 9706SOL     OW30016   2.243   2.186   1.386
 9706SOL    HW130017   2.273   2.210   1.294
 9706SOL    HW230018   2.297   2.108   1.419
 9707SOL     OW30019   5.484   5.182   2.419
 9707SOL    HW130020   5.461   5.100   2.471
 9707SOL    HW230021   5.399   5.227   2.389
 9708SOL     OW30022   1.441   1.567   2.477
 9708SOL    HW130023   1.538   1.549   2.495
 9708SOL    HW230024   1.407   1.634   2.543
 9709SOL     OW30025   4.858   4.499   2.177
 9709SOL    HW130026   4.798   4.422   2.156
 9709SOL    HW230027   4.884   4.495   2.273
 9710SOL     OW30028   6.478   0.345   0.334
 9710SOL    HW130029   6.404   0.374   0.395
 9710SOL    HW230030   6.560   0.325   0.388
 9711SOL     OW30031   3.549   5.674   6.456
 9711SOL    HW130032   3.481   5.633   6.395
 9711SOL    HW230033   3.539   5.635   6.548
 9712SOL     OW30034   6.466   3.370   0.425
 9712SOL    HW130035   6.481   3.435   0.499
 9712SOL    HW230036   6.432   3.418   0.344
 9713SOL     OW30037   2.985   5.947   3.589
 9713SOL    HW130038   2.916   5.996   3.535
 9713SOL    HW230039   2.947   5.923   3.678
 9714SOL     OW30040   4.064   6.317   5.698
 9714SOL    HW130041   3.999   6.245   5.676
 9714SOL    HW230042   4.097   6.304   5.792
 9715SOL     OW30043   5.821   5.027   6.752
 9715SOL    HW130044   5.825   4.992   6.658
 9715SOL    HW230045   5.832   4.951   6.816
 9716SOL     OW30046   3.611   4.204   6.642
 9716SOL    HW130047   3.626   4.231   6.546
 9716SOL    HW230048   3.678   4.134   6.667
 9717SOL     OW30049   4.744   6.395   0.068
 9717SOL    HW130050   4.712   6.300   0.071
 9717SOL    HW230051   4.669   6.455   0.042
 9718SOL     OW30052   4.069   2.589   0.909
 9718SOL    HW130053   3.998   2.564   0.975
 9718SOL    HW230054   4.132   2.512   0.898
 9719SOL     OW30055   5.585   6.841   5.646
 9719SOL    HW130056   5.677   6.880   5.642
 9719SOL    HW230057   5.522   6.897   5.593
 9720SOL     OW30058   0.682   3.476   2.438
 9720SOL    HW130059   0.700   3.499   2.342
 9720SOL    HW230060   0.731   3.392   2.462
 9721SOL     OW30061   0.419   1.567   6.801
 9721SOL    HW130062   0.509   1.610   6.801
 9721SOL    HW230063   0.368   1.598   6.721
 9722SOL     OW30064   3.368   1.314   4.996
 9722SOL    HW130065   3.431   1.346   4.925
 9722SOL    HW230066   3.412   1.242   5.050
 9723SOL     OW30067   5.558   5.543   4.187
 9723SOL    HW130068   5.596   5.613   4.247
 9723SOL    HW230069   5.624   5.524   4.114
 9724SOL     OW30070   2.343   4.795   6.762
 9724SOL    HW130071   2.342   4.695   6.756
 9724SOL    HW230072   2.436   4.828   6.749
 9725SOL     OW30073   4.538   5.779   5.775
 9725SOL    HW130074   4.590   5.864   5.785
 9725SOL    HW230075   4.442   5.797   5.797
 9726SOL     OW30076   4.707   1.935   4.709
 9726SOL    HW130077   4.762   1.857   4.678
 9726SOL    HW230078   4.610   1.912   4.703
 9727SOL     OW30079   0.971   2.451   0.503
 9727SOL    HW130080   0.924   2.478   0.418
 9727SOL    HW230081   1.024   2.529   0.537
 9728SOL     OW30082   7.006   2.008   5.952
 9728SOL    HW130083   0.067   2.047   5.901
 9728SOL    HW230084   6.921   2.053   5.924
 9729SOL     OW30085   1.245   4.081   3.554
 9729SOL    HW130086   1.224   4.004   3.495
 9729SOL    HW230087   1.160   4.121   3.588
 9730SOL     OW30088   0.822   4.078   2.828
 9730SOL    HW130089   0.760   4.066   2.750
 9730SOL    HW230090   0.858   4.171   2.829
 9731SOL     OW30091   4.731   5.421   2.048
 9731SOL    HW130092   4.693   5.340   2.002
 9731SOL    HW230093   4.669   5.450   2.120
 9732SOL     OW30094   0.212   2.931   1.828
 9732SOL    HW130095   0.221   2.927   1.928
 9732SOL    HW230096   0.300   2.956   1.788
 9733SOL     OW30097   5.559   5.834   1.222
 9733SOL    HW130098   5.535   5.856   1.317
 9733SOL    HW230099   5.495   5.879   1.160
 9734SOL     OW30100   6.511   0.068   0.218
 9734SOL    HW130101   6.544   0.150   0.264
 9734SOL    HW230102   6.548   7.002   0.262
 9735SOL     OW30103   1.625   2.860   3.382
 9735SOL    HW130104   1.601   2.805   3.462
 9735SOL    HW230105   1.555   2.929   3.366
 9736SOL     OW30106   5.214   1.839   5.964
 9736SOL    HW130107   5.168   1.764   6.011
 9736SOL    HW230108   5.215   1.920   6.023
 9737SOL     OW30109   5.594   2.172   2.941
 9737SOL    HW130110   5.561   2.226   3.018
 9737SOL    HW230111   5.525   2.105   2.915
 9738SOL     OW30112   1.276   6.918   0.654
 9738SOL    HW130113   1.298   6.853   0.726
 9738SOL    HW230114   1.227   6.996   0.692
 9739SOL     OW30115   4.936   6.063   0.252
 9739SOL    HW130116   4.959   6.132   0.183
 9739SOL    HW230117   4.849   6.019   0.227
 9740SOL     OW30118   6.028   1.119   3.012
 9740SOL    HW130119   6.111   1.159   3.051
 9740SOL    HW230120   6.026   1.137   2.914
 9741SOL     OW30121   2.570   0.498   3.742
 9741SOL    HW130122   2.568   0.398   3.746
 9741SOL    HW230123   2.518   0.535   3.819
 9742SOL     OW30124   3.976   1.058   0.373
 9742SOL    HW130125   3.918   1.064   0.454
 9742SOL    HW230126   4.066   1.022   0.399
 9743SOL     OW30127   0.085   4.630   3.066
 9743SOL    HW130128   0.048   4.634   2.973
 9743SOL    HW230129   0.114   4.722   3.095
 9744SOL     OW30130   2.472   0.079   2.957
 9744SOL    HW130131   2.493   0.126   3.042
 9744SOL    HW230132   2.407   0.006   2.975
 9745SOL     OW30133   5.242   3.021   6.722
 9745SOL    HW130134   5.209   3.076   6.645
 9745SOL    HW230135   5.339   3.040   6.738
 9746SOL     OW30136   5.473   6.229   5.981
 9746SOL    HW130137   5.438   6.275   5.900
 9746SOL    HW230138   5.517   6.295   6.041
 9747SOL     OW30139   3.071   2.202   1.727
 9747SOL    HW130140   3.149   2.170   1.779
 9747SOL    HW230141   2.988   2.196   1.783
 9748SOL     OW30142   0.043   6.767   2.876
 9748SOL    HW130143   0.065   6.697   2.808
 9748SOL    HW230144   0.097   6.750   2.959
 9749SOL     OW30145   0.919   1.358   2.852
 9749SOL    HW130146   1.013   1.324   2.865
 9749SOL    HW230147   0.870   1.296   2.791
 9750SOL     OW30148   6.385   5.896   3.864
 9750SOL    HW130149   6.361   5.804   3.832
 9750SOL    HW230150   6.484   5.904   3.870
 9751SOL     OW30151   1.612   6.989   0.564
 9751SOL    HW130152   1.691   0.033   0.582
 9751SOL    HW230153   1.528   0.029   0.567
 9752SOL     OW30154   3.608   1.711   5.625
 9752SOL    HW130155   3.708   1.719   5.627
 9752SOL    HW230156   3.580   1.629   5.675
 9753SOL     OW30157   1.266   5.870   6.483
 9753SOL    HW130158   1.311   5.912   6.405
 9753SOL    HW230159   1.173   5.907   6.492
 9754SOL     OW30160   2.707   0.344   0.748
 9754SOL    HW130161   2.621   0.292   0.754
 9754SOL    HW230162   2.771   0.309   0.816
 9755SOL     OW30163   3.588   3.930   5.036
 9755SOL    HW130164   3.524   3.895   4.968
 9755SOL    HW230165   3.659   3.862   5.054
 9756SOL     OW30166   6.187   2.203   6.595
 9756SOL    HW130167   6.158   2.298   6.599
 9756SOL    HW230168   6.114   2.146   6.557
 9757SOL     OW30169   5.744   4.286   5.185
 9757SOL    HW130170   5.814   4.352   5.160
 9757SOL    HW230171   5.762   4.199   5.138
 9758SOL     OW30172   1.901   1.028   0.329
 9758SOL    HW130173   1.863   1.049   0.239
 9758SOL    HW230174   1.974   0.960   0.318
 9759SOL     OW30175   0.937   1.754   0.733
 9759SOL    HW130176   0.856   1.808   0.758
 9759SOL    HW230177   0.922   1.658   0.759
 9760SOL     OW30178   4.812   3.362   6.110
 9760SOL    HW130179   4.768   3.378   6.199
 9760SOL    HW230180   4.795   3.268   6.081
 9761SOL     OW30181   1.313   2.668   2.474
 9761SOL    HW130182   1.268   2.608   2.540
 9761SOL    HW230183   1.272   2.759   2.479
 9762SOL     OW30184   3.364   1.455   4.593
 9762SOL    HW130185   3.417   1.510   4.529
 9762SOL    HW230186   3.267   1.458   4.568
 9763SOL     OW30187   5.801   0.493   3.447
 9763SOL    HW130188   5.793   0.487   3.547
 9763SOL    HW230189   5.782   0.586   3.418
 9764SOL     OW30190   6.606   2.267   2.266
 9764SOL    HW130191   6.567   2.194   2.323
 9764SOL    HW230192   6.702   2.246   2.247
 9765SOL     OW30193   6.559   6.932   2.829
 9765SOL    HW130194   6.622   6.999   2.790
 9765SOL    HW230195   6.608   6.875   2.895
 9766SOL     OW30196   1.930   6.622   2.790
 9766SOL    HW130197   1.920   6.523   2.794
 9766SOL    HW230198   2.022   6.645   2.757
 9767SOL     OW30199   2.391   2.815   5.302
 9767SOL    HW130200   2.387   2.897   5.245
 9767SOL    HW230201   2.473   2.818   5.360
 9768SOL     OW30202   4.342   1.417   1.501
 9768SOL    HW130203   4.425   1.387   1.549
 9768SOL    HW230204   4.350   1.514   1.480
 9769SOL     OW30205   3.814   0.711   4.558
 9769SOL    HW130206   3.743   0.767   4.600
 9769SOL    HW230207   3.799   0.615   4.580
 9770SOL     OW30208   4.012   1.395   5.238
 9770SOL    HW130209   4.013   1.384   5.139
 9770SOL    HW230210   3.920   1.376   5.273
 9771SOL     OW30211   2.304   5.969   1.011
 9771SOL    HW130212   2.268   5.891   1.063
 9771SOL    HW230213   2.250   5.981   0.928
 9772SOL     OW30214   2.059   6.290   1.253
 9772SOL    HW130215   1.992   6.217   1.245
 9772SOL    HW230216   2.150   6.255   1.231
 9773SOL     OW30217   5.114   5.521   3.623
 9773SOL    HW130218   5.092   5.427   3.650
 9773SOL    HW230219   5.032   5.565   3.587
 9774SOL     OW30220   0.685   5.474   2.938
 9774SOL    HW130221   0.661   5.536   3.013
 9774SOL    HW230222   0.742   5.400   2.973
 9775SOL     OW30223   3.042   0.075   3.785
 9775SOL    HW130224   3.119   0.116   3.834
 9775SOL    HW230225   2.956   0.114   3.819
 9776SOL     OW30226   1.203   4.015   5.713
 9776SOL    HW130227   1.279   3.977   5.766
 9776SOL    HW230228   1.208   4.115   5.714
 9777SOL     OW30229   5.216   5.877   1.012
 9777SOL    HW130230   5.256   5.831   1.091
 9777SOL    HW230231   5.118   5.891   1.029
 9778SOL     OW30232   6.796   1.771   5.158
 9778SOL    HW130233   6.752   1.845   5.210
 9778SOL    HW230234   6.889   1.758   5.192
 9779SOL     OW30235   0.329   2.331   3.787
 9779SOL    HW130236   0.236   2.295   3.782
 9779SOL    HW230237   0.363   2.323   3.880
 9780SOL     OW30238   2.324   2.032   0.962
 9780SOL    HW130239   2.251   1.973   0.928
 9780SOL    HW230240   2.347   2.101   0.893
 9781SOL     OW30241   2.123   3.399   4.517
 9781SOL    HW130242   2.222   3.403   4.529
 9781SOL    HW230243   2.088   3.490   4.495
 9782SOL     OW30244   0.679   1.633   0.383
 9782SOL    HW130245   0.773   1.667   0.384
 9782SOL    HW230246   0.663   1.582   0.299
 9783SOL     OW30247   4.399   2.435   3.447
 9783SOL    HW130248   4.337   2.376   3.499
 9783SOL    HW230249   4.362   2.449   3.355
 9784SOL     OW30250   3.857   0.676   5.697
 9784SOL    HW130251   3.929   0.715   5.755
 9784SOL    HW230252   3.844   0.580   5.721
 9785SOL     OW30253   6.559   2.230   5.540
 9785SOL    HW130254   6.468   2.261   5.513
 9785SOL    HW230255   6.555   2.133   5.564
 9786SOL     OW30256   2.820   3.170   0.637
 9786SOL    HW130257   2.743   3.125   0.681
 9786SOL    HW230258   2.788   3.252   0.590
 9787SOL     OW30259   3.190   3.581   3.174
 9787SOL    HW130260   3.265   3.568   3.237
 9787SOL    HW230261   3.160   3.492   3.138
 9788SOL     OW30262   0.752   0.188   1.542
 9788SOL    HW130263   0.789   0.158   1.631
 9788SOL    HW230264   0.658   0.219   1.554
 9789SOL     OW30265   1.985   6.455   6.959
 9789SOL    HW130266   2.022   6.367   6.987
 9789SOL    HW230267   2.051   6.503   6.902
 9790SOL     OW30268   6.514   4.522   5.916
 9790SOL    HW130269   6.509   4.619   5.892
 9790SOL    HW230270   6.538   4.469   5.834
 9791SOL     OW30271   0.329   0.692   6.870
 9791SOL    HW130272   0.286   0.745   6.943
 9791SOL    HW230273   0.260   0.663   6.804
 9792SOL     OW30274   3.507   5.029   0.782
 9792SOL    HW130275   3.439   5.095   0.749
 9792SOL    HW230276   3.471   4.937   0.773
 9793SOL     OW30277   4.306   0.169   2.553
 9793SOL    HW130278   4.354   0.091   2.593
 9793SOL    HW230279   4.294   0.240   2.622
 9794SOL     OW30280   6.389   4.436   5.339
 9794SOL    HW130281   6.393   4.430   5.239
 9794SOL    HW230282   6.370   4.531   5.365
 9795SOL     OW30283   1.240   3.178   4.388
 9795SOL    HW130284   1.148   3.177   4.347
 9795SOL    HW230285   1.297   3.245   4.340
 9796SOL     OW30286   4.003   3.676   3.082
 9796SOL    HW130287   3.944   3.607   3.124
 9796SOL    HW230288   3.947   3.750   3.044
 9797SOL     OW30289   1.914   5.359   6.916
 9797SOL    HW130290   1.980   5.289   6.944
 9797SOL    HW230291   1.956   5.421   6.850
 9798SOL     OW30292   2.774   0.763   1.883
 9798SOL    HW130293   2.752   0.694   1.952
 9798SOL    HW230294   2.774   0.721   1.793
 9799SOL     OW30295   2.643   4.043   5.929
 9799SOL    HW130296   2.695   4.085   5.855
 9799SOL    HW230297   2.584   4.111   5.971
 9800SOL     OW30298   5.155   4.555   4.290
 9800SOL    HW130299   5.107   4.590   4.370
 9800SOL    HW230300   5.123   4.463   4.269
 9801SOL     OW30301   4.724   4.523   0.120
 9801SOL    HW130302   4.684   4.604   0.161
 9801SOL    HW230303   4.651   4.457   0.099
 9802SOL     OW30304   4.821   5.218   0.527
 9802SOL    HW130305   4.774   5.156   0.464
 9802SOL    HW230306   4.881   5.165   0.587
 9803SOL     OW30307   1.664   3.148   6.336
 9803SOL    HW130308   1.576   3.115   6.303
 9803SOL    HW230309   1.727   3.159   6.259
 9804SOL     OW30310   0.499   5.916   2.984
 9804SOL    HW130311   0.406   5.886   2.960
 9804SOL    HW230312   0.560   5.837   2.981
 9805SOL     OW30313   0.296   6.876   3.330
 9805SOL    HW130314   0.390   6.908   3.345
 9805SOL    HW230315   0.236   6.914   3.400
 9806SOL     OW30316   1.477   1.303   6.891
 9806SOL    HW130317   1.527   1.356   6.822
 9806SOL    HW230318   1.475   1.353   6.977
 9807SOL     OW30319   3.346   3.930   1.297
 9807SOL    HW130320   3.279   3.874   1.248
 9807SOL    HW230321   3.301   4.013   1.331
 9808SOL     OW30322   3.476   5.722   4.576
 9808SOL    HW130323   3.464   5.764   4.667
 9808SOL    HW230324   3.457   5.791   4.506
 9809SOL     OW30325   0.358   3.688   0.157
 9809SOL    HW130326   0.283   3.663   0.096
 9809SOL    HW230327   0.391   3.607   0.205
 9810SOL     OW30328   2.965   2.165   4.628
 9810SOL    HW130329   2.994   2.146   4.722
 9810SOL    HW230330   3.035   2.133   4.564
 9811SOL     OW30331   5.973   4.803   3.682
 9811SOL    HW130332   5.885   4.780   3.641
 9811SOL    HW230333   6.027   4.720   3.694
 9812SOL     OW30334   3.369   1.761   5.413
 9812SOL    HW130335   3.396   1.669   5.383
 9812SOL    HW230336   3.437   1.794   5.479
 9813SOL     OW30337   5.365   1.737   0.843
 9813SOL    HW130338   5.363   1.824   0.891
 9813SOL    HW230339   5.275   1.717   0.806
 9814SOL     OW30340   6.176   1.084   0.228
 9814SOL    HW130341   6.252   1.070   0.164
 9814SOL    HW230342   6.089   1.073   0.180
 9815SOL     OW30343   4.615   2.678   4.410
 9815SOL    HW130344   4.557   2.602   4.440
 9815SOL    HW230345   4.666   2.651   4.329
 9816SOL     OW30346   0.514   1.499   6.040
 9816SOL    HW130347   0.451   1.508   6.117
 9816SOL    HW230348   0.464   1.503   5.954
 9817SOL     OW30349   1.456   0.005   3.425
 9817SOL    HW130350   1.521   6.946   3.442
 9817SOL    HW230351   1.500   0.093   3.442
 9818SOL     OW30352   6.384   2.016   4.438
 9818SOL    HW130353   6.399   2.048   4.532
 9818SOL    HW230354   6.416   2.084   4.373
 9819SOL     OW30355   4.815   3.114   3.561
 9819SOL    HW130356   4.826   3.141   3.657
 9819SOL    HW230357   4.875   3.036   3.542
 9820SOL     OW30358   3.870   3.166   6.737
 9820SOL    HW130359   3.940   3.237   6.749
 9820SOL    HW230360   3.794   3.203   6.682
 9821SOL     OW30361   5.940   1.240   6.665
 9821SOL    HW130362   5.981   1.282   6.746
 9821SOL    HW230363   5.893   1.156   6.692
 9822SOL     OW30364   1.681   6.870   3.603
 9822SOL    HW130365   1.721   6.958   3.575
 9822SOL    HW230366   1.673   6.868   3.702
 9823SOL     OW30367   3.730   6.911   0.841
 9823SOL    HW130368   3.630   6.909   0.848
 9823SOL    HW230369   3.764   6.821   0.815
 9824SOL     OW30370   1.913   4.577   5.010
 9824SOL    HW130371   1.852   4.641   5.056
 9824SOL    HW230372   1.965   4.526   5.078
 9825SOL     OW30373   3.858   5.049   6.109
 9825SOL    HW130374   3.814   5.043   6.020
 9825SOL    HW230375   3.795   5.088   6.176
 9826SOL     OW30376   5.076   5.043   6.176
 9826SOL    HW130377   5.092   4.969   6.111
 9826SOL    HW230378   5.138   5.119   6.156
 9827SOL     OW30379   2.140   3.225   3.831
 9827SOL    HW130380   2.166   3.321   3.821
 9827SOL    HW230381   2.080   3.198   3.756
 9828SOL     OW30382   2.235   3.274   6.160
 9828SOL    HW130383   2.290   3.223   6.226
 9828SOL    HW230384   2.195   3.355   6.203
 9829SOL     OW30385   2.730   5.976   0.149
 9829SOL    HW130386   2.774   6.047   0.204
 9829SOL    HW230387   2.633   5.999   0.137
 9830SOL     OW30388   5.311   2.535   1.681
 9830SOL    HW130389   5.290   2.617   1.735
 9830SOL    HW230390   5.227   2.481   1.669
 9831SOL     OW30391   1.886   5.897   0.792
 9831SOL    HW130392   1.894   5.823   0.859
 9831SOL    HW230393   1.915   5.864   0.702
 9832SOL     OW30394   5.164   5.763   2.768
 9832SOL    HW130395   5.213   5.731   2.686
 9832SOL    HW230396   5.135   5.857   2.754
 9833SOL     OW30397   3.702   2.897   5.021
 9833SOL    HW130398   3.606   2.874   5.035
 9833SOL    HW230399   3.759   2.842   5.082
 9834SOL     OW30400   3.211   4.311   5.562
 9834SOL    HW130401   3.284   4.319   5.494
 9834SOL    HW230402   3.154   4.393   5.559
 9835SOL     OW30403   3.544   2.438   5.828
 9835SOL    HW130404   3.602   2.438   5.910
 9835SOL    HW230405   3.551   2.349   5.783
 9836SOL     OW30406   6.114   4.585   3.747
 9836SOL    HW130407   6.037   4.524   3.768
 9836SOL    HW230408   6.199   4.539   3.770
 9837SOL     OW30409   3.177   0.133   2.728
 9837SOL    HW130410   3.197   0.174   2.817
 9837SOL    HW230411   3.227   0.182   2.657
 9838SOL     OW30412   0.727   6.514   6.017
 9838SOL    HW130413   0.779   6.476   6.093
 9838SOL    HW230414   0.660   6.580   6.053
 9839SOL     OW30415   5.771   1.305   3.365
 9839SOL    HW130416   5.677   1.271   3.367
 9839SOL    HW230417   5.776   1.385   3.305
 9840SOL     OW30418   0.615   1.242   1.735
 9840SOL    HW130419   0.671   1.297   1.796
 9840SOL    HW230420   0.650   1.249   1.642
 9841SOL     OW30421   1.773   4.028   4.421
 9841SOL    HW130422   1.825   4.108   4.450
 9841SOL    HW230423   1.835   3.953   4.399
 9842SOL     OW30424   4.145   3.585   2.839
 9842SOL    HW130425   4.125   3.601   2.936
 9842SOL    HW230426   4.132   3.488   2.818
 9843SOL     OW30427   5.830   0.798   1.002
 9843SOL    HW130428   5.857   0.703   0.983
 9843SOL    HW230429   5.911   0.857   0.997
 9844SOL     OW30430   5.752   0.987   2.203
 9844SOL    HW130431   5.825   0.953   2.143
 9844SOL    HW230432   5.727   1.080   2.174
 9845SOL     OW30433   2.976   1.511   3.230
 9845SOL    HW130434   2.918   1.430   3.216
 9845SOL    HW230435   3.033   1.526   3.150
 9846SOL     OW30436   4.106   3.634   1.886
 9846SOL    HW130437   4.107   3.694   1.806
 9846SOL    HW230438   4.063   3.547   1.861
 9847SOL     OW30439   3.164   2.984   4.870
 9847SOL    HW130440   3.250   2.949   4.833
 9847SOL    HW230441   3.153   2.951   4.964
 9848SOL     OW30442   3.394   2.800   6.128
 9848SOL    HW130443   3.428   2.710   6.156
 9848SOL    HW230444   3.329   2.788   6.052
 9849SOL     OW30445   0.139   0.247   0.460
 9849SOL    HW130446   0.066   0.179   0.461
 9849SOL    HW230447   0.101   0.338   0.470
 9850SOL     OW30448   6.048   0.148   3.649
 9850SOL    HW130449   6.024   0.065   3.599
 9850SOL    HW230450   5.967   0.204   3.662
 9851SOL     OW30451   4.960   1.806   5.304
 9851SOL    HW130452   4.980   1.878   5.371
 9851SOL    HW230453   4.863   1.809   5.279
 9852SOL     OW30454   4.040   2.214   2.801
 9852SOL    HW130455   4.131   2.236   2.764
 9852SOL    HW230456   3.996   2.146   2.742
 9853SOL     OW30457   4.866   4.819   4.186
 9853SOL    HW130458   4.836   4.910   4.215
 9853SOL    HW230459   4.923   4.827   4.104
 9854SOL     OW30460   0.713   5.736   4.550
 9854SOL    HW130461   0.774   5.671   4.594
 9854SOL    HW230462   0.679   5.699   4.464
 9855SOL     OW30463   2.232   3.493   0.959
 9855SOL    HW130464   2.271   3.448   1.039
 9855SOL    HW230465   2.184   3.577   0.988
 9856SOL     OW30466   4.934   3.815   6.152
 9856SOL    HW130467   4.974   3.723   6.145
 9856SOL    HW230468   4.861   3.814   6.219
 9857SOL     OW30469   4.521   2.177   3.923
 9857SOL    HW130470   4.440   2.234   3.913
 9857SOL    HW230471   4.600   2.223   3.882
 9858SOL     OW30472   0.319   1.015   0.760
 9858SOL    HW130473   0.394   1.060   0.809
 9858SOL    HW230474   0.277   0.947   0.820
 9859SOL     OW30475   5.692   6.883   2.132
 9859SOL    HW130476   5.658   6.973   2.159
 9859SOL    HW230477   5.644   6.812   2.184
 9860SOL     OW30478   0.468   1.514   3.521
 9860SOL    HW130479   0.377   1.503   3.483
 9860SOL    HW230480   0.533   1.537   3.448
 9861SOL     OW30481   3.365   6.879   3.011
 9861SOL    HW130482   3.378   6.978   3.004
 9861SOL    HW230483   3.449   6.832   2.984
 9862SOL     OW30484   3.215   4.053   0.225
 9862SOL    HW130485   3.228   4.140   0.177
 9862SOL    HW230486   3.291   3.992   0.203
 9863SOL     OW30487   3.719   0.174   3.313
 9863SOL    HW130488   3.747   0.100   3.252
 9863SOL    HW230489   3.722   0.142   3.408
 9864SOL     OW30490   3.795   6.088   4.036
 9864SOL    HW130491   3.731   6.160   4.009
 9864SOL    HW230492   3.872   6.129   4.086
 9865SOL     OW30493   1.378   0.834   3.638
 9865SOL    HW130494   1.449   0.867   3.699
 9865SOL    HW230495   1.416   0.819   3.547
 9866SOL     OW30496   5.027   4.810   6.023
 9866SOL    HW130497   4.967   4.735   5.996
 9866SOL    HW230498   5.102   4.776   6.079
 9867SOL     OW30499   5.486   0.710   0.618
 9867SOL    HW130500   5.545   0.640   0.577
 9867SOL    HW230501   5.543   0.779   0.662
 9868SOL     OW30502   0.811   4.124   5.269
 9868SOL    HW130503   0.810   4.219   5.300
 9868SOL    HW230504   0.743   4.071   5.320
 9869SOL     OW30505   1.545   3.113   2.575
 9869SOL    HW130506   1.617   3.178   2.598
 9869SOL    HW230507   1.567   3.024   2.615
 9870SOL     OW30508   3.742   5.936   2.680
 9870SOL    HW130509   3.692   5.926   2.766
 9870SOL    HW230510   3.678   5.959   2.607
 9871SOL     OW30511   0.182   6.070   6.326
 9871SOL    HW130512   0.189   6.167   6.302
 9871SOL    HW230513   0.261   6.043   6.380
 9872SOL     OW30514   2.411   4.798   4.177
 9872SOL    HW130515   2.338   4.761   4.233
 9872SOL    HW230516   2.462   4.724   4.134
 9873SOL     OW30517   2.762   2.038   0.487
 9873SOL    HW130518   2.818   2.121   0.481
 9873SOL    HW230519   2.779   1.980   0.407
 9874SOL     OW30520   0.676   3.441   4.342
 9874SOL    HW130521   0.745   3.473   4.278
 9874SOL    HW230522   0.719   3.379   4.408
 9875SOL     OW30523   6.270   0.009   1.878
 9875SOL    HW130524   6.281   0.080   1.809
 9875SOL    HW230525   6.303   6.936   1.842
 9876SOL     OW30526   6.831   0.756   3.099
 9876SOL    HW130527   6.838   0.695   3.178
 9876SOL    HW230528   6.776   0.835   3.124
 9877SOL     OW30529   0.127   6.111   3.519
 9877SOL    HW130530   0.183   6.112   3.601
 9877SOL    HW230531   0.181   6.078   3.442
 9878SOL     OW30532   2.761   4.822   5.194
 9878SOL    HW130533   2.782   4.785   5.284
 9878SOL    HW230534   2.768   4.749   5.126
 9879SOL     OW30535   5.449   5.412   4.795
 9879SOL    HW130536   5.479   5.399   4.700
 9879SOL    HW230537   5.370   5.354   4.813
 9880SOL     OW30538   2.965   0.963   5.520
 9880SOL    HW130539   2.936   1.053   5.486
 9880SOL    HW230540   2.957   0.961   5.620
 9881SOL     OW30541   1.069   1.359   4.641
 9881SOL    HW130542   1.089   1.399   4.730
 9881SOL    HW230543   1.049   1.432   4.576
 9882SOL     OW30544   1.130   3.359   3.717
 9882SOL    HW130545   1.157   3.264   3.732
 9882SOL    HW230546   1.108   3.402   3.804
 9883SOL     OW30547   0.970   6.337   0.057
 9883SOL    HW130548   1.063   6.323   0.023
 9883SOL    HW230549   0.916   6.255   0.040
 9884SOL     OW30550   4.839   2.220   2.520
 9884SOL    HW130551   4.842   2.157   2.597
 9884SOL    HW230552   4.905   2.192   2.450
 9885SOL     OW30553   6.681   2.313   4.945
 9885SOL    HW130554   6.741   2.360   4.880
 9885SOL    HW230555   6.729   2.235   4.984
 9886SOL     OW30556   1.279   4.206   2.312
 9886SOL    HW130557   1.248   4.299   2.296
 9886SOL    HW230558   1.302   4.163   2.224
 9887SOL     OW30559   3.444   0.550   5.569
 9887SOL    HW130560   3.502   0.632   5.568
 9887SOL    HW230561   3.455   0.501   5.483
 9888SOL     OW30562   6.001   4.537   2.737
 9888SOL    HW130563   5.992   4.452   2.789
 9888SOL    HW230564   6.085   4.584   2.765
 9889SOL     OW30565   0.124   4.858   1.205
 9889SOL    HW130566   0.216   4.834   1.237
 9889SOL    HW230567   0.091   4.938   1.255
 9890SOL     OW30568   1.899   2.082   0.788
 9890SOL    HW130569   1.897   2.162   0.848
 9890SOL    HW230570   1.946   2.105   0.703
 9891SOL     OW30571   4.880   3.824   2.094
 9891SOL    HW130572   4.864   3.731   2.126
 9891SOL    HW230573   4.978   3.837   2.078
 9892SOL     OW30574   0.025   4.909   0.740
 9892SOL    HW130575   0.116   4.868   0.741
 9892SOL    HW230576   6.978   4.855   0.798
 9893SOL     OW30577   0.875   0.538   1.038
 9893SOL    HW130578   0.958   0.493   1.006
 9893SOL    HW230579   0.881   0.555   1.136
 9894SOL     OW30580   2.898   2.222   1.314
 9894SOL    HW130581   2.859   2.284   1.382
 9894SOL    HW230582   2.931   2.139   1.359
 9895SOL     OW30583   6.332   4.879   4.684
 9895SOL    HW130584   6.292   4.958   4.730
 9895SOL    HW230585   6.371   4.817   4.752
 9896SOL     OW30586   6.920   0.674   6.421
 9896SOL    HW130587   6.901   0.751   6.483
 9896SOL    HW230588   7.001   0.696   6.366
 9897SOL     OW30589   5.663   6.016   2.891
 9897SOL    HW130590   5.587   5.993   2.952
 9897SOL    HW230591   5.652   5.966   2.805
 9898SOL     OW30592   1.673   5.851   4.524
 9898SOL    HW130593   1.710   5.792   4.596
 9898SOL    HW230594   1.735   5.929   4.511
 9899SOL     OW30595   1.123   5.840   0.683
 9899SOL    HW130596   1.070   5.823   0.766
 9899SOL    HW230597   1.220   5.832   0.704
 9900SOL     OW30598   1.804   2.824   2.935
 9900SOL    HW130599   1.733   2.777   2.988
 9900SOL    HW230600   1.894   2.805   2.975
 9901SOL     OW30601   2.482   0.619   6.765
 9901SOL    HW130602   2.542   0.638   6.687
 9901SOL    HW230603   2.434   0.533   6.749
 9902SOL     OW30604   3.474   4.871   1.232
 9902SOL    HW130605   3.493   4.917   1.145
 9902SOL    HW230606   3.413   4.928   1.287
 9903SOL     OW30607   5.528   2.511   1.418
 9903SOL    HW130608   5.444   2.469   1.384
 9903SOL    HW230609   5.538   2.490   1.515
 9904SOL     OW30610   0.676   3.639   6.413
 9904SOL    HW130611   0.699   3.690   6.496
 9904SOL    HW230612   0.648   3.546   6.438
 9905SOL     OW30613   1.898   0.357   6.075
 9905SOL    HW130614   1.895   0.372   6.173
 9905SOL    HW230615   1.941   0.436   6.030
 9906SOL     OW30616   2.203   3.398   1.639
 9906SOL    HW130617   2.243   3.425   1.726
 9906SOL    HW230618   2.273   3.358   1.581
 9907SOL     OW30619   0.717   6.944   1.451
 9907SOL    HW130620   0.735   0.025   1.429
 9907SOL    HW230621   0.788   6.887   1.409
 9908SOL     OW30622   5.933   1.480   5.018
 9908SOL    HW130623   5.955   1.548   4.949
 9908SOL    HW230624   5.908   1.394   4.973
 9909SOL     OW30625   4.585   1.494   2.734
 9909SOL    HW130626   4.545   1.537   2.654
 9909SOL    HW230627   4.561   1.396   2.734
 9910SOL     OW30628   1.356   5.326   1.989
 9910SOL    HW130629   1.320   5.236   1.965
 9910SOL    HW230630   1.284   5.380   2.034
 9911SOL     OW30631   2.336   6.114   1.797
 9911SOL    HW130632   2.279   6.188   1.761
 9911SOL    HW230633   2.418   6.152   1.839
 9912SOL     OW30634   3.867   0.272   1.373
 9912SOL    HW130635   3.960   0.237   1.368
 9912SOL    HW230636   3.816   0.243   1.293
 9913SOL     OW30637   6.454   3.707   0.962
 9913SOL    HW130638   6.466   3.671   1.055
 9913SOL    HW230639   6.537   3.689   0.909
 9914SOL     OW30640   5.934   1.066   5.259
 9914SOL    HW130641   5.951   1.164   5.257
 9914SOL    HW230642   5.889   1.042   5.345
 9915SOL     OW30643   5.747   1.121   3.645
 9915SOL    HW130644   5.806   1.136   3.565
 9915SOL    HW230645   5.721   1.209   3.684
 9916SOL     OW30646   2.169   1.935   2.712
 9916SOL    HW130647   2.199   1.875   2.638
 9916SOL    HW230648   2.246   1.988   2.746
 9917SOL     OW30649   5.123   4.435   6.573
 9917SOL    HW130650   5.134   4.339   6.546
 9917SOL    HW230651   5.193   4.459   6.639
 9918SOL     OW30652   2.879   1.854   3.362
 9918SOL    HW130653   2.954   1.798   3.326
 9918SOL    HW230654   2.892   1.867   3.460
 9919SOL     OW30655   0.659   5.197   0.619
 9919SOL    HW130656   0.681   5.126   0.552
 9919SOL    HW230657   0.584   5.254   0.585
 9920SOL     OW30658   5.432   1.768   2.271
 9920SOL    HW130659   5.372   1.737   2.345
 9920SOL    HW230660   5.408   1.861   2.245
 9921SOL     OW30661   4.220   6.413   5.138
 9921SOL    HW130662   4.310   6.371   5.142
 9921SOL    HW230663   4.206   6.453   5.047
 9922SOL     OW30664   1.975   4.026   0.868
 9922SOL    HW130665   1.963   4.068   0.778
 9922SOL    HW230666   1.888   4.025   0.916
 9923SOL     OW30667   5.563   5.099   0.002
 9923SOL    HW130668   5.623   5.020   7.006
 9923SOL    HW230669   5.618   5.179   0.027
 9924SOL     OW30670   6.511   1.602   3.577
 9924SOL    HW130671   6.467   1.515   3.599
 9924SOL    HW230672   6.454   1.653   3.512
 9925SOL     OW30673   0.374   4.093   4.084
 9925SOL    HW130674   0.388   4.172   4.143
 9925SOL    HW230675   0.366   4.011   4.141
 9926SOL     OW30676   4.452   2.965   1.388
 9926SOL    HW130677   4.353   2.957   1.391
 9926SOL    HW230678   4.493   2.877   1.365
 9927SOL     OW30679   0.763   0.076   0.763
 9927SOL    HW130680   0.778   0.100   0.667
 9927SOL    HW230681   0.754   0.159   0.818
 9928SOL     OW30682   5.144   4.970   3.162
 9928SOL    HW130683   5.198   5.019   3.231
 9928SOL    HW230684   5.203   4.908   3.112
 9929SOL     OW30685   3.431   4.170   5.143
 9929SOL    HW130686   3.513   4.158   5.088
 9929SOL    HW230687   3.380   4.084   5.146
 9930SOL     OW30688   6.399   6.380   5.089
 9930SOL    HW130689   6.412   6.381   5.188
 9930SOL    HW230690   6.487   6.363   5.044
 9931SOL     OW30691   0.338   5.760   4.188
 9931SOL    HW130692   0.406   5.726   4.253
 9931SOL    HW230693   0.262   5.695   4.183
 9932SOL     OW30694   3.203   3.190   6.193
 9932SOL    HW130695   3.250   3.126   6.132
 9932SOL    HW230696   3.131   3.237   6.142
 9933SOL     OW30697   0.734   5.845   3.484
 9933SOL    HW130698   0.696   5.827   3.394
 9933SOL    HW230699   0.668   5.818   3.554
 9934SOL     OW30700   6.535   1.921   5.537
 9934SOL    HW130701   6.472   1.878   5.602
 9934SOL    HW230702   6.624   1.874   5.541
 9935SOL     OW30703   3.103   6.552   0.296
 9935SOL    HW130704   3.098   6.596   0.206
 9935SOL    HW230705   3.114   6.453   0.284
 9936SOL     OW30706   6.777   4.520   0.000
 9936SOL    HW130707   6.685   4.548   6.985
 9936SOL    HW230708   6.845   4.552   6.950
 9937SOL     OW30709   6.984   1.393   1.744
 9937SOL    HW130710   6.892   1.420   1.773
 9937SOL    HW230711   6.987   1.388   1.644
 9938SOL     OW30712   6.747   5.135   3.445
 9938SOL    HW130713   6.744   5.178   3.536
 9938SOL    HW230714   6.803   5.052   3.450
 9939SOL     OW30715   4.355   2.298   1.508
 9939SOL    HW130716   4.282   2.231   1.520
 9939SOL    HW230717   4.418   2.267   1.437
 9940SOL     OW30718   0.938   0.592   1.281
 9940SOL    HW130719   1.035   0.615   1.271
 9940SOL    HW230720   0.929   0.511   1.338
 9941SOL     OW30721   3.504   3.123   4.935
 9941SOL    HW130722   3.604   3.112   4.934
 9941SOL    HW230723   3.461   3.034   4.955
 9942SOL     OW30724   2.558   5.681   2.605
 9942SOL    HW130725   2.548   5.780   2.599
 9942SOL    HW230726   2.472   5.638   2.578
 9943SOL     OW30727   0.376   4.352   5.543
 9943SOL    HW130728   0.280   4.349   5.572
 9943SOL    HW230729   0.387   4.422   5.472
 9944SOL     OW30730   0.862   4.250   6.504
 9944SOL    HW130731   0.928   4.218   6.572
 9944SOL    HW230732   0.812   4.171   6.468
 9945SOL     OW30733   4.712   5.266   6.565
 9945SOL    HW130734   4.810   5.255   6.581
 9945SOL    HW230735   4.682   5.201   6.495
 9946SOL     OW30736   6.395   0.494   3.366
 9946SOL    HW130737   6.423   0.429   3.296
 9946SOL    HW230738   6.416   0.587   3.336
 9947SOL     OW30739   2.386   2.352   4.816
 9947SOL    HW130740   2.304   2.369   4.761
 9947SOL    HW230741   2.458   2.313   4.758
 9948SOL     OW30742   6.084   4.494   5.769
 9948SOL    HW130743   6.003   4.438   5.791
 9948SOL    HW230744   6.163   4.434   5.755
 9949SOL     OW30745   6.867   5.215   4.273
 9949SOL    HW130746   6.960   5.247   4.254
 9949SOL    HW230747   6.827   5.178   4.189
 9950SOL     OW30748   5.516   5.994   5.712
 9950SOL    HW130749   5.417   5.988   5.724
 9950SOL    HW230750   5.560   6.002   5.801
 9951SOL     OW30751   0.228   1.405   3.854
 9951SOL    HW130752   0.198   1.498   3.835
 9951SOL    HW230753   0.268   1.401   3.946
 9952SOL     OW30754   1.184   4.638   0.603
 9952SOL    HW130755   1.211   4.597   0.516
 9952SOL    HW230756   1.224   4.729   0.610
 9953SOL     OW30757   5.563   2.516   4.428
 9953SOL    HW130758   5.491   2.475   4.483
 9953SOL    HW230759   5.582   2.457   4.349
 9954SOL     OW30760   0.477   0.616   5.932
 9954SOL    HW130761   0.438   0.529   5.903
 9954SOL    HW230762   0.514   0.665   5.853
 9955SOL     OW30763   6.037   3.112   5.439
 9955SOL    HW130764   5.945   3.139   5.409
 9955SOL    HW230765   6.030   3.062   5.526
 9956SOL     OW30766   1.340   6.317   1.896
 9956SOL    HW130767   1.310   6.303   1.802
 9956SOL    HW230768   1.316   6.410   1.925
 9957SOL     OW30769   5.343   6.260   2.618
 9957SOL    HW130770   5.340   6.189   2.548
 9957SOL    HW230771   5.250   6.295   2.635
 9958SOL     OW30772   2.685   5.316   6.864
 9958SOL    HW130773   2.652   5.337   6.956
 9958SOL    HW230774   2.785   5.316   6.864
 9959SOL     OW30775   3.999   3.755   4.815
 9959SOL    HW130776   4.039   3.755   4.724
 9959SOL    HW230777   4.070   3.772   4.884
 9960SOL     OW30778   0.098   0.327   2.132
 9960SOL    HW130779   0.046   0.373   2.205
 9960SOL    HW230780   0.187   0.370   2.123
 9961SOL     OW30781   1.571   5.355   4.455
 9961SOL    HW130782   1.570   5.278   4.392
 9961SOL    HW230783   1.500   5.342   4.525
 9962SOL     OW30784   5.556   5.929   1.520
 9962SOL    HW130785   5.583   6.003   1.581
 9962SOL    HW230786   5.460   5.940   1.494
 9963SOL     OW30787   2.663   3.354   6.699
 9963SOL    HW130788   2.612   3.285   6.647
 9963SOL    HW230789   2.684   3.432   6.639
 9964SOL     OW30790   5.429   4.298   6.095
 9964SOL    HW130791   5.373   4.242   6.155
 9964SOL    HW230792   5.411   4.395   6.112
 9965SOL     OW30793   4.000   6.520   6.516
 9965SOL    HW130794   4.090   6.532   6.474
 9965SOL    HW230795   3.947   6.604   6.504
 9966SOL     OW30796   2.321   5.716   2.269
 9966SOL    HW130797   2.325   5.713   2.169
 9966SOL    HW230798   2.243   5.772   2.297
 9967SOL     OW30799   5.950   6.895   1.974
 9967SOL    HW130800   5.958   6.992   1.949
 9967SOL    HW230801   5.885   6.885   2.048
 9968SOL     OW30802   2.999   3.517   6.648
 9968SOL    HW130803   2.975   3.535   6.553
 9968SOL    HW230804   2.937   3.450   6.687
 9969SOL     OW30805   1.933   2.515   3.406
 9969SOL    HW130806   1.928   2.613   3.424
 9969SOL    HW230807   1.869   2.467   3.466
 9970SOL     OW30808   5.496   4.283   2.950
 9970SOL    HW130809   5.401   4.253   2.942
 9970SOL    HW230810   5.529   4.266   3.043
 9971SOL     OW30811   2.866   5.014   0.691
 9971SOL    HW130812   2.811   5.068   0.627
 9971SOL    HW230813   2.816   4.933   0.718
 9972SOL     OW30814   4.033   4.543   1.328
 9972SOL    HW130815   4.058   4.637   1.307
 9972SOL    HW230816   4.102   4.502   1.387
 9973SOL     OW30817   4.380   2.239   4.182
 9973SOL    HW130818   4.369   2.177   4.260
 9973SOL    HW230819   4.394   2.185   4.099
 9974SOL     OW30820   6.656   2.991   3.573
 9974SOL    HW130821   6.662   3.087   3.546
 9974SOL    HW230822   6.585   2.946   3.518
 9975SOL     OW30823   6.178   4.954   6.854
 9975SOL    HW130824   6.250   5.024   6.858
 9975SOL    HW230825   6.115   4.967   6.930
 9976SOL     OW30826   1.139   6.506   5.386
 9976SOL    HW130827   1.077   6.453   5.328
 9976SOL    HW230828   1.098   6.518   5.476
 9977SOL     OW30829   0.100   5.287   5.296
 9977SOL    HW130830   0.088   5.241   5.208
 9977SOL    HW230831   0.132   5.380   5.281
 9978SOL     OW30832   6.367   3.185   2.957
 9978SOL    HW130833   6.378   3.086   2.947
 9978SOL    HW230834   6.315   3.221   2.879
 9979SOL     OW30835   6.044   4.650   5.546
 9979SOL    HW130836   6.045   4.587   5.624
 9979SOL    HW230837   5.970   4.717   5.558
 9980SOL     OW30838   1.807   1.552   5.859
 9980SOL    HW130839   1.904   1.528   5.869
 9980SOL    HW230840   1.758   1.474   5.819
 9981SOL     OW30841   2.318   1.824   1.711
 9981SOL    HW130842   2.226   1.809   1.675
 9981SOL    HW230843   2.313   1.833   1.811
 9982SOL     OW30844   0.278   0.680   3.320
 9982SOL    HW130845   0.212   0.624   3.270
 9982SOL    HW230846   0.306   0.631   3.403
 9983SOL     OW30847   0.475   2.753   3.664
 9983SOL    HW130848   0.438   2.697   3.590
 9983SOL    HW230849   0.506   2.840   3.627
 9984SOL     OW30850   1.708   0.954   0.499
 9984SOL    HW130851   1.785   0.997   0.451
 9984SOL    HW230852   1.710   0.856   0.485
 9985SOL     OW30853   2.316   1.204   1.338
 9985SOL    HW130854   2.407   1.189   1.376
 9985SOL    HW230855   2.286   1.297   1.358
 9986SOL     OW30856   5.226   3.979   5.814
 9986SOL    HW130857   5.180   4.041   5.877
 9986SOL    HW230858   5.175   3.975   5.728
 9987SOL     OW30859   0.000   2.715   3.770
 9987SOL    HW130860   0.010   2.684   3.864
 9987SOL    HW230861   0.074   2.676   3.714
 9988SOL     OW30862   0.398   5.364   5.425
 9988SOL    HW130863   0.442   5.384   5.513
 9988SOL    HW230864   0.402   5.266   5.407
 9989SOL     OW30865   6.592   4.164   3.295
 9989SOL    HW130866   6.513   4.140   3.238
 9989SOL    HW230867   6.561   4.221   3.371
 9990SOL     OW30868   2.621   5.525   1.705
 9990SOL    HW130869   2.706   5.515   1.653
 9990SOL    HW230870   2.550   5.564   1.646
 9991SOL     OW30871   2.053   2.745   4.260
 9991SOL    HW130872   1.973   2.689   4.279
 9991SOL    HW230873   2.039   2.837   4.297
 9992SOL     OW30874   5.238   5.010   0.505
 9992SOL    HW130875   5.264   5.098   0.545
 9992SOL    HW230876   5.139   4.997   0.515
 9993SOL     OW30877   3.735   0.784   1.041
 9993SOL    HW130878   3.770   0.874   1.067
 9993SOL    HW230879   3.665   0.756   1.106
 9994SOL     OW30880   0.156   5.119   3.209
 9994SOL    HW130881   0.085   5.059   3.172
 9994SOL    HW230882   0.175   5.094   3.304
 9995SOL     OW30883   4.497   1.246   2.690
 9995SOL    HW130884   4.595   1.231   2.677
 9995SOL    HW230885   4.448   1.160   2.678
 9996SOL     OW30886   2.416   3.114   1.287
 9996SOL    HW130887   2.414   3.119   1.187
 9996SOL    HW230888   2.355   3.041   1.318
 9997SOL     OW30889   3.383   2.200   0.804
 9997SOL    HW130890   3.431   2.117   0.834
 9997SOL    HW230891   3.387   2.207   0.704
 9998SOL     OW30892   5.660   4.425   0.033
 9998SOL    HW130893   5.636   4.358   6.979
 9998SOL    HW230894   5.756   4.415   0.059
 9999SOL     OW30895   0.408   2.659   5.520
 9999SOL    HW130896   0.413   2.690   5.425
 9999SOL    HW230897   0.495   2.681   5.566
10000SOL     OW30898   6.920   3.928   6.855
10000SOL    HW130899   6.988   3.934   6.781
10000SOL    HW230900   6.834   3.969   6.825
10001SOL     OW30901   4.665   0.318   2.287
10001SOL    HW130902   4.762   0.319   2.311
10001SOL    HW230903   4.620   0.241   2.331
10002SOL     OW30904   1.938   6.952   2.228
10002SOL    HW130905   1.879   6.871   2.222
10002SOL    HW230906   1.904   7.013   2.300
10003SOL     OW30907   3.652   1.116   3.221
10003SOL    HW130908   3.619   1.178   3.150
10003SOL    HW230909   3.739   1.076   3.193
10004SOL     OW30910   5.541   2.458   3.796
10004SOL    HW130911   5.441   2.457   3.796
10004SOL    HW230912   5.574   2.552   3.789
10005SOL     OW30913   4.948   0.812   4.452
10005SOL    HW130914   4.979   0.723   4.417
10005SOL    HW230915   4.901   0.799   4.539
10006SOL     OW30916   5.528   6.368   4.293
10006SOL    HW130917   5.447   6.311   4.302
10006SOL    HW230918   5.502   6.464   4.302
10007SOL     OW30919   0.219   5.009   5.679
10007SOL    HW130920   0.163   5.058   5.612
10007SOL    HW230921   0.276   4.941   5.632
10008SOL     OW30922   4.242   1.143   4.492
10008SOL    HW130923   4.291   1.225   4.461
10008SOL    HW230924   4.195   1.163   4.577
10009SOL     OW30925   1.934   3.780   1.718
10009SOL    HW130926   1.871   3.843   1.764
10009SOL    HW230927   2.021   3.825   1.702
10010SOL     OW30928   1.980   0.989   5.490
10010SOL    HW130929   1.989   1.064   5.555
10010SOL    HW230930   1.941   1.023   5.405
10011SOL     OW30931   5.259   1.555   5.259
10011SOL    HW130932   5.245   1.519   5.167
10011SOL    HW230933   5.204   1.638   5.270
10012SOL     OW30934   5.867   1.035   3.196
10012SOL    HW130935   5.788   1.091   3.170
10012SOL    HW230936   5.943   1.053   3.134
10013SOL     OW30937   0.429   1.297   3.692
10013SOL    HW130938   0.372   1.318   3.771
10013SOL    HW230939   0.470   1.382   3.657
10014SOL     OW30940   6.691   3.835   0.807
10014SOL    HW130941   6.762   3.868   0.745
10014SOL    HW230942   6.734   3.796   0.889
10015SOL     OW30943   2.193   4.434   0.282
10015SOL    HW130944   2.288   4.450   0.310
10015SOL    HW230945   2.181   4.462   0.187
10016SOL     OW30946   1.367   0.799   6.492
10016SOL    HW130947   1.431   0.755   6.428
10016SOL    HW230948   1.309   0.729   6.534
10017SOL     OW30949   2.796   1.331   3.193
10017SOL    HW130950   2.714   1.364   3.241
10017SOL    HW230951   2.768   1.271   3.118
10018SOL     OW30952   4.426   0.212   5.588
10018SOL    HW130953   4.511   0.265   5.600
10018SOL    HW230954   4.349   0.275   5.580
10019SOL     OW30955   7.002   2.287   3.065
10019SOL    HW130956   0.014   2.205   3.015
10019SOL    HW230957   0.042   2.296   3.148
10020SOL     OW30958   1.447   2.306   1.775
10020SOL    HW130959   1.382   2.233   1.799
10020SOL    HW230960   1.434   2.332   1.679
10021SOL     OW30961   6.867   2.730   1.438
10021SOL    HW130962   6.895   2.814   1.392
10021SOL    HW230963   6.873   2.742   1.537
10022SOL     OW30964   2.784   0.902   6.046
10022SOL    HW130965   2.801   0.932   6.140
10022SOL    HW230966   2.766   0.804   6.045
10023SOL     OW30967   1.086   5.452   6.951
10023SOL    HW130968   1.080   5.497   0.025
10023SOL    HW230969   1.005   5.396   6.936
10024SOL     OW30970   2.459   6.186   2.083
10024SOL    HW130971   2.484   6.134   2.164
10024SOL    HW230972   2.359   6.193   2.076
10025SOL     OW30973   1.552   2.183   1.324
10025SOL    HW130974   1.518   2.225   1.240
10025SOL    HW230975   1.532   2.243   1.402
10026SOL     OW30976   5.678   6.590   3.741
10026SOL    HW130977   5.674   6.647   3.659
10026SOL    HW230978   5.751   6.522   3.731
10027SOL     OW30979   6.412   4.027   4.693
10027SOL    HW130980   6.324   3.979   4.694
10027SOL    HW230981   6.446   4.035   4.786
10028SOL     OW30982   1.478   0.862   2.305
10028SOL    HW130983   1.543   0.905   2.242
10028SOL    HW230984   1.385   0.892   2.284
10029SOL     OW30985   5.139   1.465   4.787
10029SOL    HW130986   5.156   1.387   4.846
10029SOL    HW230987   5.058   1.447   4.730
10030SOL     OW30988   2.299   6.742   3.677
10030SOL    HW130989   2.274   6.836   3.701
10030SOL    HW230990   2.286   6.728   3.579
10031SOL     OW30991   5.663   5.072   4.871
10031SOL    HW130992   5.692   5.127   4.949
10031SOL    HW230993   5.563   5.069   4.868
10032SOL     OW30994   2.262   1.735   4.959
10032SOL    HW130995   2.361   1.733   4.975
10032SOL    HW230996   2.215   1.702   5.041
10033SOL     OW30997   6.523   2.953   4.355
10033SOL    HW130998   6.569   3.008   4.424
10033SOL    HW230999   6.429   2.984   4.345
10034SOL     OW31000   3.594   0.435   4.090
10034SOL    HW131001   3.637   0.352   4.126
10034SOL    HW231002   3.571   0.496   4.166
10035SOL     OW31003   6.518   4.901   1.713
10035SOL    HW131004   6.524   5.000   1.700
10035SOL    HW231005   6.589   4.856   1.658
10036SOL     OW31006   5.994   2.474   1.142
10036SOL    HW131007   6.050   2.446   1.220
10036SOL    HW231008   5.918   2.531   1.174
10037SOL     OW31009   0.486   1.359   0.420
10037SOL    HW131010   0.436   1.439   0.453
10037SOL    HW231011   0.424   1.280   0.420
10038SOL     OW31012   5.579   0.521   6.983
10038SOL    HW131013   5.645   0.494   0.038
10038SOL    HW231014   5.607   0.608   6.943
10039SOL     OW31015   3.794   0.664   3.483
10039SOL    HW131016   3.770   0.616   3.567
10039SOL    HW231017   3.883   0.631   3.450
10040SOL     OW31018   5.448   5.156   6.418
10040SOL    HW131019   5.391   5.162   6.336
10040SOL    HW231020   5.394   5.181   6.498
10041SOL     OW31021   4.295   5.818   6.767
10041SOL    HW131022   4.362   5.786   6.700
10041SOL    HW231023   4.230   5.879   6.723
10042SOL     OW31024   0.869   1.819   4.140
10042SOL    HW131025   0.919   1.905   4.137
10042SOL    HW231026   0.771   1.838   4.145
10043SOL     OW31027   6.893   1.686   4.762
10043SOL    HW131028   6.890   1.690   4.662
10043SOL    HW231029   6.960   1.617   4.789
10044SOL     OW31030   2.463   2.562   5.008
10044SOL    HW131031   2.516   2.637   4.969
10044SOL    HW231032   2.471   2.481   4.949
10045SOL     OW31033   3.774   0.634   1.471
10045SOL    HW131034   3.781   0.548   1.523
10045SOL    HW231035   3.817   0.707   1.523
10046SOL     OW31036   1.666   3.373   0.613
10046SOL    HW131037   1.606   3.326   0.677
10046SOL    HW231038   1.757   3.331   0.616
10047SOL     OW31039   0.856   3.182   5.259
10047SOL    HW131040   0.908   3.111   5.306
10047SOL    HW231041   0.906   3.213   5.179
10048SOL     OW31042   0.237   6.796   2.555
10048SOL    HW131043   0.302   6.736   2.601
10048SOL    HW231044   0.287   6.871   2.511
10049SOL     OW31045   1.405   1.522   5.690
10049SOL    HW131046   1.484   1.500   5.632
10049SOL    HW231047   1.390   1.447   5.755
10050SOL     OW31048   5.492   3.449   4.871
10050SOL    HW131049   5.393   3.438   4.873
10050SOL    HW231050   5.536   3.366   4.907
10051SOL     OW31051   0.617   4.164   4.596
10051SOL    HW131052   0.600   4.258   4.567
10051SOL    HW231053   0.703   4.159   4.647
10052SOL     OW31054   2.002   1.062   2.940
10052SOL    HW131055   1.945   1.006   2.879
10052SOL    HW231056   2.071   1.005   2.984
10053SOL     OW31057   4.241   6.020   4.089
10053SOL    HW131058   4.235   6.083   4.167
10053SOL    HW231059   4.162   5.959   4.088
10054SOL     OW31060   5.536   4.389   5.359
10054SOL    HW131061   5.616   4.361   5.305
10054SOL    HW231062   5.567   4.429   5.445
10055SOL     OW31063   6.454   2.459   5.734
10055SOL    HW131064   6.382   2.493   5.675
10055SOL    HW231065   6.542   2.462   5.685
10056SOL     OW31066   4.821   4.768   3.470
10056SOL    HW131067   4.865   4.696   3.417
10056SOL    HW231068   4.878   4.792   3.548
10057SOL     OW31069   5.619   3.580   5.358
10057SOL    HW131070   5.631   3.572   5.457
10057SOL    HW231071   5.536   3.633   5.340
10058SOL     OW31072   6.516   3.773   4.643
10058SOL    HW131073   6.599   3.782   4.698
10058SOL    HW231074   6.465   3.860   4.646
10059SOL     OW31075   6.913   2.301   0.691
10059SOL    HW131076   6.882   2.371   0.755
10059SOL    HW231077   6.868   2.313   0.603
10060SOL     OW31078   2.370   2.146   2.157
10060SOL    HW131079   2.398   2.157   2.061
10060SOL    HW231080   2.442   2.098   2.208
10061SOL     OW31081   4.208   1.034   3.870
10061SOL    HW131082   4.225   1.074   3.780
10061SOL    HW231083   4.204   0.934   3.861
10062SOL     OW31084   5.944   0.064   4.157
10062SOL    HW131085   5.910   6.985   4.161
10062SOL    HW231086   5.955   0.100   4.249
10063SOL     OW31087   3.054   1.818   4.269
10063SOL    HW131088   2.980   1.852   4.327
10063SOL    HW231089   3.024   1.737   4.220
10064SOL     OW31090   4.150   5.732   6.191
10064SOL    HW131091   4.071   5.793   6.197
10064SOL    HW231092   4.194   5.724   6.281
10065SOL     OW31093   1.480   0.600   1.914
10065SOL    HW131094   1.391   0.618   1.873
10065SOL    HW231095   1.481   0.632   2.009
10066SOL     OW31096   0.470   2.976   5.075
10066SOL    HW131097   0.425   2.914   5.011
10066SOL    HW231098   0.436   3.069   5.061
10067SOL     OW31099   0.456   3.021   6.353
10067SOL    HW131100   0.434   3.058   6.443
10067SOL    HW231101   0.519   2.943   6.364
10068SOL     OW31102   1.280   3.770   2.975
10068SOL    HW131103   1.261   3.850   2.917
10068SOL    HW231104   1.325   3.800   3.059
10069SOL     OW31105   3.467   4.857   1.617
10069SOL    HW131106   3.546   4.918   1.626
10069SOL    HW231107   3.408   4.891   1.544
10070SOL     OW31108   0.951   5.185   5.210
10070SOL    HW131109   0.987   5.186   5.303
10070SOL    HW231110   0.851   5.189   5.213
10071SOL     OW31111   1.060   0.337   3.916
10071SOL    HW131112   1.088   0.362   4.008
10071SOL    HW231113   1.098   0.247   3.892
10072SOL     OW31114   0.459   1.316   2.830
10072SOL    HW131115   0.377   1.278   2.787
10072SOL    HW231116   0.453   1.416   2.828
10073SOL     OW31117   6.142   3.435   3.695
10073SOL    HW131118   6.135   3.397   3.787
10073SOL    HW231119   6.234   3.471   3.680
10074SOL     OW31120   1.367   5.868   0.856
10074SOL    HW131121   1.347   5.827   0.945
10074SOL    HW231122   1.356   5.967   0.862
10075SOL     OW31123   1.929   0.038   2.495
10075SOL    HW131124   1.951   0.124   2.540
10075SOL    HW231125   1.997   6.984   2.519
10076SOL     OW31126   4.954   5.173   3.329
10076SOL    HW131127   4.911   5.260   3.353
10076SOL    HW231128   5.039   5.191   3.278
10077SOL     OW31129   5.515   2.829   0.238
10077SOL    HW131130   5.438   2.765   0.237
10077SOL    HW231131   5.577   2.806   0.314
10078SOL     OW31132   0.541   6.499   5.088
10078SOL    HW131133   0.473   6.516   5.160
10078SOL    HW231134   0.599   6.422   5.115
10079SOL     OW31135   5.516   2.292   3.324
10079SOL    HW131136   5.610   2.271   3.349
10079SOL    HW231137   5.454   2.251   3.390
10080SOL     OW31138   5.578   1.368   6.322
10080SOL    HW131139   5.523   1.417   6.255
10080SOL    HW231140   5.564   1.270   6.311
10081SOL     OW31141   0.931   1.731   0.370
10081SOL    HW131142   0.887   1.784   0.297
10081SOL    HW231143   1.019   1.697   0.338
10082SOL     OW31144   1.485   5.388   3.554
10082SOL    HW131145   1.575   5.348   3.532
10082SOL    HW231146   1.445   5.338   3.631
10083SOL     OW31147   3.601   6.188   3.660
10083SOL    HW131148   3.684   6.191   3.603
10083SOL    HW231149   3.548   6.106   3.636
10084SOL     OW31150   6.991   6.823   5.017
10084SOL    HW131151   6.942   6.745   4.978
10084SOL    HW231152   6.928   6.899   5.029
10085SOL     OW31153   4.469   6.822   0.310
10085SOL    HW131154   4.529   6.901   0.299
10085SOL    HW231155   4.520   6.747   0.352
10086SOL     OW31156   5.765   6.450   2.694
10086SOL    HW131157   5.674   6.426   2.728
10086SOL    HW231158   5.772   6.549   2.682
10087SOL     OW31159   0.641   6.599   4.381
10087SOL    HW131160   0.575   6.624   4.451
10087SOL    HW231161   0.689   6.682   4.350
10088SOL     OW31162   6.793   1.623   0.271
10088SOL    HW131163   6.763   1.625   0.175
10088SOL    HW231164   6.838   1.536   0.290
10089SOL     OW31165   3.594   1.071   2.813
10089SOL    HW131166   3.627   1.072   2.719
10089SOL    HW231167   3.494   1.075   2.813
10090SOL     OW31168   0.859   4.871   2.015
10090SOL    HW131169   0.816   4.960   2.002
10090SOL    HW231170   0.882   4.859   2.112
10091SOL     OW31171   6.545   6.161   6.711
10091SOL    HW131172   6.595   6.232   6.760
10091SOL    HW231173   6.568   6.165   6.614
10092SOL     OW31174   1.466   3.464   5.407
10092SOL    HW131175   1.487   3.446   5.311
10092SOL    HW231176   1.385   3.411   5.434
10093SOL     OW31177   4.936   3.387   4.887
10093SOL    HW131178   4.896   3.299   4.914
10093SOL    HW231179   4.877   3.461   4.919
10094SOL     OW31180   2.664   6.722   1.233
10094SOL    HW131181   2.692   6.687   1.322
10094SOL    HW231182   2.650   6.821   1.239
10095SOL     OW31183   5.572   1.976   4.581
10095SOL    HW131184   5.479   1.942   4.567
10095SOL    HW231185   5.637   1.903   4.561
10096SOL     OW31186   5.012   0.685   2.144
10096SOL    HW131187   4.968   0.654   2.228
10096SOL    HW231188   5.044   0.779   2.155
10097SOL     OW31189   1.996   2.217   6.546
10097SOL    HW131190   2.029   2.160   6.621
10097SOL    HW231191   2.054   2.297   6.537
10098SOL     OW31192   3.137   5.727   4.860
10098SOL    HW131193   3.049   5.684   4.880
10098SOL    HW231194   3.132   5.824   4.882
10099SOL     OW31195   6.475   4.514   1.542
10099SOL    HW131196   6.439   4.605   1.522
10099SOL    HW231197   6.467   4.456   1.461
10100SOL     OW31198   5.441   4.660   5.595
10100SOL    HW131199   5.514   4.595   5.616
10100SOL    HW231200   5.478   4.753   5.589
10101SOL     OW31201   6.694   3.144   1.811
10101SOL    HW131202   6.750   3.064   1.834
10101SOL    HW231203   6.659   3.133   1.718
10102SOL     OW31204   5.396   0.286   0.594
10102SOL    HW131205   5.344   0.306   0.677
10102SOL    HW231206   5.366   0.347   0.520
10103SOL     OW31207   0.952   0.455   5.539
10103SOL    HW131208   0.944   0.424   5.633
10103SOL    HW231209   1.020   0.401   5.491
10104SOL     OW31210   2.157   1.305   6.097
10104SOL    HW131211   2.131   1.273   6.006
10104SOL    HW231212   2.228   1.375   6.090
10105SOL     OW31213   2.970   1.193   5.741
10105SOL    HW131214   2.967   1.094   5.754
10105SOL    HW231215   2.927   1.238   5.820
10106SOL     OW31216   4.942   6.505   1.360
10106SOL    HW131217   4.911   6.427   1.414
10106SOL    HW231218   4.976   6.577   1.421
10107SOL     OW31219   5.143   4.148   6.794
10107SOL    HW131220   5.053   4.168   6.834
10107SOL    HW231221   5.213   4.152   6.865
10108SOL     OW31222   1.212   2.842   0.762
10108SOL    HW131223   1.298   2.879   0.794
10108SOL    HW231224   1.163   2.799   0.838
10109SOL     OW31225   1.009   0.861   0.225
10109SOL    HW131226   0.972   0.953   0.244
10109SOL    HW231227   1.100   0.870   0.183
10110SOL     OW31228   4.434   4.998   2.427
10110SOL    HW131229   4.427   5.054   2.344
10110SOL    HW231230   4.508   5.033   2.484
10111SOL     OW31231   0.799   3.057   2.098
10111SOL    HW131232   0.840   3.147   2.097
10111SOL    HW231233   0.866   2.989   2.129
10112SOL     OW31234   6.568   3.229   3.254
10112SOL    HW131235   6.593   3.195   3.163
10112SOL    HW231236   6.468   3.236   3.260
10113SOL     OW31237   4.472   1.207   6.679
10113SOL    HW131238   4.503   1.301   6.691
10113SOL    HW231239   4.373   1.205   6.666
10114SOL     OW31240   3.850   2.132   3.167
10114SOL    HW131241   3.914   2.197   3.127
10114SOL    HW231242   3.886   2.099   3.254
10115SOL     OW31243   3.644   1.469   4.219
10115SOL    HW131244   3.704   1.544   4.246
10115SOL    HW231245   3.673   1.384   4.262
10116SOL     OW31246   5.704   0.234   5.603
10116SOL    HW131247   5.796   0.269   5.620
10116SOL    HW231248   5.637   0.307   5.619
10117SOL     OW31249   6.832   5.345   5.418
10117SOL    HW131250   6.772   5.273   5.455
10117SOL    HW231251   6.924   5.308   5.406
10118SOL     OW31252   2.768   5.148   4.648
10118SOL    HW131253   2.742   5.215   4.579
10118SOL    HW231254   2.693   5.134   4.712
10119SOL     OW31255   0.038   5.064   3.964
10119SOL    HW131256   0.012   5.147   3.914
10119SOL    HW231257   0.128   5.077   4.005
10120SOL     OW31258   1.188   2.888   2.814
10120SOL    HW131259   1.258   2.942   2.861
10120SOL    HW231260   1.221   2.865   2.722
10121SOL     OW31261   5.855   4.988   0.612
10121SOL    HW131262   5.947   4.984   0.574
10121SOL    HW231263   5.790   5.011   0.540
10122SOL     OW31264   6.362   1.726   3.383
10122SOL    HW131265   6.302   1.668   3.328
10122SOL    HW231266   6.351   1.821   3.356
10123SOL     OW31267   5.795   6.399   0.901
10123SOL    HW131268   5.864   6.439   0.960
10123SOL    HW231269   5.839   6.341   0.833
10124SOL     OW31270   1.133   5.092   2.372
10124SOL    HW131271   1.176   5.014   2.416
10124SOL    HW231272   1.200   5.140   2.316
10125SOL     OW31273   2.096   1.097   1.693
10125SOL    HW131274   2.179   1.075   1.745
10125SOL    HW231275   2.075   1.194   1.703
10126SOL     OW31276   6.324   0.392   6.442
10126SOL    HW131277   6.275   0.393   6.530
10126SOL    HW231278   6.346   0.485   6.415
10127SOL     OW31279   1.135   4.303   5.749
10127SOL    HW131280   1.103   4.283   5.842
10127SOL    HW231281   1.227   4.341   5.754
10128SOL     OW31282   2.970   0.748   6.833
10128SOL    HW131283   3.041   0.738   6.902
10128SOL    HW231284   3.011   0.781   6.748
10129SOL     OW31285   6.541   1.511   2.933
10129SOL    HW131286   6.553   1.608   2.954
10129SOL    HW231287   6.460   1.499   2.875
10130SOL     OW31288   1.149   2.575   1.905
10130SOL    HW131289   1.140   2.499   1.970
10130SOL    HW231290   1.215   2.641   1.940
10131SOL     OW31291   2.260   1.091   4.435
10131SOL    HW131292   2.259   1.076   4.336
10131SOL    HW231293   2.285   1.006   4.481
10132SOL     OW31294   6.801   6.722   2.274
10132SOL    HW131295   6.884   6.751   2.225
10132SOL    HW231296   6.807   6.752   2.369
10133SOL     OW31297   4.693   5.472   0.930
10133SOL    HW131298   4.635   5.511   0.859
10133SOL    HW231299   4.769   5.535   0.950
10134SOL     OW31300   6.060   0.952   2.568
10134SOL    HW131301   6.017   0.976   2.481
10134SOL    HW231302   5.999   0.891   2.620
10135SOL     OW31303   5.587   0.837   4.032
10135SOL    HW131304   5.613   0.834   4.128
10135SOL    HW231305   5.656   0.888   3.980
10136SOL     OW31306   4.866   2.419   2.797
10136SOL    HW131307   4.910   2.507   2.782
10136SOL    HW231308   4.926   2.345   2.766
10137SOL     OW31309   0.523   5.453   5.652
10137SOL    HW131310   0.492   5.418   5.741
10137SOL    HW231311   0.517   5.553   5.652
10138SOL     OW31312   5.918   1.319   0.057
10138SOL    HW131313   5.826   1.358   0.048
10138SOL    HW231314   5.936   1.300   0.154
10139SOL     OW31315   3.233   3.321   5.837
10139SOL    HW131316   3.324   3.357   5.816
10139SOL    HW231317   3.176   3.393   5.877
10140SOL     OW31318   6.760   5.889   6.077
10140SOL    HW131319   6.672   5.866   6.035
10140SOL    HW231320   6.791   5.812   6.133
10141SOL     OW31321   3.845   1.409   3.815
10141SOL    HW131322   3.757   1.379   3.779
10141SOL    HW231323   3.896   1.331   3.852
10142SOL     OW31324   6.009   6.417   5.025
10142SOL    HW131325   6.045   6.357   5.097
10142SOL    HW231326   6.031   6.378   4.935
10143SOL     OW31327   5.362   3.209   0.289
10143SOL    HW131328   5.442   3.213   0.230
10143SOL    HW231329   5.381   3.151   0.368
10144SOL     OW31330   4.027   6.583   5.299
10144SOL    HW131331   4.075   6.637   5.367
10144SOL    HW231332   4.093   6.541   5.237
10145SOL     OW31333   4.841   5.979   1.562
10145SOL    HW131334   4.828   6.013   1.469
10145SOL    HW231335   4.752   5.958   1.603
10146SOL     OW31336   0.380   3.710   3.897
10146SOL    HW131337   0.370   3.795   3.846
10146SOL    HW231338   0.372   3.728   3.995
10147SOL     OW31339   4.364   5.034   6.310
10147SOL    HW131340   4.333   5.032   6.405
10147SOL    HW231341   4.367   4.940   6.274
10148SOL     OW31342   0.487   4.807   0.400
10148SOL    HW131343   0.515   4.835   0.308
10148SOL    HW231344   0.565   4.769   0.449
10149SOL     OW31345   4.622   5.209   1.916
10149SOL    HW131346   4.674   5.177   1.837
10149SOL    HW231347   4.529   5.172   1.912
10150SOL     OW31348   5.112   3.589   0.807
10150SOL    HW131349   5.158   3.651   0.743
10150SOL    HW231350   5.154   3.499   0.801
10151SOL     OW31351   0.209   0.145   5.734
10151SOL    HW131352   0.114   0.147   5.766
10151SOL    HW231353   0.269   0.113   5.807
10152SOL     OW31354   6.049   6.381   3.074
10152SOL    HW131355   6.102   6.345   2.998
10152SOL    HW231356   6.069   6.478   3.085
10153SOL     OW31357   4.575   5.575   4.175
10153SOL    HW131358   4.487   5.615   4.201
10153SOL    HW231359   4.585   5.485   4.217
10154SOL     OW31360   4.149   5.222   5.630
10154SOL    HW131361   4.090   5.185   5.558
10154SOL    HW231362   4.173   5.150   5.695
10155SOL     OW31363   4.977   2.229   5.932
10155SOL    HW131364   4.887   2.192   5.909
10155SOL    HW231365   4.970   2.288   6.012
10156SOL     OW31366   4.837   0.137   1.456
10156SOL    HW131367   4.806   0.136   1.551
10156SOL    HW231368   4.784   0.205   1.405
10157SOL     OW31369   6.818   2.508   0.844
10157SOL    HW131370   6.770   2.559   0.772
10157SOL    HW231371   6.759   2.501   0.924
10158SOL     OW31372   4.906   6.913   2.620
10158SOL    HW131373   4.937   6.930   2.713
10158SOL    HW231374   4.828   6.973   2.599
10159SOL     OW31375   3.633   3.240   3.173
10159SOL    HW131376   3.712   3.194   3.213
10159SOL    HW231377   3.557   3.238   3.237
10160SOL     OW31378   1.895   4.177   2.760
10160SOL    HW131379   1.944   4.155   2.676
10160SOL    HW231380   1.908   4.103   2.826
10161SOL     OW31381   3.407   4.931   6.308
10161SOL    HW131382   3.487   4.989   6.324
10161SOL    HW231383   3.357   4.967   6.229
10162SOL     OW31384   1.686   4.558   1.697
10162SOL    HW131385   1.772   4.506   1.691
10162SOL    HW231386   1.707   4.656   1.699
10163SOL     OW31387   1.756   6.069   5.121
10163SOL    HW131388   1.748   5.981   5.168
10163SOL    HW231389   1.781   6.053   5.025
10164SOL     OW31390   6.421   3.177   3.580
10164SOL    HW131391   6.518   3.201   3.571
10164SOL    HW231392   6.388   3.210   3.669
10165SOL     OW31393   5.679   2.681   3.760
10165SOL    HW131394   5.630   2.767   3.764
10165SOL    HW231395   5.775   2.696   3.784
10166SOL     OW31396   0.598   2.385   1.041
10166SOL    HW131397   0.545   2.407   1.123
10166SOL    HW231398   0.545   2.408   0.960
10167SOL     OW31399   0.243   5.098   6.481
10167SOL    HW131400   0.160   5.045   6.499
10167SOL    HW231401   0.228   5.158   6.402
10168SOL     OW31402   5.996   1.797   6.712
10168SOL    HW131403   6.027   1.892   6.721
10168SOL    HW231404   6.027   1.744   6.791
10169SOL     OW31405   0.145   4.115   2.921
10169SOL    HW131406   0.151   4.086   3.016
10169SOL    HW231407   0.130   4.035   2.862
10170SOL     OW31408   6.406   5.838   0.061
10170SOL    HW131409   6.403   5.934   0.036
10170SOL    HW231410   6.502   5.808   0.067
10171SOL     OW31411   1.761   2.361   5.638
10171SOL    HW131412   1.709   2.417   5.574
10171SOL    HW231413   1.842   2.410   5.668
10172SOL     OW31414   6.872   0.039   3.306
10172SOL    HW131415   6.829   6.993   3.239
10172SOL    HW231416   6.804   0.069   3.373
10173SOL     OW31417   3.513   4.641   6.745
10173SOL    HW131418   3.440   4.582   6.781
10173SOL    HW231419   3.493   4.736   6.770
10174SOL     OW31420   4.962   0.162   3.435
10174SOL    HW131421   4.900   0.204   3.369
10174SOL    HW231422   4.913   0.092   3.486
10175SOL     OW31423   0.030   2.069   2.891
10175SOL    HW131424   6.999   1.980   2.884
10175SOL    HW231425   0.125   2.060   2.861
10176SOL     OW31426   6.204   3.226   5.852
10176SOL    HW131427   6.295   3.241   5.891
10176SOL    HW231428   6.189   3.129   5.838
10177SOL     OW31429   2.431   0.334   1.409
10177SOL    HW131430   2.439   0.279   1.493
10177SOL    HW231431   2.406   0.274   1.333
10178SOL     OW31432   1.750   1.658   0.708
10178SOL    HW131433   1.727   1.634   0.613
10178SOL    HW231434   1.737   1.578   0.767
10179SOL     OW31435   6.835   4.338   0.174
10179SOL    HW131436   6.810   4.413   0.114
10179SOL    HW231437   6.768   4.264   0.165
10180SOL     OW31438   4.596   6.830   7.010
10180SOL    HW131439   4.683   6.867   0.028
10180SOL    HW231440   4.530   6.904   6.998
10181SOL     OW31441   6.329   3.906   1.475
10181SOL    HW131442   6.256   3.966   1.443
10181SOL    HW231443   6.373   3.946   1.555
10182SOL     OW31444   5.404   1.360   0.378
10182SOL    HW131445   5.349   1.297   0.431
10182SOL    HW231446   5.476   1.310   0.330
10183SOL     OW31447   6.514   2.744   6.112
10183SOL    HW131448   6.557   2.732   6.202
10183SOL    HW231449   6.500   2.654   6.070
10184SOL     OW31450   6.073   3.239   6.759
10184SOL    HW131451   5.984   3.284   6.767
10184SOL    HW231452   6.090   3.184   6.841
10185SOL     OW31453   4.143   6.030   2.275
10185SOL    HW131454   4.190   5.943   2.280
10185SOL    HW231455   4.045   6.014   2.261
10186SOL     OW31456   4.782   3.654   5.736
10186SOL    HW131457   4.693   3.679   5.697
10186SOL    HW231458   4.805   3.718   5.809
10187SOL     OW31459   2.517   4.416   5.809
10187SOL    HW131460   2.498   4.350   5.882
10187SOL    HW231461   2.440   4.479   5.800
10188SOL     OW31462   2.710   6.650   0.160
10188SOL    HW131463   2.800   6.693   0.165
10188SOL    HW231464   2.652   6.701   0.097
10189SOL     OW31465   1.198   1.298   6.945
10189SOL    HW131466   1.158   1.389   6.948
10189SOL    HW231467   1.279   1.298   6.886
10190SOL     OW31468   2.930   3.884   1.287
10190SOL    HW131469   2.850   3.939   1.261
10190SOL    HW231470   2.925   3.861   1.384
10191SOL     OW31471   5.993   5.550   1.004
10191SOL    HW131472   5.910   5.525   1.054
10191SOL    HW231473   5.979   5.534   0.906
10192SOL     OW31474   2.378   1.709   5.281
10192SOL    HW131475   2.297   1.660   5.249
10192SOL    HW231476   2.365   1.737   5.376
10193SOL     OW31477   3.331   3.118   2.567
10193SOL    HW131478   3.237   3.142   2.593
10193SOL    HW231479   3.393   3.146   2.640
10194SOL     OW31480   3.954   0.083   4.267
10194SOL    HW131481   4.041   0.130   4.251
10194SOL    HW231482   3.951   0.050   4.361
10195SOL     OW31483   5.694   0.339   1.533
10195SOL    HW131484   5.728   0.432   1.527
10195SOL    HW231485   5.610   0.338   1.588
10196SOL     OW31486   5.507   2.024   3.456
10196SOL    HW131487   5.561   2.072   3.526
10196SOL    HW231488   5.544   2.047   3.366
10197SOL     OW31489   5.480   0.163   3.094
10197SOL    HW131490   5.552   0.224   3.128
10197SOL    HW231491   5.394   0.184   3.141
10198SOL     OW31492   3.555   6.353   0.763
10198SOL    HW131493   3.491   6.277   0.748
10198SOL    HW231494   3.545   6.387   0.856
10199SOL     OW31495   0.827   1.801   0.112
10199SOL    HW131496   0.880   1.853   0.046
10199SOL    HW231497   0.820   1.706   0.082
10200SOL     OW31498   5.714   3.717   6.025
10200SOL    HW131499   5.812   3.699   6.013
10200SOL    HW231500   5.696   3.736   6.121
10201SOL     OW31501   0.406   5.840   2.086
10201SOL    HW131502   0.349   5.810   2.010
10201SOL    HW231503   0.485   5.781   2.094
10202SOL     OW31504   0.177   3.975   1.224
10202SOL    HW131505   0.139   3.957   1.134
10202SOL    HW231506   0.210   4.070   1.228
10203SOL     OW31507   1.936   3.034   2.744
10203SOL    HW131508   1.925   2.959   2.679
10203SOL    HW231509   1.903   3.004   2.834
10204SOL     OW31510   2.924   4.231   5.984
10204SOL    HW131511   3.010   4.254   6.030
10204SOL    HW231512   2.848   4.245   6.048
10205SOL     OW31513   4.754   1.233   3.466
10205SOL    HW131514   4.665   1.192   3.448
10205SOL    HW231515   4.741   1.325   3.503
10206SOL     OW31516   5.259   6.611   5.953
10206SOL    HW131517   5.274   6.668   5.872
10206SOL    HW231518   5.277   6.515   5.930
10207SOL     OW31519   1.926   0.708   1.695
10207SOL    HW131520   1.961   0.707   1.601
10207SOL    HW231521   1.826   0.708   1.694
10208SOL     OW31522   6.207   5.549   5.272
10208SOL    HW131523   6.251   5.638   5.286
10208SOL    HW231524   6.243   5.507   5.189
10209SOL     OW31525   0.295   1.087   5.977
10209SOL    HW131526   0.301   0.998   6.022
10209SOL    HW231527   0.371   1.096   5.912
10210SOL     OW31528   5.209   0.281   1.689
10210SOL    HW131529   5.120   0.327   1.689
10210SOL    HW231530   5.196   0.186   1.717
10211SOL     OW31531   3.555   6.416   5.605
10211SOL    HW131532   3.644   6.459   5.591
10211SOL    HW231533   3.519   6.440   5.695
10212SOL     OW31534   0.592   1.337   4.090
10212SOL    HW131535   0.539   1.269   4.040
10212SOL    HW231536   0.554   1.428   4.072
10213SOL     OW31537   5.220   1.459   2.690
10213SOL    HW131538   5.276   1.541   2.690
10213SOL    HW231539   5.273   1.382   2.726
10214SOL     OW31540   6.537   0.779   1.857
10214SOL    HW131541   6.627   0.739   1.842
10214SOL    HW231542   6.541   0.878   1.841
10215SOL     OW31543   2.896   3.216   5.770
10215SOL    HW131544   2.993   3.232   5.790
10215SOL    HW231545   2.889   3.152   5.694
10216SOL     OW31546   6.567   6.913   0.593
10216SOL    HW131547   6.479   6.923   0.641
10216SOL    HW231548   6.631   6.981   0.627
10217SOL     OW31549   2.822   1.325   4.047
10217SOL    HW131550   2.755   1.324   3.973
10217SOL    HW231551   2.882   1.246   4.040
10218SOL     OW31552   1.383   1.746   1.777
10218SOL    HW131553   1.407   1.808   1.852
10218SOL    HW231554   1.411   1.785   1.690
10219SOL     OW31555   0.399   2.155   2.493
10219SOL    HW131556   0.368   2.085   2.428
10219SOL    HW231557   0.320   2.193   2.541
10220SOL     OW31558   4.032   1.285   1.779
10220SOL    HW131559   3.959   1.242   1.831
10220SOL    HW231560   4.117   1.283   1.832
10221SOL     OW31561   1.769   1.473   4.582
10221SOL    HW131562   1.838   1.436   4.519
10221SOL    HW231563   1.680   1.476   4.536
10222SOL     OW31564   1.534   3.573   4.931
10222SOL    HW131565   1.477   3.586   4.850
10222SOL    HW231566   1.524   3.651   4.992
10223SOL     OW31567   1.547   5.224   6.502
10223SOL    HW131568   1.508   5.146   6.454
10223SOL    HW231569   1.632   5.252   6.458
10224SOL     OW31570   1.407   1.166   4.178
10224SOL    HW131571   1.368   1.132   4.264
10224SOL    HW231572   1.352   1.241   4.142
10225SOL     OW31573   1.102   6.084   5.201
10225SOL    HW131574   1.061   6.175   5.203
10225SOL    HW231575   1.033   6.016   5.176
10226SOL     OW31576   2.997   0.868   6.579
10226SOL    HW131577   3.093   0.842   6.570
10226SOL    HW231578   2.989   0.945   6.642
10227SOL     OW31579   4.649   4.547   0.858
10227SOL    HW131580   4.679   4.567   0.952
10227SOL    HW231581   4.585   4.470   0.860
10228SOL     OW31582   0.755   5.437   2.125
10228SOL    HW131583   0.823   5.504   2.156
10228SOL    HW231584   0.714   5.393   2.204
10229SOL     OW31585   1.148   1.180   3.383
10229SOL    HW131586   1.197   1.167   3.469
10229SOL    HW231587   1.114   1.092   3.350
10230SOL     OW31588   0.046   0.514   3.173
10230SOL    HW131589   0.056   0.570   3.091
10230SOL    HW231590   0.103   0.432   3.166
10231SOL     OW31591   0.085   6.784   5.274
10231SOL    HW131592   0.046   6.815   5.187
10231SOL    HW231593   0.183   6.769   5.262
10232SOL     OW31594   4.365   0.745   4.406
10232SOL    HW131595   4.427   0.684   4.356
10232SOL    HW231596   4.301   0.690   4.459
10233SOL     OW31597   4.760   2.832   5.256
10233SOL    HW131598   4.842   2.778   5.239
10233SOL    HW231599   4.774   2.926   5.226
10234SOL     OW31600   5.251   0.368   0.840
10234SOL    HW131601   5.242   0.468   0.831
10234SOL    HW231602   5.168   0.331   0.880
10235SOL     OW31603   4.409   1.171   0.369
10235SOL    HW131604   4.416   1.234   0.447
10235SOL    HW231605   4.372   1.220   0.290
10236SOL     OW31606   1.837   6.837   1.622
10236SOL    HW131607   1.764   6.785   1.578
10236SOL    HW231608   1.878   6.900   1.556
10237SOL     OW31609   6.080   3.973   0.989
10237SOL    HW131610   6.138   3.902   0.949
10237SOL    HW231611   6.058   3.948   1.084
10238SOL     OW31612   3.769   3.679   5.101
10238SOL    HW131613   3.707   3.617   5.052
10238SOL    HW231614   3.862   3.642   5.098
10239SOL     OW31615   1.242   4.306   5.478
10239SOL    HW131616   1.168   4.323   5.543
10239SOL    HW231617   1.211   4.240   5.409
10240SOL     OW31618   1.183   4.449   2.296
10240SOL    HW131619   1.200   4.510   2.219
10240SOL    HW231620   1.215   4.492   2.381
10241SOL     OW31621   0.167   0.824   1.538
10241SOL    HW131622   0.092   0.760   1.523
10241SOL    HW231623   0.245   0.776   1.578
10242SOL     OW31624   0.798   2.160   6.180
10242SOL    HW131625   0.833   2.197   6.094
10242SOL    HW231626   0.875   2.127   6.235
10243SOL     OW31627   0.081   5.398   1.430
10243SOL    HW131628   6.998   5.421   1.431
10243SOL    HW231629   0.111   5.383   1.524
10244SOL     OW31630   1.915   4.440   6.965
10244SOL    HW131631   1.911   4.348   7.005
10244SOL    HW231632   2.007   4.476   6.974
10245SOL     OW31633   2.433   3.411   6.891
10245SOL    HW131634   2.361   3.350   6.858
10245SOL    HW231635   2.505   3.417   6.822
10246SOL     OW31636   3.138   3.891   4.719
10246SOL    HW131637   3.164   3.986   4.735
10246SOL    HW231638   3.061   3.866   4.778
10247SOL     OW31639   0.696   5.255   5.259
10247SOL    HW131640   0.642   5.211   5.330
10247SOL    HW231641   0.639   5.320   5.208
10248SOL     OW31642   3.068   0.191   2.258
10248SOL    HW131643   2.985   0.243   2.276
10248SOL    HW231644   3.067   0.157   2.164
10249SOL     OW31645   2.933   0.935   5.801
10249SOL    HW131646   2.895   0.916   5.892
10249SOL    HW231647   3.032   0.926   5.804
10250SOL     OW31648   0.007   2.044   1.110
10250SOL    HW131649   6.991   1.952   1.131
10250SOL    HW231650   7.000   2.066   1.015
10251SOL     OW31651   1.885   3.016   5.790
10251SOL    HW131652   1.930   3.104   5.799
10251SOL    HW231653   1.927   2.950   5.854
10252SOL     OW31654   6.468   6.468   0.329
10252SOL    HW131655   6.484   6.372   0.307
10252SOL    HW231656   6.555   6.513   0.346
10253SOL     OW31657   4.530   5.581   6.908
10253SOL    HW131658   4.517   5.569   6.810
10253SOL    HW231659   4.458   5.640   6.944
10254SOL     OW31660   3.370   2.053   4.442
10254SOL    HW131661   3.282   2.101   4.437
10254SOL    HW231662   3.370   1.990   4.519
10255SOL     OW31663   1.939   6.022   1.228
10255SOL    HW131664   1.857   6.018   1.172
10255SOL    HW231665   1.962   5.930   1.260
10256SOL     OW31666   5.549   6.942   1.241
10256SOL    HW131667   5.519   6.850   1.266
10256SOL    HW231668   5.606   6.979   1.315
10257SOL     OW31669   1.060   4.502   5.200
10257SOL    HW131670   1.063   4.412   5.157
10257SOL    HW231671   1.084   4.494   5.297
10258SOL     OW31672   5.209   0.042   3.727
10258SOL    HW131673   5.165   6.976   3.764
10258SOL    HW231674   5.294   0.061   3.778
10259SOL     OW31675   1.116   4.843   3.186
10259SOL    HW131676   1.118   4.853   3.285
10259SOL    HW231677   1.145   4.750   3.162
10260SOL     OW31678   6.974   6.971   2.717
10260SOL    HW131679   7.008   6.902   2.781
10260SOL    HW231680   7.012   0.045   2.739
10261SOL     OW31681   6.818   6.247   2.316
10261SOL    HW131682   6.883   6.231   2.242
10261SOL    HW231683   6.864   6.236   2.404
10262SOL     OW31684   2.923   5.539   4.794
10262SOL    HW131685   2.962   5.456   4.753
10262SOL    HW231686   2.860   5.513   4.868
10263SOL     OW31687   5.086   1.595   6.466
10263SOL    HW131688   5.082   1.573   6.368
10263SOL    HW231689   5.012   1.549   6.514
10264SOL     OW31690   6.150   1.641   6.920
10264SOL    HW131691   6.120   1.680   7.007
10264SOL    HW231692   6.248   1.658   6.908
10265SOL     OW31693   3.312   2.027   2.737
10265SOL    HW131694   3.348   2.067   2.822
10265SOL    HW231695   3.312   1.928   2.745
10266SOL     OW31696   3.560   3.164   5.432
10266SOL    HW131697   3.560   3.202   5.525
10266SOL    HW231698   3.563   3.238   5.365
10267SOL     OW31699   6.419   1.940   0.021
10267SOL    HW131700   6.494   1.893   6.991
10267SOL    HW231701   6.362   1.987   6.968
10268SOL     OW31702   5.053   6.693   1.533
10268SOL    HW131703   5.008   6.666   1.618
10268SOL    HW231704   5.146   6.655   1.530
10269SOL     OW31705   1.841   1.373   5.484
10269SOL    HW131706   1.922   1.429   5.467
10269SOL    HW231707   1.760   1.422   5.451
10270SOL     OW31708   1.995   5.909   1.625
10270SOL    HW131709   2.024   5.825   1.579
10270SOL    HW231710   2.041   5.987   1.583
10271SOL     OW31711   3.359   3.171   0.454
10271SOL    HW131712   3.342   3.256   0.405
10271SOL    HW231713   3.316   3.176   0.545
10272SOL     OW31714   1.328   0.714   3.939
10272SOL    HW131715   1.237   0.715   3.899
10272SOL    HW231716   1.371   0.803   3.928
10273SOL     OW31717   4.032   5.867   4.032
10273SOL    HW131718   3.943   5.849   4.075
10273SOL    HW231719   4.024   5.850   3.933
10274SOL     OW31720   1.393   4.502   5.539
10274SOL    HW131721   1.491   4.482   5.546
10274SOL    HW231722   1.342   4.416   5.534
10275SOL     OW31723   1.395   6.960   2.175
10275SOL    HW131724   1.377   6.949   2.273
10275SOL    HW231725   1.309   6.953   2.125
10276SOL     OW31726   6.828   5.407   6.537
10276SOL    HW131727   6.904   5.471   6.549
10276SOL    HW231728   6.769   5.410   6.618
10277SOL     OW31729   2.502   6.358   3.791
10277SOL    HW131730   2.560   6.277   3.800
10277SOL    HW231731   2.476   6.389   3.883
10278SOL     OW31732   6.031   1.070   5.726
10278SOL    HW131733   6.072   1.124   5.652
10278SOL    HW231734   5.933   1.063   5.712
10279SOL     OW31735   3.372   0.397   3.569
10279SOL    HW131736   3.423   0.353   3.496
10279SOL    HW231737   3.409   0.370   3.658
10280SOL     OW31738   2.176   4.354   1.131
10280SOL    HW131739   2.248   4.375   1.197
10280SOL    HW231740   2.086   4.375   1.171
10281SOL     OW31741   5.157   2.310   2.722
10281SOL    HW131742   5.099   2.268   2.652
10281SOL    HW231743   5.176   2.405   2.698
10282SOL     OW31744   6.368   3.314   4.162
10282SOL    HW131745   6.456   3.346   4.126
10282SOL    HW231746   6.312   3.393   4.187
10283SOL     OW31747   1.057   2.933   1.108
10283SOL    HW131748   1.109   2.941   1.193
10283SOL    HW231749   1.014   2.843   1.103
10284SOL     OW31750   5.467   4.023   5.653
10284SOL    HW131751   5.478   3.972   5.568
10284SOL    HW231752   5.373   4.015   5.685
10285SOL     OW31753   4.957   0.434   1.665
10285SOL    HW131754   4.973   0.498   1.590
10285SOL    HW231755   4.918   0.484   1.743
10286SOL     OW31756   3.154   1.765   3.358
10286SOL    HW131757   3.141   1.667   3.370
10286SOL    HW231758   3.251   1.788   3.370
10287SOL     OW31759   1.670   6.822   1.845
10287SOL    HW131760   1.738   6.797   1.776
10287SOL    HW231761   1.687   6.915   1.876
10288SOL     OW31762   5.139   5.895   2.316
10288SOL    HW131763   5.202   5.957   2.364
10288SOL    HW231764   5.126   5.812   2.369
10289SOL     OW31765   3.592   0.674   1.257
10289SOL    HW131766   3.615   0.603   1.190
10289SOL    HW231767   3.653   0.667   1.336
10290SOL     OW31768   3.528   4.000   2.733
10290SOL    HW131769   3.453   4.021   2.796
10290SOL    HW231770   3.500   4.021   2.640
10291SOL     OW31771   4.027   0.144   3.886
10291SOL    HW131772   4.066   0.218   3.830
10291SOL    HW231773   4.100   0.081   3.913
10292SOL     OW31774   0.683   2.192   4.595
10292SOL    HW131775   0.694   2.256   4.671
10292SOL    HW231776   0.750   2.213   4.524
10293SOL     OW31777   1.549   6.311   3.150
10293SOL    HW131778   1.504   6.331   3.063
10293SOL    HW231779   1.520   6.221   3.182
10294SOL     OW31780   4.877   3.288   3.348
10294SOL    HW131781   4.819   3.236   3.411
10294SOL    HW231782   4.842   3.382   3.340
10295SOL     OW31783   5.638   4.459   5.648
10295SOL    HW131784   5.583   4.400   5.707
10295SOL    HW231785   5.714   4.406   5.611
10296SOL     OW31786   5.665   4.475   6.326
10296SOL    HW131787   5.699   4.410   6.258
10296SOL    HW231788   5.567   4.459   6.342
10297SOL     OW31789   2.475   6.457   4.058
10297SOL    HW131790   2.428   6.374   4.089
10297SOL    HW231791   2.506   6.510   4.137
10298SOL     OW31792   4.286   4.825   3.486
10298SOL    HW131793   4.264   4.751   3.550
10298SOL    HW231794   4.225   4.819   3.407
10299SOL     OW31795   4.403   4.605   3.194
10299SOL    HW131796   4.351   4.689   3.177
10299SOL    HW231797   4.373   4.534   3.129
10300SOL     OW31798   1.635   4.245   2.104
10300SOL    HW131799   1.729   4.226   2.076
10300SOL    HW231800   1.635   4.299   2.188
10301SOL     OW31801   5.837   2.009   2.909
10301SOL    HW131802   5.747   2.052   2.905
10301SOL    HW231803   5.857   1.984   3.004
10302SOL     OW31804   1.248   6.121   2.976
10302SOL    HW131805   1.289   6.212   2.982
10302SOL    HW231806   1.250   6.077   3.066
10303SOL     OW31807   4.019   4.150   0.998
10303SOL    HW131808   4.111   4.164   1.033
10303SOL    HW231809   4.019   4.073   0.934
10304SOL     OW31810   6.012   0.655   3.940
10304SOL    HW131811   5.933   0.615   3.987
10304SOL    HW231812   6.092   0.647   3.999
10305SOL     OW31813   1.173   6.168   6.913
10305SOL    HW131814   1.247   6.230   6.941
10305SOL    HW231815   1.175   6.085   6.969
10306SOL     OW31816   4.430   5.615   6.525
10306SOL    HW131817   4.523   5.649   6.537
10306SOL    HW231818   4.427   5.552   6.447
10307SOL     OW31819   1.647   1.481   5.356
10307SOL    HW131820   1.594   1.560   5.326
10307SOL    HW231821   1.706   1.450   5.280
10308SOL     OW31822   3.337   5.252   4.023
10308SOL    HW131823   3.331   5.346   3.991
10308SOL    HW231824   3.295   5.245   4.114
10309SOL     OW31825   6.519   0.034   3.800
10309SOL    HW131826   6.601   0.073   3.758
10309SOL    HW231827   6.546   6.976   3.864
10310SOL     OW31828   2.932   3.859   1.564
10310SOL    HW131829   3.018   3.828   1.605
10310SOL    HW231830   2.868   3.886   1.636
10311SOL     OW31831   0.745   5.737   1.281
10311SOL    HW131832   0.722   5.827   1.243
10311SOL    HW231833   0.664   5.678   1.278
10312SOL     OW31834   3.488   5.246   0.956
10312SOL    HW131835   3.474   5.333   0.909
10312SOL    HW231836   3.514   5.176   0.890
10313SOL     OW31837   4.417   6.907   2.245
10313SOL    HW131838   4.360   6.969   2.191
10313SOL    HW231839   4.363   6.827   2.272
10314SOL     OW31840   6.349   0.588   0.765
10314SOL    HW131841   6.322   0.631   0.679
10314SOL    HW231842   6.332   0.490   0.760
10315SOL     OW31843   6.566   5.920   5.058
10315SOL    HW131844   6.539   6.006   5.014
10315SOL    HW231845   6.507   5.902   5.136
10316SOL     OW31846   0.114   3.318   4.325
10316SOL    HW131847   0.130   3.229   4.282
10316SOL    HW231848   0.038   3.364   4.279
10317SOL     OW31849   3.758   4.477   5.826
10317SOL    HW131850   3.812   4.530   5.761
10317SOL    HW231851   3.696   4.538   5.876
10318SOL     OW31852   5.905   5.564   1.996
10318SOL    HW131853   5.961   5.604   1.924
10318SOL    HW231854   5.956   5.492   2.043
10319SOL     OW31855   0.273   5.028   4.718
10319SOL    HW131856   0.371   5.037   4.703
10319SOL    HW231857   0.242   5.096   4.784
10320SOL     OW31858   0.805   0.632   0.675
10320SOL    HW131859   0.742   0.689   0.727
10320SOL    HW231860   0.873   0.689   0.629
10321SOL     OW31861   3.976   6.298   4.457
10321SOL    HW131862   4.052   6.233   4.465
10321SOL    HW231863   4.008   6.390   4.480
10322SOL     OW31864   6.854   6.002   0.650
10322SOL    HW131865   6.858   5.945   0.732
10322SOL    HW231866   6.856   5.943   0.569
10323SOL     OW31867   6.689   3.406   6.496
10323SOL    HW131868   6.675   3.314   6.533
10323SOL    HW231869   6.636   3.415   6.411
10324SOL     OW31870   3.046   3.161   3.505
10324SOL    HW131871   3.044   3.206   3.415
10324SOL    HW231872   3.141   3.139   3.528
10325SOL     OW31873   6.621   4.414   3.941
10325SOL    HW131874   6.717   4.420   3.914
10325SOL    HW231875   6.605   4.474   4.019
10326SOL     OW31876   4.730   2.626   6.735
10326SOL    HW131877   4.772   2.716   6.727
10326SOL    HW231878   4.764   2.580   6.816
10327SOL     OW31879   2.407   1.300   2.954
10327SOL    HW131880   2.442   1.377   2.900
10327SOL    HW231881   2.310   1.287   2.933
10328SOL     OW31882   5.726   3.627   2.288
10328SOL    HW131883   5.818   3.647   2.257
10328SOL    HW231884   5.729   3.557   2.359
10329SOL     OW31885   2.633   0.689   4.121
10329SOL    HW131886   2.632   0.788   4.113
10329SOL    HW231887   2.726   0.655   4.103
10330SOL     OW31888   3.349   4.994   3.257
10330SOL    HW131889   3.337   4.977   3.159
10330SOL    HW231890   3.398   5.081   3.270
10331SOL     OW31891   5.664   0.786   3.064
10331SOL    HW131892   5.743   0.796   3.124
10331SOL    HW231893   5.694   0.793   2.969
10332SOL     OW31894   6.910   2.072   0.851
10332SOL    HW131895   6.911   2.124   0.765
10332SOL    HW231896   6.816   2.046   0.873
10333SOL     OW31897   5.607   5.095   4.188
10333SOL    HW131898   5.591   5.116   4.284
10333SOL    HW231899   5.520   5.095   4.139
10334SOL     OW31900   1.897   5.209   3.715
10334SOL    HW131901   1.991   5.197   3.747
10334SOL    HW231902   1.845   5.259   3.783
10335SOL     OW31903   2.071   4.949   6.806
10335SOL    HW131904   2.171   4.954   6.802
10335SOL    HW231905   2.033   4.995   6.725
10336SOL     OW31906   4.450   6.453   2.380
10336SOL    HW131907   4.470   6.394   2.459
10336SOL    HW231908   4.489   6.412   2.298
10337SOL     OW31909   0.096   5.184   5.052
10337SOL    HW131910   0.165   5.212   4.985
10337SOL    HW231911   0.009   5.166   5.005
10338SOL     OW31912   3.579   6.656   0.865
10338SOL    HW131913   3.648   6.620   0.802
10338SOL    HW231914   3.616   6.656   0.958
10339SOL     OW31915   4.032   5.430   1.074
10339SOL    HW131916   3.963   5.395   1.011
10339SOL    HW231917   4.055   5.359   1.141
10340SOL     OW31918   2.145   5.666   6.934
10340SOL    HW131919   2.185   5.608   7.005
10340SOL    HW231920   2.110   5.609   6.859
10341SOL     OW31921   2.380   2.535   2.143
10341SOL    HW131922   2.448   2.521   2.071
10341SOL    HW231923   2.306   2.468   2.132
10342SOL     OW31924   1.884   6.487   6.394
10342SOL    HW131925   1.825   6.505   6.315
10342SOL    HW231926   1.831   6.501   6.478
10343SOL     OW31927   2.125   4.398   6.726
10343SOL    HW131928   2.030   4.430   6.724
10343SOL    HW231929   2.127   4.299   6.712
10344SOL     OW31930   4.107   3.602   4.326
10344SOL    HW131931   4.088   3.611   4.229
10344SOL    HW231932   4.205   3.587   4.340
10345SOL     OW31933   2.201   1.636   6.950
10345SOL    HW131934   2.272   1.663   6.884
10345SOL    HW231935   2.148   1.561   6.913
10346SOL     OW31936   5.549   0.041   0.578
10346SOL    HW131937   5.508   0.130   0.599
10346SOL    HW231938   5.597   0.047   0.490
10347SOL     OW31939   5.173   1.491   0.899
10347SOL    HW131940   5.136   1.581   0.920
10347SOL    HW231941   5.273   1.496   0.894
10348SOL     OW31942   6.208   0.982   6.417
10348SOL    HW131943   6.222   0.999   6.320
10348SOL    HW231944   6.214   0.884   6.435
10349SOL     OW31945   5.923   0.555   0.915
10349SOL    HW131946   5.949   0.590   0.825
10349SOL    HW231947   5.876   0.467   0.905
10350SOL     OW31948   3.614   5.955   4.317
10350SOL    HW131949   3.697   5.901   4.300
10350SOL    HW231950   3.544   5.929   4.250
10351SOL     OW31951   6.151   4.831   5.231
10351SOL    HW131952   6.202   4.768   5.290
10351SOL    HW231953   6.127   4.913   5.283
10352SOL     OW31954   5.802   2.336   6.887
10352SOL    HW131955   5.880   2.396   6.865
10352SOL    HW231956   5.768   2.359   6.978
10353SOL     OW31957   0.190   3.038   3.413
10353SOL    HW131958   0.098   3.001   3.399
10353SOL    HW231959   0.201   3.064   3.510
10354SOL     OW31960   0.604   4.210   0.944
10354SOL    HW131961   0.518   4.226   0.896
10354SOL    HW231962   0.619   4.112   0.956
10355SOL     OW31963   1.383   1.734   1.438
10355SOL    HW131964   1.407   1.784   1.355
10355SOL    HW231965   1.424   1.643   1.435
10356SOL     OW31966   0.612   2.912   6.839
10356SOL    HW131967   0.541   2.876   6.901
10356SOL    HW231968   0.697   2.926   6.890
10357SOL     OW31969   2.255   2.379   6.488
10357SOL    HW131970   2.196   2.457   6.509
10357SOL    HW231971   2.344   2.393   6.531
10358SOL     OW31972   1.812   2.630   2.555
10358SOL    HW131973   1.808   2.619   2.455
10358SOL    HW231974   1.877   2.703   2.577
10359SOL     OW31975   4.735   2.523   2.261
10359SOL    HW131976   4.788   2.443   2.234
10359SOL    HW231977   4.638   2.502   2.258
10360SOL     OW31978   5.531   5.128   3.246
10360SOL    HW131979   5.544   5.032   3.271
10360SOL    HW231980   5.619   5.176   3.250
10361SOL     OW31981   1.884   1.370   1.703
10361SOL    HW131982   1.817   1.444   1.705
10361SOL    HW231983   1.969   1.401   1.747
10362SOL     OW31984   0.201   5.282   1.988
10362SOL    HW131985   0.173   5.211   2.052
10362SOL    HW231986   0.277   5.249   1.932
10363SOL     OW31987   4.378   2.975   0.322
10363SOL    HW131988   4.326   3.045   0.272
10363SOL    HW231989   4.366   2.988   0.420
10364SOL     OW31990   5.165   5.481   1.032
10364SOL    HW131991   5.213   5.549   1.088
10364SOL    HW231992   5.224   5.401   1.020
10365SOL     OW31993   6.081   5.452   0.317
10365SOL    HW131994   6.057   5.547   0.295
10365SOL    HW231995   6.004   5.407   0.361
10366SOL     OW31996   4.394   6.924   3.250
10366SOL    HW131997   4.402   0.009   3.251
10366SOL    HW231998   4.422   6.889   3.161
10367SOL     OW31999   6.591   2.025   2.068
10367SOL    HW132000   6.682   2.000   2.102
10367SOL    HW232001   6.522   1.993   2.132
10368SOL     OW32002   2.789   1.040   1.950
10368SOL    HW132003   2.756   0.953   1.913
10368SOL    HW232004   2.816   1.100   1.874
10369SOL     OW32005   2.850   6.609   5.897
10369SOL    HW132006   2.890   6.576   5.811
10369SOL    HW232007   2.759   6.569   5.909
10370SOL     OW32008   6.428   1.577   4.310
10370SOL    HW132009   6.423   1.583   4.210
10370SOL    HW232010   6.466   1.488   4.336
10371SOL     OW32011   3.643   6.515   3.014
10371SOL    HW132012   3.636   6.492   2.916
10371SOL    HW232013   3.567   6.474   3.064
10372SOL     OW32014   3.187   0.570   1.452
10372SOL    HW132015   3.156   0.594   1.544
10372SOL    HW232016   3.227   0.650   1.408
10373SOL     OW32017   0.437   0.178   4.512
10373SOL    HW132018   0.387   0.211   4.592
10373SOL    HW232019   0.517   0.126   4.543
10374SOL     OW32020   2.703   6.763   4.068
10374SOL    HW132021   2.683   6.706   4.147
10374SOL    HW232022   2.622   6.769   4.010
10375SOL     OW32023   3.116   2.066   5.993
10375SOL    HW132024   3.022   2.033   5.999
10375SOL    HW232025   3.175   1.991   5.963
10376SOL     OW32026   1.780   6.177   3.747
10376SOL    HW132027   1.869   6.153   3.709
10376SOL    HW232028   1.781   6.271   3.779
10377SOL     OW32029   0.126   1.936   2.089
10377SOL    HW132030   0.207   1.878   2.097
10377SOL    HW232031   0.141   2.004   2.017
10378SOL     OW32032   0.370   5.717   5.833
10378SOL    HW132033   0.380   5.815   5.850
10378SOL    HW232034   0.282   5.686   5.868
10379SOL     OW32035   2.775   6.145   4.225
10379SOL    HW132036   2.815   6.226   4.183
10379SOL    HW232037   2.843   6.072   4.229
10380SOL     OW32038   1.316   2.042   4.650
10380SOL    HW132039   1.318   2.071   4.745
10380SOL    HW232040   1.405   2.061   4.607
10381SOL     OW32041   3.889   4.356   1.167
10381SOL    HW132042   3.945   4.405   1.234
10381SOL    HW232043   3.945   4.287   1.121
10382SOL     OW32044   2.900   5.655   1.870
10382SOL    HW132045   2.909   5.711   1.787
10382SOL    HW232046   2.812   5.672   1.913
10383SOL     OW32047   2.022   4.007   0.547
10383SOL    HW132048   2.031   4.092   0.496
10383SOL    HW232049   2.101   3.948   0.527
10384SOL     OW32050   6.378   6.546   0.979
10384SOL    HW132051   6.421   6.627   0.937
10384SOL    HW232052   6.420   6.463   0.943
10385SOL     OW32053   3.817   5.460   6.291
10385SOL    HW132054   3.754   5.449   6.215
10385SOL    HW232055   3.779   5.418   6.373
10386SOL     OW32056   0.320   0.879   5.711
10386SOL    HW132057   0.245   0.900   5.648
10386SOL    HW232058   0.375   0.961   5.726
10387SOL     OW32059   5.111   3.213   3.410
10387SOL    HW132060   5.020   3.254   3.403
10387SOL    HW232061   5.132   3.163   3.327
10388SOL     OW32062   2.905   0.294   0.391
10388SOL    HW132063   2.820   0.345   0.379
10388SOL    HW232064   2.947   0.278   0.302
10389SOL     OW32065   6.105   3.872   0.154
10389SOL    HW132066   6.054   3.948   0.195
10389SOL    HW232067   6.167   3.908   0.084
10390SOL     OW32068   1.899   2.503   0.280
10390SOL    HW132069   1.946   2.570   0.338
10390SOL    HW232070   1.816   2.545   0.242
10391SOL     OW32071   1.544   6.510   3.828
10391SOL    HW132072   1.524   6.551   3.739
10391SOL    HW232073   1.602   6.571   3.881
10392SOL     OW32074   5.826   4.817   5.560
10392SOL    HW132075   5.727   4.829   5.556
10392SOL    HW232076   5.867   4.895   5.606
10393SOL     OW32077   1.842   3.752   3.745
10393SOL    HW132078   1.941   3.748   3.731
10393SOL    HW232079   1.811   3.847   3.738
10394SOL     OW32080   2.928   5.731   4.602
10394SOL    HW132081   2.934   5.658   4.670
10394SOL    HW232082   2.879   5.699   4.522
10395SOL     OW32083   0.284   6.459   1.555
10395SOL    HW132084   0.276   6.523   1.478
10395SOL    HW232085   0.342   6.499   1.625
10396SOL     OW32086   4.114   1.598   3.848
10396SOL    HW132087   4.146   1.527   3.786
10396SOL    HW232088   4.044   1.560   3.909
10397SOL     OW32089   3.211   2.051   3.196
10397SOL    HW132090   3.191   1.976   3.259
10397SOL    HW232091   3.135   2.116   3.195
10398SOL     OW32092   5.572   2.171   0.732
10398SOL    HW132093   5.662   2.163   0.776
10398SOL    HW232094   5.533   2.261   0.753
10399SOL     OW32095   5.123   2.318   3.387
10399SOL    HW132096   5.166   2.227   3.390
10399SOL    HW232097   5.091   2.337   3.295
10400SOL     OW32098   4.514   6.391   0.335
10400SOL    HW132099   4.563   6.472   0.367
10400SOL    HW232100   4.575   6.312   0.339
10401SOL     OW32101   6.395   0.083   3.173
10401SOL    HW132102   6.363   0.085   3.079
10401SOL    HW232103   6.323   0.121   3.233
10402SOL     OW32104   6.656   2.595   5.299
10402SOL    HW132105   6.670   2.661   5.373
10402SOL    HW232106   6.655   2.643   5.211
10403SOL     OW32107   4.575   1.549   3.582
10403SOL    HW132108   4.608   1.505   3.666
10403SOL    HW232109   4.513   1.487   3.535
10404SOL     OW32110   6.003   6.672   5.044
10404SOL    HW132111   5.964   6.697   5.132
10404SOL    HW232112   5.999   6.572   5.032
10405SOL     OW32113   0.948   0.637   5.115
10405SOL    HW132114   0.940   0.541   5.089
10405SOL    HW232115   0.969   0.692   5.034
10406SOL     OW32116   2.622   4.701   3.008
10406SOL    HW132117   2.715   4.731   2.985
10406SOL    HW232118   2.605   4.717   3.105
10407SOL     OW32119   2.662   6.765   6.093
10407SOL    HW132120   2.607   6.783   6.174
10407SOL    HW232121   2.755   6.741   6.120
10408SOL     OW32122   4.468   0.325   1.806
10408SOL    HW132123   4.556   0.325   1.853
10408SOL    HW232124   4.479   0.367   1.716
10409SOL     OW32125   0.233   4.735   0.844
10409SOL    HW132126   0.328   4.715   0.866
10409SOL    HW232127   0.178   4.652   0.850
10410SOL     OW32128   5.509   1.881   1.292
10410SOL    HW132129   5.518   1.795   1.243
10410SOL    HW232130   5.571   1.881   1.371
10411SOL     OW32131   3.201   6.528   3.363
10411SOL    HW132132   3.202   6.529   3.263
10411SOL    HW232133   3.134   6.594   3.396
10412SOL     OW32134   0.478   1.008   0.321
10412SOL    HW132135   0.478   1.083   0.254
10412SOL    HW232136   0.484   0.921   0.274
10413SOL     OW32137   6.598   2.909   0.714
10413SOL    HW132138   6.598   2.882   0.810
10413SOL    HW232139   6.577   2.829   0.657
10414SOL     OW32140   4.001   4.314   5.721
10414SOL    HW132141   3.966   4.224   5.698
10414SOL    HW232142   3.932   4.366   5.771
10415SOL     OW32143   1.585   3.596   4.357
10415SOL    HW132144   1.649   3.560   4.424
10415SOL    HW232145   1.620   3.581   4.264
10416SOL     OW32146   6.006   0.134   4.722
10416SOL    HW132147   6.007   0.149   4.820
10416SOL    HW232148   5.956   0.050   4.701
10417SOL     OW32149   3.015   5.279   4.689
10417SOL    HW132150   2.934   5.225   4.667
10417SOL    HW232151   3.071   5.230   4.755
10418SOL     OW32152   0.007   4.285   6.674
10418SOL    HW132153   0.061   4.232   6.738
10418SOL    HW232154   0.052   4.288   6.585
10419SOL     OW32155   1.964   0.150   5.895
10419SOL    HW132156   1.905   0.071   5.909
10419SOL    HW232157   1.933   0.225   5.955
10420SOL     OW32158   6.711   3.786   3.313
10420SOL    HW132159   6.661   3.710   3.272
10420SOL    HW232160   6.732   3.854   3.242
10421SOL     OW32161   0.764   1.798   3.638
10421SOL    HW132162   0.814   1.778   3.722
10421SOL    HW232163   0.813   1.868   3.586
10422SOL     OW32164   6.921   3.125   5.341
10422SOL    HW132165   6.990   3.116   5.412
10422SOL    HW232166   6.962   3.110   5.251
10423SOL     OW32167   6.275   5.438   5.009
10423SOL    HW132168   6.181   5.422   4.977
10423SOL    HW232169   6.302   5.532   4.984
10424SOL     OW32170   5.258   2.827   0.764
10424SOL    HW132171   5.312   2.911   0.767
10424SOL    HW232172   5.205   2.825   0.679
10425SOL     OW32173   1.054   0.323   1.643
10425SOL    HW132174   1.097   0.371   1.719
10425SOL    HW232175   0.968   0.283   1.674
10426SOL     OW32176   6.139   5.020   0.568
10426SOL    HW132177   6.194   4.962   0.628
10426SOL    HW232178   6.149   4.988   0.474
10427SOL     OW32179   3.766   0.420   6.513
10427SOL    HW132180   3.809   0.400   6.426
10427SOL    HW232181   3.739   0.516   6.516
10428SOL     OW32182   3.832   0.866   3.797
10428SOL    HW132183   3.870   0.815   3.874
10428SOL    HW232184   3.811   0.803   3.723
10429SOL     OW32185   0.020   5.182   0.667
10429SOL    HW132186   0.028   5.086   0.693
10429SOL    HW232187   0.107   5.213   0.629
10430SOL     OW32188   5.211   0.001   4.475
10430SOL    HW132189   5.298   6.999   4.428
10430SOL    HW232190   5.206   6.959   4.557
10431SOL     OW32191   3.387   5.914   4.187
10431SOL    HW132192   3.439   5.897   4.103
10431SOL    HW232193   3.325   5.839   4.205
10432SOL     OW32194   5.857   6.535   4.779
10432SOL    HW132195   5.886   6.589   4.858
10432SOL    HW232196   5.921   6.549   4.704
10433SOL     OW32197   1.722   6.363   1.218
10433SOL    HW132198   1.681   6.414   1.143
10433SOL    HW232199   1.781   6.424   1.271
10434SOL     OW32200   4.229   6.635   3.545
10434SOL    HW132201   4.182   6.660   3.630
10434SOL    HW232202   4.229   6.535   3.536
10435SOL     OW32203   0.037   0.374   4.584
10435SOL    HW132204   6.956   0.378   4.613
10435SOL    HW232205   0.083   0.298   4.629
10436SOL     OW32206   0.758   5.289   5.989
10436SOL    HW132207   0.668   5.301   6.031
10436SOL    HW232208   0.763   5.345   5.906
10437SOL     OW32209   5.485   4.936   5.891
10437SOL    HW132210   5.386   4.946   5.886
10437SOL    HW232211   5.508   4.865   5.957
10438SOL     OW32212   6.110   6.446   0.651
10438SOL    HW132213   6.152   6.467   0.563
10438SOL    HW232214   6.100   6.530   0.705
10439SOL     OW32215   4.333   1.212   6.101
10439SOL    HW132216   4.391   1.292   6.115
10439SOL    HW232217   4.255   1.216   6.162
10440SOL     OW32218   1.146   6.581   0.508
10440SOL    HW132219   1.103   6.663   0.469
10440SOL    HW232220   1.148   6.508   0.439
10441SOL     OW32221   3.900   0.698   0.517
10441SOL    HW132222   3.847   0.782   0.529
10441SOL    HW232223   3.925   0.662   0.607
10442SOL     OW32224   3.174   6.323   6.286
10442SOL    HW132225   3.269   6.353   6.275
10442SOL    HW232226   3.140   6.288   6.199
10443SOL     OW32227   5.144   4.036   4.758
10443SOL    HW132228   5.244   4.028   4.758
10443SOL    HW232229   5.114   4.083   4.676
10444SOL     OW32230   4.106   6.043   4.573
10444SOL    HW132231   4.018   6.061   4.617
10444SOL    HW232232   4.110   5.947   4.546
10445SOL     OW32233   0.798   5.344   4.366
10445SOL    HW132234   0.711   5.326   4.320
10445SOL    HW232235   0.872   5.299   4.317
10446SOL     OW32236   1.206   3.037   5.123
10446SOL    HW132237   1.220   3.136   5.132
10446SOL    HW232238   1.197   3.014   5.026
10447SOL     OW32239   6.855   0.785   2.170
10447SOL    HW132240   6.917   0.782   2.092
10447SOL    HW232241   6.906   0.810   2.253
10448SOL     OW32242   3.802   1.445   1.915
10448SOL    HW132243   3.880   1.508   1.926
10448SOL    HW232244   3.837   1.352   1.909
10449SOL     OW32245   2.163   5.275   4.715
10449SOL    HW132246   2.208   5.315   4.635
10449SOL    HW232247   2.140   5.347   4.780
10450SOL     OW32248   0.341   1.782   0.805
10450SOL    HW132249   0.345   1.871   0.850
10450SOL    HW232250   0.360   1.793   0.708
10451SOL     OW32251   1.696   5.199   2.448
10451SOL    HW132252   1.718   5.155   2.535
10451SOL    HW232253   1.699   5.299   2.460
10452SOL     OW32254   5.738   3.491   3.055
10452SOL    HW132255   5.646   3.528   3.067
10452SOL    HW232256   5.761   3.488   2.957
10453SOL     OW32257   4.316   5.314   1.717
10453SOL    HW132258   4.312   5.328   1.816
10453SOL    HW232259   4.410   5.298   1.689
10454SOL     OW32260   4.577   2.987   0.962
10454SOL    HW132261   4.485   3.002   0.996
10454SOL    HW232262   4.618   2.910   1.011
10455SOL     OW32263   6.878   5.261   2.212
10455SOL    HW132264   6.900   5.346   2.261
10455SOL    HW232265   6.898   5.273   2.115
10456SOL     OW32266   3.012   6.211   1.000
10456SOL    HW132267   2.919   6.189   0.969
10456SOL    HW232268   3.008   6.282   1.069
10457SOL     OW32269   3.528   3.509   2.365
10457SOL    HW132270   3.493   3.509   2.272
10457SOL    HW232271   3.545   3.415   2.395
10458SOL     OW32272   0.161   1.273   6.129
10458SOL    HW132273   0.102   1.230   6.197
10458SOL    HW232274   0.197   1.202   6.067
10459SOL     OW32275   4.644   5.122   2.581
10459SOL    HW132276   4.609   5.183   2.653
10459SOL    HW232277   4.729   5.080   2.612
10460SOL     OW32278   1.509   5.141   1.232
10460SOL    HW132279   1.606   5.126   1.212
10460SOL    HW232280   1.486   5.096   1.319
10461SOL     OW32281   1.274   5.442   5.437
10461SOL    HW132282   1.329   5.497   5.374
10461SOL    HW232283   1.294   5.469   5.531
10462SOL     OW32284   6.051   1.357   3.204
10462SOL    HW132285   6.069   1.281   3.266
10462SOL    HW232286   5.954   1.361   3.183
10463SOL     OW32287   3.994   2.831   5.855
10463SOL    HW132288   4.078   2.799   5.813
10463SOL    HW232289   4.005   2.926   5.884
10464SOL     OW32290   6.043   6.449   1.286
10464SOL    HW132291   6.108   6.418   1.217
10464SOL    HW232292   6.000   6.369   1.329
10465SOL     OW32293   5.899   6.634   1.106
10465SOL    HW132294   5.915   6.579   1.189
10465SOL    HW232295   5.983   6.638   1.053
10466SOL     OW32296   4.632   5.165   5.558
10466SOL    HW132297   4.542   5.203   5.580
10466SOL    HW232298   4.684   5.231   5.505
10467SOL     OW32299   0.921   1.707   5.651
10467SOL    HW132300   0.919   1.795   5.604
10467SOL    HW232301   0.895   1.635   5.588
10468SOL     OW32302   3.719   4.865   3.078
10468SOL    HW132303   3.656   4.811   3.022
10468SOL    HW232304   3.813   4.846   3.049
10469SOL     OW32305   3.604   2.486   6.440
10469SOL    HW132306   3.570   2.488   6.346
10469SOL    HW232307   3.573   2.402   6.485
10470SOL     OW32308   2.697   1.827   3.150
10470SOL    HW132309   2.624   1.758   3.153
10470SOL    HW232310   2.753   1.820   3.233
10471SOL     OW32311   2.059   3.084   1.025
10471SOL    HW132312   2.019   3.162   0.978
10471SOL    HW232313   2.081   3.110   1.120
10472SOL     OW32314   3.251   5.708   0.889
10472SOL    HW132315   3.344   5.738   0.864
10472SOL    HW232316   3.200   5.786   0.925
10473SOL     OW32317   5.954   0.448   0.303
10473SOL    HW132318   5.962   0.356   0.264
10473SOL    HW232319   6.033   0.503   0.274
10474SOL     OW32320   4.276   1.426   4.806
10474SOL    HW132321   4.291   1.496   4.876
10474SOL    HW232322   4.302   1.337   4.842
10475SOL     OW32323   4.180   6.513   2.458
10475SOL    HW132324   4.153   6.417   2.460
10475SOL    HW232325   4.276   6.520   2.431
10476SOL     OW32326   6.844   5.783   6.793
10476SOL    HW132327   6.921   5.846   6.798
10476SOL    HW232328   6.873   5.692   6.823
10477SOL     OW32329   6.203   2.304   4.754
10477SOL    HW132330   6.111   2.277   4.785
10477SOL    HW232331   6.201   2.401   4.728
10478SOL     OW32332   0.157   0.275   1.182
10478SOL    HW132333   0.255   0.272   1.160
10478SOL    HW232334   0.133   0.197   1.239
10479SOL     OW32335   6.979   2.708   1.952
10479SOL    HW132336   7.004   2.624   1.904
10479SOL    HW232337   0.042   2.741   2.005
10480SOL     OW32338   6.014   0.581   1.305
10480SOL    HW132339   6.065   0.659   1.342
10480SOL    HW232340   5.920   0.608   1.287
10481SOL     OW32341   2.540   0.851   5.029
10481SOL    HW132342   2.508   0.944   5.014
10481SOL    HW232343   2.526   0.797   4.946
10482SOL     OW32344   0.716   5.950   4.752
10482SOL    HW132345   0.801   6.001   4.747
10482SOL    HW232346   0.729   5.859   4.713
10483SOL     OW32347   6.992   5.377   0.290
10483SOL    HW132348   6.986   5.317   0.210
10483SOL    HW232349   6.934   5.340   0.363
10484SOL     OW32350   6.541   1.012   1.272
10484SOL    HW132351   6.597   0.936   1.304
10484SOL    HW232352   6.529   1.005   1.173
10485SOL     OW32353   3.496   3.214   2.388
10485SOL    HW132354   3.576   3.162   2.358
10485SOL    HW232355   3.445   3.161   2.456
10486SOL     OW32356   6.499   0.403   5.840
10486SOL    HW132357   6.523   0.404   5.937
10486SOL    HW232358   6.422   0.341   5.826
10487SOL     OW32359   4.801   1.975   1.365
10487SOL    HW132360   4.863   2.054   1.369
10487SOL    HW232361   4.766   1.966   1.272
10488SOL     OW32362   1.827   1.983   6.182
10488SOL    HW132363   1.848   2.061   6.122
10488SOL    HW232364   1.799   1.905   6.126
10489SOL     OW32365   6.232   6.203   4.476
10489SOL    HW132366   6.214   6.140   4.401
10489SOL    HW232367   6.266   6.151   4.555
10490SOL     OW32368   5.835   1.038   0.595
10490SOL    HW132369   5.796   1.126   0.619
10490SOL    HW232370   5.775   0.965   0.626
10491SOL     OW32371   2.531   2.828   6.543
10491SOL    HW132372   2.450   2.878   6.511
10491SOL    HW232373   2.611   2.887   6.535
10492SOL     OW32374   4.379   5.580   0.872
10492SOL    HW132375   4.347   5.617   0.785
10492SOL    HW232376   4.451   5.513   0.855
10493SOL     OW32377   2.794   5.764   1.159
10493SOL    HW132378   2.862   5.726   1.096
10493SOL    HW232379   2.836   5.837   1.213
10494SOL     OW32380   6.653   4.344   5.728
10494SOL    HW132381   6.749   4.366   5.748
10494SOL    HW232382   6.640   4.339   5.629
10495SOL     OW32383   6.224   6.555   0.439
10495SOL    HW132384   6.220   6.652   0.414
10495SOL    HW232385   6.314   6.518   0.414
10496SOL     OW32386   6.387   4.335   4.840
10496SOL    HW132387   6.392   4.353   4.741
10496SOL    HW232388   6.340   4.411   4.885
10497SOL     OW32389   1.183   6.561   2.278
10497SOL    HW132390   1.171   6.462   2.284
10497SOL    HW232391   1.100   6.607   2.310
10498SOL     OW32392   5.683   6.144   1.206
10498SOL    HW132393   5.757   6.134   1.139
10498SOL    HW232394   5.625   6.063   1.204
10499SOL     OW32395   4.810   6.680   1.162
10499SOL    HW132396   4.876   6.641   1.226
10499SOL    HW232397   4.736   6.724   1.213
10500SOL     OW32398   5.787   2.290   5.641
10500SOL    HW132399   5.865   2.348   5.667
10500SOL    HW232400   5.742   2.329   5.561
10501SOL     OW32401   2.310   6.062   2.860
10501SOL    HW132402   2.223   6.022   2.830
10501SOL    HW232403   2.374   5.989   2.883
10502SOL     OW32404   2.514   3.949   1.204
10502SOL    HW132405   2.494   3.852   1.195
10502SOL    HW232406   2.587   3.974   1.140
10503SOL     OW32407   5.900   4.438   0.299
10503SOL    HW132408   5.971   4.375   0.264
10503SOL    HW232409   5.843   4.390   0.365
10504SOL     OW32410   0.317   2.444   5.773
10504SOL    HW132411   0.357   2.455   5.864
10504SOL    HW232412   0.383   2.400   5.713
10505SOL     OW32413   5.357   6.574   1.859
10505SOL    HW132414   5.278   6.585   1.919
10505SOL    HW232415   5.410   6.659   1.857
10506SOL     OW32416   0.564   3.676   0.557
10506SOL    HW132417   0.563   3.730   0.641
10506SOL    HW232418   0.574   3.736   0.478
10507SOL     OW32419   2.015   5.532   6.695
10507SOL    HW132420   1.918   5.533   6.671
10507SOL    HW232421   2.069   5.573   6.622
10508SOL     OW32422   1.159   6.048   4.527
10508SOL    HW132423   1.111   5.961   4.541
10508SOL    HW232424   1.216   6.043   4.445
10509SOL     OW32425   5.991   4.426   4.553
10509SOL    HW132426   6.001   4.326   4.551
10509SOL    HW232427   6.057   4.467   4.489
10510SOL     OW32428   4.864   6.568   0.256
10510SOL    HW132429   4.823   6.505   0.189
10510SOL    HW232430   4.913   6.515   0.325
10511SOL     OW32431   2.850   1.642   1.986
10511SOL    HW132432   2.758   1.674   2.008
10511SOL    HW232433   2.891   1.599   2.066
10512SOL     OW32434   3.846   6.740   5.885
10512SOL    HW132435   3.805   6.695   5.964
10512SOL    HW232436   3.775   6.754   5.815
10513SOL     OW32437   6.700   2.898   3.208
10513SOL    HW132438   6.682   2.840   3.129
10513SOL    HW232439   6.616   2.912   3.259
10514SOL     OW32440   1.441   1.925   1.975
10514SOL    HW132441   1.389   1.985   1.914
10514SOL    HW232442   1.523   1.973   2.008
10515SOL     OW32443   2.333   2.780   4.001
10515SOL    HW132444   2.265   2.842   3.962
10515SOL    HW232445   2.412   2.832   4.032
10516SOL     OW32446   2.664   1.697   0.383
10516SOL    HW132447   2.649   1.624   0.316
10516SOL    HW232448   2.715   1.772   0.340
10517SOL     OW32449   1.532   4.351   1.116
10517SOL    HW132450   1.438   4.383   1.117
10517SOL    HW232451   1.564   4.342   1.021
10518SOL     OW32452   0.018   5.809   1.961
10518SOL    HW132453   0.011   5.710   1.970
10518SOL    HW232454   0.043   5.848   2.050
10519SOL     OW32455   2.916   4.709   0.930
10519SOL    HW132456   3.000   4.739   0.884
10519SOL    HW232457   2.935   4.692   1.026
10520SOL     OW32458   6.652   2.210   6.354
10520SOL    HW132459   6.577   2.238   6.414
10520SOL    HW232460   6.681   2.117   6.378
10521SOL     OW32461   6.512   5.213   1.637
10521SOL    HW132462   6.536   5.180   1.546
10521SOL    HW232463   6.573   5.288   1.662
10522SOL     OW32464   0.628   2.751   3.030
10522SOL    HW132465   0.710   2.696   3.018
10522SOL    HW232466   0.548   2.691   3.038
10523SOL     OW32467   0.467   4.466   2.789
10523SOL    HW132468   0.397   4.415   2.838
10523SOL    HW232469   0.437   4.561   2.776
10524SOL     OW32470   0.678   5.413   3.956
10524SOL    HW132471   0.738   5.438   3.880
10524SOL    HW232472   0.605   5.482   3.964
10525SOL     OW32473   3.779   6.689   5.234
10525SOL    HW132474   3.768   6.744   5.151
10525SOL    HW232475   3.876   6.669   5.247
10526SOL     OW32476   0.631   6.525   1.889
10526SOL    HW132477   0.606   6.448   1.947
10526SOL    HW232478   0.714   6.502   1.838
10527SOL     OW32479   0.984   0.316   6.246
10527SOL    HW132480   0.957   0.403   6.288
10527SOL    HW232481   0.956   0.241   6.305
10528SOL     OW32482   0.627   4.486   6.248
10528SOL    HW132483   0.635   4.392   6.214
10528SOL    HW232484   0.713   4.534   6.235
10529SOL     OW32485   1.975   5.290   5.010
10529SOL    HW132486   2.004   5.365   4.951
10529SOL    HW232487   1.898   5.242   4.968
10530SOL     OW32488   1.030   6.268   6.073
10530SOL    HW132489   1.062   6.348   6.022
10530SOL    HW232490   1.021   6.190   6.011
10531SOL     OW32491   2.822   2.238   4.230
10531SOL    HW132492   2.878   2.220   4.149
10531SOL    HW232493   2.786   2.332   4.225
10532SOL     OW32494   6.760   6.768   6.526
10532SOL    HW132495   6.770   6.821   6.442
10532SOL    HW232496   6.750   6.829   6.604
10533SOL     OW32497   3.144   6.256   4.447
10533SOL    HW132498   3.233   6.274   4.406
10533SOL    HW232499   3.076   6.317   4.405
10534SOL     OW32500   6.972   5.596   2.193
10534SOL    HW132501   6.887   5.647   2.203
10534SOL    HW232502   0.028   5.637   2.251
10535SOL     OW32503   1.651   1.439   2.237
10535SOL    HW132504   1.663   1.538   2.231
10535SOL    HW232505   1.587   1.409   2.166
10536SOL     OW32506   4.465   0.130   4.108
10536SOL    HW132507   4.532   0.068   4.149
10536SOL    HW232508   4.509   0.182   4.035
10537SOL     OW32509   4.957   5.989   3.996
10537SOL    HW132510   4.969   6.088   3.986
10537SOL    HW232511   4.888   5.957   3.931
10538SOL     OW32512   5.842   4.232   2.327
10538SOL    HW132513   5.789   4.314   2.349
10538SOL    HW232514   5.780   4.157   2.305
10539SOL     OW32515   5.964   5.589   1.637
10539SOL    HW132516   5.919   5.665   1.590
10539SOL    HW232517   6.002   5.621   1.723
10540SOL     OW32518   2.285   4.058   6.051
10540SOL    HW132519   2.220   4.041   6.125
10540SOL    HW232520   2.296   3.975   5.996
10541SOL     OW32521   3.858   2.986   3.896
10541SOL    HW132522   3.927   2.985   3.824
10541SOL    HW232523   3.778   2.933   3.867
10542SOL     OW32524   6.771   0.015   5.027
10542SOL    HW132525   6.703   6.971   4.984
10542SOL    HW232526   6.726   0.081   5.087
10543SOL     OW32527   0.500   2.012   4.482
10543SOL    HW132528   0.563   2.089   4.493
10543SOL    HW232529   0.523   1.941   4.548
10544SOL     OW32530   2.050   6.493   3.156
10544SOL    HW132531   1.988   6.459   3.227
10544SOL    HW232532   2.036   6.591   3.144
10545SOL     OW32533   1.406   2.412   1.529
10545SOL    HW132534   1.327   2.457   1.570
10545SOL    HW232535   1.446   2.472   1.459
10546SOL     OW32536   3.896   6.223   1.401
10546SOL    HW132537   3.884   6.183   1.310
10546SOL    HW232538   3.906   6.323   1.392
10547SOL     OW32539   4.771   1.383   4.153
10547SOL    HW132540   4.806   1.476   4.167
10547SOL    HW232541   4.717   1.356   4.232
10548SOL     OW32542   0.699   4.073   3.784
10548SOL    HW132543   0.685   4.045   3.879
10548SOL    HW232544   0.792   4.049   3.756
10549SOL     OW32545   0.458   1.132   0.963
10549SOL    HW132546   0.550   1.103   0.934
10549SOL    HW232547   0.435   1.087   1.049
10550SOL     OW32548   4.364   6.883   3.536
10550SOL    HW132549   4.424   6.881   3.457
10550SOL    HW232550   4.348   6.789   3.567
10551SOL     OW32551   2.269   2.043   6.142
10551SOL    HW132552   2.209   1.963   6.136
10551SOL    HW232553   2.365   2.013   6.145
10552SOL     OW32554   2.420   1.098   5.046
10552SOL    HW132555   2.490   1.144   4.991
10552SOL    HW232556   2.387   1.161   5.117
10553SOL     OW32557   0.172   4.404   0.698
10553SOL    HW132558   0.204   4.456   0.619
10553SOL    HW232559   0.079   4.372   0.680
10554SOL     OW32560   5.360   5.347   2.669
10554SOL    HW132561   5.455   5.315   2.681
10554SOL    HW232562   5.322   5.370   2.758
10555SOL     OW32563   2.733   2.357   0.634
10555SOL    HW132564   2.796   2.344   0.711
10555SOL    HW232565   2.780   2.338   0.548
10556SOL     OW32566   3.103   1.051   3.652
10556SOL    HW132567   3.185   1.028   3.704
10556SOL    HW232568   3.128   1.089   3.563
10557SOL     OW32569   1.787   3.123   4.166
10557SOL    HW132570   1.811   3.142   4.071
10557SOL    HW232571   1.850   3.055   4.204
10558SOL     OW32572   3.534   5.751   6.078
10558SOL    HW132573   3.617   5.760   6.023
10558SOL    HW232574   3.520   5.833   6.132
10559SOL     OW32575   3.981   0.629   1.047
10559SOL    HW132576   3.934   0.716   1.055
10559SOL    HW232577   3.990   0.587   1.138
10560SOL     OW32578   4.435   6.081   2.241
10560SOL    HW132579   4.487   6.064   2.325
10560SOL    HW232580   4.338   6.063   2.258
10561SOL     OW32581   3.525   4.320   1.750
10561SOL    HW132582   3.551   4.401   1.801
10561SOL    HW232583   3.516   4.242   1.812
10562SOL     OW32584   4.095   5.925   0.167
10562SOL    HW132585   3.998   5.902   0.165
10562SOL    HW232586   4.127   5.942   0.073
10563SOL     OW32587   0.864   0.873   1.362
10563SOL    HW132588   0.875   0.785   1.316
10563SOL    HW232589   0.899   0.946   1.303
10564SOL     OW32590   6.120   6.361   3.862
10564SOL    HW132591   6.158   6.269   3.870
10564SOL    HW232592   6.183   6.427   3.903
10565SOL     OW32593   6.827   6.498   5.502
10565SOL    HW132594   6.746   6.461   5.549
10565SOL    HW232595   6.905   6.498   5.565
10566SOL     OW32596   3.136   2.003   6.744
10566SOL    HW132597   3.083   2.042   6.818
10566SOL    HW232598   3.159   2.074   6.677
10567SOL     OW32599   2.218   2.724   5.802
10567SOL    HW132600   2.237   2.767   5.714
10567SOL    HW232601   2.244   2.628   5.799
10568SOL     OW32602   6.030   2.668   0.265
10568SOL    HW132603   5.993   2.697   0.353
10568SOL    HW232604   6.047   2.569   0.266
10569SOL     OW32605   5.520   0.638   1.527
10569SOL    HW132606   5.474   0.679   1.448
10569SOL    HW232607   5.466   0.560   1.559
10570SOL     OW32608   1.765   4.900   3.400
10570SOL    HW132609   1.849   4.847   3.391
10570SOL    HW232610   1.758   4.936   3.493
10571SOL     OW32611   0.019   3.909   5.107
10571SOL    HW132612   6.984   3.853   5.173
10571SOL    HW232613   7.000   4.003   5.109
10572SOL     OW32614   0.135   5.051   2.187
10572SOL    HW132615   0.120   5.046   2.286
10572SOL    HW232616   0.052   5.024   2.139
10573SOL     OW32617   5.009   0.813   5.055
10573SOL    HW132618   5.031   0.756   4.976
10573SOL    HW232619   5.090   0.822   5.113
10574SOL     OW32620   6.577   1.208   3.734
10574SOL    HW132621   6.536   1.241   3.819
10574SOL    HW232622   6.676   1.204   3.744
10575SOL     OW32623   6.091   1.170   3.722
10575SOL    HW132624   6.078   1.074   3.744
10575SOL    HW232625   6.055   1.189   3.631
10576SOL     OW32626   1.606   5.293   2.820
10576SOL    HW132627   1.566   5.207   2.851
10576SOL    HW232628   1.704   5.293   2.839
10577SOL     OW32629   2.286   4.920   0.587
10577SOL    HW132630   2.246   4.839   0.630
10577SOL    HW232631   2.372   4.895   0.543
10578SOL     OW32632   4.915   1.055   3.284
10578SOL    HW132633   4.853   1.129   3.309
10578SOL    HW232634   4.868   0.967   3.293
10579SOL     OW32635   3.393   3.102   1.523
10579SOL    HW132636   3.333   3.024   1.539
10579SOL    HW232637   3.339   3.182   1.496
10580SOL     OW32638   6.433   6.431   6.296
10580SOL    HW132639   6.496   6.508   6.285
10580SOL    HW232640   6.359   6.456   6.359
10581SOL     OW32641   5.171   0.016   2.983
10581SOL    HW132642   5.153   0.114   2.982
10581SOL    HW232643   5.194   7.000   2.891
10582SOL     OW32644   5.332   4.492   6.294
10582SOL    HW132645   5.265   4.549   6.342
10582SOL    HW232646   5.374   4.429   6.358
10583SOL     OW32647   4.407   0.264   4.495
10583SOL    HW132648   4.322   0.214   4.509
10583SOL    HW232649   4.473   0.206   4.447
10584SOL     OW32650   6.573   0.147   6.683
10584SOL    HW132651   6.525   0.174   6.767
10584SOL    HW232652   6.624   0.063   6.701
10585SOL     OW32653   2.163   2.137   5.698
10585SOL    HW132654   2.159   2.223   5.648
10585SOL    HW232655   2.161   2.156   5.796
10586SOL     OW32656   5.071   4.827   5.289
10586SOL    HW132657   5.120   4.796   5.370
10586SOL    HW232658   4.972   4.816   5.304
10587SOL     OW32659   6.925   5.567   6.988
10587SOL    HW132660   6.949   5.483   6.940
10587SOL    HW232661   6.865   5.546   0.049
10588SOL     OW32662   1.927   1.700   5.167
10588SOL    HW132663   1.928   1.734   5.073
10588SOL    HW232664   1.859   1.750   5.220
10589SOL     OW32665   5.188   0.288   4.478
10589SOL    HW132666   5.181   0.195   4.442
10589SOL    HW232667   5.174   0.287   4.577
10590SOL     OW32668   0.137   6.508   1.855
10590SOL    HW132669   0.213   6.559   1.814
10590SOL    HW232670   0.051   6.539   1.815
10591SOL     OW32671   2.377   1.748   1.238
10591SOL    HW132672   2.306   1.729   1.170
10591SOL    HW232673   2.461   1.776   1.191
10592SOL     OW32674   5.792   2.648   4.313
10592SOL    HW132675   5.717   2.637   4.379
10592SOL    HW232676   5.754   2.654   4.221
10593SOL     OW32677   1.715   6.345   0.641
10593SOL    HW132678   1.776   6.424   0.635
10593SOL    HW232679   1.709   6.301   0.552
10594SOL     OW32680   4.393   1.724   2.984
10594SOL    HW132681   4.346   1.638   2.960
10594SOL    HW232682   4.385   1.740   3.082
10595SOL     OW32683   6.178   0.017   6.945
10595SOL    HW132684   6.254   7.014   6.883
10595SOL    HW232685   6.092   0.007   6.896
10596SOL     OW32686   5.044   0.636   6.849
10596SOL    HW132687   5.083   0.557   6.801
10596SOL    HW232688   4.957   0.609   6.890
10597SOL     OW32689   2.248   0.470   5.214
10597SOL    HW132690   2.229   0.568   5.222
10597SOL    HW232691   2.310   0.455   5.137
10598SOL     OW32692   2.961   2.220   6.576
10598SOL    HW132693   3.020   2.263   6.644
10598SOL    HW232694   2.907   2.289   6.529
10599SOL     OW32695   6.278   3.901   6.367
10599SOL    HW132696   6.278   3.805   6.339
10599SOL    HW232697   6.186   3.928   6.395
10600SOL     OW32698   3.707   2.040   1.251
10600SOL    HW132699   3.616   2.079   1.249
10600SOL    HW232700   3.705   1.949   1.208
10601SOL     OW32701   1.300   4.810   5.095
10601SOL    HW132702   1.396   4.798   5.071
10601SOL    HW232703   1.283   4.771   5.185
10602SOL     OW32704   1.063   1.508   0.985
10602SOL    HW132705   1.146   1.461   1.015
10602SOL    HW232706   1.034   1.470   0.897
10603SOL     OW32707   4.761   6.870   3.331
10603SOL    HW132708   4.757   6.773   3.356
10603SOL    HW232709   4.840   6.885   3.271
10604SOL     OW32710   0.124   5.932   5.057
10604SOL    HW132711   0.175   5.900   5.136
10604SOL    HW232712   0.133   6.031   5.048
10605SOL     OW32713   1.907   0.205   6.735
10605SOL    HW132714   1.856   0.121   6.753
10605SOL    HW232715   1.849   0.284   6.756
10606SOL     OW32716   6.615   1.052   1.841
10606SOL    HW132717   6.686   1.077   1.775
10606SOL    HW232718   6.655   1.042   1.931
10607SOL     OW32719   3.938   4.772   0.257
10607SOL    HW132720   3.883   4.733   0.331
10607SOL    HW232721   3.991   4.849   0.292
10608SOL     OW32722   6.864   3.489   3.307
10608SOL    HW132723   6.790   3.554   3.290
10608SOL    HW232724   6.887   3.442   3.222
10609SOL     OW32725   2.251   6.957   6.630
10609SOL    HW132726   2.292   6.974   6.541
10609SOL    HW232727   2.181   0.011   6.648
10610SOL     OW32728   0.069   1.770   4.280
10610SOL    HW132729   0.031   1.751   4.189
10610SOL    HW232730   0.028   1.709   4.347
10611SOL     OW32731   2.594   5.358   5.952
10611SOL    HW132732   2.631   5.290   5.888
10611SOL    HW232733   2.660   5.373   6.026
10612SOL     OW32734   5.061   2.326   4.315
10612SOL    HW132735   5.071   2.408   4.259
10612SOL    HW232736   4.970   2.287   4.300
10613SOL     OW32737   6.450   5.684   4.987
10613SOL    HW132738   6.516   5.759   4.992
10613SOL    HW232739   6.417   5.675   4.893
10614SOL     OW32740   5.262   1.282   4.431
10614SOL    HW132741   5.303   1.355   4.487
10614SOL    HW232742   5.327   1.255   4.360
10615SOL     OW32743   3.445   1.054   5.445
10615SOL    HW132744   3.395   1.136   5.417
10615SOL    HW232745   3.544   1.074   5.444
10616SOL     OW32746   3.134   6.395   6.699
10616SOL    HW132747   3.077   6.313   6.700
10616SOL    HW232748   3.212   6.383   6.761
10617SOL     OW32749   2.349   4.388   1.359
10617SOL    HW132750   2.434   4.337   1.368
10617SOL    HW232751   2.278   4.344   1.414
10618SOL     OW32752   0.774   5.207   5.693
10618SOL    HW132753   0.687   5.159   5.704
10618SOL    HW232754   0.850   5.145   5.711
10619SOL     OW32755   0.762   2.734   3.309
10619SOL    HW132756   0.785   2.721   3.213
10619SOL    HW232757   0.670   2.770   3.317
10620SOL     OW32758   1.192   6.873   5.232
10620SOL    HW132759   1.126   6.799   5.220
10620SOL    HW232760   1.281   6.835   5.258
10621SOL     OW32761   0.360   4.400   1.878
10621SOL    HW132762   0.343   4.342   1.958
10621SOL    HW232763   0.286   4.467   1.868
10622SOL     OW32764   4.713   2.108   1.660
10622SOL    HW132765   4.799   2.090   1.613
10622SOL    HW232766   4.637   2.086   1.599
10623SOL     OW32767   6.644   5.686   5.507
10623SOL    HW132768   6.721   5.640   5.552
10623SOL    HW232769   6.595   5.620   5.451
10624SOL     OW32770   0.422   2.353   5.326
10624SOL    HW132771   0.416   2.410   5.408
10624SOL    HW232772   0.505   2.298   5.330
10625SOL     OW32773   0.362   4.195   1.696
10625SOL    HW132774   0.371   4.275   1.756
10625SOL    HW232775   0.453   4.166   1.666
10626SOL     OW32776   3.109   2.525   1.147
10626SOL    HW132777   3.126   2.507   1.050
10626SOL    HW232778   3.107   2.624   1.163
10627SOL     OW32779   6.290   1.099   6.629
10627SOL    HW132780   6.253   1.038   6.698
10627SOL    HW232781   6.260   1.068   6.538
10628SOL     OW32782   4.617   6.895   1.213
10628SOL    HW132783   4.672   6.966   1.168
10628SOL    HW232784   4.624   6.905   1.312
10629SOL     OW32785   3.116   4.880   4.676
10629SOL    HW132786   3.046   4.864   4.745
10629SOL    HW232787   3.077   4.865   4.585
10630SOL     OW32788   5.645   1.236   2.423
10630SOL    HW132789   5.708   1.291   2.368
10630SOL    HW232790   5.690   1.150   2.449
10631SOL     OW32791   3.705   4.393   5.417
10631SOL    HW132792   3.661   4.382   5.506
10631SOL    HW232793   3.683   4.484   5.380
10632SOL     OW32794   5.106   6.186   3.779
10632SOL    HW132795   5.126   6.091   3.754
10632SOL    HW232796   5.007   6.201   3.779
10633SOL     OW32797   2.447   2.455   1.300
10633SOL    HW132798   2.391   2.428   1.222
10633SOL    HW232799   2.483   2.547   1.285
10634SOL     OW32800   1.721   5.341   0.316
10634SOL    HW132801   1.798   5.289   0.280
10634SOL    HW232802   1.719   5.333   0.415
10635SOL     OW32803   2.066   3.320   6.661
10635SOL    HW132804   2.004   3.309   6.739
10635SOL    HW232805   2.014   3.323   6.576
10636SOL     OW32806   0.012   2.505   1.589
10636SOL    HW132807   6.987   2.559   1.515
10636SOL    HW232808   6.968   2.426   1.607
10637SOL     OW32809   1.321   5.432   6.326
10637SOL    HW132810   1.405   5.400   6.370
10637SOL    HW232811   1.319   5.401   6.231
10638SOL     OW32812   5.274   6.291   2.951
10638SOL    HW132813   5.230   6.335   2.873
10638SOL    HW232814   5.207   6.234   2.999
10639SOL     OW32815   1.774   3.586   2.215
10639SOL    HW132816   1.785   3.623   2.308
10639SOL    HW232817   1.864   3.565   2.177
10640SOL     OW32818   4.940   0.535   3.641
10640SOL    HW132819   5.025   0.581   3.666
10640SOL    HW232820   4.864   0.601   3.644
10641SOL     OW32821   2.032   1.626   3.041
10641SOL    HW132822   1.982   1.543   3.017
10641SOL    HW232823   2.128   1.615   3.015
10642SOL     OW32824   6.200   1.658   0.552
10642SOL    HW132825   6.201   1.637   0.454
10642SOL    HW232826   6.290   1.641   0.591
10643SOL     OW32827   2.121   6.405   5.541
10643SOL    HW132828   2.031   6.422   5.581
10643SOL    HW232829   2.121   6.436   5.445
10644SOL     OW32830   5.771   3.344   1.597
10644SOL    HW132831   5.693   3.325   1.538
10644SOL    HW232832   5.766   3.286   1.679
10645SOL     OW32833   2.231   2.492   4.273
10645SOL    HW132834   2.262   2.537   4.357
10645SOL    HW232835   2.180   2.558   4.218
10646SOL     OW32836   6.832   0.460   6.274
10646SOL    HW132837   6.840   0.537   6.338
10646SOL    HW232838   6.911   0.400   6.284
10647SOL     OW32839   3.666   5.242   5.201
10647SOL    HW132840   3.765   5.238   5.187
10647SOL    HW232841   3.636   5.162   5.253
10648SOL     OW32842   6.048   5.090   6.197
10648SOL    HW132843   6.080   5.006   6.153
10648SOL    HW232844   5.949   5.086   6.208
10649SOL     OW32845   0.747   3.464   2.881
10649SOL    HW132846   0.762   3.367   2.862
10649SOL    HW232847   0.651   3.481   2.901
10650SOL     OW32848   0.610   0.839   4.112
10650SOL    HW132849   0.600   0.836   4.211
10650SOL    HW232850   0.542   0.779   4.070
10651SOL     OW32851   6.324   5.629   5.755
10651SOL    HW132852   6.421   5.629   5.734
10651SOL    HW232853   6.308   5.582   5.842
10652SOL     OW32854   2.054   0.113   6.451
10652SOL    HW132855   2.010   0.106   6.361
10652SOL    HW232856   1.990   0.086   6.522
10653SOL     OW32857   4.148   6.119   5.359
10653SOL    HW132858   4.199   6.043   5.398
10653SOL    HW232859   4.157   6.117   5.259
10654SOL     OW32860   5.093   0.772   6.094
10654SOL    HW132861   5.189   0.792   6.073
10654SOL    HW232862   5.064   0.825   6.174
10655SOL     OW32863   1.553   4.775   0.164
10655SOL    HW132864   1.556   4.760   0.263
10655SOL    HW232865   1.629   4.726   0.120
10656SOL     OW32866   6.753   1.145   2.421
10656SOL    HW132867   6.821   1.201   2.373
10656SOL    HW232868   6.677   1.203   2.450
10657SOL     OW32869   5.544   0.650   4.685
10657SOL    HW132870   5.597   0.723   4.728
10657SOL    HW232871   5.588   0.622   4.600
10658SOL     OW32872   6.170   4.130   4.832
10658SOL    HW132873   6.090   4.153   4.776
10658SOL    HW232874   6.239   4.201   4.821
10659SOL     OW32875   0.955   5.035   0.594
10659SOL    HW132876   0.869   5.037   0.543
10659SOL    HW232877   1.032   5.040   0.531
10660SOL     OW32878   6.000   3.658   5.981
10660SOL    HW132879   5.975   3.616   5.894
10660SOL    HW232880   6.075   3.723   5.967
10661SOL     OW32881   1.576   6.493   1.011
10661SOL    HW132882   1.530   6.459   0.929
10661SOL    HW232883   1.658   6.544   0.985
10662SOL     OW32884   4.499   0.519   2.257
10662SOL    HW132885   4.497   0.578   2.338
10662SOL    HW232886   4.579   0.460   2.261
10663SOL     OW32887   0.695   1.190   2.827
10663SOL    HW132888   0.627   1.263   2.824
10663SOL    HW232889   0.713   1.165   2.922
10664SOL     OW32890   6.269   4.077   5.374
10664SOL    HW132891   6.283   4.078   5.275
10664SOL    HW232892   6.171   4.084   5.394
10665SOL     OW32893   1.541   1.885   0.121
10665SOL    HW132894   1.499   1.855   0.207
10665SOL    HW232895   1.483   1.858   0.044
10666SOL     OW32896   3.111   4.054   1.903
10666SOL    HW132897   3.075   4.004   1.982
10666SOL    HW232898   3.035   4.082   1.844
10667SOL     OW32899   4.677   2.485   3.520
10667SOL    HW132900   4.749   2.446   3.464
10667SOL    HW232901   4.589   2.476   3.473
10668SOL     OW32902   2.804   1.432   4.798
10668SOL    HW132903   2.870   1.357   4.790
10668SOL    HW232904   2.782   1.467   4.707
10669SOL     OW32905   6.223   0.755   1.273
10669SOL    HW132906   6.181   0.841   1.303
10669SOL    HW232907   6.212   0.746   1.174
10670SOL     OW32908   5.497   4.441   4.714
10670SOL    HW132909   5.524   4.368   4.776
10670SOL    HW232910   5.578   4.484   4.675
10671SOL     OW32911   1.771   1.930   4.520
10671SOL    HW132912   1.761   1.926   4.619
10671SOL    HW232913   1.811   2.018   4.495
10672SOL     OW32914   6.615   4.445   1.840
10672SOL    HW132915   6.588   4.360   1.884
10672SOL    HW232916   6.535   4.490   1.801
10673SOL     OW32917   0.502   1.211   0.098
10673SOL    HW132918   0.448   1.286   0.060
10673SOL    HW232919   0.521   1.144   0.027
10674SOL     OW32920   4.061   3.504   4.076
10674SOL    HW132921   4.062   3.429   4.142
10674SOL    HW232922   4.082   3.468   3.985
10675SOL     OW32923   1.947   0.402   6.355
10675SOL    HW132924   2.021   0.462   6.325
10675SOL    HW232925   1.983   0.329   6.413
10676SOL     OW32926   0.425   5.951   5.213
10676SOL    HW132927   0.364   6.028   5.232
10676SOL    HW232928   0.474   5.968   5.127
10677SOL     OW32929   1.334   0.652   1.572
10677SOL    HW132930   1.330   0.558   1.538
10677SOL    HW232931   1.244   0.695   1.565
10678SOL     OW32932   4.673   5.273   4.608
10678SOL    HW132933   4.605   5.206   4.580
10678SOL    HW232934   4.656   5.359   4.561
10679SOL     OW32935   3.963   5.621   6.639
10679SOL    HW132936   3.905   5.664   6.570
10679SOL    HW232937   3.919   5.626   6.728
10680SOL     OW32938   3.811   2.159   4.087
10680SOL    HW132939   3.786   2.115   4.001
10680SOL    HW232940   3.732   2.164   4.147
10681SOL     OW32941   6.898   3.905   0.634
10681SOL    HW132942   6.864   3.930   0.543
10681SOL    HW232943   6.995   3.882   0.629
10682SOL     OW32944   0.036   1.882   5.567
10682SOL    HW132945   0.048   1.969   5.519
10682SOL    HW232946   0.018   1.900   5.663
10683SOL     OW32947   4.876   0.989   3.877
10683SOL    HW132948   4.909   1.075   3.916
10683SOL    HW232949   4.859   1.001   3.779
10684SOL     OW32950   4.799   4.800   2.657
10684SOL    HW132951   4.700   4.805   2.669
10684SOL    HW232952   4.842   4.785   2.746
10685SOL     OW32953   0.893   5.789   1.509
10685SOL    HW132954   0.846   5.771   1.423
10685SOL    HW232955   0.932   5.703   1.544
10686SOL     OW32956   1.043   3.877   5.881
10686SOL    HW132957   1.109   3.813   5.921
10686SOL    HW232958   1.085   3.926   5.805
10687SOL     OW32959   6.416   5.371   4.374
10687SOL    HW132960   6.387   5.286   4.418
10687SOL    HW232961   6.514   5.383   4.386
10688SOL     OW32962   5.865   3.203   2.768
10688SOL    HW132963   5.954   3.227   2.806
10688SOL    HW232964   5.863   3.226   2.670
10689SOL     OW32965   6.828   0.337   2.941
10689SOL    HW132966   6.764   0.270   2.978
10689SOL    HW232967   6.903   0.290   2.895
10690SOL     OW32968   0.420   5.551   3.973
10690SOL    HW132969   0.425   5.642   4.014
10690SOL    HW232970   0.452   5.555   3.879
10691SOL     OW32971   1.448   1.860   2.403
10691SOL    HW132972   1.392   1.802   2.344
10691SOL    HW232973   1.543   1.856   2.372
10692SOL     OW32974   2.341   6.849   4.191
10692SOL    HW132975   2.347   6.783   4.266
10692SOL    HW232976   2.421   6.841   4.132
10693SOL     OW32977   1.320   5.934   1.216
10693SOL    HW132978   1.339   5.974   1.306
10693SOL    HW232979   1.330   6.004   1.146
10694SOL     OW32980   5.228   6.366   0.186
10694SOL    HW132981   5.302   6.422   0.148
10694SOL    HW232982   5.233   6.274   0.147
10695SOL     OW32983   0.978   2.283   2.529
10695SOL    HW132984   1.018   2.323   2.446
10695SOL    HW232985   0.911   2.214   2.503
10696SOL     OW32986   6.736   4.569   3.384
10696SOL    HW132987   6.667   4.528   3.325
10696SOL    HW232988   6.827   4.552   3.346
10697SOL     OW32989   0.638   6.589   5.376
10697SOL    HW132990   0.541   6.581   5.354
10697SOL    HW232991   0.685   6.504   5.352
10698SOL     OW32992   5.486   4.614   6.962
10698SOL    HW132993   5.420   4.575   6.897
10698SOL    HW232994   5.541   4.541   7.002
10699SOL     OW32995   3.948   4.515   1.673
10699SOL    HW132996   4.028   4.538   1.728
10699SOL    HW232997   3.954   4.562   1.584
10700SOL     OW32998   5.692   6.435   0.601
10700SOL    HW132999   5.778   6.388   0.620
10700SOL    HW233000   5.669   6.495   0.678
10701SOL     OW33001   2.471   6.840   6.725
10701SOL    HW133002   2.535   6.905   6.685
10701SOL    HW233003   2.378   6.877   6.720
10702SOL     OW33004   5.259   3.191   1.587
10702SOL    HW133005   5.234   3.181   1.491
10702SOL    HW233006   5.281   3.100   1.625
10703SOL     OW33007   2.697   3.056   5.318
10703SOL    HW133008   2.621   3.045   5.254
10703SOL    HW233009   2.750   3.137   5.293
10704SOL     OW33010   5.582   5.620   2.353
10704SOL    HW133011   5.602   5.532   2.397
10704SOL    HW233012   5.522   5.604   2.274
10705SOL     OW33013   6.245   5.005   1.899
10705SOL    HW133014   6.162   4.994   1.953
10705SOL    HW233015   6.267   4.918   1.854
10706SOL     OW33016   4.580   0.707   2.449
10706SOL    HW133017   4.579   0.697   2.548
10706SOL    HW233018   4.675   0.709   2.417
10707SOL     OW33019   0.097   0.220   4.381
10707SOL    HW133020   0.109   0.130   4.423
10707SOL    HW233021   0.094   0.290   4.452
10708SOL     OW33022   3.869   1.286   1.416
10708SOL    HW133023   3.880   1.352   1.491
10708SOL    HW233024   3.880   1.334   1.329
10709SOL     OW33025   5.310   4.953   5.479
10709SOL    HW133026   5.321   4.914   5.388
10709SOL    HW233027   5.287   4.881   5.544
10710SOL     OW33028   6.762   0.578   4.309
10710SOL    HW133029   6.831   0.600   4.240
10710SOL    HW233030   6.789   0.618   4.396
10711SOL     OW33031   1.975   6.965   4.503
10711SOL    HW133032   2.019   0.036   4.479
10711SOL    HW233033   1.887   6.983   4.547
10712SOL     OW33034   3.093   0.596   1.721
10712SOL    HW133035   3.076   0.679   1.774
10712SOL    HW233036   3.005   0.557   1.691
10713SOL     OW33037   0.468   3.312   2.326
10713SOL    HW133038   0.388   3.330   2.382
10713SOL    HW233039   0.543   3.373   2.352
10714SOL     OW33040   5.735   3.193   4.994
10714SOL    HW133041   5.678   3.243   5.059
10714SOL    HW233042   5.691   3.107   4.970
10715SOL     OW33043   5.293   0.601   2.776
10715SOL    HW133044   5.368   0.653   2.816
10715SOL    HW233045   5.206   0.646   2.798
10716SOL     OW33046   6.097   1.998   3.543
10716SOL    HW133047   6.022   2.015   3.608
10716SOL    HW233048   6.069   1.926   3.479
10717SOL     OW33049   0.649   2.061   1.790
10717SOL    HW133050   0.608   1.983   1.743
10717SOL    HW233051   0.590   2.141   1.782
10718SOL     OW33052   1.496   2.909   6.778
10718SOL    HW133053   1.485   3.005   6.804
10718SOL    HW233054   1.528   2.856   6.856
10719SOL     OW33055   6.482   5.614   2.628
10719SOL    HW133056   6.395   5.616   2.577
10719SOL    HW233057   6.515   5.708   2.639
10720SOL     OW33058   0.511   4.278   4.861
10720SOL    HW133059   0.547   4.200   4.809
10720SOL    HW233060   0.412   4.286   4.845
10721SOL     OW33061   5.758   3.825   5.049
10721SOL    HW133062   5.800   3.846   4.961
10721SOL    HW233063   5.797   3.740   5.085
10722SOL     OW33064   0.935   5.212   6.837
10722SOL    HW133065   1.003   5.146   6.867
10722SOL    HW233066   0.843   5.175   6.852
10723SOL     OW33067   0.384   3.166   5.493
10723SOL    HW133068   0.465   3.198   5.542
10723SOL    HW233069   0.391   3.194   5.397
10724SOL     OW33070   6.071   1.359   6.447
10724SOL    HW133071   6.159   1.349   6.493
10724SOL    HW233072   5.998   1.322   6.505
10725SOL     OW33073   1.239   5.591   4.413
10725SOL    HW133074   1.245   5.502   4.368
10725SOL    HW233075   1.331   5.628   4.426
10726SOL     OW33076   5.303   0.215   5.456
10726SOL    HW133077   5.222   0.273   5.468
10726SOL    HW233078   5.379   0.254   5.508
10727SOL     OW33079   0.225   4.945   5.223
10727SOL    HW133080   0.210   5.011   5.150
10727SOL    HW233081   0.227   4.852   5.184
10728SOL     OW33082   0.095   5.962   6.750
10728SOL    HW133083   0.107   5.940   6.847
10728SOL    HW233084   0.178   6.003   6.715
10729SOL     OW33085   5.497   1.333   1.720
10729SOL    HW133086   5.471   1.417   1.673
10729SOL    HW233087   5.580   1.296   1.679
10730SOL     OW33088   2.032   1.005   1.398
10730SOL    HW133089   2.111   1.003   1.460
10730SOL    HW233090   1.950   0.975   1.447
10731SOL     OW33091   2.917   6.163   0.666
10731SOL    HW133092   2.822   6.155   0.638
10731SOL    HW233093   2.976   6.146   0.587
10732SOL     OW33094   6.187   5.017   4.199
10732SOL    HW133095   6.175   5.114   4.221
10732SOL    HW233096   6.142   4.996   4.112
10733SOL     OW33097   6.553   1.790   0.993
10733SOL    HW133098   6.648   1.779   0.965
10733SOL    HW233099   6.496   1.809   0.913
10734SOL     OW33100   1.058   0.576   0.323
10734SOL    HW133101   1.022   0.657   0.277
10734SOL    HW233102   0.987   0.505   0.326
10735SOL     OW33103   1.030   2.768   3.002
10735SOL    HW133104   1.027   2.843   3.067
10735SOL    HW233105   1.095   2.789   2.929
10736SOL     OW33106   1.628   0.387   2.963
10736SOL    HW133107   1.619   0.309   2.902
10736SOL    HW233108   1.696   0.367   3.034
10737SOL     OW33109   1.985   1.954   1.012
10737SOL    HW133110   1.934   1.985   1.092
10737SOL    HW233111   1.964   2.014   0.934
10738SOL     OW33112   2.705   0.173   3.463
10738SOL    HW133113   2.684   0.264   3.427
10738SOL    HW233114   2.803   0.166   3.481
10739SOL     OW33115   1.033   1.799   1.082
10739SOL    HW133116   1.025   1.704   1.054
10739SOL    HW233117   0.950   1.848   1.059
10740SOL     OW33118   6.988   4.163   4.957
10740SOL    HW133119   0.061   4.158   5.005
10740SOL    HW233120   6.969   4.259   4.934
10741SOL     OW33121   5.728   0.005   1.020
10741SOL    HW133122   5.715   6.991   0.924
10741SOL    HW233123   5.656   6.979   1.076
10742SOL     OW33124   5.295   0.636   0.810
10742SOL    HW133125   5.281   0.692   0.892
10742SOL    HW233126   5.353   0.686   0.745
10743SOL     OW33127   2.479   1.374   5.196
10743SOL    HW133128   2.472   1.473   5.186
10743SOL    HW233129   2.563   1.351   5.245
10744SOL     OW33130   3.432   1.535   1.228
10744SOL    HW133131   3.478   1.489   1.152
10744SOL    HW233132   3.337   1.551   1.205
10745SOL     OW33133   0.291   5.456   6.628
10745SOL    HW133134   0.361   5.444   6.557
10745SOL    HW233135   0.300   5.384   6.696
10746SOL     OW33136   1.913   4.373   1.218
10746SOL    HW133137   1.878   4.431   1.145
10746SOL    HW233138   1.839   4.315   1.253
10747SOL     OW33139   4.485   0.867   3.581
10747SOL    HW133140   4.414   0.805   3.547
10747SOL    HW233141   4.514   0.838   3.672
10748SOL     OW33142   4.883   1.079   1.036
10748SOL    HW133143   4.897   1.177   1.053
10748SOL    HW233144   4.871   1.064   0.938
10749SOL     OW33145   0.649   5.741   2.792
10749SOL    HW133146   0.703   5.754   2.708
10749SOL    HW233147   0.556   5.713   2.767
10750SOL     OW33148   4.629   5.885   5.107
10750SOL    HW133149   4.563   5.912   5.177
10750SOL    HW233150   4.720   5.876   5.149
10751SOL     OW33151   1.858   4.307   4.252
10751SOL    HW133152   1.774   4.274   4.210
10751SOL    HW233153   1.936   4.285   4.193
10752SOL     OW33154   5.989   3.951   6.421
10752SOL    HW133155   5.967   3.853   6.412
10752SOL    HW233156   5.916   3.996   6.473
10753SOL     OW33157   4.949   5.750   4.237
10753SOL    HW133158   5.037   5.756   4.284
10753SOL    HW233159   4.877   5.786   4.296
10754SOL     OW33160   0.852   1.450   3.108
10754SOL    HW133161   0.854   1.427   3.011
10754SOL    HW233162   0.928   1.403   3.155
10755SOL     OW33163   6.796   0.898   6.543
10755SOL    HW133164   6.845   0.961   6.603
10755SOL    HW233165   6.697   0.914   6.552
10756SOL     OW33166   6.937   4.963   0.192
10756SOL    HW133167   0.008   4.918   0.168
10756SOL    HW233168   6.955   5.060   0.212
10757SOL     OW33169   1.724   2.997   0.343
10757SOL    HW133170   1.664   2.940   0.399
10757SOL    HW233171   1.682   3.086   0.329
10758SOL     OW33172   0.639   0.023   3.984
10758SOL    HW133173   0.572   0.032   3.910
10758SOL    HW233174   0.723   0.071   3.958
10759SOL     OW33175   1.680   3.196   1.021
10759SOL    HW133176   1.753   3.257   0.989
10759SOL    HW233177   1.592   3.231   0.988
10760SOL     OW33178   6.399   1.766   2.026
10760SOL    HW133179   6.417   1.759   2.124
10760SOL    HW233180   6.328   1.835   2.010
10761SOL     OW33181   0.957   0.572   6.336
10761SOL    HW133182   0.943   0.663   6.299
10761SOL    HW233183   1.013   0.578   6.419
10762SOL     OW33184   4.109   1.828   4.556
10762SOL    HW133185   4.011   1.843   4.568
10762SOL    HW233186   4.160   1.894   4.610
10763SOL     OW33187   5.086   6.316   2.710
10763SOL    HW133188   5.070   6.379   2.786
10763SOL    HW233189   5.008   6.320   2.647
10764SOL     OW33190   5.417   2.712   5.863
10764SOL    HW133191   5.412   2.637   5.929
10764SOL    HW233192   5.362   2.789   5.896
10765SOL     OW33193   5.409   2.005   0.275
10765SOL    HW133194   5.426   2.042   0.367
10765SOL    HW233195   5.436   1.909   0.272
10766SOL     OW33196   4.824   3.787   0.498
10766SOL    HW133197   4.825   3.850   0.576
10766SOL    HW233198   4.859   3.698   0.526
10767SOL     OW33199   1.257   0.913   0.082
10767SOL    HW133200   1.349   0.950   0.097
10767SOL    HW233201   1.264   0.826   0.033
10768SOL     OW33202   4.656   4.159   1.708
10768SOL    HW133203   4.563   4.176   1.740
10768SOL    HW233204   4.702   4.097   1.772
10769SOL     OW33205   2.590   4.768   4.897
10769SOL    HW133206   2.590   4.807   4.805
10769SOL    HW233207   2.667   4.706   4.908
10770SOL     OW33208   5.747   0.710   5.067
10770SOL    HW133209   5.685   0.740   5.139
10770SOL    HW233210   5.713   0.741   4.978
10771SOL     OW33211   6.384   0.584   3.622
10771SOL    HW133212   6.304   0.538   3.660
10771SOL    HW233213   6.407   0.545   3.533
10772SOL     OW33214   6.527   6.409   4.342
10772SOL    HW133215   6.520   6.311   4.323
10772SOL    HW233216   6.536   6.423   4.441
10773SOL     OW33217   6.331   5.454   0.084
10773SOL    HW133218   6.283   5.366   0.084
10773SOL    HW233219   6.279   5.521   0.030
10774SOL     OW33220   1.918   1.571   0.284
10774SOL    HW133221   1.972   1.636   0.230
10774SOL    HW233222   1.979   1.519   0.343
10775SOL     OW33223   0.277   4.988   1.027
10775SOL    HW133224   0.207   4.956   1.091
10775SOL    HW233225   0.285   4.924   0.951
10776SOL     OW33226   0.102   1.082   6.606
10776SOL    HW133227   0.121   1.178   6.587
10776SOL    HW233228   0.150   1.054   6.690
10777SOL     OW33229   3.271   5.387   3.080
10777SOL    HW133230   3.209   5.345   3.014
10777SOL    HW233231   3.307   5.472   3.043
10778SOL     OW33232   5.952   0.611   4.410
10778SOL    HW133233   5.975   0.529   4.357
10778SOL    HW233234   6.029   0.634   4.470
10779SOL     OW33235   6.763   3.628   4.108
10779SOL    HW133236   6.721   3.678   4.032
10779SOL    HW233237   6.707   3.548   4.130
10780SOL     OW33238   2.037   0.713   3.998
10780SOL    HW133239   1.980   0.690   3.919
10780SOL    HW233240   2.130   0.735   3.967
10781SOL     OW33241   4.492   1.128   3.447
10781SOL    HW133242   4.490   1.064   3.523
10781SOL    HW233243   4.513   1.079   3.362
10782SOL     OW33244   5.655   1.767   1.786
10782SOL    HW133245   5.598   1.738   1.863
10782SOL    HW233246   5.751   1.760   1.811
10783SOL     OW33247   0.479   3.517   3.138
10783SOL    HW133248   0.484   3.458   3.057
10783SOL    HW233249   0.440   3.465   3.214
10784SOL     OW33250   3.837   6.495   4.042
10784SOL    HW133251   3.859   6.589   4.015
10784SOL    HW233252   3.740   6.477   4.025
10785SOL     OW33253   0.273   4.449   1.095
10785SOL    HW133254   0.308   4.410   1.181
10785SOL    HW233255   0.188   4.498   1.113
10786SOL     OW33256   5.842   4.430   3.564
10786SOL    HW133257   5.920   4.489   3.543
10786SOL    HW233258   5.761   4.465   3.518
10787SOL     OW33259   2.038   1.299   4.531
10787SOL    HW133260   2.137   1.287   4.529
10787SOL    HW233261   2.015   1.387   4.489
10788SOL     OW33262   1.800   4.287   6.091
10788SOL    HW133263   1.840   4.241   6.171
10788SOL    HW233264   1.871   4.338   6.043
10789SOL     OW33265   0.243   3.082   6.662
10789SOL    HW133266   0.291   3.002   6.625
10789SOL    HW233267   0.281   3.105   6.751
10790SOL     OW33268   1.400   0.103   1.652
10790SOL    HW133269   1.490   0.137   1.679
10790SOL    HW233270   1.330   0.144   1.710
10791SOL     OW33271   6.797   0.115   1.173
10791SOL    HW133272   6.837   0.051   1.108
10791SOL    HW233273   6.824   0.091   1.266
10792SOL     OW33274   2.995   3.884   4.115
10792SOL    HW133275   2.924   3.873   4.185
10792SOL    HW233276   2.956   3.865   4.025
10793SOL     OW33277   5.332   3.339   4.397
10793SOL    HW133278   5.270   3.345   4.475
10793SOL    HW233279   5.281   3.307   4.317
10794SOL     OW33280   2.975   3.745   3.451
10794SOL    HW133281   2.941   3.663   3.405
10794SOL    HW233282   2.954   3.826   3.397
10795SOL     OW33283   6.662   5.081   1.988
10795SOL    HW133284   6.638   5.004   1.929
10795SOL    HW233285   6.579   5.126   2.021
10796SOL     OW33286   5.531   0.234   6.260
10796SOL    HW133287   5.502   0.143   6.234
10796SOL    HW233288   5.563   0.284   6.180
10797SOL     OW33289   4.133   2.951   1.720
10797SOL    HW133290   4.078   2.968   1.638
10797SOL    HW233291   4.220   3.000   1.713
10798SOL     OW33292   3.229   0.377   0.708
10798SOL    HW133293   3.134   0.399   0.686
10798SOL    HW233294   3.231   0.306   0.779
10799SOL     OW33295   3.735   0.914   1.694
10799SOL    HW133296   3.697   0.992   1.742
10799SOL    HW233297   3.747   0.838   1.758
10800SOL     OW33298   0.603   6.800   6.392
10800SOL    HW133299   0.505   6.818   6.400
10800SOL    HW233300   0.624   6.771   6.299
10801SOL     OW33301   0.556   6.134   6.291
10801SOL    HW133302   0.612   6.131   6.374
10801SOL    HW233303   0.556   6.044   6.247
10802SOL     OW33304   1.228   0.704   2.883
10802SOL    HW133305   1.253   0.709   2.787
10802SOL    HW233306   1.274   0.778   2.933
10803SOL     OW33307   2.333   4.504   6.101
10803SOL    HW133308   2.423   4.484   6.140
10803SOL    HW233309   2.344   4.546   6.011
10804SOL     OW33310   5.370   3.129   2.104
10804SOL    HW133311   5.380   3.090   2.012
10804SOL    HW233312   5.290   3.189   2.106
10805SOL     OW33313   4.358   6.513   6.792
10805SOL    HW133314   4.337   6.434   6.735
10805SOL    HW233315   4.291   6.585   6.776
10806SOL     OW33316   4.019   4.027   5.954
10806SOL    HW133317   4.011   4.121   5.987
10806SOL    HW233318   4.108   4.014   5.910
10807SOL     OW33319   1.328   6.986   2.436
10807SOL    HW133320   1.357   0.053   2.485
10807SOL    HW233321   1.229   6.988   2.424
10808SOL     OW33322   0.661   2.612   5.691
10808SOL    HW133323   0.679   2.576   5.600
10808SOL    HW233324   0.646   2.536   5.755
10809SOL     OW33325   2.839   4.869   3.255
10809SOL    HW133326   2.928   4.848   3.295
10809SOL    HW233327   2.818   4.804   3.182
10810SOL     OW33328   1.433   0.068   3.837
10810SOL    HW133329   1.444   6.984   3.833
10810SOL    HW233330   1.485   0.103   3.915
10811SOL     OW33331   4.043   4.082   6.402
10811SOL    HW133332   4.111   4.144   6.363
10811SOL    HW233333   3.956   4.130   6.411
10812SOL     OW33334   0.510   3.994   0.032
10812SOL    HW133335   0.448   3.929   0.075
10812SOL    HW233336   0.466   4.035   6.967
10813SOL     OW33337   1.632   4.384   6.315
10813SOL    HW133338   1.700   4.384   6.241
10813SOL    HW233339   1.574   4.303   6.307
10814SOL     OW33340   1.325   6.993   6.336
10814SOL    HW133341   1.286   0.035   6.263
10814SOL    HW233342   1.299   6.898   6.320
10815SOL     OW33343   4.600   4.506   3.339
10815SOL    HW133344   4.520   4.535   3.286
10815SOL    HW233345   4.636   4.421   3.301
10816SOL     OW33346   3.215   3.349   2.338
10816SOL    HW133347   3.166   3.276   2.289
10816SOL    HW233348   3.295   3.311   2.383
10817SOL     OW33349   4.500   0.682   3.088
10817SOL    HW133350   4.514   0.732   3.002
10817SOL    HW233351   4.564   0.715   3.156
10818SOL     OW33352   4.495   4.387   5.460
10818SOL    HW133353   4.492   4.303   5.513
10818SOL    HW233354   4.531   4.462   5.516
10819SOL     OW33355   6.630   4.806   6.166
10819SOL    HW133356   6.686   4.863   6.226
10819SOL    HW233357   6.639   4.839   6.072
10820SOL     OW33358   0.149   5.442   3.925
10820SOL    HW133359   0.243   5.462   3.952
10820SOL    HW233360   0.146   5.416   3.829
10821SOL     OW33361   4.754   0.522   2.834
10821SOL    HW133362   4.708   0.437   2.809
10821SOL    HW233363   4.774   0.521   2.932
10822SOL     OW33364   6.669   2.773   2.963
10822SOL    HW133365   6.737   2.780   2.891
10822SOL    HW233366   6.596   2.710   2.935
10823SOL     OW33367   1.206   0.477   1.794
10823SOL    HW133368   1.236   0.386   1.823
10823SOL    HW233369   1.285   0.529   1.761
10824SOL     OW33370   6.838   1.127   2.926
10824SOL    HW133371   6.929   1.143   2.965
10824SOL    HW233372   6.778   1.203   2.950
10825SOL     OW33373   2.411   1.832   6.322
10825SOL    HW133374   2.418   1.901   6.394
10825SOL    HW233375   2.354   1.757   6.354
10826SOL     OW33376   1.082   3.078   3.688
10826SOL    HW133377   0.994   3.125   3.688
10826SOL    HW233378   1.078   3.001   3.625
10827SOL     OW33379   0.118   3.073   4.183
10827SOL    HW133380   0.193   3.008   4.189
10827SOL    HW233381   0.044   3.035   4.127
10828SOL     OW33382   1.376   4.219   0.893
10828SOL    HW133383   1.360   4.148   0.962
10828SOL    HW233384   1.370   4.178   0.802
10829SOL     OW33385   4.641   2.830   0.117
10829SOL    HW133386   4.585   2.879   0.050
10829SOL    HW233387   4.655   2.888   0.197
10830SOL     OW33388   5.136   1.711   2.954
10830SOL    HW133389   5.196   1.758   3.018
10830SOL    HW233390   5.114   1.620   2.990
10831SOL     OW33391   2.942   6.149   3.190
10831SOL    HW133392   3.017   6.110   3.136
10831SOL    HW233393   2.899   6.223   3.139
10832SOL     OW33394   1.048   2.888   6.455
10832SOL    HW133395   1.114   2.959   6.481
10832SOL    HW233396   0.966   2.932   6.417
10833SOL     OW33397   0.561   0.422   1.835
10833SOL    HW133398   0.560   0.522   1.836
10833SOL    HW233399   0.653   0.390   1.816
10834SOL     OW33400   0.354   1.343   1.134
10834SOL    HW133401   0.365   1.265   1.073
10834SOL    HW233402   0.321   1.422   1.083
10835SOL     OW33403   5.601   2.657   0.698
10835SOL    HW133404   5.515   2.655   0.749
10835SOL    HW233405   5.676   2.632   0.759
10836SOL     OW33406   6.158   1.240   4.841
10836SOL    HW133407   6.214   1.320   4.863
10836SOL    HW233408   6.218   1.162   4.823
10837SOL     OW33409   6.472   5.269   1.230
10837SOL    HW133410   6.528   5.287   1.148
10837SOL    HW233411   6.516   5.197   1.284
10838SOL     OW33412   6.811   5.805   3.877
10838SOL    HW133413   6.761   5.868   3.816
10838SOL    HW233414   6.909   5.816   3.862
10839SOL     OW33415   4.373   3.054   1.685
10839SOL    HW133416   4.400   3.047   1.589
10839SOL    HW233417   4.453   3.078   1.740
10840SOL     OW33418   2.794   5.837   2.975
10840SOL    HW133419   2.853   5.889   2.914
10840SOL    HW233420   2.703   5.827   2.933
10841SOL     OW33421   6.437   5.160   5.488
10841SOL    HW133422   6.391   5.236   5.535
10841SOL    HW233423   6.536   5.176   5.489
10842SOL     OW33424   4.882   2.441   1.532
10842SOL    HW133425   4.800   2.496   1.519
10842SOL    HW233426   4.920   2.457   1.623
10843SOL     OW33427   1.100   1.653   1.798
10843SOL    HW133428   1.183   1.705   1.815
10843SOL    HW233429   1.053   1.689   1.718
10844SOL     OW33430   0.505   6.454   3.458
10844SOL    HW133431   0.594   6.494   3.479
10844SOL    HW233432   0.434   6.496   3.515
10845SOL     OW33433   3.421   6.641   5.504
10845SOL    HW133434   3.438   6.644   5.405
10845SOL    HW233435   3.445   6.551   5.539
10846SOL     OW33436   5.407   0.842   0.371
10846SOL    HW133437   5.427   0.788   0.453
10846SOL    HW233438   5.461   0.809   0.295
10847SOL     OW33439   3.656   2.888   6.425
10847SOL    HW133440   3.752   2.913   6.414
10847SOL    HW233441   3.605   2.914   6.343
10848SOL     OW33442   2.534   3.740   0.177
10848SOL    HW133443   2.543   3.681   0.096
10848SOL    HW233444   2.573   3.830   0.156
10849SOL     OW33445   2.099   4.531   3.970
10849SOL    HW133446   2.034   4.490   3.906
10849SOL    HW233447   2.056   4.608   4.017
10850SOL     OW33448   2.315   6.245   6.424
10850SOL    HW133449   2.222   6.270   6.396
10850SOL    HW233450   2.331   6.148   6.402
10851SOL     OW33451   1.983   3.451   0.232
10851SOL    HW133452   1.897   3.502   0.242
10851SOL    HW233453   2.059   3.516   0.232
10852SOL     OW33454   1.030   0.145   6.912
10852SOL    HW133455   1.082   0.110   6.989
10852SOL    HW233456   1.048   0.088   6.831
10853SOL     OW33457   1.910   2.199   5.509
10853SOL    HW133458   1.999   2.244   5.521
10853SOL    HW233459   1.839   2.251   5.556
10854SOL     OW33460   4.451   4.860   5.585
10854SOL    HW133461   4.519   4.888   5.654
10854SOL    HW233462   4.402   4.780   5.618
10855SOL     OW33463   3.889   0.722   0.807
10855SOL    HW133464   3.908   0.641   0.861
10855SOL    HW233465   3.809   0.769   0.845
10856SOL     OW33466   5.164   0.980   0.302
10856SOL    HW133467   5.247   0.924   0.308
10856SOL    HW233468   5.108   0.964   0.383
10857SOL     OW33469   6.890   2.162   3.419
10857SOL    HW133470   6.901   2.100   3.497
10857SOL    HW233471   6.823   2.124   3.356
10858SOL     OW33472   0.665   1.715   6.884
10858SOL    HW133473   0.747   1.679   6.839
10858SOL    HW233474   0.664   1.815   6.876
10859SOL     OW33475   1.207   4.225   4.284
10859SOL    HW133476   1.209   4.216   4.184
10859SOL    HW233477   1.300   4.237   4.318
10860SOL     OW33478   0.186   2.063   5.781
10860SOL    HW133479   0.152   2.112   5.701
10860SOL    HW233480   0.285   2.075   5.787
10861SOL     OW33481   3.454   3.701   3.366
10861SOL    HW133482   3.521   3.743   3.306
10861SOL    HW233483   3.372   3.759   3.370
10862SOL     OW33484   2.292   1.623   6.480
10862SOL    HW133485   2.352   1.549   6.511
10862SOL    HW233486   2.230   1.589   6.410
10863SOL     OW33487   3.929   0.497   4.156
10863SOL    HW133488   4.028   0.504   4.143
10863SOL    HW233489   3.884   0.570   4.103
10864SOL     OW33490   2.291   6.337   0.599
10864SOL    HW133491   2.307   6.243   0.628
10864SOL    HW233492   2.345   6.399   0.658
10865SOL     OW33493   0.098   1.227   1.965
10865SOL    HW133494   0.029   1.188   2.025
10865SOL    HW233495   0.055   1.286   1.898
10866SOL     OW33496   5.154   4.392   0.931
10866SOL    HW133497   5.214   4.405   0.852
10866SOL    HW233498   5.082   4.461   0.930
10867SOL     OW33499   3.395   4.094   6.722
10867SOL    HW133500   3.442   4.035   6.787
10867SOL    HW233501   3.456   4.169   6.694
10868SOL     OW33502   4.583   1.850   4.266
10868SOL    HW133503   4.495   1.839   4.312
10868SOL    HW233504   4.636   1.921   4.313
10869NA      NA33505   6.784   2.293   5.485
10870NA      NA33506   4.454   4.496   5.249
10871NA      NA33507   1.885   3.173   2.156
10872NA      NA33508   5.074   3.903   4.931
10873NA      NA33509   4.270   2.471   5.316
10874NA      NA33510   3.331   4.651   1.689
10875NA      NA33511   6.756   4.846   0.292
10876NA      NA33512   3.432   3.760   3.915
10877NA      NA33513   5.031   5.995   0.454
10878NA      NA33514   3.231   6.790   5.569
10879NA      NA33515   5.565   5.306   1.782
10880NA      NA33516   2.273   0.335   4.339
10881NA      NA33517   3.508   5.404   2.802
10882NA      NA33518   3.804   3.758   2.547
   7.01493   7.01493   7.01493
