Generated by trjconv : CNT in water t= 340.00000
33518
    1C        C    1   2.842   2.769   4.746
    1C        C    2   2.899   2.719   4.865
    1C        C    3   2.841   2.772   4.982
    1C        C    4   2.844   2.770   4.259
    1C        C    5   2.896   2.723   4.382
    1C        C    6   2.847   2.773   4.505
    1C        C    7   3.011   2.638   4.624
    1C        C    8   2.894   2.717   4.625
    1C        C    9   3.078   2.605   4.743
    1C        C   10   3.010   2.632   4.864
    1C        C   11   3.180   2.493   4.977
    1C        C   12   3.057   2.560   4.974
    1C        C   13   2.848   2.769   3.771
    1C        C   14   2.898   2.722   3.894
    1C        C   15   2.845   2.770   4.016
    1C        C   16   3.016   2.644   4.138
    1C        C   17   2.899   2.723   4.138
    1C        C   18   3.081   2.617   4.260
    1C        C   19   3.016   2.650   4.381
    1C        C   20   3.208   2.556   4.501
    1C        C   21   3.076   2.608   4.502
    1C        C   22   3.275   2.534   4.624
    1C        C   23   3.205   2.542   4.746
    1C        C   24   3.411   2.475   4.859
    1C        C   25   3.270   2.503   4.867
    1C        C   26   3.488   2.475   4.976
    1C        C   27   2.848   2.767   3.280
    1C        C   28   2.903   2.724   3.403
    1C        C   29   2.855   2.773   3.527
    1C        C   30   3.015   2.638   3.648
    1C        C   31   2.902   2.722   3.650
    1C        C   32   3.074   2.601   3.771
    1C        C   33   3.013   2.639   3.893
    1C        C   34   3.208   2.557   4.011
    1C        C   35   3.076   2.607   4.015
    1C        C   36   3.275   2.542   4.135
    1C        C   37   3.211   2.562   4.259
    1C        C   38   3.417   2.506   4.377
    1C        C   39   3.279   2.537   4.381
    1C        C   40   3.485   2.499   4.501
    1C        C   41   3.414   2.506   4.622
    1C        C   42   3.630   2.476   4.741
    1C        C   43   3.488   2.480   4.740
    1C        C   44   3.704   2.483   4.861
    1C        C   45   3.627   2.476   4.978
    1C        C   46   2.834   2.746   2.794
    1C        C   47   2.892   2.704   2.916
    1C        C   48   2.842   2.758   3.036
    1C        C   49   3.009   2.630   3.158
    1C        C   50   2.895   2.712   3.159
    1C        C   51   3.074   2.599   3.280
    1C        C   52   3.014   2.637   3.402
    1C        C   53   3.204   2.545   3.522
    1C        C   54   3.076   2.603   3.525
    1C        C   55   3.271   2.528   3.646
    1C        C   56   3.204   2.547   3.769
    1C        C   57   3.413   2.498   3.891
    1C        C   58   3.275   2.531   3.890
    1C        C   59   3.484   2.496   4.014
    1C        C   60   3.412   2.507   4.135
    1C        C   61   3.627   2.496   4.256
    1C        C   62   3.486   2.496   4.255
    1C        C   63   3.698   2.501   4.378
    1C        C   64   3.626   2.497   4.500
    1C        C   65   3.836   2.537   4.617
    1C        C   66   3.700   2.500   4.620
    1C        C   67   3.905   2.560   4.739
    1C        C   68   3.839   2.523   4.858
    1C        C   69   4.048   2.584   4.975
    1C        C   70   3.921   2.526   4.972
    1C        C   71   2.815   2.730   2.306
    1C        C   72   2.878   2.690   2.426
    1C        C   73   2.830   2.742   2.549
    1C        C   74   3.003   2.619   2.669
    1C        C   75   2.888   2.702   2.671
    1C        C   76   3.071   2.593   2.790
    1C        C   77   3.012   2.630   2.913
    1C        C   78   3.202   2.542   3.033
    1C        C   79   3.071   2.594   3.036
    1C        C   80   3.269   2.522   3.156
    1C        C   81   3.205   2.546   3.280
    1C        C   82   3.412   2.496   3.401
    1C        C   83   3.274   2.524   3.401
    1C        C   84   3.479   2.493   3.526
    1C        C   85   3.410   2.504   3.649
    1C        C   86   3.625   2.493   3.767
    1C        C   87   3.483   2.489   3.769
    1C        C   88   3.694   2.506   3.890
    1C        C   89   3.625   2.499   4.013
    1C        C   90   3.832   2.550   4.135
    1C        C   91   3.697   2.507   4.134
    1C        C   92   3.901   2.568   4.257
    1C        C   93   3.833   2.540   4.378
    1C        C   94   4.030   2.631   4.498
    1C        C   95   3.906   2.563   4.497
    1C        C   96   4.091   2.672   4.619
    1C        C   97   4.031   2.626   4.738
    1C        C   98   4.189   2.765   4.862
    1C        C   99   4.095   2.657   4.861
    1C        C  100   4.208   2.846   4.976
    1C        C  101   2.816   2.726   2.069
    1C        C  102   2.987   2.589   2.186
    1C        C  103   2.871   2.674   2.187
    1C        C  104   3.062   2.577   2.307
    1C        C  105   3.000   2.618   2.427
    1C        C  106   3.196   2.530   2.547
    1C        C  107   3.064   2.583   2.547
    1C        C  108   3.268   2.513   2.667
    1C        C  109   3.201   2.537   2.789
    1C        C  110   3.408   2.491   2.912
    1C        C  111   3.269   2.516   2.911
    1C        C  112   3.480   2.490   3.034
    1C        C  113   3.408   2.498   3.156
    1C        C  114   3.620   2.497   3.278
    1C        C  115   3.479   2.489   3.277
    1C        C  116   3.688   2.514   3.401
    1C        C  117   3.620   2.499   3.524
    1C        C  118   3.829   2.545   3.646
    1C        C  119   3.693   2.505   3.645
    1C        C  120   3.895   2.569   3.768
    1C        C  121   3.831   2.543   3.891
    1C        C  122   4.021   2.644   4.009
    1C        C  123   3.896   2.578   4.012
    1C        C  124   4.080   2.679   4.132
    1C        C  125   4.025   2.635   4.255
    1C        C  126   4.192   2.767   4.374
    1C        C  127   4.088   2.672   4.376
    1C        C  128   4.237   2.824   4.496
    1C        C  129   4.192   2.770   4.619
    1C        C  130   4.325   2.934   4.740
    1C        C  131   4.242   2.818   4.742
    1C        C  132   4.355   3.002   4.861
    1C        C  133   4.285   2.961   4.976
    1C        C  134   3.171   2.474   2.077
    1C        C  135   3.035   2.508   2.079
    1C        C  136   3.257   2.479   2.187
    1C        C  137   3.192   2.519   2.305
    1C        C  138   3.402   2.474   2.424
    1C        C  139   3.263   2.502   2.426
    1C        C  140   3.475   2.473   2.544
    1C        C  141   3.406   2.484   2.667
    1C        C  142   3.619   2.496   2.790
    1C        C  143   3.478   2.486   2.789
    1C        C  144   3.691   2.503   2.911
    1C        C  145   3.621   2.494   3.034
    1C        C  146   3.828   2.539   3.155
    1C        C  147   3.692   2.502   3.156
    1C        C  148   3.893   2.567   3.278
    1C        C  149   3.826   2.547   3.401
    1C        C  150   4.020   2.631   3.522
    1C        C  151   3.894   2.568   3.522
    1C        C  152   4.081   2.671   3.644
    1C        C  153   4.021   2.632   3.766
    1C        C  154   4.191   2.767   3.887
    1C        C  155   4.081   2.678   3.886
    1C        C  156   4.238   2.818   4.010
    1C        C  157   4.191   2.766   4.133
    1C        C  158   4.338   2.923   4.253
    1C        C  159   4.246   2.816   4.253
    1C        C  160   4.375   2.985   4.375
    1C        C  161   4.327   2.932   4.497
    1C        C  162   4.432   3.117   4.615
    1C        C  163   4.366   2.992   4.619
    1C        C  164   4.461   3.185   4.736
    1C        C  165   4.425   3.124   4.858
    1C        C  166   4.508   3.324   4.974
    1C        C  167   4.475   3.189   4.971
    1C        C  168   3.478   2.439   2.071
    1C        C  169   3.397   2.463   2.183
    1C        C  170   3.616   2.469   2.304
    1C        C  171   3.474   2.468   2.302
    1C        C  172   3.686   2.488   2.425
    1C        C  173   3.616   2.482   2.547
    1C        C  174   3.825   2.536   2.666
    1C        C  175   3.688   2.500   2.667
    1C        C  176   3.893   2.561   2.787
    1C        C  177   3.825   2.547   2.910
    1C        C  178   4.020   2.625   3.032
    1C        C  179   3.894   2.562   3.032
    1C        C  180   4.082   2.661   3.154
    1C        C  181   4.020   2.628   3.277
    1C        C  182   4.191   2.753   3.396
    1C        C  183   4.079   2.668   3.399
    1C        C  184   4.241   2.807   3.517
    1C        C  185   4.191   2.760   3.640
    1C        C  186   4.335   2.916   3.765
    1C        C  187   4.240   2.812   3.762
    1C        C  188   4.372   2.979   3.886
    1C        C  189   4.328   2.927   4.009
    1C        C  190   4.442   3.106   4.126
    1C        C  191   4.374   2.983   4.130
    1C        C  192   4.470   3.170   4.249
    1C        C  193   4.441   3.110   4.374
    1C        C  194   4.496   3.319   4.489
    1C        C  195   4.460   3.183   4.493
    1C        C  196   4.517   3.389   4.610
    1C        C  197   4.504   3.321   4.733
    1C        C  198   4.552   3.533   4.846
    1C        C  199   4.526   3.393   4.853
    1C        C  200   4.586   3.618   4.956
    1C        C  201   3.616   2.414   2.069
    1C        C  202   3.825   2.509   2.182
    1C        C  203   3.690   2.460   2.183
    1C        C  204   3.894   2.540   2.302
    1C        C  205   3.822   2.526   2.423
    1C        C  206   4.014   2.626   2.545
    1C        C  207   3.892   2.556   2.543
    1C        C  208   4.078   2.665   2.665
    1C        C  209   4.019   2.624   2.787
    1C        C  210   4.192   2.747   2.906
    1C        C  211   4.079   2.662   2.909
    1C        C  212   4.248   2.791   3.028
    1C        C  213   4.195   2.746   3.151
    1C        C  214   4.332   2.908   3.268
    1C        C  215   4.244   2.797   3.273
    1C        C  216   4.366   2.969   3.390
    1C        C  217   4.330   2.917   3.517
    1C        C  218   4.434   3.098   3.638
    1C        C  219   4.372   2.971   3.640
    1C        C  220   4.461   3.166   3.759
    1C        C  221   4.439   3.103   3.883
    1C        C  222   4.501   3.309   4.001
    1C        C  223   4.469   3.171   4.004
    1C        C  224   4.512   3.379   4.123
    1C        C  225   4.505   3.307   4.244
    1C        C  226   4.522   3.523   4.365
    1C        C  227   4.514   3.382   4.364
    1C        C  228   4.523   3.598   4.485
    1C        C  229   4.530   3.530   4.608
    1C        C  230   4.507   3.747   4.726
    1C        C  231   4.537   3.608   4.726
    1C        C  232   4.496   3.821   4.846
    1C        C  233   4.546   3.752   4.957
    1C        C  234   4.018   2.606   2.060
    1C        C  235   3.894   2.543   2.065
    1C        C  236   4.080   2.646   2.179
    1C        C  237   4.018   2.611   2.301
    1C        C  238   4.195   2.733   2.419
    1C        C  239   4.079   2.651   2.422
    1C        C  240   4.250   2.786   2.538
    1C        C  241   4.193   2.746   2.661
    1C        C  242   4.342   2.896   2.781
    1C        C  243   4.244   2.794   2.784
    1C        C  244   4.380   2.957   2.903
    1C        C  245   4.337   2.902   3.025
    1C        C  246   4.435   3.093   3.147
    1C        C  247   4.373   2.966   3.146
    1C        C  248   4.454   3.161   3.270
    1C        C  249   4.428   3.096   3.392
    1C        C  250   4.493   3.298   3.512
    1C        C  251   4.458   3.161   3.514
    1C        C  252   4.510   3.368   3.634
    1C        C  253   4.498   3.303   3.758
    1C        C  254   4.518   3.518   3.876
    1C        C  255   4.511   3.377   3.878
    1C        C  256   4.516   3.591   3.998
    1C        C  257   4.516   3.520   4.120
    1C        C  258   4.491   3.730   4.242
    1C        C  259   4.516   3.591   4.242
    1C        C  260   4.472   3.802   4.363
    1C        C  261   4.494   3.737   4.486
    1C        C  262   4.433   3.945   4.601
    1C        C  263   4.482   3.813   4.604
    1C        C  264   4.398   4.013   4.720
    1C        C  265   4.431   3.946   4.841
    1C        C  266   4.322   4.134   4.958
    1C        C  267   4.392   4.013   4.958
    1C        C  268   4.262   2.775   2.064
    1C        C  269   4.193   2.730   2.178
    1C        C  270   4.342   2.888   2.297
    1C        C  271   4.248   2.781   2.297
    1C        C  272   4.382   2.950   2.417
    1C        C  273   4.344   2.892   2.540
    1C        C  274   4.446   3.081   2.659
    1C        C  275   4.385   2.954   2.660
    1C        C  276   4.472   3.148   2.781
    1C        C  277   4.445   3.083   2.903
    1C        C  278   4.505   3.289   3.022
    1C        C  279   4.469   3.152   3.023
    1C        C  280   4.513   3.360   3.144
    1C        C  281   4.501   3.294   3.268
    1C        C  282   4.508   3.507   3.390
    1C        C  283   4.508   3.366   3.390
    1C        C  284   4.507   3.581   3.511
    1C        C  285   4.512   3.510   3.633
    1C        C  286   4.488   3.725   3.752
    1C        C  287   4.511   3.585   3.752
    1C        C  288   4.472   3.795   3.874
    1C        C  289   4.493   3.731   3.998
    1C        C  290   4.424   3.931   4.115
    1C        C  291   4.474   3.799   4.120
    1C        C  292   4.394   3.997   4.236
    1C        C  293   4.424   3.935   4.359
    1C        C  294   4.326   4.127   4.479
    1C        C  295   4.400   4.007   4.478
    1C        C  296   4.283   4.190   4.598
    1C        C  297   4.325   4.135   4.721
    1C        C  298   4.199   4.314   4.837
    1C        C  299   4.288   4.202   4.840
    1C        C  300   4.166   4.403   4.945
    1C        C  301   4.352   2.881   2.060
    1C        C  302   4.471   3.065   2.178
    1C        C  303   4.400   2.940   2.177
    1C        C  304   4.484   3.141   2.297
    1C        C  305   4.445   3.077   2.416
    1C        C  306   4.508   3.283   2.534
    1C        C  307   4.465   3.148   2.536
    1C        C  308   4.521   3.355   2.655
    1C        C  309   4.500   3.287   2.777
    1C        C  310   4.521   3.498   2.899
    1C        C  311   4.515   3.357   2.899
    1C        C  312   4.513   3.570   3.021
    1C        C  313   4.515   3.501   3.144
    1C        C  314   4.482   3.712   3.263
    1C        C  315   4.512   3.574   3.266
    1C        C  316   4.468   3.785   3.383
    1C        C  317   4.487   3.721   3.507
    1C        C  318   4.425   3.924   3.624
    1C        C  319   4.472   3.791   3.628
    1C        C  320   4.393   3.988   3.746
    1C        C  321   4.423   3.927   3.870
    1C        C  322   4.313   4.109   3.988
    1C        C  323   4.391   3.992   3.992
    1C        C  324   4.274   4.168   4.111
    1C        C  325   4.319   4.117   4.235
    1C        C  326   4.185   4.283   4.354
    1C        C  327   4.282   4.180   4.355
    1C        C  328   4.132   4.338   4.473
    1C        C  329   4.189   4.295   4.595
    1C        C  330   4.021   4.433   4.712
    1C        C  331   4.136   4.349   4.715
    1C        C  332   3.964   4.486   4.829
    1C        C  333   4.050   4.481   4.940
    1C        C  334   4.550   3.266   2.061
    1C        C  335   4.524   3.128   2.061
    1C        C  336   4.542   3.350   2.173
    1C        C  337   4.518   3.279   2.293
    1C        C  338   4.518   3.495   2.411
    1C        C  339   4.522   3.354   2.413
    1C        C  340   4.512   3.567   2.533
    1C        C  341   4.520   3.496   2.655
    1C        C  342   4.482   3.706   2.772
    1C        C  343   4.511   3.567   2.777
    1C        C  344   4.464   3.775   2.894
    1C        C  345   4.485   3.708   3.017
    1C        C  346   4.410   3.907   3.137
    1C        C  347   4.465   3.777   3.139
    1C        C  348   4.388   3.977   3.258
    1C        C  349   4.418   3.917   3.382
    1C        C  350   4.320   4.109   3.499
    1C        C  351   4.390   3.986   3.502
    1C        C  352   4.275   4.165   3.621
    1C        C  353   4.317   4.107   3.743
    1C        C  354   4.172   4.263   3.865
    1C        C  355   4.271   4.162   3.864
    1C        C  356   4.122   4.315   3.987
    1C        C  357   4.177   4.271   4.109
    1C        C  358   4.011   4.400   4.229
    1C        C  359   4.132   4.327   4.231
    1C        C  360   3.950   4.444   4.349
    1C        C  361   4.016   4.419   4.471
    1C        C  362   3.826   4.520   4.588
    1C        C  363   3.956   4.465   4.590
    1C        C  364   3.760   4.549   4.709
    1C        C  365   3.834   4.541   4.829
    1C        C  366   3.624   4.589   4.945
    1C        C  367   3.761   4.569   4.946
    1C        C  368   4.517   3.562   2.051
    1C        C  369   4.523   3.489   2.170
    1C        C  370   4.499   3.706   2.287
    1C        C  371   4.511   3.565   2.289
    1C        C  372   4.479   3.779   2.406
    1C        C  373   4.494   3.707   2.527
    1C        C  374   4.421   3.905   2.648
    1C        C  375   4.474   3.775   2.649
    1C        C  376   4.385   3.971   2.769
    1C        C  377   4.415   3.907   2.891
    1C        C  378   4.311   4.092   3.009
    1C        C  379   4.384   3.971   3.013
    1C        C  380   4.268   4.148   3.131
    1C        C  381   4.317   4.099   3.254
    1C        C  382   4.177   4.261   3.373
    1C        C  383   4.276   4.160   3.375
    1C        C  384   4.120   4.305   3.495
    1C        C  385   4.170   4.260   3.619
    1C        C  386   4.005   4.390   3.740
    1C        C  387   4.118   4.306   3.742
    1C        C  388   3.945   4.428   3.862
    1C        C  389   4.008   4.399   3.985
    1C        C  390   3.817   4.489   4.106
    1C        C  391   3.948   4.435   4.108
    1C        C  392   3.749   4.512   4.227
    1C        C  393   3.819   4.495   4.348
    1C        C  394   3.612   4.548   4.473
    1C        C  395   3.753   4.533   4.467
    1C        C  396   3.541   4.565   4.593
    1C        C  397   3.620   4.566   4.710
    1C        C  398   3.406   4.550   4.836
    1C        C  399   3.546   4.570   4.831
    1C        C  400   3.337   4.517   4.953
    1C        C  401   4.501   3.701   2.051
    1C        C  402   4.453   3.915   2.165
    1C        C  403   4.489   3.779   2.166
    1C        C  404   4.416   3.981   2.284
    1C        C  405   4.437   3.913   2.407
    1C        C  406   4.320   4.093   2.523
    1C        C  407   4.397   3.974   2.528
    1C        C  408   4.274   4.150   2.644
    1C        C  409   4.310   4.090   2.766
    1C        C  410   4.173   4.253   2.885
    1C        C  411   4.272   4.152   2.887
    1C        C  412   4.125   4.304   3.008
    1C        C  413   4.175   4.254   3.130
    1C        C  414   4.003   4.381   3.251
    1C        C  415   4.122   4.305   3.251
    1C        C  416   3.944   4.422   3.373
    1C        C  417   4.005   4.388   3.495
    1C        C  418   3.811   4.475   3.619
    1C        C  419   3.943   4.423   3.617
    1C        C  420   3.743   4.499   3.740
    1C        C  421   3.815   4.482   3.860
    1C        C  422   3.611   4.532   3.985
    1C        C  423   3.750   4.508   3.983
    1C        C  424   3.540   4.541   4.107
    1C        C  425   3.609   4.536   4.230
    1C        C  426   3.398   4.544   4.355
    1C        C  427   3.539   4.546   4.352
    1C        C  428   3.324   4.542   4.476
    1C        C  429   3.400   4.550   4.595
    1C        C  430   3.190   4.513   4.720
    1C        C  431   3.331   4.537   4.717
    1C        C  432   3.118   4.496   4.842
    1C        C  433   3.200   4.498   4.955
    1C        C  434   4.388   4.122   2.051
    1C        C  435   4.446   3.995   2.050
    1C        C  436   4.303   4.162   2.160
    1C        C  437   4.336   4.098   2.282
    1C        C  438   4.184   4.255   2.401
    1C        C  439   4.281   4.153   2.401
    1C        C  440   4.128   4.304   2.521
    1C        C  441   4.180   4.255   2.643
    1C        C  442   4.003   4.380   2.765
    1C        C  443   4.119   4.299   2.763
    1C        C  444   3.942   4.416   2.887
    1C        C  445   4.003   4.376   3.008
    1C        C  446   3.812   4.472   3.128
    1C        C  447   3.941   4.415   3.128
    1C        C  448   3.749   4.497   3.252
    1C        C  449   3.814   4.477   3.376
    1C        C  450   3.607   4.533   3.493
    1C        C  451   3.745   4.501   3.497
    1C        C  452   3.538   4.539   3.617
    1C        C  453   3.607   4.537   3.740
    1C        C  454   3.398   4.541   3.864
    1C        C  455   3.539   4.544   3.864
    1C        C  456   3.330   4.528   3.987
    1C        C  457   3.399   4.535   4.110
    1C        C  458   3.190   4.504   4.231
    1C        C  459   3.328   4.533   4.233
    1C        C  460   3.120   4.490   4.354
    1C        C  461   3.186   4.513   4.477
    1C        C  462   2.991   4.435   4.601
    1C        C  463   3.120   4.493   4.600
    1C        C  464   2.927   4.400   4.721
    1C        C  465   2.984   4.445   4.843
    1C        C  466   2.796   4.337   4.957
    1C        C  467   2.903   4.428   4.960
    1C        C  468   4.122   4.285   2.042
    1C        C  469   4.190   4.250   2.160
    1C        C  470   4.008   4.373   2.279
    1C        C  471   4.128   4.297   2.279
    1C        C  472   3.943   4.414   2.398
    1C        C  473   4.008   4.379   2.518
    1C        C  474   3.818   4.472   2.639
    1C        C  475   3.947   4.416   2.640
    1C        C  476   3.747   4.496   2.759
    1C        C  477   3.811   4.470   2.882
    1C        C  478   3.606   4.517   3.006
    1C        C  479   3.746   4.494   3.005
    1C        C  480   3.538   4.529   3.128
    1C        C  481   3.611   4.531   3.249
    1C        C  482   3.398   4.530   3.377
    1C        C  483   3.539   4.539   3.370
    1C        C  484   3.325   4.526   3.498
    1C        C  485   3.397   4.537   3.619
    1C        C  486   3.190   4.499   3.744
    1C        C  487   3.327   4.532   3.742
    1C        C  488   3.125   4.473   3.867
    1C        C  489   3.192   4.497   3.989
    1C        C  490   2.997   4.411   4.113
    1C        C  491   3.123   4.475   4.111
    1C        C  492   2.934   4.385   4.237
    1C        C  493   2.992   4.431   4.357
    1C        C  494   2.825   4.302   4.481
    1C        C  495   2.930   4.397   4.479
    1C        C  496   2.770   4.254   4.602
    1C        C  497   2.816   4.311   4.723
    1C        C  498   2.661   4.163   4.843
    1C        C  499   2.749   4.274   4.841
    1C        C  500   2.592   4.117   4.955
    1C        C  501   4.005   4.360   2.038
    1C        C  502   3.816   4.462   2.153
    1C        C  503   3.946   4.408   2.156
    1C        C  504   3.746   4.487   2.273
    1C        C  505   3.812   4.465   2.396
    1C        C  506   3.606   4.512   2.518
    1C        C  507   3.746   4.489   2.518
    1C        C  508   3.536   4.520   2.640
    1C        C  509   3.607   4.517   2.762
    1C        C  510   3.395   4.525   2.884
    1C        C  511   3.536   4.528   2.883
    1C        C  512   3.327   4.517   3.007
    1C        C  513   3.396   4.531   3.129
    1C        C  514   3.193   4.487   3.253
    1C        C  515   3.330   4.523   3.253
    1C        C  516   3.125   4.464   3.374
    1C        C  517   3.189   4.490   3.498
    1C        C  518   2.998   4.408   3.622
    1C        C  519   3.124   4.473   3.622
    1C        C  520   2.937   4.375   3.745
    1C        C  521   3.001   4.405   3.867
    1C        C  522   2.832   4.280   3.992
    1C        C  523   2.943   4.367   3.990
    1C        C  524   2.784   4.234   4.116
    1C        C  525   2.828   4.291   4.238
    1C        C  526   2.690   4.134   4.362
    1C        C  527   2.774   4.248   4.361
    1C        C  528   2.648   4.077   4.484
    1C        C  529   2.682   4.144   4.604
    1C        C  530   2.587   3.955   4.730
    1C        C  531   2.640   4.087   4.726
    1C        C  532   2.540   3.896   4.850
    1C        C  533   2.525   3.994   4.953
    1C        C  534   3.616   4.553   2.038
    1C        C  535   3.749   4.510   2.040
    1C        C  536   3.535   4.528   2.152
    1C        C  537   3.606   4.512   2.275
    1C        C  538   3.393   4.508   2.398
    1C        C  539   3.534   4.510   2.396
    1C        C  540   3.324   4.510   2.521
    1C        C  541   3.395   4.517   2.643
    1C        C  542   3.183   4.479   2.762
    1C        C  543   3.321   4.511   2.764
    1C        C  544   3.120   4.456   2.886
    1C        C  545   3.191   4.477   3.007
    1C        C  546   3.001   4.394   3.134
    1C        C  547   3.127   4.458   3.132
    1C        C  548   2.938   4.362   3.257
    1C        C  549   2.997   4.403   3.378
    1C        C  550   2.827   4.280   3.503
    1C        C  551   2.936   4.369   3.501
    1C        C  552   2.778   4.231   3.626
    1C        C  553   2.829   4.284   3.747
    1C        C  554   2.696   4.120   3.873
    1C        C  555   2.782   4.232   3.869
    1C        C  556   2.659   4.060   3.995
    1C        C  557   2.704   4.117   4.117
    1C        C  558   2.604   3.937   4.243
    1C        C  559   2.666   4.064   4.242
    1C        C  560   2.567   3.878   4.365
    1C        C  561   2.592   3.947   4.486
    1C        C  562   2.533   3.746   4.610
    1C        C  563   2.569   3.883   4.609
    1C        C  564   2.515   3.680   4.733
    1C        C  565   2.518   3.754   4.855
    1C        C  566   2.521   3.539   4.975
    1C        C  567   2.514   3.678   4.972
    1C        C  568   3.328   4.470   2.037
    1C        C  569   3.394   4.506   2.155
    1C        C  570   3.183   4.467   2.278
    1C        C  571   3.321   4.500   2.277
    1C        C  572   3.117   4.450   2.402
    1C        C  573   3.185   4.480   2.522
    1C        C  574   2.986   4.398   2.645
    1C        C  575   3.112   4.462   2.641
    1C        C  576   2.928   4.362   2.769
    1C        C  577   2.994   4.393   2.889
    1C        C  578   2.827   4.269   3.015
    1C        C  579   2.939   4.355   3.014
    1C        C  580   2.778   4.220   3.138
    1C        C  581   2.831   4.270   3.259
    1C        C  582   2.695   4.110   3.381
    1C        C  583   2.779   4.223   3.382
    1C        C  584   2.655   4.055   3.505
    1C        C  585   2.694   4.117   3.626
    1C        C  586   2.599   3.932   3.753
    1C        C  587   2.659   4.060   3.751
    1C        C  588   2.573   3.868   3.876
    1C        C  589   2.596   3.934   3.999
    1C        C  590   2.535   3.733   4.126
    1C        C  591   2.574   3.869   4.123
    1C        C  592   2.519   3.668   4.250
    1C        C  593   2.529   3.742   4.370
    1C        C  594   2.512   3.530   4.495
    1C        C  595   2.519   3.671   4.491
    1C        C  596   2.510   3.458   4.617
    1C        C  597   2.512   3.538   4.733
    1C        C  598   2.528   3.326   4.860
    1C        C  599   2.521   3.467   4.855
    1C        C  600   2.537   3.250   4.978
    1C        C  601   3.194   4.438   2.038
    1C        C  602   2.982   4.393   2.156
    1C        C  603   3.117   4.440   2.155
    1C        C  604   2.925   4.355   2.281
    1C        C  605   2.989   4.391   2.402
    1C        C  606   2.817   4.267   2.526
    1C        C  607   2.927   4.356   2.524
    1C        C  608   2.771   4.218   2.650
    1C        C  609   2.821   4.269   2.772
    1C        C  610   2.684   4.109   2.893
    1C        C  611   2.774   4.218   2.895
    1C        C  612   2.652   4.049   3.017
    1C        C  613   2.688   4.111   3.138
    1C        C  614   2.586   3.926   3.265
    1C        C  615   2.651   4.051   3.261
    1C        C  616   2.564   3.861   3.388
    1C        C  617   2.598   3.926   3.509
    1C        C  618   2.531   3.728   3.637
    1C        C  619   2.571   3.864   3.633
    1C        C  620   2.512   3.662   3.760
    1C        C  621   2.523   3.736   3.880
    1C        C  622   2.506   3.525   4.008
    1C        C  623   2.517   3.666   4.003
    1C        C  624   2.513   3.454   4.130
    1C        C  625   2.513   3.526   4.251
    1C        C  626   2.531   3.317   4.374
    1C        C  627   2.511   3.457   4.374
    1C        C  628   2.550   3.249   4.497
    1C        C  629   2.531   3.318   4.619
    1C        C  630   2.589   3.116   4.741
    1C        C  631   2.546   3.251   4.742
    1C        C  632   2.615   3.048   4.864
    1C        C  633   2.568   3.114   4.982
    1C        C  634   2.781   4.300   2.052
    1C        C  635   2.891   4.387   2.046
    1C        C  636   2.749   4.226   2.166
    1C        C  637   2.809   4.273   2.285
    1C        C  638   2.676   4.105   2.409
    1C        C  639   2.763   4.216   2.406
    1C        C  640   2.639   4.047   2.532
    1C        C  641   2.681   4.109   2.651
    1C        C  642   2.582   3.920   2.776
    1C        C  643   2.642   4.047   2.772
    1C        C  644   2.558   3.856   2.899
    1C        C  645   2.587   3.923   3.020
    1C        C  646   2.524   3.722   3.144
    1C        C  647   2.561   3.859   3.143
    1C        C  648   2.516   3.653   3.267
    1C        C  649   2.530   3.724   3.388
    1C        C  650   2.512   3.519   3.518
    1C        C  651   2.519   3.660   3.514
    1C        C  652   2.513   3.451   3.642
    1C        C  653   2.503   3.521   3.764
    1C        C  654   2.522   3.311   3.892
    1C        C  655   2.503   3.452   3.887
    1C        C  656   2.533   3.239   4.013
    1C        C  657   2.525   3.313   4.133
    1C        C  658   2.584   3.107   4.257
    1C        C  659   2.544   3.243   4.255
    1C        C  660   2.625   3.049   4.379
    1C        C  661   2.598   3.116   4.500
    1C        C  662   2.706   2.933   4.622
    1C        C  663   2.630   3.052   4.622
    1C        C  664   2.750   2.877   4.745
    1C        C  665   2.692   2.928   4.865
    1C        C  666   2.741   2.869   4.982
    1C        C  667   2.683   4.018   2.053
    1C        C  668   2.680   4.103   2.165
    1C        C  669   2.585   3.912   2.288
    1C        C  670   2.641   4.043   2.287
    1C        C  671   2.554   3.850   2.411
    1C        C  672   2.580   3.918   2.532
    1C        C  673   2.517   3.716   2.656
    1C        C  674   2.556   3.852   2.654
    1C        C  675   2.508   3.648   2.780
    1C        C  676   2.520   3.720   2.901
    1C        C  677   2.504   3.509   3.030
    1C        C  678   2.510   3.650   3.023
    1C        C  679   2.509   3.441   3.153
    1C        C  680   2.507   3.512   3.276
    1C        C  681   2.523   3.303   3.401
    1C        C  682   2.508   3.443   3.399
    1C        C  683   2.543   3.238   3.526
    1C        C  684   2.526   3.310   3.646
    1C        C  685   2.601   3.115   3.771
    1C        C  686   2.545   3.245   3.770
    1C        C  687   2.635   3.055   3.894
    1C        C  688   2.594   3.112   4.016
    1C        C  689   2.712   2.934   4.135
    1C        C  690   2.621   3.042   4.137
    1C        C  691   2.753   2.878   4.258
    1C        C  692   2.703   2.931   4.379
    1C        C  693   2.752   2.878   4.501
    1C        C  694   2.624   3.892   2.052
    1C        C  695   2.525   3.703   2.174
    1C        C  696   2.577   3.834   2.171
    1C        C  697   2.501   3.638   2.297
    1C        C  698   2.516   3.714   2.414
    1C        C  699   2.489   3.504   2.543
    1C        C  700   2.499   3.645   2.536
    1C        C  701   2.501   3.434   2.664
    1C        C  702   2.503   3.507   2.785
    1C        C  703   2.523   3.297   2.909
    1C        C  704   2.504   3.437   2.908
    1C        C  705   2.545   3.234   3.033
    1C        C  706   2.530   3.302   3.156
    1C        C  707   2.603   3.106   3.279
    1C        C  708   2.545   3.234   3.280
    1C        C  709   2.635   3.046   3.403
    1C        C  710   2.602   3.110   3.525
    1C        C  711   2.713   2.934   3.647
    1C        C  712   2.636   3.052   3.649
    1C        C  713   2.757   2.877   3.769
    1C        C  714   2.714   2.937   3.890
    1C        C  715   2.756   2.880   4.012
    1C        C  716   2.449   3.499   2.063
    1C        C  717   2.489   3.633   2.057
    1C        C  718   2.468   3.420   2.181
    1C        C  719   2.481   3.497   2.300
    1C        C  720   2.509   3.289   2.423
    1C        C  721   2.488   3.429   2.423
    1C        C  722   2.536   3.222   2.545
    1C        C  723   2.527   3.295   2.665
    1C        C  724   2.597   3.096   2.790
    1C        C  725   2.544   3.227   2.788
    1C        C  726   2.629   3.036   2.913
    1C        C  727   2.599   3.103   3.034
    1C        C  728   2.703   2.920   3.157
    1C        C  729   2.631   3.041   3.157
    1C        C  730   2.750   2.869   3.280
    1C        C  731   2.712   2.927   3.403
    1C        C  732   2.755   2.872   3.526
    1C        C  733   2.491   3.198   2.067
    1C        C  734   2.495   3.280   2.181
    1C        C  735   2.584   3.086   2.303
    1C        C  736   2.526   3.216   2.304
    1C        C  737   2.613   3.022   2.425
    1C        C  738   2.590   3.091   2.546
    1C        C  739   2.698   2.909   2.668
    1C        C  740   2.622   3.028   2.668
    1C        C  741   2.744   2.855   2.790
    1C        C  742   2.705   2.917   2.911
    1C        C  743   2.750   2.866   3.035
    1C        C  744   2.551   3.072   2.069
    1C        C  745   2.687   2.898   2.182
    1C        C  746   2.612   3.018   2.182
    1C        C  747   2.724   2.838   2.305
    1C        C  748   2.686   2.901   2.426
    1C        C  749   2.738   2.849   2.546
    1C        C  750   2.740   2.842   2.065
    1C        C  751   3.659   2.324   1.960
    1C        O  752   3.700   2.209   1.988
    1C        O  753   3.620   2.336   1.826
    1C        C  754   4.619   3.044   1.984
    1C        O  755   4.614   3.043   1.858
    1C        O  756   4.740   2.995   2.036
    1C        C  757   4.465   4.212   1.963
    1C        O  758   4.552   4.294   2.003
    1C        O  759   4.404   4.272   1.852
    1C        C  760   3.588   4.666   1.946
    1C        O  761   3.635   4.781   1.969
    1C        O  762   3.539   4.651   1.816
    1C        C  763   2.876   4.484   1.935
    1C        O  764   2.953   4.488   1.835
    1C        O  765   2.791   4.594   1.947
    1C        C  766   2.351   3.461   1.959
    1C        O  767   2.384   3.457   1.837
    1C        O  768   2.215   3.478   1.987
    1C        C  769   4.699   3.588   5.046
    1C        O  770   4.687   3.592   5.172
    1C        O  771   4.827   3.629   5.006
    1C        C  772   4.272   4.464   5.028
    1C        O  773   4.267   4.484   5.152
    1C        O  774   4.361   4.551   4.963
    1C        C  775   4.142   2.517   5.068
    1C        O  776   4.256   2.489   5.022
    1C        O  777   4.164   2.585   5.188
    1C        C  778   2.905   4.524   5.073
    1C        O  779   2.857   4.640   5.079
    1C        O  780   2.958   4.495   5.199
    1C        C  781   2.486   3.049   5.086
    1C        O  782   2.375   2.999   5.052
    1C        O  783   2.516   3.046   5.222
    1C        C  784   2.397   3.999   5.027
    1C        O  785   2.282   3.992   4.976
    1C        O  786   2.405   3.968   5.164
    1C        C  787   2.955   2.436   1.977
    1C        O  788   2.965   2.465   1.855
    1C        O  789   2.887   2.318   2.003
    1C        C  790   3.174   2.365   5.051
    1C        O  791   3.178   2.253   4.994
    1C        O  792   3.210   2.348   5.186
    1C        H  793   4.284   3.023   5.063
    1C        H  794   4.139   2.837   5.057
    1C        H  795   4.495   3.124   5.053
    1C        H  796   4.483   3.380   5.062
    1C        H  797   4.553   3.808   5.048
    1C        H  798   4.387   3.969   5.055
    1C        H  799   4.289   4.172   5.052
    1C        H  800   4.022   4.539   5.025
    1C        H  801   3.806   4.555   5.042
    1C        H  802   3.586   4.667   5.008
    1C        H  803   3.394   4.460   5.024
    1C        H  804   3.160   4.462   5.048
    1C        H  805   3.888   2.482   5.064
    1C        H  806   3.669   2.405   5.046
    1C        H  807   2.992   2.553   5.059
    1C        H  808   3.438   2.472   5.071
    1C        H  809   2.896   2.763   5.073
    1C        H  810   2.684   2.868   5.073
    1C        H  811   2.489   3.292   5.064
    1C        H  812   2.584   3.511   5.057
    1C        H  813   2.500   3.728   5.066
    1C        H  814   2.624   4.146   5.053
    1C        H  815   2.751   4.320   5.053
    1C        H  816   2.729   2.895   1.973
    1C        H  817   2.816   2.670   1.978
    1C        H  818   3.202   2.414   1.994
    1C        H  819   3.437   2.455   1.973
    1C        H  820   3.836   2.547   1.976
    1C        H  821   4.076   2.593   1.971
    1C        H  822   4.269   2.711   1.979
    1C        H  823   4.383   2.925   1.967
    1C        H  824   4.600   3.301   1.973
    1C        H  825   4.460   3.514   1.974
    1C        H  826   4.478   3.749   1.958
    1C        H  827   3.810   4.548   1.960
    1C        H  828   3.956   4.372   1.943
    1C        H  829   4.161   4.249   1.950
    1C        H  830   4.447   3.951   1.952
    1C        H  831   2.607   3.841   1.959
    1C        H  832   2.734   4.047   1.963
    1C        H  833   2.700   4.318   1.984
    1C        H  834   3.384   4.465   1.946
    1C        H  835   3.149   4.451   1.942
    1C        H  836   2.538   3.005   1.986
    1C        H  837   2.442   3.231   1.978
    1C        H  838   2.447   3.692   1.978
    2V3OU   H29  839   2.802   3.550   3.713
    2V3OU   C27  840   2.787   3.505   3.815
    2V3OU   H27  841   2.726   3.575   3.879
    2V3OU   H28  842   2.741   3.403   3.804
    2V3OU   O11  843   2.912   3.489   3.882
    2V3OU   C15  844   2.926   3.400   3.987
    2V3OU   C13  845   3.051   3.370   4.044
    2V3OU   C14  846   3.079   3.267   4.135
    2V3OU   C16  847   2.976   3.186   4.183
    2V3OU    H6  848   2.993   3.101   4.250
    2V3OU   C12  849   3.215   3.230   4.179
    2V3OU    O2  850   3.242   3.128   4.247
    2V3OU   C10  851   3.324   3.309   4.120
    2V3OU    C8  852   3.456   3.272   4.145
    2V3OU   O10  853   3.483   3.154   4.205
    2V3OU   H26  854   3.401   3.116   4.239
    2V3OU    C6  855   3.565   3.350   4.095
    2V3OU    C5  856   3.538   3.465   4.023
    2V3OU    C4  857   3.702   3.291   4.088
    2V3OU    H4  858   3.723   3.225   4.177
    2V3OU    H5  859   3.707   3.224   3.998
    2V3OU    C2  860   3.814   3.394   4.078
    2V3OU    O6  861   3.798   3.473   4.197
    2V3OU   H21  862   3.762   3.556   4.164
    2V3OU    C3  863   3.782   3.497   3.969
    2V3OU    H2  864   3.867   3.570   3.963
    2V3OU    H3  865   3.776   3.440   3.873
    2V3OU   C25  866   3.951   3.328   4.062
    2V3OU    O7  867   3.998   3.297   3.952
    2V3OU   C26  868   4.033   3.287   4.183
    2V3OU   H22  869   4.060   3.384   4.234
    2V3OU   H23  870   4.122   3.228   4.151
    2V3OU    O8  871   3.958   3.206   4.271
    2V3OU   H24  872   3.919   3.260   4.341
    2V3OU    C1  873   3.648   3.564   3.995
    2V3OU    H1  874   3.619   3.619   3.901
    2V3OU    O3  875   3.660   3.655   4.104
    2V3OU   C19  876   3.614   3.791   4.095
    2V3OU    H9  877   3.513   3.801   4.048
    2V3OU    O4  878   3.713   3.848   4.013
    2V3OU   C20  879   3.843   3.874   4.066
    2V3OU   H10  880   3.898   3.776   4.073
    2V3OU   C24  881   3.609   3.852   4.235
    2V3OU   H16  882   3.543   3.790   4.301
    2V3OU   H17  883   3.563   3.954   4.232
    2V3OU   C23  884   3.749   3.866   4.295
    2V3OU   H15  885   3.792   3.761   4.308
    2V3OU    N1  886   3.736   3.952   4.412
    2V3OU   H19  887   3.807   3.925   4.477
    2V3OU   H20  888   3.647   3.931   4.453
    2V3OU   C21  889   3.846   3.945   4.202
    2V3OU   H11  890   3.949   3.920   4.242
    2V3OU    O5  891   3.827   4.086   4.198
    2V3OU   H18  892   3.778   4.107   4.279
    2V3OU   C22  893   3.916   3.945   3.953
    2V3OU   H12  894   3.868   4.044   3.934
    2V3OU   H13  895   3.900   3.890   3.857
    2V3OU   H14  896   4.025   3.956   3.975
    2V3OU   C11  897   3.160   3.466   4.017
    2V3OU    O1  898   3.133   3.582   3.981
    2V3OU    C9  899   3.300   3.424   4.041
    2V3OU    C7  900   3.403   3.503   3.993
    2V3OU    O9  901   3.388   3.616   3.915
    2V3OU   H25  902   3.294   3.631   3.893
    2V3OU   C17  903   2.829   3.316   4.044
    2V3OU    H7  904   2.731   3.348   4.008
    2V3OU   C18  905   2.848   3.215   4.139
    2V3OU    H8  906   2.785   3.175   4.219
    3SOL     OW  907   2.850   4.266   5.688
    3SOL    HW1  908   2.846   4.244   5.590
    3SOL    HW2  909   2.757   4.273   5.724
    4SOL     OW  910   6.539   0.013   6.717
    4SOL    HW1  911   6.567   7.007   6.809
    4SOL    HW2  912   6.595   0.090   6.686
    5SOL     OW  913   4.565   1.635   2.902
    5SOL    HW1  914   4.617   1.550   2.896
    5SOL    HW2  915   4.468   1.616   2.890
    6SOL     OW  916   4.940   2.421   3.239
    6SOL    HW1  917   4.932   2.329   3.277
    6SOL    HW2  918   4.855   2.445   3.191
    7SOL     OW  919   0.945   3.990   3.980
    7SOL    HW1  920   0.920   4.059   3.913
    7SOL    HW2  921   0.879   3.915   3.977
    8SOL     OW  922   2.984   2.136   5.415
    8SOL    HW1  923   3.082   2.154   5.410
    8SOL    HW2  924   2.963   2.092   5.502
    9SOL     OW  925   6.486   1.738   6.107
    9SOL    HW1  926   6.470   1.698   6.016
    9SOL    HW2  927   6.579   1.773   6.111
   10SOL     OW  928   3.453   4.988   4.122
   10SOL    HW1  929   3.514   4.918   4.160
   10SOL    HW2  930   3.507   5.055   4.071
   11SOL     OW  931   1.767   1.113   6.804
   11SOL    HW1  932   1.708   1.133   6.881
   11SOL    HW2  933   1.726   1.041   6.748
   12SOL     OW  934   2.812   4.767   4.193
   12SOL    HW1  935   2.738   4.744   4.130
   12SOL    HW2  936   2.898   4.769   4.143
   13SOL     OW  937   3.907   6.205   2.648
   13SOL    HW1  938   4.000   6.221   2.614
   13SOL    HW2  939   3.871   6.121   2.608
   14SOL     OW  940   4.355   4.026   6.177
   14SOL    HW1  941   4.363   3.933   6.213
   14SOL    HW2  942   4.446   4.064   6.160
   15SOL     OW  943   0.925   6.698   6.393
   15SOL    HW1  944   0.857   6.686   6.466
   15SOL    HW2  945   0.886   6.756   6.321
   16SOL     OW  946   6.044   2.506   6.212
   16SOL    HW1  947   6.112   2.556   6.267
   16SOL    HW2  948   6.029   2.416   6.252
   17SOL     OW  949   5.069   0.402   6.567
   17SOL    HW1  950   5.017   0.319   6.546
   17SOL    HW2  951   5.020   0.456   6.636
   18SOL     OW  952   4.143   1.508   5.043
   18SOL    HW1  953   4.045   1.487   5.039
   18SOL    HW2  954   4.162   1.561   5.126
   19SOL     OW  955   0.774   2.205   2.234
   19SOL    HW1  956   0.810   2.297   2.248
   19SOL    HW2  957   0.719   2.178   2.313
   20SOL     OW  958   5.330   1.847   5.146
   20SOL    HW1  959   5.329   1.837   5.047
   20SOL    HW2  960   5.381   1.929   5.171
   21SOL     OW  961   2.891   0.513   2.977
   21SOL    HW1  962   2.914   0.574   3.053
   21SOL    HW2  963   2.917   0.419   3.001
   22SOL     OW  964   1.053   6.139   6.477
   22SOL    HW1  965   1.151   6.157   6.488
   22SOL    HW2  966   1.030   6.139   6.380
   23SOL     OW  967   4.004   5.541   2.207
   23SOL    HW1  968   3.904   5.545   2.214
   23SOL    HW2  969   4.040   5.478   2.276
   24SOL     OW  970   3.657   0.003   2.534
   24SOL    HW1  971   3.749   0.031   2.508
   24SOL    HW2  972   3.662   6.946   2.598
   25SOL     OW  973   2.542   7.000   4.177
   25SOL    HW1  974   2.628   6.950   4.169
   25SOL    HW2  975   2.465   6.936   4.179
   26SOL     OW  976   0.254   1.962   0.001
   26SOL    HW1  977   0.278   2.034   0.066
   26SOL    HW2  978   0.246   2.002   6.929
   27SOL     OW  979   1.474   1.497   1.976
   27SOL    HW1  980   1.398   1.554   2.007
   27SOL    HW2  981   1.514   1.537   1.893
   28SOL     OW  982   0.417   1.024   4.711
   28SOL    HW1  983   0.363   1.033   4.628
   28SOL    HW2  984   0.461   1.111   4.733
   29SOL     OW  985   6.375   0.962   1.255
   29SOL    HW1  986   6.373   0.899   1.332
   29SOL    HW2  987   6.451   0.939   1.194
   30SOL     OW  988   3.863   0.450   5.489
   30SOL    HW1  989   3.781   0.409   5.449
   30SOL    HW2  990   3.934   0.379   5.499
   31SOL     OW  991   0.470   2.261   5.562
   31SOL    HW1  992   0.513   2.222   5.644
   31SOL    HW2  993   0.516   2.346   5.537
   32SOL     OW  994   1.729   1.587   2.372
   32SOL    HW1  995   1.748   1.578   2.470
   32SOL    HW2  996   1.727   1.685   2.348
   33SOL     OW  997   0.979   4.343   5.018
   33SOL    HW1  998   1.052   4.354   5.086
   33SOL    HW2  999   0.952   4.432   4.983
   34SOL     OW 1000   2.239   5.935   4.945
   34SOL    HW1 1001   2.255   6.028   4.979
   34SOL    HW2 1002   2.141   5.920   4.937
   35SOL     OW 1003   4.455   1.786   5.384
   35SOL    HW1 1004   4.473   1.720   5.456
   35SOL    HW2 1005   4.363   1.823   5.394
   36SOL     OW 1006   5.435   1.322   3.517
   36SOL    HW1 1007   5.435   1.366   3.606
   36SOL    HW2 1008   5.353   1.265   3.508
   37SOL     OW 1009   2.063   1.419   5.180
   37SOL    HW1 1010   2.086   1.514   5.199
   37SOL    HW2 1011   2.056   1.404   5.082
   38SOL     OW 1012   2.285   4.017   2.005
   38SOL    HW1 1013   2.357   4.037   2.071
   38SOL    HW2 1014   2.321   4.026   1.912
   39SOL     OW 1015   6.435   4.941   5.959
   39SOL    HW1 1016   6.494   4.924   6.038
   39SOL    HW2 1017   6.345   4.901   5.975
   40SOL     OW 1018   3.480   1.624   6.549
   40SOL    HW1 1019   3.525   1.713   6.538
   40SOL    HW2 1020   3.548   1.551   6.544
   41SOL     OW 1021   6.476   3.502   2.681
   41SOL    HW1 1022   6.472   3.575   2.612
   41SOL    HW2 1023   6.386   3.490   2.722
   42SOL     OW 1024   3.155   6.129   4.388
   42SOL    HW1 1025   3.242   6.163   4.353
   42SOL    HW2 1026   3.087   6.203   4.384
   43SOL     OW 1027   4.276   0.319   5.517
   43SOL    HW1 1028   4.264   0.408   5.561
   43SOL    HW2 1029   4.186   0.277   5.501
   44SOL     OW 1030   6.082   2.664   4.779
   44SOL    HW1 1031   6.060   2.691   4.873
   44SOL    HW2 1032   6.102   2.746   4.725
   45SOL     OW 1033   4.093   5.401   1.254
   45SOL    HW1 1034   4.090   5.501   1.250
   45SOL    HW2 1035   4.025   5.364   1.191
   46SOL     OW 1036   0.505   2.720   4.158
   46SOL    HW1 1037   0.582   2.767   4.201
   46SOL    HW2 1038   0.534   2.684   4.069
   47SOL     OW 1039   4.611   3.573   1.258
   47SOL    HW1 1040   4.694   3.576   1.314
   47SOL    HW2 1041   4.559   3.658   1.270
   48SOL     OW 1042   0.028   2.662   6.241
   48SOL    HW1 1043   6.967   2.606   6.256
   48SOL    HW2 1044   0.110   2.603   6.245
   49SOL     OW 1045   5.487   2.794   1.272
   49SOL    HW1 1046   5.520   2.888   1.259
   49SOL    HW2 1047   5.425   2.791   1.350
   50SOL     OW 1048   6.035   1.768   5.214
   50SOL    HW1 1049   6.109   1.834   5.197
   50SOL    HW2 1050   5.951   1.801   5.173
   51SOL     OW 1051   2.037   6.255   3.011
   51SOL    HW1 1052   1.997   6.259   2.919
   51SOL    HW2 1053   2.099   6.176   3.016
   52SOL     OW 1054   5.173   3.096   2.091
   52SOL    HW1 1055   5.082   3.129   2.066
   52SOL    HW2 1056   5.169   3.056   2.182
   53SOL     OW 1057   5.151   0.392   3.512
   53SOL    HW1 1058   5.222   0.460   3.492
   53SOL    HW2 1059   5.170   0.309   3.459
   54SOL     OW 1060   5.388   0.064   0.132
   54SOL    HW1 1061   5.349   0.145   0.176
   54SOL    HW2 1062   5.314   0.004   0.101
   55SOL     OW 1063   2.469   2.337   5.614
   55SOL    HW1 1064   2.541   2.294   5.558
   55SOL    HW2 1065   2.391   2.275   5.620
   56SOL     OW 1066   1.335   2.035   1.189
   56SOL    HW1 1067   1.349   2.101   1.262
   56SOL    HW2 1068   1.271   2.072   1.122
   57SOL     OW 1069   3.549   1.268   0.127
   57SOL    HW1 1070   3.468   1.239   0.077
   57SOL    HW2 1071   3.605   1.189   0.151
   58SOL     OW 1072   0.530   0.165   6.022
   58SOL    HW1 1073   0.462   0.102   5.986
   58SOL    HW2 1074   0.619   0.119   6.024
   59SOL     OW 1075   6.449   3.609   5.782
   59SOL    HW1 1076   6.454   3.545   5.860
   59SOL    HW2 1077   6.451   3.557   5.697
   60SOL     OW 1078   5.225   2.331   3.737
   60SOL    HW1 1079   5.156   2.313   3.808
   60SOL    HW2 1080   5.287   2.403   3.770
   61SOL     OW 1081   0.041   1.020   4.497
   61SOL    HW1 1082   6.963   1.023   4.517
   61SOL    HW2 1083   0.064   1.092   4.431
   62SOL     OW 1084   1.898   1.369   1.465
   62SOL    HW1 1085   1.948   1.287   1.437
   62SOL    HW2 1086   1.935   1.404   1.550
   63SOL     OW 1087   3.848   0.153   3.826
   63SOL    HW1 1088   3.848   0.054   3.841
   63SOL    HW2 1089   3.935   0.191   3.857
   64SOL     OW 1090   0.660   3.627   6.448
   64SOL    HW1 1091   0.724   3.639   6.373
   64SOL    HW2 1092   0.568   3.655   6.419
   65SOL     OW 1093   1.341   6.266   5.538
   65SOL    HW1 1094   1.354   6.180   5.489
   65SOL    HW2 1095   1.247   6.298   5.527
   66SOL     OW 1096   3.387   0.156   3.026
   66SOL    HW1 1097   3.458   0.187   3.089
   66SOL    HW2 1098   3.415   0.071   2.982
   67SOL     OW 1099   0.025   3.149   6.076
   67SOL    HW1 1100   7.018   3.161   6.172
   67SOL    HW2 1101   0.124   3.156   6.069
   68SOL     OW 1102   6.810   1.445   6.109
   68SOL    HW1 1103   6.876   1.395   6.164
   68SOL    HW2 1104   6.723   1.396   6.108
   69SOL     OW 1105   1.960   3.069   5.983
   69SOL    HW1 1106   2.004   2.979   5.983
   69SOL    HW2 1107   2.012   3.131   5.925
   70SOL     OW 1108   5.633   5.139   4.772
   70SOL    HW1 1109   5.677   5.199   4.840
   70SOL    HW2 1110   5.588   5.063   4.819
   71SOL     OW 1111   4.906   1.772   3.583
   71SOL    HW1 1112   4.922   1.861   3.540
   71SOL    HW2 1113   4.833   1.780   3.651
   72SOL     OW 1114   0.567   1.168   3.101
   72SOL    HW1 1115   0.530   1.260   3.085
   72SOL    HW2 1116   0.559   1.146   3.199
   73SOL     OW 1117   2.895   0.301   0.952
   73SOL    HW1 1118   2.890   0.232   0.880
   73SOL    HW2 1119   2.843   0.382   0.924
   74SOL     OW 1120   2.541   1.250   6.614
   74SOL    HW1 1121   2.482   1.171   6.599
   74SOL    HW2 1122   2.585   1.275   6.528
   75SOL     OW 1123   3.819   1.199   1.756
   75SOL    HW1 1124   3.745   1.139   1.726
   75SOL    HW2 1125   3.781   1.279   1.802
   76SOL     OW 1126   1.821   4.040   6.011
   76SOL    HW1 1127   1.776   3.991   6.086
   76SOL    HW2 1128   1.769   4.123   5.990
   77SOL     OW 1129   2.130   5.855   3.142
   77SOL    HW1 1130   2.138   5.762   3.106
   77SOL    HW2 1131   2.060   5.857   3.213
   78SOL     OW 1132   4.199   1.410   0.889
   78SOL    HW1 1133   4.122   1.351   0.863
   78SOL    HW2 1134   4.169   1.506   0.888
   79SOL     OW 1135   2.265   5.835   1.938
   79SOL    HW1 1136   2.282   5.825   1.840
   79SOL    HW2 1137   2.301   5.923   1.969
   80SOL     OW 1138   4.480   1.810   4.670
   80SOL    HW1 1139   4.417   1.782   4.598
   80SOL    HW2 1140   4.562   1.850   4.629
   81SOL     OW 1141   1.878   6.887   0.707
   81SOL    HW1 1142   1.946   6.833   0.658
   81SOL    HW2 1143   1.853   6.967   0.652
   82SOL     OW 1144   0.243   5.965   1.766
   82SOL    HW1 1145   0.253   5.880   1.714
   82SOL    HW2 1146   0.200   6.034   1.707
   83SOL     OW 1147   0.146   1.810   6.050
   83SOL    HW1 1148   0.191   1.724   6.025
   83SOL    HW2 1149   0.084   1.793   6.127
   84SOL     OW 1150   6.582   3.958   2.845
   84SOL    HW1 1151   6.579   4.000   2.754
   84SOL    HW2 1152   6.599   4.029   2.914
   85SOL     OW 1153   1.869   0.404   3.257
   85SOL    HW1 1154   1.941   0.459   3.297
   85SOL    HW2 1155   1.904   0.312   3.238
   86SOL     OW 1156   6.667   1.050   6.704
   86SOL    HW1 1157   6.716   1.117   6.760
   86SOL    HW2 1158   6.617   1.098   6.631
   87SOL     OW 1159   3.666   4.077   0.673
   87SOL    HW1 1160   3.635   4.056   0.766
   87SOL    HW2 1161   3.764   4.060   0.666
   88SOL     OW 1162   3.093   1.997   6.407
   88SOL    HW1 1163   3.067   2.058   6.482
   88SOL    HW2 1164   3.012   1.974   6.352
   89SOL     OW 1165   3.266   3.711   0.976
   89SOL    HW1 1166   3.312   3.785   0.926
   89SOL    HW2 1167   3.267   3.629   0.920
   90SOL     OW 1168   4.763   4.658   2.337
   90SOL    HW1 1169   4.710   4.587   2.290
   90SOL    HW2 1170   4.710   4.693   2.414
   91SOL     OW 1171   5.851   4.952   6.290
   91SOL    HW1 1172   5.800   4.884   6.238
   91SOL    HW2 1173   5.833   5.043   6.253
   92SOL     OW 1174   5.215   3.988   0.887
   92SOL    HW1 1175   5.310   4.019   0.892
   92SOL    HW2 1176   5.155   4.068   0.879
   93SOL     OW 1177   3.250   3.869   0.447
   93SOL    HW1 1178   3.193   3.802   0.400
   93SOL    HW2 1179   3.193   3.925   0.507
   94SOL     OW 1180   2.434   6.028   0.788
   94SOL    HW1 1181   2.392   6.119   0.782
   94SOL    HW2 1182   2.363   5.958   0.780
   95SOL     OW 1183   1.384   1.257   3.259
   95SOL    HW1 1184   1.392   1.195   3.181
   95SOL    HW2 1185   1.435   1.219   3.336
   96SOL     OW 1186   4.748   5.713   6.700
   96SOL    HW1 1187   4.792   5.794   6.662
   96SOL    HW2 1188   4.711   5.735   6.790
   97SOL     OW 1189   2.040   4.186   4.985
   97SOL    HW1 1190   2.035   4.271   4.932
   97SOL    HW2 1191   2.136   4.167   5.008
   98SOL     OW 1192   0.668   2.274   0.913
   98SOL    HW1 1193   0.625   2.193   0.951
   98SOL    HW2 1194   0.602   2.349   0.910
   99SOL     OW 1195   3.502   3.945   2.982
   99SOL    HW1 1196   3.461   3.953   2.891
   99SOL    HW2 1197   3.600   3.931   2.973
  100SOL     OW 1198   6.413   0.061   4.280
  100SOL    HW1 1199   6.443   0.020   4.366
  100SOL    HW2 1200   6.349   0.135   4.298
  101SOL     OW 1201   0.531   5.235   2.336
  101SOL    HW1 1202   0.614   5.263   2.287
  101SOL    HW2 1203   0.458   5.302   2.319
  102SOL     OW 1204   3.306   5.747   2.652
  102SOL    HW1 1205   3.295   5.835   2.606
  102SOL    HW2 1206   3.309   5.673   2.585
  103SOL     OW 1207   1.726   1.875   2.292
  103SOL    HW1 1208   1.653   1.939   2.315
  103SOL    HW2 1209   1.747   1.882   2.194
  104SOL     OW 1210   1.530   4.913   2.296
  104SOL    HW1 1211   1.621   4.901   2.257
  104SOL    HW2 1212   1.508   4.834   2.354
  105SOL     OW 1213   5.136   1.737   5.961
  105SOL    HW1 1214   5.130   1.765   6.056
  105SOL    HW2 1215   5.221   1.687   5.946
  106SOL     OW 1216   4.567   4.938   2.139
  106SOL    HW1 1217   4.519   4.956   2.225
  106SOL    HW2 1218   4.571   4.839   2.124
  107SOL     OW 1219   6.295   0.648   6.972
  107SOL    HW1 1220   6.312   0.658   0.050
  107SOL    HW2 1221   6.210   0.696   6.948
  108SOL     OW 1222   3.418   6.843   5.251
  108SOL    HW1 1223   3.498   6.899   5.273
  108SOL    HW2 1224   3.393   6.788   5.331
  109SOL     OW 1225   3.020   0.356   2.441
  109SOL    HW1 1226   3.065   0.411   2.371
  109SOL    HW2 1227   3.085   0.290   2.479
  110SOL     OW 1228   2.730   5.237   4.908
  110SOL    HW1 1229   2.645   5.282   4.882
  110SOL    HW2 1230   2.713   5.139   4.923
  111SOL     OW 1231   0.837   1.526   2.782
  111SOL    HW1 1232   0.839   1.535   2.682
  111SOL    HW2 1233   0.830   1.617   2.823
  112SOL     OW 1234   5.041   6.584   6.598
  112SOL    HW1 1235   5.131   6.625   6.618
  112SOL    HW2 1236   5.004   6.543   6.681
  113SOL     OW 1237   0.099   5.831   2.425
  113SOL    HW1 1238   0.001   5.838   2.406
  113SOL    HW2 1239   0.123   5.890   2.502
  114SOL     OW 1240   1.239   5.292   2.338
  114SOL    HW1 1241   1.206   5.272   2.430
  114SOL    HW2 1242   1.304   5.221   2.310
  115SOL     OW 1243   5.749   0.847   3.422
  115SOL    HW1 1244   5.694   0.789   3.362
  115SOL    HW2 1245   5.762   0.937   3.379
  116SOL     OW 1246   0.150   6.164   1.326
  116SOL    HW1 1247   0.124   6.068   1.320
  116SOL    HW2 1248   0.189   6.182   1.416
  117SOL     OW 1249   2.313   0.708   0.291
  117SOL    HW1 1250   2.295   0.680   0.385
  117SOL    HW2 1251   2.401   0.672   0.262
  118SOL     OW 1252   1.656   1.765   3.491
  118SOL    HW1 1253   1.673   1.817   3.575
  118SOL    HW2 1254   1.576   1.803   3.444
  119SOL     OW 1255   0.238   6.834   6.433
  119SOL    HW1 1256   0.302   6.766   6.396
  119SOL    HW2 1257   0.151   6.827   6.385
  120SOL     OW 1258   4.333   0.866   4.633
  120SOL    HW1 1259   4.400   0.861   4.559
  120SOL    HW2 1260   4.241   0.856   4.595
  121SOL     OW 1261   1.979   3.970   0.037
  121SOL    HW1 1262   1.906   3.997   0.100
  121SOL    HW2 1263   1.962   3.877   0.005
  122SOL     OW 1264   1.757   3.453   0.055
  122SOL    HW1 1265   1.786   3.394   0.130
  122SOL    HW2 1266   1.683   3.512   0.086
  123SOL     OW 1267   1.443   1.043   1.749
  123SOL    HW1 1268   1.431   0.954   1.793
  123SOL    HW2 1269   1.408   1.115   1.810
  124SOL     OW 1270   3.298   2.013   0.441
  124SOL    HW1 1271   3.332   1.923   0.469
  124SOL    HW2 1272   3.346   2.043   0.359
  125SOL     OW 1273   3.444   2.832   0.409
  125SOL    HW1 1274   3.368   2.876   0.457
  125SOL    HW2 1275   3.434   2.733   0.415
  126SOL     OW 1276   3.307   3.220   3.203
  126SOL    HW1 1277   3.311   3.139   3.145
  126SOL    HW2 1278   3.353   3.296   3.158
  127SOL     OW 1279   6.606   6.289   6.176
  127SOL    HW1 1280   6.541   6.347   6.226
  127SOL    HW2 1281   6.556   6.220   6.124
  128SOL     OW 1282   5.367   3.220   2.625
  128SOL    HW1 1283   5.292   3.285   2.618
  128SOL    HW2 1284   5.405   3.202   2.535
  129SOL     OW 1285   2.896   4.330   0.956
  129SOL    HW1 1286   2.982   4.297   0.994
  129SOL    HW2 1287   2.891   4.430   0.968
  130SOL     OW 1288   6.336   0.856   4.896
  130SOL    HW1 1289   6.369   0.850   4.802
  130SOL    HW2 1290   6.386   0.927   4.945
  131SOL     OW 1291   5.784   0.904   4.495
  131SOL    HW1 1292   5.691   0.920   4.460
  131SOL    HW2 1293   5.802   0.962   4.574
  132SOL     OW 1294   3.633   3.366   1.572
  132SOL    HW1 1295   3.614   3.428   1.648
  132SOL    HW2 1296   3.621   3.271   1.602
  133SOL     OW 1297   5.541   1.394   3.224
  133SOL    HW1 1298   5.487   1.311   3.243
  133SOL    HW2 1299   5.599   1.414   3.303
  134SOL     OW 1300   0.527   0.552   2.463
  134SOL    HW1 1301   0.592   0.603   2.406
  134SOL    HW2 1302   0.566   0.538   2.554
  135SOL     OW 1303   5.141   3.096   4.212
  135SOL    HW1 1304   5.164   3.172   4.152
  135SOL    HW2 1305   5.224   3.046   4.236
  136SOL     OW 1306   2.434   6.339   4.032
  136SOL    HW1 1307   2.417   6.430   4.068
  136SOL    HW2 1308   2.513   6.341   3.971
  137SOL     OW 1309   4.137   1.057   4.279
  137SOL    HW1 1310   4.236   1.063   4.263
  137SOL    HW2 1311   4.110   1.125   4.348
  138SOL     OW 1312   0.838   4.791   3.256
  138SOL    HW1 1313   0.884   4.863   3.203
  138SOL    HW2 1314   0.757   4.760   3.206
  139SOL     OW 1315   2.465   5.478   6.561
  139SOL    HW1 1316   2.446   5.570   6.596
  139SOL    HW2 1317   2.453   5.411   6.634
  140SOL     OW 1318   1.922   6.197   2.766
  140SOL    HW1 1319   1.867   6.244   2.697
  140SOL    HW2 1320   1.970   6.120   2.724
  141SOL     OW 1321   6.740   3.298   6.033
  141SOL    HW1 1322   6.812   3.280   5.966
  141SOL    HW2 1323   6.690   3.381   6.007
  142SOL     OW 1324   2.484   3.808   1.672
  142SOL    HW1 1325   2.404   3.753   1.695
  142SOL    HW2 1326   2.466   3.904   1.694
  143SOL     OW 1327   5.990   6.117   1.172
  143SOL    HW1 1328   6.004   6.032   1.122
  143SOL    HW2 1329   5.973   6.097   1.268
  144SOL     OW 1330   3.227   5.015   4.238
  144SOL    HW1 1331   3.242   4.960   4.320
  144SOL    HW2 1332   3.306   5.005   4.177
  145SOL     OW 1333   1.387   5.114   2.153
  145SOL    HW1 1334   1.449   5.056   2.206
  145SOL    HW2 1335   1.360   5.067   2.070
  146SOL     OW 1336   5.018   0.897   5.659
  146SOL    HW1 1337   4.987   0.884   5.753
  146SOL    HW2 1338   5.090   0.830   5.639
  147SOL     OW 1339   5.044   1.265   4.825
  147SOL    HW1 1340   4.965   1.273   4.764
  147SOL    HW2 1341   5.122   1.314   4.786
  148SOL     OW 1342   1.401   5.095   1.467
  148SOL    HW1 1343   1.361   5.004   1.459
  148SOL    HW2 1344   1.453   5.115   1.384
  149SOL     OW 1345   3.098   1.798   5.182
  149SOL    HW1 1346   3.104   1.896   5.165
  149SOL    HW2 1347   3.190   1.763   5.202
  150SOL     OW 1348   4.459   0.891   6.156
  150SOL    HW1 1349   4.466   0.978   6.204
  150SOL    HW2 1350   4.550   0.853   6.140
  151SOL     OW 1351   4.193   0.654   1.568
  151SOL    HW1 1352   4.245   0.739   1.580
  151SOL    HW2 1353   4.256   0.576   1.565
  152SOL     OW 1354   6.943   1.447   0.609
  152SOL    HW1 1355   6.903   1.491   0.689
  152SOL    HW2 1356   6.948   1.348   0.623
  153SOL     OW 1357   2.474   0.170   3.573
  153SOL    HW1 1358   2.471   0.071   3.585
  153SOL    HW2 1359   2.569   0.200   3.567
  154SOL     OW 1360   6.632   2.255   6.951
  154SOL    HW1 1361   6.721   2.230   6.990
  154SOL    HW2 1362   6.559   2.232   7.015
  155SOL     OW 1363   0.802   0.133   1.993
  155SOL    HW1 1364   0.783   0.068   2.066
  155SOL    HW2 1365   0.717   0.154   1.944
  156SOL     OW 1366   6.450   1.556   0.148
  156SOL    HW1 1367   6.547   1.554   0.174
  156SOL    HW2 1368   6.396   1.589   0.226
  157SOL     OW 1369   5.936   2.863   6.787
  157SOL    HW1 1370   6.018   2.916   6.806
  157SOL    HW2 1371   5.856   2.912   6.823
  158SOL     OW 1372   1.370   2.730   1.764
  158SOL    HW1 1373   1.343   2.668   1.837
  158SOL    HW2 1374   1.313   2.811   1.766
  159SOL     OW 1375   4.428   4.464   1.078
  159SOL    HW1 1376   4.478   4.383   1.045
  159SOL    HW2 1377   4.489   4.521   1.132
  160SOL     OW 1378   6.685   0.225   1.640
  160SOL    HW1 1379   6.691   0.178   1.552
  160SOL    HW2 1380   6.694   0.323   1.626
  161SOL     OW 1381   1.090   6.712   1.626
  161SOL    HW1 1382   1.057   6.801   1.596
  161SOL    HW2 1383   1.190   6.708   1.616
  162SOL     OW 1384   2.695   6.783   0.195
  162SOL    HW1 1385   2.623   6.729   0.152
  162SOL    HW2 1386   2.728   6.736   0.277
  163SOL     OW 1387   0.436   5.095   3.210
  163SOL    HW1 1388   0.443   5.194   3.220
  163SOL    HW2 1389   0.447   5.070   3.114
  164SOL     OW 1390   0.900   2.060   2.976
  164SOL    HW1 1391   0.826   2.058   3.044
  164SOL    HW2 1392   0.977   2.112   3.012
  165SOL     OW 1393   6.282   5.664   1.485
  165SOL    HW1 1394   6.216   5.677   1.410
  165SOL    HW2 1395   6.367   5.713   1.463
  166SOL     OW 1396   6.659   3.417   1.619
  166SOL    HW1 1397   6.589   3.347   1.606
  166SOL    HW2 1398   6.617   3.501   1.653
  167SOL     OW 1399   5.459   1.674   6.650
  167SOL    HW1 1400   5.435   1.599   6.711
  167SOL    HW2 1401   5.386   1.688   6.584
  168SOL     OW 1402   4.027   2.119   1.553
  168SOL    HW1 1403   3.969   2.138   1.631
  168SOL    HW2 1404   3.971   2.094   1.474
  169SOL     OW 1405   6.007   3.329   6.714
  169SOL    HW1 1406   6.000   3.339   6.615
  169SOL    HW2 1407   6.061   3.404   6.751
  170SOL     OW 1408   6.974   5.784   3.262
  170SOL    HW1 1409   6.931   5.762   3.350
  170SOL    HW2 1410   6.922   5.742   3.188
  171SOL     OW 1411   1.796   3.613   6.786
  171SOL    HW1 1412   1.699   3.625   6.806
  171SOL    HW2 1413   1.806   3.565   6.698
  172SOL     OW 1414   6.676   2.522   2.130
  172SOL    HW1 1415   6.614   2.480   2.064
  172SOL    HW2 1416   6.643   2.614   2.152
  173SOL     OW 1417   5.952   1.571   4.416
  173SOL    HW1 1418   6.007   1.534   4.342
  173SOL    HW2 1419   5.941   1.501   4.487
  174SOL     OW 1420   5.256   4.910   4.696
  174SOL    HW1 1421   5.324   4.933   4.627
  174SOL    HW2 1422   5.188   4.984   4.703
  175SOL     OW 1423   2.929   0.335   1.561
  175SOL    HW1 1424   3.020   0.295   1.567
  175SOL    HW2 1425   2.912   0.367   1.468
  176SOL     OW 1426   4.955   4.491   3.561
  176SOL    HW1 1427   4.891   4.468   3.634
  176SOL    HW2 1428   4.905   4.530   3.483
  177SOL     OW 1429   5.313   2.490   5.286
  177SOL    HW1 1430   5.354   2.485   5.377
  177SOL    HW2 1431   5.317   2.585   5.253
  178SOL     OW 1432   3.179   4.922   4.503
  178SOL    HW1 1433   3.081   4.932   4.487
  178SOL    HW2 1434   3.195   4.879   4.591
  179SOL     OW 1435   4.367   6.554   0.029
  179SOL    HW1 1436   4.464   6.540   0.048
  179SOL    HW2 1437   4.314   6.534   0.110
  180SOL     OW 1438   2.519   6.619   0.092
  180SOL    HW1 1439   2.434   6.607   0.143
  180SOL    HW2 1440   2.558   6.529   0.071
  181SOL     OW 1441   3.659   2.455   5.898
  181SOL    HW1 1442   3.736   2.486   5.954
  181SOL    HW2 1443   3.685   2.458   5.801
  182SOL     OW 1444   4.876   2.982   6.671
  182SOL    HW1 1445   4.796   2.926   6.694
  182SOL    HW2 1446   4.884   3.057   6.736
  183SOL     OW 1447   4.255   2.274   3.574
  183SOL    HW1 1448   4.179   2.215   3.600
  183SOL    HW2 1449   4.260   2.281   3.475
  184SOL     OW 1450   0.695   6.631   3.655
  184SOL    HW1 1451   0.782   6.610   3.700
  184SOL    HW2 1452   0.647   6.702   3.706
  185SOL     OW 1453   1.167   1.473   3.767
  185SOL    HW1 1454   1.240   1.409   3.790
  185SOL    HW2 1455   1.096   1.426   3.716
  186SOL     OW 1456   5.653   6.815   4.272
  186SOL    HW1 1457   5.572   6.757   4.279
  186SOL    HW2 1458   5.626   6.911   4.279
  187SOL     OW 1459   4.473   5.965   2.174
  187SOL    HW1 1460   4.539   6.023   2.126
  187SOL    HW2 1461   4.419   5.914   2.108
  188SOL     OW 1462   1.153   2.373   3.345
  188SOL    HW1 1463   1.178   2.457   3.297
  188SOL    HW2 1464   1.158   2.296   3.281
  189SOL     OW 1465   0.017   4.616   6.604
  189SOL    HW1 1466   6.949   4.579   6.575
  189SOL    HW2 1467   0.051   4.679   6.535
  190SOL     OW 1468   5.742   4.863   0.060
  190SOL    HW1 1469   5.690   4.931   0.008
  190SOL    HW2 1470   5.840   4.872   0.039
  191SOL     OW 1471   6.661   1.405   5.389
  191SOL    HW1 1472   6.578   1.434   5.342
  191SOL    HW2 1473   6.688   1.314   5.358
  192SOL     OW 1474   0.492   4.552   1.560
  192SOL    HW1 1475   0.493   4.576   1.463
  192SOL    HW2 1476   0.561   4.606   1.608
  193SOL     OW 1477   5.009   4.552   5.252
  193SOL    HW1 1478   5.036   4.557   5.349
  193SOL    HW2 1479   4.924   4.500   5.244
  194SOL     OW 1480   4.053   0.108   2.217
  194SOL    HW1 1481   4.073   0.170   2.141
  194SOL    HW2 1482   4.137   0.092   2.269
  195SOL     OW 1483   2.279   0.717   3.874
  195SOL    HW1 1484   2.229   0.799   3.848
  195SOL    HW2 1485   2.372   0.722   3.837
  196SOL     OW 1486   3.486   0.022   6.975
  196SOL    HW1 1487   3.570   0.003   0.005
  196SOL    HW2 1488   3.409   0.024   0.018
  197SOL     OW 1489   3.235   5.781   6.881
  197SOL    HW1 1490   3.151   5.822   6.917
  197SOL    HW2 1491   3.222   5.756   6.786
  198SOL     OW 1492   4.798   6.685   0.681
  198SOL    HW1 1493   4.885   6.714   0.642
  198SOL    HW2 1494   4.814   6.641   0.770
  199SOL     OW 1495   6.467   1.093   2.680
  199SOL    HW1 1496   6.388   1.146   2.652
  199SOL    HW2 1497   6.514   1.057   2.599
  200SOL     OW 1498   0.550   3.593   2.455
  200SOL    HW1 1499   0.503   3.529   2.395
  200SOL    HW2 1500   0.483   3.653   2.498
  201SOL     OW 1501   3.034   6.602   5.778
  201SOL    HW1 1502   3.127   6.571   5.759
  201SOL    HW2 1503   2.987   6.533   5.833
  202SOL     OW 1504   4.872   0.718   5.223
  202SOL    HW1 1505   4.861   0.727   5.322
  202SOL    HW2 1506   4.784   0.699   5.181
  203SOL     OW 1507   4.806   2.401   5.168
  203SOL    HW1 1508   4.862   2.454   5.105
  203SOL    HW2 1509   4.849   2.311   5.183
  204SOL     OW 1510   0.667   7.018   6.658
  204SOL    HW1 1511   0.665   0.097   6.654
  204SOL    HW2 1512   0.726   6.989   6.734
  205SOL     OW 1513   0.984   1.124   1.591
  205SOL    HW1 1514   0.907   1.177   1.627
  205SOL    HW2 1515   1.036   1.085   1.666
  206SOL     OW 1516   0.417   4.855   2.486
  206SOL    HW1 1517   0.485   4.867   2.558
  206SOL    HW2 1518   0.338   4.915   2.505
  207SOL     OW 1519   3.802   0.721   5.509
  207SOL    HW1 1520   3.827   0.751   5.417
  207SOL    HW2 1521   3.815   0.622   5.516
  208SOL     OW 1522   5.237   4.131   5.559
  208SOL    HW1 1523   5.269   4.209   5.613
  208SOL    HW2 1524   5.315   4.086   5.516
  209SOL     OW 1525   0.981   5.517   5.522
  209SOL    HW1 1526   1.022   5.480   5.605
  209SOL    HW2 1527   0.900   5.571   5.547
  210SOL     OW 1528   4.065   2.236   2.627
  210SOL    HW1 1529   4.143   2.298   2.637
  210SOL    HW2 1530   4.043   2.225   2.529
  211SOL     OW 1531   0.885   6.321   3.594
  211SOL    HW1 1532   0.966   6.274   3.630
  211SOL    HW2 1533   0.807   6.303   3.653
  212SOL     OW 1534   1.608   4.299   2.037
  212SOL    HW1 1535   1.600   4.307   2.136
  212SOL    HW2 1536   1.699   4.267   2.013
  213SOL     OW 1537   4.063   0.820   7.011
  213SOL    HW1 1538   3.966   0.833   6.991
  213SOL    HW2 1539   4.105   0.764   6.939
  214SOL     OW 1540   2.306   5.882   2.422
  214SOL    HW1 1541   2.401   5.880   2.391
  214SOL    HW2 1542   2.281   5.976   2.446
  215SOL     OW 1543   3.352   4.021   2.113
  215SOL    HW1 1544   3.275   3.960   2.098
  215SOL    HW2 1545   3.352   4.053   2.208
  216SOL     OW 1546   1.503   6.769   4.513
  216SOL    HW1 1547   1.596   6.783   4.546
  216SOL    HW2 1548   1.463   6.690   4.560
  217SOL     OW 1549   2.057   2.779   4.857
  217SOL    HW1 1550   2.046   2.734   4.769
  217SOL    HW2 1551   2.110   2.863   4.845
  218SOL     OW 1552   1.374   2.644   5.296
  218SOL    HW1 1553   1.455   2.585   5.297
  218SOL    HW2 1554   1.382   2.709   5.221
  219SOL     OW 1555   3.579   5.166   5.983
  219SOL    HW1 1556   3.611   5.254   6.020
  219SOL    HW2 1557   3.530   5.116   6.054
  220SOL     OW 1558   3.397   5.222   0.032
  220SOL    HW1 1559   3.411   5.155   6.979
  220SOL    HW2 1560   3.466   5.294   0.024
  221SOL     OW 1561   6.000   4.190   2.604
  221SOL    HW1 1562   6.031   4.285   2.611
  221SOL    HW2 1563   5.955   4.177   2.516
  222SOL     OW 1564   1.968   4.907   5.737
  222SOL    HW1 1565   2.053   4.859   5.716
  222SOL    HW2 1566   1.908   4.847   5.791
  223SOL     OW 1567   0.334   3.314   0.605
  223SOL    HW1 1568   0.359   3.362   0.521
  223SOL    HW2 1569   0.267   3.243   0.584
  224SOL     OW 1570   3.117   2.215   3.647
  224SOL    HW1 1571   3.157   2.280   3.583
  224SOL    HW2 1572   3.023   2.240   3.667
  225SOL     OW 1573   5.476   1.432   6.306
  225SOL    HW1 1574   5.434   1.492   6.374
  225SOL    HW2 1575   5.440   1.453   6.216
  226SOL     OW 1576   0.598   6.448   6.840
  226SOL    HW1 1577   0.554   6.493   6.919
  226SOL    HW2 1578   0.538   6.455   6.761
  227SOL     OW 1579   1.101   4.484   2.609
  227SOL    HW1 1580   1.150   4.434   2.538
  227SOL    HW2 1581   1.159   4.493   2.690
  228SOL     OW 1582   2.868   0.045   3.747
  228SOL    HW1 1583   2.813   6.982   3.739
  228SOL    HW2 1584   2.813   0.119   3.785
  229SOL     OW 1585   6.124   5.587   0.932
  229SOL    HW1 1586   6.137   5.680   0.899
  229SOL    HW2 1587   6.189   5.568   1.006
  230SOL     OW 1588   3.007   4.867   3.784
  230SOL    HW1 1589   2.935   4.800   3.762
  230SOL    HW2 1590   3.073   4.870   3.709
  231SOL     OW 1591   6.566   2.409   5.590
  231SOL    HW1 1592   6.644   2.464   5.621
  231SOL    HW2 1593   6.595   2.313   5.583
  232SOL     OW 1594   0.501   4.315   6.338
  232SOL    HW1 1595   0.418   4.326   6.284
  232SOL    HW2 1596   0.490   4.364   6.425
  233SOL     OW 1597   2.436   1.102   4.715
  233SOL    HW1 1598   2.536   1.102   4.707
  233SOL    HW2 1599   2.404   1.192   4.744
  234SOL     OW 1600   2.518   5.392   5.430
  234SOL    HW1 1601   2.472   5.373   5.517
  234SOL    HW2 1602   2.523   5.491   5.417
  235SOL     OW 1603   3.384   2.902   2.586
  235SOL    HW1 1604   3.353   2.936   2.676
  235SOL    HW2 1605   3.358   2.806   2.577
  236SOL     OW 1606   5.766   3.404   6.817
  236SOL    HW1 1607   5.690   3.358   6.773
  236SOL    HW2 1608   5.852   3.370   6.779
  237SOL     OW 1609   0.280   6.541   0.279
  237SOL    HW1 1610   0.331   6.503   0.356
  237SOL    HW2 1611   0.320   6.628   0.251
  238SOL     OW 1612   6.882   2.821   0.488
  238SOL    HW1 1613   6.932   2.815   0.574
  238SOL    HW2 1614   6.813   2.893   0.495
  239SOL     OW 1615   6.565   4.495   0.149
  239SOL    HW1 1616   6.511   4.517   0.068
  239SOL    HW2 1617   6.609   4.578   0.184
  240SOL     OW 1618   0.692   3.089   5.489
  240SOL    HW1 1619   0.762   3.018   5.486
  240SOL    HW2 1620   0.619   3.067   5.424
  241SOL     OW 1621   0.612   0.602   3.762
  241SOL    HW1 1622   0.519   0.584   3.795
  241SOL    HW2 1623   0.608   0.630   3.666
  242SOL     OW 1624   1.708   2.636   6.139
  242SOL    HW1 1625   1.751   2.561   6.089
  242SOL    HW2 1626   1.777   2.684   6.192
  243SOL     OW 1627   4.543   0.165   5.859
  243SOL    HW1 1628   4.540   0.118   5.947
  243SOL    HW2 1629   4.485   0.246   5.863
  244SOL     OW 1630   4.855   2.685   4.519
  244SOL    HW1 1631   4.801   2.736   4.586
  244SOL    HW2 1632   4.794   2.639   4.455
  245SOL     OW 1633   6.978   2.975   4.352
  245SOL    HW1 1634   0.029   3.041   4.327
  245SOL    HW2 1635   6.965   2.909   4.277
  246SOL     OW 1636   5.396   3.545   3.740
  246SOL    HW1 1637   5.406   3.496   3.827
  246SOL    HW2 1638   5.434   3.637   3.750
  247SOL     OW 1639   2.578   1.677   2.583
  247SOL    HW1 1640   2.639   1.598   2.581
  247SOL    HW2 1641   2.618   1.748   2.642
  248SOL     OW 1642   4.599   2.692   4.147
  248SOL    HW1 1643   4.517   2.657   4.103
  248SOL    HW2 1644   4.587   2.688   4.247
  249SOL     OW 1645   3.510   0.013   4.897
  249SOL    HW1 1646   3.467   0.090   4.944
  249SOL    HW2 1647   3.444   6.957   4.890
  250SOL     OW 1648   5.344   1.770   5.491
  250SOL    HW1 1649   5.269   1.789   5.554
  250SOL    HW2 1650   5.309   1.765   5.397
  251SOL     OW 1651   4.154   3.701   5.623
  251SOL    HW1 1652   4.186   3.795   5.610
  251SOL    HW2 1653   4.092   3.677   5.548
  252SOL     OW 1654   6.974   1.488   5.718
  252SOL    HW1 1655   6.898   1.548   5.743
  252SOL    HW2 1656   6.945   1.392   5.725
  253SOL     OW 1657   2.504   4.318   0.014
  253SOL    HW1 1658   2.467   4.294   6.944
  253SOL    HW2 1659   2.430   4.321   0.081
  254SOL     OW 1660   6.679   2.672   3.683
  254SOL    HW1 1661   6.591   2.650   3.642
  254SOL    HW2 1662   6.674   2.660   3.782
  255SOL     OW 1663   2.905   1.903   4.122
  255SOL    HW1 1664   2.956   1.974   4.074
  255SOL    HW2 1665   2.964   1.860   4.191
  256SOL     OW 1666   6.668   4.635   6.846
  256SOL    HW1 1667   6.760   4.602   6.865
  256SOL    HW2 1668   6.614   4.560   6.807
  257SOL     OW 1669   3.483   5.223   5.367
  257SOL    HW1 1670   3.392   5.189   5.340
  257SOL    HW2 1671   3.510   5.180   5.453
  258SOL     OW 1672   5.234   3.456   4.777
  258SOL    HW1 1673   5.239   3.520   4.854
  258SOL    HW2 1674   5.318   3.402   4.773
  259SOL     OW 1675   1.741   2.784   2.721
  259SOL    HW1 1676   1.814   2.843   2.755
  259SOL    HW2 1677   1.729   2.707   2.784
  260SOL     OW 1678   4.567   6.969   1.066
  260SOL    HW1 1679   4.474   6.932   1.061
  260SOL    HW2 1680   4.563   0.049   1.071
  261SOL     OW 1681   0.370   3.475   1.117
  261SOL    HW1 1682   0.372   3.456   1.019
  261SOL    HW2 1683   0.348   3.391   1.167
  262SOL     OW 1684   1.068   3.841   2.187
  262SOL    HW1 1685   0.983   3.828   2.239
  262SOL    HW2 1686   1.109   3.752   2.168
  263SOL     OW 1687   0.000   1.798   4.526
  263SOL    HW1 1688   7.007   1.893   4.552
  263SOL    HW2 1689   6.982   1.783   4.435
  264SOL     OW 1690   6.536   3.901   5.760
  264SOL    HW1 1691   6.466   3.968   5.735
  264SOL    HW2 1692   6.495   3.810   5.766
  265SOL     OW 1693   4.986   4.142   3.430
  265SOL    HW1 1694   4.887   4.151   3.421
  265SOL    HW2 1695   5.009   4.051   3.464
  266SOL     OW 1696   3.588   2.385   6.799
  266SOL    HW1 1697   3.546   2.475   6.790
  266SOL    HW2 1698   3.551   2.324   6.730
  267SOL     OW 1699   0.977   3.296   6.910
  267SOL    HW1 1700   1.077   3.296   6.915
  267SOL    HW2 1701   0.945   3.205   6.883
  268SOL     OW 1702   5.003   5.207   5.101
  268SOL    HW1 1703   5.086   5.213   5.045
  268SOL    HW2 1704   4.923   5.201   5.042
  269SOL     OW 1705   1.716   2.260   0.228
  269SOL    HW1 1706   1.674   2.278   0.140
  269SOL    HW2 1707   1.801   2.209   0.214
  270SOL     OW 1708   5.224   1.084   2.216
  270SOL    HW1 1709   5.213   1.183   2.201
  270SOL    HW2 1710   5.317   1.057   2.193
  271SOL     OW 1711   2.158   2.196   0.992
  271SOL    HW1 1712   2.059   2.194   0.981
  271SOL    HW2 1713   2.183   2.267   1.058
  272SOL     OW 1714   3.782   5.542   3.969
  272SOL    HW1 1715   3.716   5.473   3.997
  272SOL    HW2 1716   3.739   5.605   3.905
  273SOL     OW 1717   1.150   5.674   4.913
  273SOL    HW1 1718   1.204   5.651   4.832
  273SOL    HW2 1719   1.165   5.605   4.984
  274SOL     OW 1720   5.106   2.506   3.546
  274SOL    HW1 1721   5.013   2.473   3.529
  274SOL    HW2 1722   5.152   2.445   3.610
  275SOL     OW 1723   0.956   5.417   6.502
  275SOL    HW1 1724   0.980   5.511   6.477
  275SOL    HW2 1725   1.013   5.387   6.578
  276SOL     OW 1726   6.440   5.426   4.011
  276SOL    HW1 1727   6.490   5.513   4.019
  276SOL    HW2 1728   6.357   5.441   3.957
  277SOL     OW 1729   2.933   0.904   5.918
  277SOL    HW1 1730   2.938   0.900   5.818
  277SOL    HW2 1731   2.911   0.813   5.953
  278SOL     OW 1732   5.762   3.439   2.413
  278SOL    HW1 1733   5.689   3.464   2.349
  278SOL    HW2 1734   5.751   3.343   2.440
  279SOL     OW 1735   6.651   3.275   3.943
  279SOL    HW1 1736   6.708   3.211   3.893
  279SOL    HW2 1737   6.638   3.358   3.889
  280SOL     OW 1738   4.593   0.190   3.628
  280SOL    HW1 1739   4.564   0.176   3.534
  280SOL    HW2 1740   4.680   0.142   3.644
  281SOL     OW 1741   2.904   5.456   3.776
  281SOL    HW1 1742   2.908   5.358   3.793
  281SOL    HW2 1743   2.962   5.504   3.841
  282SOL     OW 1744   3.616   2.204   5.318
  282SOL    HW1 1745   3.533   2.188   5.265
  282SOL    HW2 1746   3.592   2.249   5.404
  283SOL     OW 1747   6.376   0.189   5.314
  283SOL    HW1 1748   6.374   0.162   5.218
  283SOL    HW2 1749   6.291   0.236   5.338
  284SOL     OW 1750   0.908   4.499   4.169
  284SOL    HW1 1751   0.834   4.546   4.218
  284SOL    HW2 1752   0.918   4.407   4.206
  285SOL     OW 1753   5.509   6.243   0.184
  285SOL    HW1 1754   5.594   6.257   0.236
  285SOL    HW2 1755   5.432   6.240   0.248
  286SOL     OW 1756   3.751   5.043   5.573
  286SOL    HW1 1757   3.714   5.136   5.581
  286SOL    HW2 1758   3.850   5.046   5.580
  287SOL     OW 1759   1.460   5.390   6.391
  287SOL    HW1 1760   1.414   5.315   6.439
  287SOL    HW2 1761   1.501   5.452   6.458
  288SOL     OW 1762   4.141   0.767   0.869
  288SOL    HW1 1763   4.047   0.743   0.894
  288SOL    HW2 1764   4.185   0.687   0.827
  289SOL     OW 1765   1.128   5.479   5.971
  289SOL    HW1 1766   1.214   5.432   5.990
  289SOL    HW2 1767   1.114   5.551   6.040
  290SOL     OW 1768   4.382   0.613   3.576
  290SOL    HW1 1769   4.414   0.629   3.670
  290SOL    HW2 1770   4.388   0.698   3.524
  291SOL     OW 1771   3.582   1.167   3.630
  291SOL    HW1 1772   3.583   1.074   3.593
  291SOL    HW2 1773   3.669   1.184   3.676
  292SOL     OW 1774   4.225   1.094   3.601
  292SOL    HW1 1775   4.300   1.160   3.603
  292SOL    HW2 1776   4.139   1.141   3.580
  293SOL     OW 1777   4.460   6.200   1.342
  293SOL    HW1 1778   4.466   6.186   1.243
  293SOL    HW2 1779   4.397   6.275   1.361
  294SOL     OW 1780   6.079   5.840   6.746
  294SOL    HW1 1781   6.174   5.859   6.722
  294SOL    HW2 1782   6.048   5.905   6.815
  295SOL     OW 1783   1.793   2.192   5.813
  295SOL    HW1 1784   1.811   2.146   5.727
  295SOL    HW2 1785   1.775   2.125   5.884
  296SOL     OW 1786   6.436   2.141   0.939
  296SOL    HW1 1787   6.441   2.202   1.018
  296SOL    HW2 1788   6.501   2.171   0.869
  297SOL     OW 1789   4.185   5.023   3.440
  297SOL    HW1 1790   4.249   5.061   3.373
  297SOL    HW2 1791   4.154   4.933   3.410
  298SOL     OW 1792   4.038   0.429   0.529
  298SOL    HW1 1793   4.118   0.474   0.489
  298SOL    HW2 1794   4.043   0.331   0.510
  299SOL     OW 1795   3.605   1.817   0.153
  299SOL    HW1 1796   3.638   1.822   0.059
  299SOL    HW2 1797   3.592   1.722   0.179
  300SOL     OW 1798   3.952   0.805   2.855
  300SOL    HW1 1799   3.957   0.902   2.834
  300SOL    HW2 1800   3.916   0.792   2.947
  301SOL     OW 1801   5.201   0.876   1.329
  301SOL    HW1 1802   5.289   0.922   1.317
  301SOL    HW2 1803   5.214   0.777   1.332
  302SOL     OW 1804   0.937   0.426   2.212
  302SOL    HW1 1805   0.863   0.428   2.145
  302SOL    HW2 1806   0.899   0.439   2.304
  303SOL     OW 1807   5.975   6.250   1.785
  303SOL    HW1 1808   5.957   6.256   1.883
  303SOL    HW2 1809   6.048   6.183   1.769
  304SOL     OW 1810   1.982   6.115   6.442
  304SOL    HW1 1811   1.961   6.046   6.373
  304SOL    HW2 1812   2.065   6.165   6.415
  305SOL     OW 1813   1.599   3.095   0.671
  305SOL    HW1 1814   1.630   3.000   0.667
  305SOL    HW2 1815   1.518   3.101   0.729
  306SOL     OW 1816   0.208   0.984   2.746
  306SOL    HW1 1817   0.208   0.966   2.647
  306SOL    HW2 1818   0.279   1.050   2.768
  307SOL     OW 1819   3.781   3.839   0.310
  307SOL    HW1 1820   3.722   3.855   0.231
  307SOL    HW2 1821   3.875   3.862   0.286
  308SOL     OW 1822   6.282   2.853   4.373
  308SOL    HW1 1823   6.314   2.886   4.284
  308SOL    HW2 1824   6.298   2.924   4.442
  309SOL     OW 1825   1.667   6.687   0.448
  309SOL    HW1 1826   1.667   6.739   0.362
  309SOL    HW2 1827   1.718   6.602   0.436
  310SOL     OW 1828   5.618   6.391   4.138
  310SOL    HW1 1829   5.683   6.466   4.146
  310SOL    HW2 1830   5.603   6.349   4.227
  311SOL     OW 1831   2.291   4.356   2.552
  311SOL    HW1 1832   2.194   4.372   2.568
  311SOL    HW2 1833   2.334   4.325   2.637
  312SOL     OW 1834   4.075   2.201   4.280
  312SOL    HW1 1835   3.994   2.164   4.325
  312SOL    HW2 1836   4.057   2.212   4.182
  313SOL     OW 1837   3.283   3.544   3.051
  313SOL    HW1 1838   3.198   3.530   3.102
  313SOL    HW2 1839   3.313   3.638   3.062
  314SOL     OW 1840   1.874   4.875   4.809
  314SOL    HW1 1841   1.851   4.782   4.782
  314SOL    HW2 1842   1.795   4.919   4.851
  315SOL     OW 1843   0.621   2.000   4.052
  315SOL    HW1 1844   0.688   1.984   3.979
  315SOL    HW2 1845   0.533   2.024   4.011
  316SOL     OW 1846   4.040   1.203   4.488
  316SOL    HW1 1847   3.966   1.265   4.462
  316SOL    HW2 1848   4.114   1.256   4.530
  317SOL     OW 1849   1.294   1.393   1.343
  317SOL    HW1 1850   1.352   1.375   1.423
  317SOL    HW2 1851   1.350   1.425   1.267
  318SOL     OW 1852   5.966   0.913   6.476
  318SOL    HW1 1853   5.926   0.837   6.528
  318SOL    HW2 1854   6.005   0.878   6.391
  319SOL     OW 1855   6.756   2.218   3.265
  319SOL    HW1 1856   6.706   2.244   3.182
  319SOL    HW2 1857   6.782   2.122   3.259
  320SOL     OW 1858   6.244   3.525   6.587
  320SOL    HW1 1859   6.280   3.450   6.532
  320SOL    HW2 1860   6.311   3.600   6.590
  321SOL     OW 1861   4.237   2.131   0.629
  321SOL    HW1 1862   4.205   2.150   0.721
  321SOL    HW2 1863   4.208   2.205   0.568
  322SOL     OW 1864   3.878   3.013   4.480
  322SOL    HW1 1865   3.904   3.053   4.568
  322SOL    HW2 1866   3.952   3.026   4.414
  323SOL     OW 1867   1.200   2.267   4.970
  323SOL    HW1 1868   1.128   2.197   4.967
  323SOL    HW2 1869   1.250   2.267   4.883
  324SOL     OW 1870   2.160   0.098   3.605
  324SOL    HW1 1871   2.251   0.058   3.620
  324SOL    HW2 1872   2.171   0.189   3.566
  325SOL     OW 1873   0.891   3.840   2.732
  325SOL    HW1 1874   0.873   3.800   2.823
  325SOL    HW2 1875   0.804   3.852   2.684
  326SOL     OW 1876   0.882   4.247   6.035
  326SOL    HW1 1877   0.785   4.246   6.061
  326SOL    HW2 1878   0.937   4.216   6.112
  327SOL     OW 1879   2.426   4.404   2.816
  327SOL    HW1 1880   2.415   4.411   2.916
  327SOL    HW2 1881   2.499   4.465   2.786
  328SOL     OW 1882   2.049   4.559   1.498
  328SOL    HW1 1883   1.991   4.508   1.561
  328SOL    HW2 1884   2.115   4.614   1.550
  329SOL     OW 1885   2.427   3.635   6.192
  329SOL    HW1 1886   2.329   3.619   6.180
  329SOL    HW2 1887   2.462   3.688   6.116
  330SOL     OW 1888   3.408   6.166   0.327
  330SOL    HW1 1889   3.443   6.232   0.261
  330SOL    HW2 1890   3.348   6.212   0.392
  331SOL     OW 1891   5.579   5.348   1.395
  331SOL    HW1 1892   5.553   5.265   1.347
  331SOL    HW2 1893   5.659   5.330   1.452
  332SOL     OW 1894   6.035   2.074   4.034
  332SOL    HW1 1895   5.972   2.132   3.983
  332SOL    HW2 1896   6.005   2.067   4.129
  333SOL     OW 1897   4.247   0.610   5.286
  333SOL    HW1 1898   4.234   0.638   5.381
  333SOL    HW2 1899   4.270   0.690   5.231
  334SOL     OW 1900   3.684   2.182   0.757
  334SOL    HW1 1901   3.620   2.183   0.680
  334SOL    HW2 1902   3.754   2.112   0.741
  335SOL     OW 1903   4.097   0.611   6.795
  335SOL    HW1 1904   4.106   0.538   6.726
  335SOL    HW2 1905   4.001   0.627   6.814
  336SOL     OW 1906   2.853   1.042   2.833
  336SOL    HW1 1907   2.881   0.947   2.823
  336SOL    HW2 1908   2.761   1.046   2.873
  337SOL     OW 1909   0.838   2.670   5.906
  337SOL    HW1 1910   0.902   2.736   5.868
  337SOL    HW2 1911   0.883   2.616   5.977
  338SOL     OW 1912   3.122   2.908   1.804
  338SOL    HW1 1913   3.095   2.813   1.792
  338SOL    HW2 1914   3.144   2.925   1.900
  339SOL     OW 1915   4.798   4.992   4.864
  339SOL    HW1 1916   4.784   4.965   4.960
  339SOL    HW2 1917   4.714   4.974   4.812
  340SOL     OW 1918   4.873   3.204   4.651
  340SOL    HW1 1919   4.827   3.222   4.564
  340SOL    HW2 1920   4.937   3.278   4.671
  341SOL     OW 1921   5.085   6.697   4.346
  341SOL    HW1 1922   5.153   6.639   4.302
  341SOL    HW2 1923   5.033   6.747   4.277
  342SOL     OW 1924   4.704   2.818   0.276
  342SOL    HW1 1925   4.761   2.861   0.346
  342SOL    HW2 1926   4.700   2.719   0.293
  343SOL     OW 1927   0.283   6.453   2.527
  343SOL    HW1 1928   0.230   6.386   2.474
  343SOL    HW2 1929   0.373   6.416   2.548
  344SOL     OW 1930   0.816   2.704   1.944
  344SOL    HW1 1931   0.783   2.632   2.005
  344SOL    HW2 1932   0.782   2.793   1.975
  345SOL     OW 1933   6.359   2.241   4.266
  345SOL    HW1 1934   6.425   2.313   4.285
  345SOL    HW2 1935   6.370   2.167   4.333
  346SOL     OW 1936   1.520   0.222   2.771
  346SOL    HW1 1937   1.491   0.276   2.851
  346SOL    HW2 1938   1.611   0.251   2.742
  347SOL     OW 1939   3.078   5.512   0.339
  347SOL    HW1 1940   3.029   5.433   0.376
  347SOL    HW2 1941   3.117   5.488   0.250
  348SOL     OW 1942   4.798   4.590   3.352
  348SOL    HW1 1943   4.806   4.522   3.279
  348SOL    HW2 1944   4.878   4.651   3.348
  349SOL     OW 1945   6.692   4.594   2.270
  349SOL    HW1 1946   6.686   4.534   2.350
  349SOL    HW2 1947   6.755   4.555   2.204
  350SOL     OW 1948   3.023   3.033   1.022
  350SOL    HW1 1949   2.982   3.032   1.113
  350SOL    HW2 1950   3.083   2.954   1.012
  351SOL     OW 1951   2.295   3.564   0.679
  351SOL    HW1 1952   2.244   3.503   0.740
  351SOL    HW2 1953   2.390   3.533   0.672
  352SOL     OW 1954   3.733   6.953   3.462
  352SOL    HW1 1955   3.756   7.002   3.546
  352SOL    HW2 1956   3.682   7.013   3.401
  353SOL     OW 1957   2.873   0.155   6.693
  353SOL    HW1 1958   2.926   0.189   6.770
  353SOL    HW2 1959   2.807   0.225   6.664
  354SOL     OW 1960   4.534   2.308   1.241
  354SOL    HW1 1961   4.607   2.300   1.309
  354SOL    HW2 1962   4.559   2.377   1.173
  355SOL     OW 1963   1.714   3.806   2.725
  355SOL    HW1 1964   1.789   3.780   2.786
  355SOL    HW2 1965   1.636   3.745   2.740
  356SOL     OW 1966   2.396   0.973   5.718
  356SOL    HW1 1967   2.457   1.047   5.688
  356SOL    HW2 1968   2.360   0.995   5.809
  357SOL     OW 1969   6.530   5.946   4.762
  357SOL    HW1 1970   6.610   6.003   4.783
  357SOL    HW2 1971   6.558   5.851   4.755
  358SOL     OW 1972   4.922   6.577   0.908
  358SOL    HW1 1973   4.863   6.542   0.981
  358SOL    HW2 1974   4.979   6.502   0.873
  359SOL     OW 1975   3.240   1.163   2.149
  359SOL    HW1 1976   3.306   1.235   2.126
  359SOL    HW2 1977   3.221   1.108   2.068
  360SOL     OW 1978   1.768   3.528   4.678
  360SOL    HW1 1979   1.764   3.593   4.754
  360SOL    HW2 1980   1.698   3.553   4.610
  361SOL     OW 1981   6.543   6.411   2.525
  361SOL    HW1 1982   6.605   6.489   2.516
  361SOL    HW2 1983   6.589   6.338   2.575
  362SOL     OW 1984   3.383   2.694   1.886
  362SOL    HW1 1985   3.354   2.650   1.971
  362SOL    HW2 1986   3.332   2.655   1.809
  363SOL     OW 1987   5.643   4.572   3.306
  363SOL    HW1 1988   5.554   4.588   3.349
  363SOL    HW2 1989   5.716   4.589   3.373
  364SOL     OW 1990   6.835   5.218   6.850
  364SOL    HW1 1991   6.888   5.139   6.820
  364SOL    HW2 1992   6.859   5.298   6.795
  365SOL     OW 1993   4.821   0.279   1.145
  365SOL    HW1 1994   4.871   0.244   1.065
  365SOL    HW2 1995   4.855   0.235   1.227
  366SOL     OW 1996   5.965   2.055   6.363
  366SOL    HW1 1997   6.056   2.083   6.333
  366SOL    HW2 1998   5.934   1.978   6.307
  367SOL     OW 1999   5.872   2.331   6.339
  367SOL    HW1 2000   5.837   2.238   6.334
  367SOL    HW2 2001   5.801   2.394   6.306
  368SOL     OW 2002   0.198   2.667   5.478
  368SOL    HW1 2003   0.151   2.674   5.566
  368SOL    HW2 2004   0.146   2.718   5.409
  369SOL     OW 2005   5.989   5.118   2.789
  369SOL    HW1 2006   6.022   5.024   2.795
  369SOL    HW2 2007   6.067   5.181   2.792
  370SOL     OW 2008   0.993   2.116   4.370
  370SOL    HW1 2009   0.934   2.045   4.332
  370SOL    HW2 2010   0.950   2.157   4.450
  371SOL     OW 2011   1.948   4.606   6.595
  371SOL    HW1 2012   1.983   4.554   6.673
  371SOL    HW2 2013   1.848   4.599   6.592
  372SOL     OW 2014   2.040   6.551   5.618
  372SOL    HW1 2015   2.077   6.602   5.541
  372SOL    HW2 2016   2.062   6.598   5.703
  373SOL     OW 2017   5.667   6.450   5.390
  373SOL    HW1 2018   5.723   6.477   5.312
  373SOL    HW2 2019   5.572   6.476   5.372
  374SOL     OW 2020   2.620   2.085   3.382
  374SOL    HW1 2021   2.656   2.006   3.430
  374SOL    HW2 2022   2.695   2.147   3.357
  375SOL     OW 2023   1.267   4.330   4.096
  375SOL    HW1 2024   1.195   4.399   4.104
  375SOL    HW2 2025   1.309   4.335   4.005
  376SOL     OW 2026   1.462   1.196   5.277
  376SOL    HW1 2027   1.365   1.221   5.269
  376SOL    HW2 2028   1.488   1.198   5.374
  377SOL     OW 2029   1.306   2.074   0.137
  377SOL    HW1 2030   1.283   1.984   0.101
  377SOL    HW2 2031   1.362   2.065   0.219
  378SOL     OW 2032   3.915   1.519   0.680
  378SOL    HW1 2033   3.958   1.452   0.741
  378SOL    HW2 2034   3.975   1.598   0.668
  379SOL     OW 2035   5.491   2.953   0.378
  379SOL    HW1 2036   5.427   2.877   0.369
  379SOL    HW2 2037   5.543   2.944   0.463
  380SOL     OW 2038   2.845   1.409   1.204
  380SOL    HW1 2039   2.879   1.433   1.113
  380SOL    HW2 2040   2.916   1.359   1.254
  381SOL     OW 2041   1.457   3.639   3.658
  381SOL    HW1 2042   1.413   3.658   3.746
  381SOL    HW2 2043   1.407   3.683   3.584
  382SOL     OW 2044   6.243   1.356   0.111
  382SOL    HW1 2045   6.168   1.378   0.049
  382SOL    HW2 2046   6.299   1.438   0.125
  383SOL     OW 2047   3.856   2.912   0.252
  383SOL    HW1 2048   3.888   2.868   0.168
  383SOL    HW2 2049   3.756   2.918   0.250
  384SOL     OW 2050   6.726   5.692   4.597
  384SOL    HW1 2051   6.821   5.665   4.578
  384SOL    HW2 2052   6.670   5.678   4.516
  385SOL     OW 2053   2.972   5.100   5.285
  385SOL    HW1 2054   2.966   5.124   5.382
  385SOL    HW2 2055   2.957   5.001   5.274
  386SOL     OW 2056   2.846   6.497   4.045
  386SOL    HW1 2057   2.800   6.455   3.967
  386SOL    HW2 2058   2.823   6.594   4.049
  387SOL     OW 2059   1.016   5.480   2.484
  387SOL    HW1 2060   1.008   5.401   2.545
  387SOL    HW2 2061   1.039   5.448   2.392
  388SOL     OW 2062   1.996   2.187   6.453
  388SOL    HW1 2063   2.010   2.285   6.437
  388SOL    HW2 2064   1.905   2.172   6.493
  389SOL     OW 2065   3.561   3.781   2.366
  389SOL    HW1 2066   3.579   3.877   2.391
  389SOL    HW2 2067   3.647   3.735   2.347
  390SOL     OW 2068   2.584   1.044   2.938
  390SOL    HW1 2069   2.507   0.980   2.932
  390SOL    HW2 2070   2.583   1.090   3.026
  391SOL     OW 2071   2.497   2.229   6.229
  391SOL    HW1 2072   2.504   2.205   6.326
  391SOL    HW2 2073   2.413   2.192   6.191
  392SOL     OW 2074   2.054   4.360   1.133
  392SOL    HW1 2075   1.991   4.432   1.164
  392SOL    HW2 2076   2.145   4.377   1.170
  393SOL     OW 2077   1.016   4.425   6.688
  393SOL    HW1 2078   0.937   4.367   6.707
  393SOL    HW2 2079   0.989   4.521   6.695
  394SOL     OW 2080   0.005   0.976   6.882
  394SOL    HW1 2081   7.011   0.914   6.959
  394SOL    HW2 2082   7.007   0.928   6.796
  395SOL     OW 2083   4.894   3.614   3.328
  395SOL    HW1 2084   4.855   3.706   3.325
  395SOL    HW2 2085   4.983   3.614   3.282
  396SOL     OW 2086   3.923   3.999   2.286
  396SOL    HW1 2087   3.862   3.970   2.212
  396SOL    HW2 2088   3.974   4.080   2.257
  397SOL     OW 2089   4.646   2.380   5.593
  397SOL    HW1 2090   4.653   2.417   5.686
  397SOL    HW2 2091   4.651   2.455   5.527
  398SOL     OW 2092   0.827   6.326   2.611
  398SOL    HW1 2093   0.861   6.354   2.700
  398SOL    HW2 2094   0.856   6.392   2.542
  399SOL     OW 2095   5.311   6.010   2.843
  399SOL    HW1 2096   5.330   6.093   2.791
  399SOL    HW2 2097   5.213   5.991   2.843
  400SOL     OW 2098   6.191   6.879   6.243
  400SOL    HW1 2099   6.278   6.897   6.290
  400SOL    HW2 2100   6.203   6.893   6.145
  401SOL     OW 2101   4.815   0.708   5.493
  401SOL    HW1 2102   4.751   0.645   5.537
  401SOL    HW2 2103   4.846   0.776   5.560
  402SOL     OW 2104   5.478   0.117   3.417
  402SOL    HW1 2105   5.543   0.123   3.341
  402SOL    HW2 2106   5.514   0.169   3.494
  403SOL     OW 2107   4.294   1.786   4.454
  403SOL    HW1 2108   4.199   1.816   4.455
  403SOL    HW2 2109   4.353   1.863   4.430
  404SOL     OW 2110   1.127   6.039   4.201
  404SOL    HW1 2111   1.053   6.041   4.269
  404SOL    HW2 2112   1.185   5.960   4.217
  405SOL     OW 2113   1.786   3.301   1.876
  405SOL    HW1 2114   1.772   3.297   1.777
  405SOL    HW2 2115   1.796   3.396   1.904
  406SOL     OW 2116   1.131   4.394   4.492
  406SOL    HW1 2117   1.219   4.423   4.529
  406SOL    HW2 2118   1.147   4.339   4.409
  407SOL     OW 2119   1.506   0.651   3.407
  407SOL    HW1 2120   1.577   0.674   3.473
  407SOL    HW2 2121   1.419   0.637   3.455
  408SOL     OW 2122   1.340   2.559   3.142
  408SOL    HW1 2123   1.417   2.506   3.177
  408SOL    HW2 2124   1.291   2.601   3.218
  409SOL     OW 2125   6.967   2.449   0.944
  409SOL    HW1 2126   6.880   2.418   0.906
  409SOL    HW2 2127   6.962   2.547   0.964
  410SOL     OW 2128   1.215   0.692   1.354
  410SOL    HW1 2129   1.285   0.703   1.424
  410SOL    HW2 2130   1.127   0.672   1.397
  411SOL     OW 2131   5.160   0.234   0.277
  411SOL    HW1 2132   5.096   0.234   0.354
  411SOL    HW2 2133   5.112   0.210   0.193
  412SOL     OW 2134   5.237   6.247   3.794
  412SOL    HW1 2135   5.253   6.148   3.790
  412SOL    HW2 2136   5.290   6.286   3.869
  413SOL     OW 2137   5.705   5.143   2.235
  413SOL    HW1 2138   5.629   5.080   2.255
  413SOL    HW2 2139   5.789   5.107   2.275
  414SOL     OW 2140   3.602   5.430   3.560
  414SOL    HW1 2141   3.646   5.497   3.500
  414SOL    HW2 2142   3.514   5.467   3.592
  415SOL     OW 2143   1.058   5.675   6.819
  415SOL    HW1 2144   1.107   5.658   6.734
  415SOL    HW2 2145   0.960   5.669   6.803
  416SOL     OW 2146   5.008   5.539   4.156
  416SOL    HW1 2147   5.053   5.479   4.090
  416SOL    HW2 2148   4.998   5.492   4.244
  417SOL     OW 2149   2.846   5.181   6.964
  417SOL    HW1 2150   2.810   5.188   6.871
  417SOL    HW2 2151   2.929   5.127   6.964
  418SOL     OW 2152   4.076   5.924   0.796
  418SOL    HW1 2153   4.003   5.964   0.741
  418SOL    HW2 2154   4.076   5.824   0.785
  419SOL     OW 2155   1.731   0.685   1.181
  419SOL    HW1 2156   1.659   0.732   1.231
  419SOL    HW2 2157   1.815   0.683   1.236
  420SOL     OW 2158   5.814   1.761   6.921
  420SOL    HW1 2159   5.908   1.734   6.899
  420SOL    HW2 2160   5.776   1.815   6.845
  421SOL     OW 2161   6.944   4.505   6.078
  421SOL    HW1 2162   6.866   4.565   6.091
  421SOL    HW2 2163   6.974   4.509   5.983
  422SOL     OW 2164   5.687   4.199   0.223
  422SOL    HW1 2165   5.651   4.109   0.249
  422SOL    HW2 2166   5.775   4.187   0.178
  423SOL     OW 2167   1.029   2.443   6.957
  423SOL    HW1 2168   1.095   2.376   6.989
  423SOL    HW2 2169   1.074   2.509   6.896
  424SOL     OW 2170   2.363   4.098   0.612
  424SOL    HW1 2171   2.315   4.153   0.679
  424SOL    HW2 2172   2.345   4.001   0.628
  425SOL     OW 2173   5.777   1.326   2.706
  425SOL    HW1 2174   5.690   1.362   2.674
  425SOL    HW2 2175   5.798   1.366   2.795
  426SOL     OW 2176   4.445   2.499   4.005
  426SOL    HW1 2177   4.378   2.446   3.953
  426SOL    HW2 2178   4.536   2.458   3.993
  427SOL     OW 2179   4.836   5.585   2.785
  427SOL    HW1 2180   4.897   5.664   2.794
  427SOL    HW2 2181   4.884   5.502   2.811
  428SOL     OW 2182   4.377   0.667   4.296
  428SOL    HW1 2183   4.279   0.690   4.295
  428SOL    HW2 2184   4.393   0.585   4.241
  429SOL     OW 2185   1.573   3.036   1.105
  429SOL    HW1 2186   1.599   2.948   1.064
  429SOL    HW2 2187   1.560   3.103   1.032
  430SOL     OW 2188   6.905   0.207   5.512
  430SOL    HW1 2189   6.827   0.147   5.525
  430SOL    HW2 2190   6.920   0.222   5.414
  431SOL     OW 2191   3.192   0.213   0.476
  431SOL    HW1 2192   3.134   0.230   0.396
  431SOL    HW2 2193   3.285   0.244   0.457
  432SOL     OW 2194   6.723   1.444   1.204
  432SOL    HW1 2195   6.656   1.516   1.186
  432SOL    HW2 2196   6.704   1.365   1.146
  433SOL     OW 2197   2.882   6.215   4.870
  433SOL    HW1 2198   2.810   6.272   4.829
  433SOL    HW2 2199   2.883   6.126   4.825
  434SOL     OW 2200   3.512   5.798   2.418
  434SOL    HW1 2201   3.570   5.804   2.499
  434SOL    HW2 2202   3.570   5.793   2.336
  435SOL     OW 2203   5.289   2.552   6.350
  435SOL    HW1 2204   5.298   2.511   6.441
  435SOL    HW2 2205   5.321   2.646   6.353
  436SOL     OW 2206   2.946   6.357   1.005
  436SOL    HW1 2207   2.962   6.455   1.011
  436SOL    HW2 2208   2.929   6.320   1.096
  437SOL     OW 2209   1.185   0.809   0.072
  437SOL    HW1 2210   1.090   0.831   0.051
  437SOL    HW2 2211   1.221   0.875   0.139
  438SOL     OW 2212   2.045   3.764   2.540
  438SOL    HW1 2213   2.126   3.788   2.485
  438SOL    HW2 2214   2.008   3.678   2.507
  439SOL     OW 2215   5.868   4.901   2.883
  439SOL    HW1 2216   5.835   4.983   2.837
  439SOL    HW2 2217   5.800   4.870   2.949
  440SOL     OW 2218   1.873   1.094   5.486
  440SOL    HW1 2219   1.960   1.111   5.440
  440SOL    HW2 2220   1.890   1.053   5.575
  441SOL     OW 2221   0.943   2.567   4.201
  441SOL    HW1 2222   1.011   2.599   4.135
  441SOL    HW2 2223   0.989   2.520   4.276
  442SOL     OW 2224   3.441   4.770   5.919
  442SOL    HW1 2225   3.482   4.830   5.988
  442SOL    HW2 2226   3.405   4.826   5.844
  443SOL     OW 2227   5.900   4.051   4.551
  443SOL    HW1 2228   5.996   4.079   4.557
  443SOL    HW2 2229   5.862   4.085   4.465
  444SOL     OW 2230   4.933   1.420   5.384
  444SOL    HW1 2231   4.950   1.410   5.482
  444SOL    HW2 2232   4.835   1.422   5.367
  445SOL     OW 2233   0.664   5.297   2.829
  445SOL    HW1 2234   0.588   5.352   2.792
  445SOL    HW2 2235   0.632   5.203   2.845
  446SOL     OW 2236   3.837   4.928   3.376
  446SOL    HW1 2237   3.858   4.937   3.473
  446SOL    HW2 2238   3.921   4.916   3.324
  447SOL     OW 2239   0.420   2.824   6.152
  447SOL    HW1 2240   0.364   2.851   6.074
  447SOL    HW2 2241   0.370   2.754   6.205
  448SOL     OW 2242   1.849   0.521   3.627
  448SOL    HW1 2243   1.913   0.469   3.683
  448SOL    HW2 2244   1.778   0.459   3.591
  449SOL     OW 2245   3.904   1.404   4.129
  449SOL    HW1 2246   3.982   1.423   4.189
  449SOL    HW2 2247   3.875   1.309   4.141
  450SOL     OW 2248   1.386   5.850   3.895
  450SOL    HW1 2249   1.315   5.843   3.825
  450SOL    HW2 2250   1.473   5.875   3.852
  451SOL     OW 2251   1.942   1.591   3.861
  451SOL    HW1 2252   1.886   1.574   3.780
  451SOL    HW2 2253   2.004   1.667   3.843
  452SOL     OW 2254   6.174   5.873   0.886
  452SOL    HW1 2255   6.231   5.882   0.805
  452SOL    HW2 2256   6.228   5.896   0.967
  453SOL     OW 2257   3.925   1.049   6.139
  453SOL    HW1 2258   3.937   0.952   6.156
  453SOL    HW2 2259   3.882   1.092   6.218
  454SOL     OW 2260   6.739   4.781   6.421
  454SOL    HW1 2261   6.766   4.686   6.435
  454SOL    HW2 2262   6.722   4.824   6.510
  455SOL     OW 2263   6.269   2.765   3.224
  455SOL    HW1 2264   6.318   2.848   3.201
  455SOL    HW2 2265   6.250   2.713   3.140
  456SOL     OW 2266   5.750   6.661   4.080
  456SOL    HW1 2267   5.725   6.702   3.992
  456SOL    HW2 2268   5.704   6.710   4.154
  457SOL     OW 2269   1.942   2.778   4.291
  457SOL    HW1 2270   1.881   2.814   4.221
  457SOL    HW2 2271   1.919   2.817   4.380
  458SOL     OW 2272   4.300   5.682   3.985
  458SOL    HW1 2273   4.360   5.759   4.007
  458SOL    HW2 2274   4.238   5.709   3.912
  459SOL     OW 2275   1.745   6.706   4.947
  459SOL    HW1 2276   1.794   6.683   5.031
  459SOL    HW2 2277   1.648   6.686   4.959
  460SOL     OW 2278   1.607   6.879   3.654
  460SOL    HW1 2279   1.557   6.866   3.568
  460SOL    HW2 2280   1.582   6.968   3.693
  461SOL     OW 2281   6.819   0.070   6.428
  461SOL    HW1 2282   6.909   0.027   6.427
  461SOL    HW2 2283   6.801   0.106   6.519
  462SOL     OW 2284   3.513   3.051   6.304
  462SOL    HW1 2285   3.610   3.029   6.298
  462SOL    HW2 2286   3.494   3.134   6.252
  463SOL     OW 2287   6.444   6.213   3.552
  463SOL    HW1 2288   6.479   6.290   3.499
  463SOL    HW2 2289   6.518   6.148   3.569
  464SOL     OW 2290   2.571   1.759   4.966
  464SOL    HW1 2291   2.523   1.835   4.922
  464SOL    HW2 2292   2.616   1.791   5.049
  465SOL     OW 2293   0.560   2.603   5.943
  465SOL    HW1 2294   0.623   2.647   5.878
  465SOL    HW2 2295   0.510   2.674   5.994
  466SOL     OW 2296   0.770   5.595   2.887
  466SOL    HW1 2297   0.829   5.596   2.968
  466SOL    HW2 2298   0.743   5.501   2.866
  467SOL     OW 2299   1.972   1.279   0.447
  467SOL    HW1 2300   2.002   1.348   0.512
  467SOL    HW2 2301   2.013   1.191   0.469
  468SOL     OW 2302   3.300   0.540   6.275
  468SOL    HW1 2303   3.242   0.472   6.320
  468SOL    HW2 2304   3.388   0.545   6.321
  469SOL     OW 2305   2.675   3.084   6.416
  469SOL    HW1 2306   2.660   3.085   6.515
  469SOL    HW2 2307   2.721   3.168   6.388
  470SOL     OW 2308   4.031   0.085   1.792
  470SOL    HW1 2309   4.062   0.027   1.867
  470SOL    HW2 2310   3.969   0.032   1.733
  471SOL     OW 2311   2.042   2.163   4.137
  471SOL    HW1 2312   2.026   2.209   4.050
  471SOL    HW2 2313   2.039   2.064   4.124
  472SOL     OW 2314   5.199   3.400   5.894
  472SOL    HW1 2315   5.124   3.466   5.896
  472SOL    HW2 2316   5.165   3.310   5.918
  473SOL     OW 2317   1.169   3.001   3.298
  473SOL    HW1 2318   1.162   2.961   3.206
  473SOL    HW2 2319   1.265   3.018   3.320
  474SOL     OW 2320   4.900   5.968   4.210
  474SOL    HW1 2321   4.950   5.911   4.275
  474SOL    HW2 2322   4.963   6.001   4.139
  475SOL     OW 2323   5.797   1.103   6.345
  475SOL    HW1 2324   5.791   1.087   6.247
  475SOL    HW2 2325   5.868   1.045   6.385
  476SOL     OW 2326   0.081   3.282   3.367
  476SOL    HW1 2327   0.178   3.302   3.353
  476SOL    HW2 2328   0.067   3.183   3.368
  477SOL     OW 2329   1.661   5.185   3.483
  477SOL    HW1 2330   1.692   5.187   3.579
  477SOL    HW2 2331   1.566   5.213   3.478
  478SOL     OW 2332   2.943   6.164   2.263
  478SOL    HW1 2333   3.024   6.161   2.322
  478SOL    HW2 2334   2.954   6.239   2.197
  479SOL     OW 2335   4.224   1.974   5.951
  479SOL    HW1 2336   4.310   2.001   5.909
  479SOL    HW2 2337   4.174   1.913   5.889
  480SOL     OW 2338   2.518   1.024   0.313
  480SOL    HW1 2339   2.572   0.941   0.296
  480SOL    HW2 2340   2.453   1.036   0.238
  481SOL     OW 2341   1.649   6.875   0.199
  481SOL    HW1 2342   1.567   6.926   0.223
  481SOL    HW2 2343   1.730   6.928   0.226
  482SOL     OW 2344   4.371   5.002   2.350
  482SOL    HW1 2345   4.382   5.081   2.410
  482SOL    HW2 2346   4.274   4.991   2.326
  483SOL     OW 2347   0.114   1.276   2.189
  483SOL    HW1 2348   0.123   1.245   2.094
  483SOL    HW2 2349   0.202   1.314   2.219
  484SOL     OW 2350   2.142   3.405   4.511
  484SOL    HW1 2351   2.206   3.348   4.460
  484SOL    HW2 2352   2.054   3.405   4.463
  485SOL     OW 2353   3.495   5.528   2.699
  485SOL    HW1 2354   3.485   5.623   2.731
  485SOL    HW2 2355   3.414   5.502   2.646
  486SOL     OW 2356   6.459   0.955   0.394
  486SOL    HW1 2357   6.450   0.970   0.492
  486SOL    HW2 2358   6.407   1.025   0.345
  487SOL     OW 2359   1.130   0.721   1.772
  487SOL    HW1 2360   1.037   0.759   1.766
  487SOL    HW2 2361   1.126   0.622   1.761
  488SOL     OW 2362   0.998   1.453   1.888
  488SOL    HW1 2363   1.031   1.476   1.979
  488SOL    HW2 2364   1.039   1.515   1.821
  489SOL     OW 2365   3.453   6.236   5.632
  489SOL    HW1 2366   3.394   6.173   5.581
  489SOL    HW2 2367   3.416   6.249   5.723
  490SOL     OW 2368   6.308   6.364   2.644
  490SOL    HW1 2369   6.307   6.264   2.647
  490SOL    HW2 2370   6.390   6.395   2.597
  491SOL     OW 2371   0.664   2.823   2.802
  491SOL    HW1 2372   0.689   2.742   2.853
  491SOL    HW2 2373   0.682   2.905   2.857
  492SOL     OW 2374   1.781   0.429   5.312
  492SOL    HW1 2375   1.778   0.360   5.384
  492SOL    HW2 2376   1.872   0.432   5.272
  493SOL     OW 2377   5.091   5.826   5.630
  493SOL    HW1 2378   5.158   5.861   5.563
  493SOL    HW2 2379   5.016   5.891   5.639
  494SOL     OW 2380   0.309   6.457   6.285
  494SOL    HW1 2381   0.230   6.449   6.345
  494SOL    HW2 2382   0.384   6.501   6.335
  495SOL     OW 2383   4.698   5.829   3.543
  495SOL    HW1 2384   4.602   5.830   3.572
  495SOL    HW2 2385   4.755   5.869   3.614
  496SOL     OW 2386   5.062   3.570   1.855
  496SOL    HW1 2387   5.155   3.595   1.883
  496SOL    HW2 2388   4.999   3.645   1.878
  497SOL     OW 2389   2.701   1.436   4.729
  497SOL    HW1 2390   2.702   1.533   4.703
  497SOL    HW2 2391   2.758   1.423   4.810
  498SOL     OW 2392   1.837   3.924   1.746
  498SOL    HW1 2393   1.773   3.877   1.684
  498SOL    HW2 2394   1.851   3.869   1.828
  499SOL     OW 2395   1.914   6.352   4.477
  499SOL    HW1 2396   1.896   6.313   4.387
  499SOL    HW2 2397   1.910   6.279   4.546
  500SOL     OW 2398   0.257   3.225   4.794
  500SOL    HW1 2399   0.186   3.252   4.730
  500SOL    HW2 2400   0.219   3.221   4.887
  501SOL     OW 2401   3.127   5.698   0.871
  501SOL    HW1 2402   3.102   5.706   0.968
  501SOL    HW2 2403   3.226   5.681   0.864
  502SOL     OW 2404   0.306   3.955   0.051
  502SOL    HW1 2405   0.332   3.898   6.993
  502SOL    HW2 2406   0.220   3.922   0.089
  503SOL     OW 2407   6.914   5.274   0.085
  503SOL    HW1 2408   6.889   5.231   7.018
  503SOL    HW2 2409   6.842   5.339   0.111
  504SOL     OW 2410   1.024   5.393   2.185
  504SOL    HW1 2411   1.011   5.361   2.091
  504SOL    HW2 2412   1.092   5.335   2.230
  505SOL     OW 2413   2.900   5.905   5.186
  505SOL    HW1 2414   2.887   5.904   5.086
  505SOL    HW2 2415   2.860   5.989   5.223
  506SOL     OW 2416   2.333   4.749   4.194
  506SOL    HW1 2417   2.433   4.746   4.185
  506SOL    HW2 2418   2.306   4.834   4.239
  507SOL     OW 2419   3.451   6.744   3.161
  507SOL    HW1 2420   3.415   6.656   3.193
  507SOL    HW2 2421   3.507   6.728   3.080
  508SOL     OW 2422   6.857   3.956   2.342
  508SOL    HW1 2423   6.956   3.960   2.358
  508SOL    HW2 2424   6.810   4.008   2.413
  509SOL     OW 2425   2.788   1.621   1.364
  509SOL    HW1 2426   2.796   1.538   1.309
  509SOL    HW2 2427   2.835   1.607   1.452
  510SOL     OW 2428   6.542   4.762   0.214
  510SOL    HW1 2429   6.474   4.803   0.153
  510SOL    HW2 2430   6.634   4.785   0.182
  511SOL     OW 2431   0.777   1.391   5.420
  511SOL    HW1 2432   0.776   1.295   5.392
  511SOL    HW2 2433   0.695   1.410   5.474
  512SOL     OW 2434   0.044   3.119   0.191
  512SOL    HW1 2435   0.078   3.046   0.251
  512SOL    HW2 2436   6.964   3.121   0.194
  513SOL     OW 2437   5.846   0.036   3.293
  513SOL    HW1 2438   5.777   0.099   3.259
  513SOL    HW2 2439   5.931   0.048   3.241
  514SOL     OW 2440   6.859   2.097   3.709
  514SOL    HW1 2441   6.911   2.012   3.715
  514SOL    HW2 2442   6.774   2.081   3.658
  515SOL     OW 2443   0.944   0.735   6.421
  515SOL    HW1 2444   0.889   0.670   6.369
  515SOL    HW2 2445   0.885   0.784   6.485
  516SOL     OW 2446   2.565   4.496   1.830
  516SOL    HW1 2447   2.505   4.575   1.820
  516SOL    HW2 2448   2.651   4.524   1.872
  517SOL     OW 2449   4.584   5.998   1.523
  517SOL    HW1 2450   4.534   6.020   1.607
  517SOL    HW2 2451   4.549   6.054   1.448
  518SOL     OW 2452   3.146   2.168   3.241
  518SOL    HW1 2453   3.235   2.156   3.198
  518SOL    HW2 2454   3.074   2.161   3.171
  519SOL     OW 2455   0.393   0.369   4.773
  519SOL    HW1 2456   0.439   0.334   4.692
  519SOL    HW2 2457   0.416   0.466   4.786
  520SOL     OW 2458   6.465   4.000   0.618
  520SOL    HW1 2459   6.412   4.076   0.655
  520SOL    HW2 2460   6.463   4.004   0.518
  521SOL     OW 2461   6.476   4.978   4.903
  521SOL    HW1 2462   6.550   4.919   4.936
  521SOL    HW2 2463   6.508   5.030   4.823
  522SOL     OW 2464   3.634   2.909   4.575
  522SOL    HW1 2465   3.657   2.896   4.671
  522SOL    HW2 2466   3.715   2.940   4.525
  523SOL     OW 2467   0.163   5.492   1.470
  523SOL    HW1 2468   0.113   5.405   1.466
  523SOL    HW2 2469   0.261   5.473   1.469
  524SOL     OW 2470   0.425   1.600   2.663
  524SOL    HW1 2471   0.387   1.507   2.662
  524SOL    HW2 2472   0.391   1.650   2.584
  525SOL     OW 2473   2.289   3.082   5.668
  525SOL    HW1 2474   2.287   3.157   5.602
  525SOL    HW2 2475   2.368   3.023   5.648
  526SOL     OW 2476   4.062   6.709   3.782
  526SOL    HW1 2477   4.071   6.725   3.684
  526SOL    HW2 2478   4.025   6.617   3.798
  527SOL     OW 2479   6.036   2.369   6.559
  527SOL    HW1 2480   5.984   2.345   6.477
  527SOL    HW2 2481   6.024   2.467   6.578
  528SOL     OW 2482   0.995   1.702   3.857
  528SOL    HW1 2483   0.996   1.635   3.931
  528SOL    HW2 2484   1.084   1.705   3.813
  529SOL     OW 2485   1.968   6.902   4.425
  529SOL    HW1 2486   1.946   6.860   4.337
  529SOL    HW2 2487   2.063   6.934   4.424
  530SOL     OW 2488   3.551   3.241   4.561
  530SOL    HW1 2489   3.543   3.218   4.658
  530SOL    HW2 2490   3.520   3.164   4.506
  531SOL     OW 2491   0.272   1.251   3.513
  531SOL    HW1 2492   0.326   1.176   3.475
  531SOL    HW2 2493   0.262   1.239   3.612
  532SOL     OW 2494   1.274   2.799   6.666
  532SOL    HW1 2495   1.237   2.847   6.586
  532SOL    HW2 2496   1.374   2.803   6.663
  533SOL     OW 2497   4.515   0.001   3.944
  533SOL    HW1 2498   4.505   6.938   3.889
  533SOL    HW2 2499   4.501   0.081   3.886
  534SOL     OW 2500   5.321   6.265   2.755
  534SOL    HW1 2501   5.349   6.303   2.844
  534SOL    HW2 2502   5.245   6.319   2.719
  535SOL     OW 2503   0.921   3.517   4.610
  535SOL    HW1 2504   1.020   3.520   4.626
  535SOL    HW2 2505   0.884   3.610   4.613
  536SOL     OW 2506   0.011   5.250   1.623
  536SOL    HW1 2507   6.936   5.238   1.649
  536SOL    HW2 2508   0.062   5.293   1.698
  537SOL     OW 2509   2.995   6.865   4.387
  537SOL    HW1 2510   3.083   6.905   4.412
  537SOL    HW2 2511   2.984   6.777   4.434
  538SOL     OW 2512   1.384   4.460   3.188
  538SOL    HW1 2513   1.473   4.469   3.144
  538SOL    HW2 2514   1.332   4.388   3.143
  539SOL     OW 2515   1.390   5.753   0.972
  539SOL    HW1 2516   1.446   5.800   1.041
  539SOL    HW2 2517   1.438   5.671   0.940
  540SOL     OW 2518   1.054   0.357   3.262
  540SOL    HW1 2519   1.067   0.453   3.238
  540SOL    HW2 2520   0.979   0.349   3.328
  541SOL     OW 2521   4.745   5.723   3.826
  541SOL    HW1 2522   4.715   5.675   3.909
  541SOL    HW2 2523   4.712   5.818   3.829
  542SOL     OW 2524   6.407   6.751   0.183
  542SOL    HW1 2525   6.391   6.775   0.088
  542SOL    HW2 2526   6.379   6.656   0.199
  543SOL     OW 2527   1.595   4.121   5.655
  543SOL    HW1 2528   1.528   4.125   5.729
  543SOL    HW2 2529   1.629   4.028   5.646
  544SOL     OW 2530   3.318   4.225   0.071
  544SOL    HW1 2531   3.235   4.276   0.092
  544SOL    HW2 2532   3.332   4.153   0.139
  545SOL     OW 2533   2.992   1.248   2.255
  545SOL    HW1 2534   2.984   1.333   2.307
  545SOL    HW2 2535   3.078   1.250   2.203
  546SOL     OW 2536   2.084   3.053   0.325
  546SOL    HW1 2537   2.095   3.153   0.327
  546SOL    HW2 2538   2.153   3.011   0.383
  547SOL     OW 2539   3.280   1.161   0.161
  547SOL    HW1 2540   3.272   1.240   0.100
  547SOL    HW2 2541   3.257   1.188   0.254
  548SOL     OW 2542   3.305   3.180   2.522
  548SOL    HW1 2543   3.315   3.127   2.606
  548SOL    HW2 2544   3.301   3.118   2.443
  549SOL     OW 2545   5.216   3.009   0.674
  549SOL    HW1 2546   5.277   3.086   0.658
  549SOL    HW2 2547   5.123   3.043   0.687
  550SOL     OW 2548   6.989   5.301   3.687
  550SOL    HW1 2549   0.068   5.298   3.694
  550SOL    HW2 2550   6.948   5.289   3.777
  551SOL     OW 2551   1.175   0.562   2.286
  551SOL    HW1 2552   1.191   0.521   2.375
  551SOL    HW2 2553   1.085   0.535   2.252
  552SOL     OW 2554   5.170   4.389   0.399
  552SOL    HW1 2555   5.202   4.471   0.446
  552SOL    HW2 2556   5.247   4.328   0.382
  553SOL     OW 2557   1.680   6.408   2.095
  553SOL    HW1 2558   1.764   6.445   2.055
  553SOL    HW2 2559   1.631   6.481   2.143
  554SOL     OW 2560   5.540   0.210   5.922
  554SOL    HW1 2561   5.518   0.304   5.898
  554SOL    HW2 2562   5.535   0.153   5.839
  555SOL     OW 2563   1.416   5.330   3.073
  555SOL    HW1 2564   1.322   5.345   3.042
  555SOL    HW2 2565   1.441   5.401   3.140
  556SOL     OW 2566   5.038   2.453   4.079
  556SOL    HW1 2567   4.946   2.466   4.042
  556SOL    HW2 2568   5.075   2.366   4.047
  557SOL     OW 2569   0.605   4.837   0.446
  557SOL    HW1 2570   0.624   4.894   0.526
  557SOL    HW2 2571   0.584   4.744   0.477
  558SOL     OW 2572   2.952   3.390   4.482
  558SOL    HW1 2573   2.860   3.383   4.444
  558SOL    HW2 2574   2.951   3.364   4.578
  559SOL     OW 2575   6.335   5.662   7.003
  559SOL    HW1 2576   6.255   5.685   0.040
  559SOL    HW2 2577   6.382   5.745   6.976
  560SOL     OW 2578   4.686   4.305   6.781
  560SOL    HW1 2579   4.622   4.238   6.821
  560SOL    HW2 2580   4.751   4.334   6.851
  561SOL     OW 2581   6.375   1.072   0.694
  561SOL    HW1 2582   6.361   1.151   0.754
  561SOL    HW2 2583   6.472   1.051   0.689
  562SOL     OW 2584   5.266   0.771   5.677
  562SOL    HW1 2585   5.292   0.744   5.769
  562SOL    HW2 2586   5.346   0.803   5.628
  563SOL     OW 2587   2.337   0.327   2.908
  563SOL    HW1 2588   2.435   0.314   2.923
  563SOL    HW2 2589   2.322   0.359   2.814
  564SOL     OW 2590   2.460   2.202   6.774
  564SOL    HW1 2591   2.361   2.190   6.763
  564SOL    HW2 2592   2.486   2.178   6.868
  565SOL     OW 2593   3.822   2.897   5.461
  565SOL    HW1 2594   3.873   2.866   5.381
  565SOL    HW2 2595   3.869   2.974   5.503
  566SOL     OW 2596   6.190   5.484   3.892
  566SOL    HW1 2597   6.189   5.456   3.796
  566SOL    HW2 2598   6.100   5.521   3.917
  567SOL     OW 2599   3.729   3.125   2.351
  567SOL    HW1 2600   3.688   3.176   2.426
  567SOL    HW2 2601   3.690   3.156   2.264
  568SOL     OW 2602   4.163   1.746   0.181
  568SOL    HW1 2603   4.203   1.716   0.268
  568SOL    HW2 2604   4.221   1.717   0.106
  569SOL     OW 2605   1.222   3.433   6.422
  569SOL    HW1 2606   1.212   3.334   6.434
  569SOL    HW2 2607   1.131   3.474   6.414
  570SOL     OW 2608   3.097   6.359   0.009
  570SOL    HW1 2609   3.081   6.371   0.107
  570SOL    HW2 2610   3.196   6.355   7.011
  571SOL     OW 2611   3.231   0.186   2.469
  571SOL    HW1 2612   3.315   0.193   2.523
  571SOL    HW2 2613   3.244   0.118   2.397
  572SOL     OW 2614   2.978   5.094   5.619
  572SOL    HW1 2615   2.998   5.042   5.702
  572SOL    HW2 2616   3.042   5.068   5.547
  573SOL     OW 2617   5.412   1.366   5.779
  573SOL    HW1 2618   5.450   1.372   5.686
  573SOL    HW2 2619   5.328   1.419   5.784
  574SOL     OW 2620   3.614   2.108   4.455
  574SOL    HW1 2621   3.524   2.066   4.465
  574SOL    HW2 2622   3.634   2.122   4.358
  575SOL     OW 2623   5.560   3.926   0.264
  575SOL    HW1 2624   5.526   3.917   0.171
  575SOL    HW2 2625   5.488   3.898   0.328
  576SOL     OW 2626   1.219   2.173   3.045
  576SOL    HW1 2627   1.228   2.074   3.054
  576SOL    HW2 2628   1.257   2.202   2.957
  577SOL     OW 2629   1.767   1.646   2.816
  577SOL    HW1 2630   1.789   1.592   2.735
  577SOL    HW2 2631   1.848   1.696   2.846
  578SOL     OW 2632   6.298   5.209   3.234
  578SOL    HW1 2633   6.324   5.116   3.261
  578SOL    HW2 2634   6.211   5.207   3.186
  579SOL     OW 2635   1.355   3.028   2.039
  579SOL    HW1 2636   1.305   2.943   2.053
  579SOL    HW2 2637   1.300   3.105   2.070
  580SOL     OW 2638   6.485   5.024   6.794
  580SOL    HW1 2639   6.573   5.048   6.834
  580SOL    HW2 2640   6.411   5.049   6.856
  581SOL     OW 2641   3.101   3.027   3.009
  581SOL    HW1 2642   3.054   3.062   3.089
  581SOL    HW2 2643   3.174   2.965   3.038
  582SOL     OW 2644   5.432   5.991   2.443
  582SOL    HW1 2645   5.495   6.058   2.483
  582SOL    HW2 2646   5.463   5.968   2.350
  583SOL     OW 2647   3.082   4.946   5.817
  583SOL    HW1 2648   3.128   4.960   5.904
  583SOL    HW2 2649   3.038   4.856   5.816
  584SOL     OW 2650   2.097   3.739   6.437
  584SOL    HW1 2651   2.147   3.716   6.354
  584SOL    HW2 2652   1.999   3.732   6.420
  585SOL     OW 2653   5.574   3.299   5.982
  585SOL    HW1 2654   5.524   3.292   6.068
  585SOL    HW2 2655   5.661   3.251   5.989
  586SOL     OW 2656   3.939   1.804   6.655
  586SOL    HW1 2657   4.003   1.751   6.711
  586SOL    HW2 2658   3.850   1.757   6.654
  587SOL     OW 2659   3.231   1.491   5.247
  587SOL    HW1 2660   3.271   1.400   5.250
  587SOL    HW2 2661   3.203   1.512   5.153
  588SOL     OW 2662   2.673   4.627   0.719
  588SOL    HW1 2663   2.634   4.548   0.767
  588SOL    HW2 2664   2.708   4.598   0.631
  589SOL     OW 2665   3.043   5.285   1.329
  589SOL    HW1 2666   2.946   5.293   1.348
  589SOL    HW2 2667   3.068   5.349   1.256
  590SOL     OW 2668   5.082   2.839   2.783
  590SOL    HW1 2669   5.037   2.889   2.857
  590SOL    HW2 2670   5.020   2.770   2.746
  591SOL     OW 2671   3.569   5.792   3.574
  591SOL    HW1 2672   3.543   5.876   3.621
  591SOL    HW2 2673   3.500   5.770   3.505
  592SOL     OW 2674   3.155   0.207   1.575
  592SOL    HW1 2675   3.140   0.120   1.622
  592SOL    HW2 2676   3.250   0.211   1.542
  593SOL     OW 2677   4.409   2.473   3.187
  593SOL    HW1 2678   4.407   2.518   3.097
  593SOL    HW2 2679   4.444   2.537   3.255
  594SOL     OW 2680   5.466   2.096   6.502
  594SOL    HW1 2681   5.423   2.167   6.446
  594SOL    HW2 2682   5.467   2.010   6.452
  595SOL     OW 2683   5.900   0.315   3.858
  595SOL    HW1 2684   5.871   0.403   3.896
  595SOL    HW2 2685   5.957   0.331   3.777
  596SOL     OW 2686   1.662   4.673   3.273
  596SOL    HW1 2687   1.637   4.580   3.247
  596SOL    HW2 2688   1.758   4.675   3.302
  597SOL     OW 2689   4.077   6.885   6.692
  597SOL    HW1 2690   4.149   6.829   6.652
  597SOL    HW2 2691   3.999   6.890   6.628
  598SOL     OW 2692   3.083   3.726   6.344
  598SOL    HW1 2693   3.004   3.721   6.283
  598SOL    HW2 2694   3.112   3.634   6.369
  599SOL     OW 2695   1.932   6.508   2.734
  599SOL    HW1 2696   1.887   6.442   2.674
  599SOL    HW2 2697   2.013   6.466   2.775
  600SOL     OW 2698   0.563   0.797   1.094
  600SOL    HW1 2699   0.612   0.711   1.100
  600SOL    HW2 2700   0.618   0.870   1.135
  601SOL     OW 2701   3.019   6.198   4.083
  601SOL    HW1 2702   3.115   6.218   4.063
  601SOL    HW2 2703   2.971   6.283   4.103
  602SOL     OW 2704   1.777   3.036   6.521
  602SOL    HW1 2705   1.813   3.022   6.613
  602SOL    HW2 2706   1.849   3.015   6.454
  603SOL     OW 2707   3.690   1.751   3.976
  603SOL    HW1 2708   3.776   1.748   3.926
  603SOL    HW2 2709   3.689   1.680   4.046
  604SOL     OW 2710   0.667   3.287   1.845
  604SOL    HW1 2711   0.699   3.289   1.940
  604SOL    HW2 2712   0.582   3.339   1.838
  605SOL     OW 2713   6.293   6.061   2.595
  605SOL    HW1 2714   6.383   6.017   2.596
  605SOL    HW2 2715   6.268   6.083   2.501
  606SOL     OW 2716   4.827   0.649   6.631
  606SOL    HW1 2717   4.890   0.656   6.553
  606SOL    HW2 2718   4.806   0.553   6.648
  607SOL     OW 2719   5.622   0.697   5.488
  607SOL    HW1 2720   5.584   0.614   5.446
  607SOL    HW2 2721   5.639   0.680   5.585
  608SOL     OW 2722   3.756   6.315   6.650
  608SOL    HW1 2723   3.837   6.311   6.591
  608SOL    HW2 2724   3.734   6.223   6.683
  609SOL     OW 2725   3.953   3.246   3.696
  609SOL    HW1 2726   3.985   3.250   3.791
  609SOL    HW2 2727   3.932   3.152   3.672
  610SOL     OW 2728   4.952   2.615   2.543
  610SOL    HW1 2729   4.951   2.548   2.617
  610SOL    HW2 2730   5.022   2.591   2.476
  611SOL     OW 2731   2.499   0.643   6.875
  611SOL    HW1 2732   2.421   0.602   6.827
  611SOL    HW2 2733   2.495   0.742   6.866
  612SOL     OW 2734   3.755   6.720   6.176
  612SOL    HW1 2735   3.784   6.653   6.244
  612SOL    HW2 2736   3.834   6.748   6.121
  613SOL     OW 2737   4.413   6.821   5.948
  613SOL    HW1 2738   4.350   6.898   5.937
  613SOL    HW2 2739   4.381   6.744   5.894
  614SOL     OW 2740   4.902   4.189   1.564
  614SOL    HW1 2741   4.838   4.182   1.641
  614SOL    HW2 2742   4.891   4.279   1.520
  615SOL     OW 2743   0.372   1.766   0.769
  615SOL    HW1 2744   0.412   1.826   0.838
  615SOL    HW2 2745   0.295   1.716   0.810
  616SOL     OW 2746   0.406   2.074   3.869
  616SOL    HW1 2747   0.445   1.994   3.824
  616SOL    HW2 2748   0.323   2.102   3.821
  617SOL     OW 2749   6.738   3.607   6.392
  617SOL    HW1 2750   6.771   3.513   6.386
  617SOL    HW2 2751   6.799   3.660   6.451
  618SOL     OW 2752   6.934   3.312   6.878
  618SOL    HW1 2753   6.972   3.402   6.898
  618SOL    HW2 2754   7.004   3.242   6.893
  619SOL     OW 2755   4.880   0.202   6.490
  619SOL    HW1 2756   4.894   0.111   6.530
  619SOL    HW2 2757   4.854   0.192   6.394
  620SOL     OW 2758   4.925   2.409   1.900
  620SOL    HW1 2759   4.861   2.409   1.978
  620SOL    HW2 2760   4.874   2.427   1.816
  621SOL     OW 2761   2.360   6.740   5.904
  621SOL    HW1 2762   2.441   6.695   5.866
  621SOL    HW2 2763   2.382   6.776   5.995
  622SOL     OW 2764   0.904   1.622   5.038
  622SOL    HW1 2765   0.987   1.675   5.056
  622SOL    HW2 2766   0.826   1.683   5.030
  623SOL     OW 2767   0.738   6.236   5.766
  623SOL    HW1 2768   0.688   6.314   5.801
  623SOL    HW2 2769   0.829   6.233   5.807
  624SOL     OW 2770   0.184   1.182   0.529
  624SOL    HW1 2771   0.183   1.248   0.454
  624SOL    HW2 2772   0.230   1.098   0.498
  625SOL     OW 2773   1.942   2.321   1.218
  625SOL    HW1 2774   1.852   2.363   1.209
  625SOL    HW2 2775   1.931   2.227   1.250
  626SOL     OW 2776   0.380   5.754   2.943
  626SOL    HW1 2777   0.425   5.836   2.977
  626SOL    HW2 2778   0.333   5.708   3.018
  627SOL     OW 2779   6.474   6.141   0.789
  627SOL    HW1 2780   6.430   6.051   0.791
  627SOL    HW2 2781   6.464   6.185   0.878
  628SOL     OW 2782   5.448   5.381   5.529
  628SOL    HW1 2783   5.535   5.429   5.517
  628SOL    HW2 2784   5.423   5.336   5.443
  629SOL     OW 2785   0.784   0.550   6.310
  629SOL    HW1 2786   0.726   0.629   6.296
  629SOL    HW2 2787   0.732   0.466   6.293
  630SOL     OW 2788   0.520   1.597   0.255
  630SOL    HW1 2789   0.519   1.529   0.328
  630SOL    HW2 2790   0.523   1.551   0.166
  631SOL     OW 2791   3.898   0.873   5.722
  631SOL    HW1 2792   3.922   0.963   5.685
  631SOL    HW2 2793   3.888   0.808   5.647
  632SOL     OW 2794   4.785   1.848   1.572
  632SOL    HW1 2795   4.846   1.882   1.643
  632SOL    HW2 2796   4.786   1.910   1.494
  633SOL     OW 2797   2.630   3.709   6.984
  633SOL    HW1 2798   2.532   3.709   7.003
  633SOL    HW2 2799   2.675   3.777   0.021
  634SOL     OW 2800   3.147   4.044   3.386
  634SOL    HW1 2801   3.225   4.029   3.324
  634SOL    HW2 2802   3.086   3.966   3.383
  635SOL     OW 2803   4.910   5.894   1.099
  635SOL    HW1 2804   4.955   5.920   1.013
  635SOL    HW2 2805   4.955   5.942   1.175
  636SOL     OW 2806   2.976   6.706   6.599
  636SOL    HW1 2807   3.063   6.740   6.563
  636SOL    HW2 2808   2.993   6.651   6.680
  637SOL     OW 2809   0.184   3.003   3.396
  637SOL    HW1 2810   0.212   2.980   3.303
  637SOL    HW2 2811   0.102   2.952   3.420
  638SOL     OW 2812   5.595   3.125   3.866
  638SOL    HW1 2813   5.653   3.141   3.786
  638SOL    HW2 2814   5.553   3.035   3.859
  639SOL     OW 2815   4.873   3.412   2.879
  639SOL    HW1 2816   4.956   3.384   2.926
  639SOL    HW2 2817   4.882   3.391   2.781
  640SOL     OW 2818   0.185   5.206   4.508
  640SOL    HW1 2819   0.202   5.166   4.418
  640SOL    HW2 2820   0.185   5.134   4.577
  641SOL     OW 2821   0.552   4.924   4.984
  641SOL    HW1 2822   0.614   4.950   5.058
  641SOL    HW2 2823   0.484   4.859   5.019
  642SOL     OW 2824   0.336   3.330   4.417
  642SOL    HW1 2825   0.373   3.247   4.375
  642SOL    HW2 2826   0.396   3.407   4.397
  643SOL     OW 2827   5.958   0.123   6.559
  643SOL    HW1 2828   6.017   0.179   6.617
  643SOL    HW2 2829   6.005   0.104   6.473
  644SOL     OW 2830   1.436   0.219   4.185
  644SOL    HW1 2831   1.488   0.134   4.181
  644SOL    HW2 2832   1.340   0.200   4.167
  645SOL     OW 2833   4.420   0.071   5.074
  645SOL    HW1 2834   4.422   0.158   5.024
  645SOL    HW2 2835   4.448   0.087   5.169
  646SOL     OW 2836   3.505   0.744   4.953
  646SOL    HW1 2837   3.415   0.758   4.911
  646SOL    HW2 2838   3.548   0.663   4.911
  647SOL     OW 2839   5.325   1.900   4.853
  647SOL    HW1 2840   5.383   1.968   4.806
  647SOL    HW2 2841   5.229   1.927   4.845
  648SOL     OW 2842   0.660   4.254   4.073
  648SOL    HW1 2843   0.732   4.258   4.142
  648SOL    HW2 2844   0.574   4.287   4.112
  649SOL     OW 2845   2.389   3.871   1.187
  649SOL    HW1 2846   2.329   3.791   1.186
  649SOL    HW2 2847   2.349   3.941   1.247
  650SOL     OW 2848   6.429   4.046   0.983
  650SOL    HW1 2849   6.512   3.992   1.002
  650SOL    HW2 2850   6.377   4.001   0.911
  651SOL     OW 2851   1.944   6.696   6.109
  651SOL    HW1 2852   1.992   6.631   6.051
  651SOL    HW2 2853   1.853   6.713   6.071
  652SOL     OW 2854   4.903   0.459   3.422
  652SOL    HW1 2855   5.000   0.473   3.444
  652SOL    HW2 2856   4.855   0.425   3.503
  653SOL     OW 2857   0.740   5.768   0.313
  653SOL    HW1 2858   0.730   5.674   0.347
  653SOL    HW2 2859   0.770   5.766   0.218
  654SOL     OW 2860   0.752   6.332   0.157
  654SOL    HW1 2861   0.730   6.243   0.119
  654SOL    HW2 2862   0.805   6.385   0.089
  655SOL     OW 2863   6.839   5.748   1.317
  655SOL    HW1 2864   6.844   5.799   1.403
  655SOL    HW2 2865   6.923   5.763   1.265
  656SOL     OW 2866   2.660   5.720   0.687
  656SOL    HW1 2867   2.669   5.785   0.611
  656SOL    HW2 2868   2.750   5.680   0.707
  657SOL     OW 2869   2.868   3.661   1.088
  657SOL    HW1 2870   2.944   3.597   1.091
  657SOL    HW2 2871   2.785   3.614   1.056
  658SOL     OW 2872   1.787   3.972   6.717
  658SOL    HW1 2873   1.741   4.034   6.781
  658SOL    HW2 2874   1.739   3.884   6.716
  659SOL     OW 2875   2.277   6.088   4.454
  659SOL    HW1 2876   2.292   6.178   4.414
  659SOL    HW2 2877   2.308   6.088   4.549
  660SOL     OW 2878   5.849   3.785   2.782
  660SOL    HW1 2879   5.807   3.743   2.862
  660SOL    HW2 2880   5.819   3.737   2.700
  661SOL     OW 2881   4.886   3.945   3.827
  661SOL    HW1 2882   4.928   3.963   3.737
  661SOL    HW2 2883   4.878   3.847   3.842
  662SOL     OW 2884   4.164   0.541   5.669
  662SOL    HW1 2885   4.201   0.617   5.616
  662SOL    HW2 2886   4.081   0.570   5.717
  663SOL     OW 2887   1.746   4.035   0.212
  663SOL    HW1 2888   1.780   4.124   0.241
  663SOL    HW2 2889   1.651   4.043   0.181
  664SOL     OW 2890   0.715   5.053   6.238
  664SOL    HW1 2891   0.747   5.093   6.323
  664SOL    HW2 2892   0.736   5.115   6.162
  665SOL     OW 2893   4.453   5.152   1.084
  665SOL    HW1 2894   4.551   5.145   1.068
  665SOL    HW2 2895   4.429   5.105   1.169
  666SOL     OW 2896   4.278   2.224   2.224
  666SOL    HW1 2897   4.185   2.216   2.260
  666SOL    HW2 2898   4.317   2.312   2.252
  667SOL     OW 2899   6.450   4.419   3.333
  667SOL    HW1 2900   6.489   4.334   3.297
  667SOL    HW2 2901   6.480   4.496   3.277
  668SOL     OW 2902   5.040   5.771   6.808
  668SOL    HW1 2903   4.958   5.827   6.794
  668SOL    HW2 2904   5.018   5.675   6.790
  669SOL     OW 2905   3.413   6.047   2.770
  669SOL    HW1 2906   3.316   6.029   2.752
  669SOL    HW2 2907   3.452   5.968   2.818
  670SOL     OW 2908   2.874   3.154   1.730
  670SOL    HW1 2909   2.829   3.218   1.792
  670SOL    HW2 2910   2.913   3.204   1.652
  671SOL     OW 2911   2.405   5.758   6.690
  671SOL    HW1 2912   2.326   5.730   6.744
  671SOL    HW2 2913   2.392   5.852   6.657
  672SOL     OW 2914   0.828   4.299   1.527
  672SOL    HW1 2915   0.742   4.281   1.479
  672SOL    HW2 2916   0.882   4.364   1.474
  673SOL     OW 2917   6.679   0.704   1.069
  673SOL    HW1 2918   6.635   0.794   1.074
  673SOL    HW2 2919   6.720   0.681   1.157
  674SOL     OW 2920   6.547   4.193   4.994
  674SOL    HW1 2921   6.529   4.181   4.896
  674SOL    HW2 2922   6.494   4.271   5.028
  675SOL     OW 2923   6.865   1.389   5.105
  675SOL    HW1 2924   6.843   1.303   5.151
  675SOL    HW2 2925   6.914   1.449   5.168
  676SOL     OW 2926   3.546   5.330   2.343
  676SOL    HW1 2927   3.623   5.269   2.358
  676SOL    HW2 2928   3.462   5.277   2.333
  677SOL     OW 2929   6.336   1.494   6.176
  677SOL    HW1 2930   6.276   1.453   6.244
  677SOL    HW2 2931   6.410   1.544   6.222
  678SOL     OW 2932   1.135   1.550   5.283
  678SOL    HW1 2933   1.218   1.602   5.261
  678SOL    HW2 2934   1.066   1.613   5.319
  679SOL     OW 2935   4.853   1.331   3.872
  679SOL    HW1 2936   4.947   1.361   3.854
  679SOL    HW2 2937   4.814   1.292   3.789
  680SOL     OW 2938   5.211   5.633   6.141
  680SOL    HW1 2939   5.301   5.670   6.117
  680SOL    HW2 2940   5.143   5.706   6.141
  681SOL     OW 2941   5.817   6.596   1.507
  681SOL    HW1 2942   5.912   6.588   1.475
  681SOL    HW2 2943   5.793   6.514   1.559
  682SOL     OW 2944   1.462   7.009   6.881
  682SOL    HW1 2945   1.420   6.918   6.877
  682SOL    HW2 2946   1.560   7.001   6.861
  683SOL     OW 2947   3.621   1.850   6.516
  683SOL    HW1 2948   3.534   1.896   6.502
  683SOL    HW2 2949   3.671   1.844   6.430
  684SOL     OW 2950   6.048   1.029   6.978
  684SOL    HW1 2951   6.012   1.066   6.892
  684SOL    HW2 2952   6.146   1.013   6.970
  685SOL     OW 2953   4.593   1.112   4.784
  685SOL    HW1 2954   4.612   1.032   4.727
  685SOL    HW2 2955   4.494   1.121   4.796
  686SOL     OW 2956   6.031   3.118   3.281
  686SOL    HW1 2957   6.055   3.075   3.368
  686SOL    HW2 2958   6.027   3.048   3.209
  687SOL     OW 2959   0.270   2.787   4.277
  687SOL    HW1 2960   0.365   2.770   4.251
  687SOL    HW2 2961   0.264   2.793   4.377
  688SOL     OW 2962   1.853   3.109   0.132
  688SOL    HW1 2963   1.788   3.085   0.059
  688SOL    HW2 2964   1.946   3.094   0.099
  689SOL     OW 2965   0.605   4.277   5.939
  689SOL    HW1 2966   0.575   4.349   6.002
  689SOL    HW2 2967   0.678   4.313   5.880
  690SOL     OW 2968   0.824   4.190   3.483
  690SOL    HW1 2969   0.734   4.232   3.488
  690SOL    HW2 2970   0.889   4.255   3.442
  691SOL     OW 2971   2.282   1.151   6.507
  691SOL    HW1 2972   2.220   1.150   6.586
  691SOL    HW2 2973   2.286   1.060   6.467
  692SOL     OW 2974   3.833   6.263   3.260
  692SOL    HW1 2975   3.795   6.356   3.262
  692SOL    HW2 2976   3.933   6.268   3.257
  693SOL     OW 2977   6.523   1.802   2.877
  693SOL    HW1 2978   6.554   1.733   2.943
  693SOL    HW2 2979   6.585   1.881   2.880
  694SOL     OW 2980   3.501   6.695   2.500
  694SOL    HW1 2981   3.540   6.651   2.581
  694SOL    HW2 2982   3.462   6.625   2.440
  695SOL     OW 2983   4.466   4.724   5.681
  695SOL    HW1 2984   4.449   4.822   5.669
  695SOL    HW2 2985   4.560   4.710   5.714
  696SOL     OW 2986   2.863   5.262   1.968
  696SOL    HW1 2987   2.766   5.282   1.956
  696SOL    HW2 2988   2.886   5.267   2.065
  697SOL     OW 2989   1.776   2.957   4.678
  697SOL    HW1 2990   1.837   2.884   4.646
  697SOL    HW2 2991   1.831   3.037   4.704
  698SOL     OW 2992   5.462   0.115   6.725
  698SOL    HW1 2993   5.513   0.133   6.810
  698SOL    HW2 2994   5.483   0.186   6.658
  699SOL     OW 2995   1.271   4.296   6.693
  699SOL    HW1 2996   1.286   4.269   6.788
  699SOL    HW2 2997   1.187   4.350   6.687
  700SOL     OW 2998   2.792   1.302   4.165
  700SOL    HW1 2999   2.781   1.322   4.262
  700SOL    HW2 3000   2.743   1.370   4.110
  701SOL     OW 3001   6.279   4.394   5.342
  701SOL    HW1 3002   6.285   4.305   5.386
  701SOL    HW2 3003   6.242   4.383   5.249
  702SOL     OW 3004   6.395   6.464   6.335
  702SOL    HW1 3005   6.330   6.457   6.259
  702SOL    HW2 3006   6.346   6.449   6.422
  703SOL     OW 3007   3.945   3.897   6.392
  703SOL    HW1 3008   3.997   3.928   6.312
  703SOL    HW2 3009   3.963   3.959   6.469
  704SOL     OW 3010   1.494   1.357   6.600
  704SOL    HW1 3011   1.473   1.453   6.582
  704SOL    HW2 3012   1.556   1.350   6.678
  705SOL     OW 3013   5.245   0.064   3.580
  705SOL    HW1 3014   5.270   0.125   3.655
  705SOL    HW2 3015   5.273   0.104   3.493
  706SOL     OW 3016   4.036   1.873   4.399
  706SOL    HW1 3017   4.002   1.963   4.426
  706SOL    HW2 3018   4.042   1.868   4.299
  707SOL     OW 3019   4.691   0.156   2.863
  707SOL    HW1 3020   4.593   0.135   2.862
  707SOL    HW2 3021   4.737   0.105   2.790
  708SOL     OW 3022   4.149   0.190   1.128
  708SOL    HW1 3023   4.080   0.174   1.199
  708SOL    HW2 3024   4.239   0.163   1.163
  709SOL     OW 3025   1.306   5.377   0.694
  709SOL    HW1 3026   1.235   5.427   0.645
  709SOL    HW2 3027   1.343   5.305   0.636
  710SOL     OW 3028   3.970   3.054   2.544
  710SOL    HW1 3029   3.962   3.135   2.602
  710SOL    HW2 3030   3.908   3.064   2.466
  711SOL     OW 3031   0.027   2.473   5.861
  711SOL    HW1 3032   0.127   2.465   5.853
  711SOL    HW2 3033   7.018   2.442   5.951
  712SOL     OW 3034   3.346   3.935   0.820
  712SOL    HW1 3035   3.401   3.866   0.772
  712SOL    HW2 3036   3.281   3.976   0.757
  713SOL     OW 3037   3.121   2.854   0.236
  713SOL    HW1 3038   3.049   2.853   0.305
  713SOL    HW2 3039   3.184   2.929   0.254
  714SOL     OW 3040   5.985   4.841   4.473
  714SOL    HW1 3041   5.892   4.868   4.497
  714SOL    HW2 3042   5.986   4.743   4.450
  715SOL     OW 3043   5.397   6.267   0.680
  715SOL    HW1 3044   5.300   6.245   0.689
  715SOL    HW2 3045   5.409   6.336   0.609
  716SOL     OW 3046   1.199   6.965   0.841
  716SOL    HW1 3047   1.241   0.029   0.808
  716SOL    HW2 3048   1.101   6.979   0.854
  717SOL     OW 3049   5.554   5.011   6.152
  717SOL    HW1 3050   5.623   5.082   6.164
  717SOL    HW2 3051   5.517   5.015   6.059
  718SOL     OW 3052   4.935   2.119   5.732
  718SOL    HW1 3053   4.931   2.052   5.658
  718SOL    HW2 3054   4.993   2.085   5.806
  719SOL     OW 3055   6.952   2.335   1.184
  719SOL    HW1 3056   6.972   2.382   1.098
  719SOL    HW2 3057   6.954   2.400   1.259
  720SOL     OW 3058   3.546   0.821   6.612
  720SOL    HW1 3059   3.622   0.865   6.659
  720SOL    HW2 3060   3.570   0.806   6.516
  721SOL     OW 3061   2.436   0.624   4.666
  721SOL    HW1 3062   2.520   0.622   4.613
  721SOL    HW2 3063   2.433   0.545   4.727
  722SOL     OW 3064   2.240   6.856   4.796
  722SOL    HW1 3065   2.285   6.929   4.846
  722SOL    HW2 3066   2.150   6.887   4.765
  723SOL     OW 3067   2.088   3.376   3.435
  723SOL    HW1 3068   1.996   3.368   3.475
  723SOL    HW2 3069   2.133   3.287   3.439
  724SOL     OW 3070   1.331   2.656   4.881
  724SOL    HW1 3071   1.367   2.693   4.966
  724SOL    HW2 3072   1.327   2.728   4.812
  725SOL     OW 3073   3.198   5.773   0.436
  725SOL    HW1 3074   3.171   5.692   0.384
  725SOL    HW2 3075   3.296   5.788   0.426
  726SOL     OW 3076   4.204   4.761   0.386
  726SOL    HW1 3077   4.148   4.844   0.387
  726SOL    HW2 3078   4.293   4.781   0.346
  727SOL     OW 3079   5.039   5.405   5.940
  727SOL    HW1 3080   5.017   5.474   5.871
  727SOL    HW2 3081   5.091   5.449   6.014
  728SOL     OW 3082   0.090   3.284   4.568
  728SOL    HW1 3083   0.016   3.337   4.526
  728SOL    HW2 3084   0.178   3.316   4.531
  729SOL     OW 3085   1.468   1.996   0.345
  729SOL    HW1 3086   1.423   1.947   0.419
  729SOL    HW2 3087   1.567   1.981   0.350
  730SOL     OW 3088   5.296   1.496   2.437
  730SOL    HW1 3089   5.360   1.531   2.368
  730SOL    HW2 3090   5.241   1.422   2.398
  731SOL     OW 3091   5.743   4.194   5.892
  731SOL    HW1 3092   5.809   4.213   5.964
  731SOL    HW2 3093   5.749   4.265   5.822
  732SOL     OW 3094   0.639   2.894   0.863
  732SOL    HW1 3095   0.714   2.889   0.928
  732SOL    HW2 3096   0.552   2.881   0.910
  733SOL     OW 3097   5.652   5.579   5.522
  733SOL    HW1 3098   5.689   5.594   5.613
  733SOL    HW2 3099   5.619   5.665   5.484
  734SOL     OW 3100   6.461   4.070   2.601
  734SOL    HW1 3101   6.367   4.098   2.618
  734SOL    HW2 3102   6.501   4.127   2.528
  735SOL     OW 3103   4.132   2.661   0.370
  735SOL    HW1 3104   4.199   2.726   0.335
  735SOL    HW2 3105   4.052   2.710   0.404
  736SOL     OW 3106   0.469   0.227   2.580
  736SOL    HW1 3107   0.384   0.278   2.569
  736SOL    HW2 3108   0.526   0.239   2.499
  737SOL     OW 3109   4.920   2.374   6.097
  737SOL    HW1 3110   4.862   2.389   6.017
  737SOL    HW2 3111   4.863   2.369   6.179
  738SOL     OW 3112   1.885   3.997   2.315
  738SOL    HW1 3113   1.820   3.983   2.240
  738SOL    HW2 3114   1.977   3.977   2.282
  739SOL     OW 3115   3.762   0.061   4.884
  739SOL    HW1 3116   3.667   0.033   4.872
  739SOL    HW2 3117   3.774   0.155   4.851
  740SOL     OW 3118   5.034   0.230   0.547
  740SOL    HW1 3119   5.030   0.309   0.608
  740SOL    HW2 3120   5.030   0.146   0.602
  741SOL     OW 3121   2.300   6.468   3.552
  741SOL    HW1 3122   2.218   6.518   3.583
  741SOL    HW2 3123   2.296   6.456   3.453
  742SOL     OW 3124   1.924   6.455   0.983
  742SOL    HW1 3125   1.943   6.458   1.081
  742SOL    HW2 3126   2.005   6.484   0.933
  743SOL     OW 3127   0.257   4.362   4.415
  743SOL    HW1 3128   0.328   4.364   4.485
  743SOL    HW2 3129   0.225   4.455   4.397
  744SOL     OW 3130   5.810   6.938   6.769
  744SOL    HW1 3131   5.899   6.961   6.809
  744SOL    HW2 3132   5.761   0.003   6.746
  745SOL     OW 3133   1.037   5.217   4.755
  745SOL    HW1 3134   0.976   5.293   4.779
  745SOL    HW2 3135   1.009   5.179   4.667
  746SOL     OW 3136   0.520   5.422   5.930
  746SOL    HW1 3137   0.540   5.481   5.851
  746SOL    HW2 3138   0.594   5.431   5.997
  747SOL     OW 3139   4.520   6.836   5.008
  747SOL    HW1 3140   4.481   6.927   5.012
  747SOL    HW2 3141   4.620   6.842   5.017
  748SOL     OW 3142   3.087   5.019   2.507
  748SOL    HW1 3143   3.023   4.992   2.579
  748SOL    HW2 3144   3.096   4.945   2.441
  749SOL     OW 3145   6.775   4.542   5.011
  749SOL    HW1 3146   6.717   4.507   5.085
  749SOL    HW2 3147   6.859   4.488   5.006
  750SOL     OW 3148   2.344   2.402   1.137
  750SOL    HW1 3149   2.326   2.456   1.055
  750SOL    HW2 3150   2.331   2.458   1.218
  751SOL     OW 3151   4.213   2.859   6.639
  751SOL    HW1 3152   4.226   2.763   6.664
  751SOL    HW2 3153   4.152   2.903   6.705
  752SOL     OW 3154   3.629   1.361   2.216
  752SOL    HW1 3155   3.702   1.415   2.259
  752SOL    HW2 3156   3.602   1.287   2.277
  753SOL     OW 3157   1.665   2.846   4.432
  753SOL    HW1 3158   1.688   2.749   4.421
  753SOL    HW2 3159   1.678   2.873   4.528
  754SOL     OW 3160   5.373   3.088   5.713
  754SOL    HW1 3161   5.344   3.184   5.720
  754SOL    HW2 3162   5.354   3.054   5.621
  755SOL     OW 3163   1.707   4.657   5.725
  755SOL    HW1 3164   1.692   4.710   5.642
  755SOL    HW2 3165   1.804   4.635   5.733
  756SOL     OW 3166   3.692   0.260   1.427
  756SOL    HW1 3167   3.722   0.270   1.522
  756SOL    HW2 3168   3.722   0.340   1.374
  757SOL     OW 3169   0.827   6.946   3.739
  757SOL    HW1 3170   0.890   6.996   3.799
  757SOL    HW2 3171   0.862   6.854   3.725
  758SOL     OW 3172   4.098   0.363   2.055
  758SOL    HW1 3173   4.183   0.385   2.008
  758SOL    HW2 3174   4.079   0.433   2.124
  759SOL     OW 3175   1.021   1.301   0.820
  759SOL    HW1 3176   1.080   1.220   0.824
  759SOL    HW2 3177   1.055   1.363   0.750
  760SOL     OW 3178   4.994   0.459   5.723
  760SOL    HW1 3179   4.923   0.390   5.714
  760SOL    HW2 3180   5.025   0.487   5.633
  761SOL     OW 3181   5.577   2.953   5.853
  761SOL    HW1 3182   5.536   3.036   5.815
  761SOL    HW2 3183   5.520   2.874   5.828
  762SOL     OW 3184   2.541   0.282   4.757
  762SOL    HW1 3185   2.495   0.219   4.695
  762SOL    HW2 3186   2.612   0.332   4.708
  763SOL     OW 3187   4.036   4.786   6.758
  763SOL    HW1 3188   4.110   4.718   6.761
  763SOL    HW2 3189   4.051   4.855   6.829
  764SOL     OW 3190   4.447   1.166   4.024
  764SOL    HW1 3191   4.387   1.239   3.992
  764SOL    HW2 3192   4.530   1.206   4.063
  765SOL     OW 3193   0.960   6.067   1.309
  765SOL    HW1 3194   1.008   6.126   1.244
  765SOL    HW2 3195   0.862   6.076   1.296
  766SOL     OW 3196   2.067   3.988   6.800
  766SOL    HW1 3197   1.990   3.968   6.739
  766SOL    HW2 3198   2.039   3.974   6.895
  767SOL     OW 3199   6.002   5.789   2.428
  767SOL    HW1 3200   5.950   5.722   2.375
  767SOL    HW2 3201   6.010   5.757   2.523
  768SOL     OW 3202   1.874   6.447   1.257
  768SOL    HW1 3203   1.914   6.536   1.275
  768SOL    HW2 3204   1.842   6.407   1.343
  769SOL     OW 3205   3.102   0.707   4.528
  769SOL    HW1 3206   3.143   0.730   4.440
  769SOL    HW2 3207   3.095   0.789   4.585
  770SOL     OW 3208   2.007   3.478   3.199
  770SOL    HW1 3209   2.064   3.439   3.271
  770SOL    HW2 3210   1.916   3.498   3.235
  771SOL     OW 3211   1.933   5.519   2.263
  771SOL    HW1 3212   1.891   5.528   2.354
  771SOL    HW2 3213   2.032   5.514   2.273
  772SOL     OW 3214   5.829   5.065   0.725
  772SOL    HW1 3215   5.799   4.977   0.762
  772SOL    HW2 3216   5.903   5.102   0.782
  773SOL     OW 3217   0.867   4.266   4.293
  773SOL    HW1 3218   0.912   4.178   4.310
  773SOL    HW2 3219   0.817   4.295   4.374
  774SOL     OW 3220   1.535   2.005   1.561
  774SOL    HW1 3221   1.592   1.923   1.559
  774SOL    HW2 3222   1.589   2.083   1.594
  775SOL     OW 3223   0.727   2.531   2.629
  775SOL    HW1 3224   0.713   2.434   2.611
  775SOL    HW2 3225   0.711   2.550   2.725
  776SOL     OW 3226   0.850   6.912   5.879
  776SOL    HW1 3227   0.869   6.871   5.790
  776SOL    HW2 3228   0.838   7.011   5.869
  777SOL     OW 3229   2.991   5.060   1.141
  777SOL    HW1 3230   2.975   5.136   1.079
  777SOL    HW2 3231   3.042   5.092   1.221
  778SOL     OW 3232   3.366   1.003   2.907
  778SOL    HW1 3233   3.367   1.054   2.821
  778SOL    HW2 3234   3.416   0.918   2.895
  779SOL     OW 3235   0.565   2.262   2.679
  779SOL    HW1 3236   0.590   2.240   2.773
  779SOL    HW2 3237   0.465   2.255   2.668
  780SOL     OW 3238   6.003   3.931   3.607
  780SOL    HW1 3239   6.101   3.948   3.608
  780SOL    HW2 3240   5.954   4.018   3.620
  781SOL     OW 3241   5.482   1.079   0.134
  781SOL    HW1 3242   5.565   1.025   0.118
  781SOL    HW2 3243   5.405   1.036   0.086
  782SOL     OW 3244   1.631   4.140   6.892
  782SOL    HW1 3245   1.594   4.225   6.928
  782SOL    HW2 3246   1.555   4.082   6.860
  783SOL     OW 3247   3.802   4.868   1.169
  783SOL    HW1 3248   3.731   4.887   1.101
  783SOL    HW2 3249   3.808   4.944   1.233
  784SOL     OW 3250   5.274   6.583   0.112
  784SOL    HW1 3251   5.212   6.505   0.096
  784SOL    HW2 3252   5.318   6.607   0.026
  785SOL     OW 3253   0.143   2.601   2.621
  785SOL    HW1 3254   0.109   2.650   2.701
  785SOL    HW2 3255   0.236   2.568   2.639
  786SOL     OW 3256   0.767   0.962   1.147
  786SOL    HW1 3257   0.823   0.945   1.066
  786SOL    HW2 3258   0.808   1.036   1.201
  787SOL     OW 3259   3.178   0.854   6.532
  787SOL    HW1 3260   3.187   0.843   6.433
  787SOL    HW2 3261   3.253   0.911   6.566
  788SOL     OW 3262   3.457   2.821   5.952
  788SOL    HW1 3263   3.452   2.730   5.910
  788SOL    HW2 3264   3.483   2.812   6.048
  789SOL     OW 3265   5.670   3.701   1.284
  789SOL    HW1 3266   5.608   3.669   1.356
  789SOL    HW2 3267   5.632   3.782   1.241
  790SOL     OW 3268   2.250   0.960   4.237
  790SOL    HW1 3269   2.285   1.012   4.160
  790SOL    HW2 3270   2.160   0.994   4.262
  791SOL     OW 3271   3.725   5.627   3.432
  791SOL    HW1 3272   3.684   5.603   3.343
  791SOL    HW2 3273   3.654   5.664   3.492
  792SOL     OW 3274   0.522   0.454   1.619
  792SOL    HW1 3275   0.615   0.417   1.626
  792SOL    HW2 3276   0.456   0.380   1.633
  793SOL     OW 3277   5.062   5.353   3.876
  793SOL    HW1 3278   5.100   5.443   3.856
  793SOL    HW2 3279   5.103   5.285   3.815
  794SOL     OW 3280   2.719   3.798   5.338
  794SOL    HW1 3281   2.794   3.761   5.284
  794SOL    HW2 3282   2.713   3.897   5.325
  795SOL     OW 3283   3.785   6.793   4.546
  795SOL    HW1 3284   3.804   6.891   4.532
  795SOL    HW2 3285   3.776   6.775   4.644
  796SOL     OW 3286   1.191   1.761   6.170
  796SOL    HW1 3287   1.167   1.846   6.215
  796SOL    HW2 3288   1.149   1.757   6.080
  797SOL     OW 3289   4.836   2.598   1.433
  797SOL    HW1 3290   4.837   2.680   1.376
  797SOL    HW2 3291   4.930   2.570   1.453
  798SOL     OW 3292   4.516   6.865   1.934
  798SOL    HW1 3293   4.525   6.961   1.904
  798SOL    HW2 3294   4.605   6.831   1.965
  799SOL     OW 3295   6.199   0.903   5.431
  799SOL    HW1 3296   6.280   0.924   5.487
  799SOL    HW2 3297   6.118   0.899   5.490
  800SOL     OW 3298   5.181   1.635   2.784
  800SOL    HW1 3299   5.252   1.571   2.811
  800SOL    HW2 3300   5.099   1.585   2.756
  801SOL     OW 3301   1.875   3.189   4.240
  801SOL    HW1 3302   1.939   3.155   4.171
  801SOL    HW2 3303   1.793   3.131   4.241
  802SOL     OW 3304   4.451   0.869   0.420
  802SOL    HW1 3305   4.498   0.798   0.367
  802SOL    HW2 3306   4.433   0.947   0.361
  803SOL     OW 3307   6.835   6.479   5.310
  803SOL    HW1 3308   6.812   6.514   5.401
  803SOL    HW2 3309   6.812   6.548   5.241
  804SOL     OW 3310   5.733   5.816   0.195
  804SOL    HW1 3311   5.685   5.735   0.229
  804SOL    HW2 3312   5.666   5.888   0.173
  805SOL     OW 3313   3.442   1.419   5.476
  805SOL    HW1 3314   3.422   1.503   5.425
  805SOL    HW2 3315   3.405   1.340   5.426
  806SOL     OW 3316   5.448   0.859   4.160
  806SOL    HW1 3317   5.525   0.836   4.100
  806SOL    HW2 3318   5.439   0.789   4.231
  807SOL     OW 3319   0.719   1.708   4.773
  807SOL    HW1 3320   0.701   1.688   4.676
  807SOL    HW2 3321   0.645   1.765   4.809
  808SOL     OW 3322   4.737   3.338   5.959
  808SOL    HW1 3323   4.770   3.306   6.048
  808SOL    HW2 3324   4.678   3.417   5.971
  809SOL     OW 3325   0.199   5.044   1.616
  809SOL    HW1 3326   0.133   5.119   1.620
  809SOL    HW2 3327   0.288   5.077   1.649
  810SOL     OW 3328   3.211   2.780   0.832
  810SOL    HW1 3329   3.134   2.740   0.782
  810SOL    HW2 3330   3.214   2.741   0.924
  811SOL     OW 3331   4.171   5.687   4.941
  811SOL    HW1 3332   4.140   5.777   4.911
  811SOL    HW2 3333   4.142   5.618   4.875
  812SOL     OW 3334   0.433   1.379   1.580
  812SOL    HW1 3335   0.477   1.419   1.660
  812SOL    HW2 3336   0.496   1.316   1.535
  813SOL     OW 3337   3.243   5.910   5.048
  813SOL    HW1 3338   3.205   6.003   5.049
  813SOL    HW2 3339   3.170   5.844   5.064
  814SOL     OW 3340   5.879   6.353   2.832
  814SOL    HW1 3341   5.924   6.393   2.912
  814SOL    HW2 3342   5.839   6.426   2.777
  815SOL     OW 3343   0.622   3.980   3.090
  815SOL    HW1 3344   0.573   3.914   3.147
  815SOL    HW2 3345   0.561   4.017   3.020
  816SOL     OW 3346   6.318   7.000   0.272
  816SOL    HW1 3347   6.342   6.904   0.260
  816SOL    HW2 3348   6.361   0.035   0.201
  817SOL     OW 3349   2.259   3.617   1.666
  817SOL    HW1 3350   2.186   3.558   1.629
  817SOL    HW2 3351   2.308   3.567   1.738
  818SOL     OW 3352   6.289   2.636   1.385
  818SOL    HW1 3353   6.374   2.634   1.333
  818SOL    HW2 3354   6.211   2.625   1.322
  819SOL     OW 3355   5.588   2.975   3.045
  819SOL    HW1 3356   5.622   3.063   3.078
  819SOL    HW2 3357   5.494   2.986   3.010
  820SOL     OW 3358   2.450   3.230   5.982
  820SOL    HW1 3359   2.424   3.280   5.900
  820SOL    HW2 3360   2.409   3.138   5.979
  821SOL     OW 3361   1.809   3.868   0.422
  821SOL    HW1 3362   1.881   3.936   0.432
  821SOL    HW2 3363   1.738   3.903   0.360
  822SOL     OW 3364   1.873   3.940   4.668
  822SOL    HW1 3365   1.968   3.955   4.696
  822SOL    HW2 3366   1.812   3.989   4.730
  823SOL     OW 3367   5.098   4.177   6.239
  823SOL    HW1 3368   5.082   4.160   6.142
  823SOL    HW2 3369   5.045   4.257   6.267
  824SOL     OW 3370   5.635   1.235   5.387
  824SOL    HW1 3371   5.724   1.191   5.381
  824SOL    HW2 3372   5.619   1.290   5.304
  825SOL     OW 3373   1.551   4.193   1.036
  825SOL    HW1 3374   1.593   4.184   0.946
  825SOL    HW2 3375   1.457   4.224   1.026
  826SOL     OW 3376   5.101   3.161   5.917
  826SOL    HW1 3377   5.121   3.064   5.925
  826SOL    HW2 3378   5.027   3.186   5.981
  827SOL     OW 3379   3.458   4.444   6.065
  827SOL    HW1 3380   3.443   4.538   6.035
  827SOL    HW2 3381   3.370   4.399   6.079
  828SOL     OW 3382   5.404   6.444   5.680
  828SOL    HW1 3383   5.324   6.391   5.708
  828SOL    HW2 3384   5.394   6.539   5.712
  829SOL     OW 3385   3.133   3.338   3.663
  829SOL    HW1 3386   3.176   3.428   3.661
  829SOL    HW2 3387   3.174   3.283   3.737
  830SOL     OW 3388   4.773   4.447   7.016
  830SOL    HW1 3389   4.790   4.425   0.092
  830SOL    HW2 3390   4.855   4.487   6.975
  831SOL     OW 3391   5.506   0.937   6.395
  831SOL    HW1 3392   5.490   1.026   6.437
  831SOL    HW2 3393   5.442   0.923   6.320
  832SOL     OW 3394   2.872   0.598   1.637
  832SOL    HW1 3395   2.902   0.514   1.591
  832SOL    HW2 3396   2.855   0.669   1.568
  833SOL     OW 3397   0.397   3.887   6.139
  833SOL    HW1 3398   0.438   3.967   6.183
  833SOL    HW2 3399   0.303   3.906   6.114
  834SOL     OW 3400   2.891   3.873   0.897
  834SOL    HW1 3401   2.927   3.845   0.808
  834SOL    HW2 3402   2.901   3.799   0.962
  835SOL     OW 3403   3.405   0.446   4.878
  835SOL    HW1 3404   3.347   0.509   4.931
  835SOL    HW2 3405   3.389   0.461   4.780
  836SOL     OW 3406   3.893   6.848   6.413
  836SOL    HW1 3407   3.925   6.753   6.406
  836SOL    HW2 3408   3.793   6.848   6.423
  837SOL     OW 3409   5.592   6.591   0.224
  837SOL    HW1 3410   5.562   6.578   0.130
  837SOL    HW2 3411   5.551   6.521   0.283
  838SOL     OW 3412   1.937   0.150   4.531
  838SOL    HW1 3413   1.939   0.064   4.480
  838SOL    HW2 3414   1.870   0.212   4.490
  839SOL     OW 3415   2.641   2.393   2.184
  839SOL    HW1 3416   2.715   2.384   2.117
  839SOL    HW2 3417   2.555   2.411   2.136
  840SOL     OW 3418   6.149   6.951   6.838
  840SOL    HW1 3419   6.123   0.021   6.873
  840SOL    HW2 3420   6.105   6.880   6.891
  841SOL     OW 3421   4.639   5.128   0.226
  841SOL    HW1 3422   4.697   5.079   0.162
  841SOL    HW2 3423   4.543   5.116   0.200
  842SOL     OW 3424   4.242   6.128   4.708
  842SOL    HW1 3425   4.276   6.113   4.615
  842SOL    HW2 3426   4.319   6.126   4.772
  843SOL     OW 3427   2.395   1.665   6.848
  843SOL    HW1 3428   2.367   1.742   6.792
  843SOL    HW2 3429   2.495   1.661   6.853
  844SOL     OW 3430   6.004   0.310   1.122
  844SOL    HW1 3431   5.987   0.358   1.036
  844SOL    HW2 3432   6.016   0.377   1.196
  845SOL     OW 3433   5.292   4.587   5.185
  845SOL    HW1 3434   5.317   4.504   5.135
  845SOL    HW2 3435   5.196   4.582   5.211
  846SOL     OW 3436   2.487   1.759   0.358
  846SOL    HW1 3437   2.524   1.673   0.392
  846SOL    HW2 3438   2.489   1.759   0.258
  847SOL     OW 3439   1.634   3.933   0.850
  847SOL    HW1 3440   1.541   3.906   0.825
  847SOL    HW2 3441   1.669   3.871   0.920
  848SOL     OW 3442   6.050   0.768   6.843
  848SOL    HW1 3443   6.000   0.752   6.757
  848SOL    HW2 3444   6.023   0.856   6.881
  849SOL     OW 3445   0.508   4.934   5.566
  849SOL    HW1 3446   0.456   4.941   5.480
  849SOL    HW2 3447   0.484   5.011   5.625
  850SOL     OW 3448   5.761   1.297   4.392
  850SOL    HW1 3449   5.838   1.286   4.329
  850SOL    HW2 3450   5.687   1.236   4.366
  851SOL     OW 3451   0.662   1.240   2.305
  851SOL    HW1 3452   0.566   1.222   2.326
  851SOL    HW2 3453   0.715   1.243   2.390
  852SOL     OW 3454   0.981   2.429   0.537
  852SOL    HW1 3455   1.063   2.384   0.571
  852SOL    HW2 3456   0.904   2.364   0.538
  853SOL     OW 3457   1.860   4.294   2.366
  853SOL    HW1 3458   1.874   4.197   2.389
  853SOL    HW2 3459   1.762   4.310   2.352
  854SOL     OW 3460   4.613   6.110   1.931
  854SOL    HW1 3461   4.692   6.070   1.885
  854SOL    HW2 3462   4.643   6.185   1.990
  855SOL     OW 3463   0.537   0.395   1.264
  855SOL    HW1 3464   0.441   0.405   1.238
  855SOL    HW2 3465   0.569   0.304   1.240
  856SOL     OW 3466   1.598   1.621   5.391
  856SOL    HW1 3467   1.683   1.583   5.355
  856SOL    HW2 3468   1.610   1.717   5.414
  857SOL     OW 3469   6.224   4.484   2.387
  857SOL    HW1 3470   6.127   4.464   2.375
  857SOL    HW2 3471   6.240   4.582   2.379
  858SOL     OW 3472   2.766   4.036   1.410
  858SOL    HW1 3473   2.856   4.078   1.417
  858SOL    HW2 3474   2.735   4.038   1.314
  859SOL     OW 3475   4.847   5.828   6.442
  859SOL    HW1 3476   4.939   5.798   6.466
  859SOL    HW2 3477   4.794   5.750   6.409
  860SOL     OW 3478   4.290   4.146   0.271
  860SOL    HW1 3479   4.191   4.140   0.284
  860SOL    HW2 3480   4.321   4.068   0.216
  861SOL     OW 3481   3.000   0.493   4.143
  861SOL    HW1 3482   3.088   0.526   4.179
  861SOL    HW2 3483   2.927   0.555   4.171
  862SOL     OW 3484   0.552   4.017   5.795
  862SOL    HW1 3485   0.558   4.107   5.838
  862SOL    HW2 3486   0.644   3.985   5.774
  863SOL     OW 3487   0.592   6.951   0.056
  863SOL    HW1 3488   0.618   7.012   0.132
  863SOL    HW2 3489   0.534   7.001   7.012
  864SOL     OW 3490   4.592   4.848   3.899
  864SOL    HW1 3491   4.634   4.758   3.889
  864SOL    HW2 3492   4.526   4.862   3.825
  865SOL     OW 3493   1.763   6.438   6.033
  865SOL    HW1 3494   1.725   6.361   6.085
  865SOL    HW2 3495   1.862   6.442   6.046
  866SOL     OW 3496   1.650   2.484   1.630
  866SOL    HW1 3497   1.565   2.495   1.579
  866SOL    HW2 3498   1.727   2.521   1.577
  867SOL     OW 3499   4.132   3.095   0.890
  867SOL    HW1 3500   4.136   3.037   0.808
  867SOL    HW2 3501   4.102   3.039   0.968
  868SOL     OW 3502   5.974   6.992   1.256
  868SOL    HW1 3503   5.901   6.923   1.262
  868SOL    HW2 3504   5.935   0.062   1.275
  869SOL     OW 3505   6.510   5.374   3.228
  869SOL    HW1 3506   6.444   5.301   3.212
  869SOL    HW2 3507   6.460   5.459   3.248
  870SOL     OW 3508   5.448   3.562   0.785
  870SOL    HW1 3509   5.375   3.556   0.853
  870SOL    HW2 3510   5.524   3.616   0.823
  871SOL     OW 3511   5.249   3.854   3.110
  871SOL    HW1 3512   5.323   3.911   3.145
  871SOL    HW2 3513   5.162   3.884   3.149
  872SOL     OW 3514   6.086   4.701   3.926
  872SOL    HW1 3515   5.993   4.728   3.899
  872SOL    HW2 3516   6.128   4.649   3.852
  873SOL     OW 3517   5.606   6.810   3.899
  873SOL    HW1 3518   5.595   6.909   3.891
  873SOL    HW2 3519   5.577   6.765   3.815
  874SOL     OW 3520   0.942   4.665   5.081
  874SOL    HW1 3521   0.978   4.669   5.174
  874SOL    HW2 3522   0.947   4.755   5.039
  875SOL     OW 3523   4.072   2.876   0.718
  875SOL    HW1 3524   3.992   2.867   0.659
  875SOL    HW2 3525   4.136   2.802   0.699
  876SOL     OW 3526   0.229   5.633   3.148
  876SOL    HW1 3527   0.306   5.667   3.202
  876SOL    HW2 3528   0.143   5.657   3.193
  877SOL     OW 3529   3.759   4.295   0.260
  877SOL    HW1 3530   3.777   4.219   0.197
  877SOL    HW2 3531   3.726   4.374   0.208
  878SOL     OW 3532   4.346   6.123   5.381
  878SOL    HW1 3533   4.419   6.079   5.328
  878SOL    HW2 3534   4.344   6.085   5.473
  879SOL     OW 3535   3.057   2.092   1.989
  879SOL    HW1 3536   3.003   2.017   2.029
  879SOL    HW2 3537   3.001   2.174   1.982
  880SOL     OW 3538   3.164   4.380   6.044
  880SOL    HW1 3539   3.138   4.411   5.952
  880SOL    HW2 3540   3.082   4.361   6.097
  881SOL     OW 3541   4.359   4.615   5.453
  881SOL    HW1 3542   4.355   4.521   5.485
  881SOL    HW2 3543   4.390   4.674   5.527
  882SOL     OW 3544   1.458   1.311   4.335
  882SOL    HW1 3545   1.456   1.410   4.328
  882SOL    HW2 3546   1.366   1.274   4.324
  883SOL     OW 3547   4.648   5.391   5.914
  883SOL    HW1 3548   4.721   5.400   5.847
  883SOL    HW2 3549   4.640   5.295   5.941
  884SOL     OW 3550   0.151   3.130   0.479
  884SOL    HW1 3551   0.163   3.213   0.425
  884SOL    HW2 3552   0.058   3.126   0.514
  885SOL     OW 3553   5.050   6.391   0.060
  885SOL    HW1 3554   4.992   6.426   7.006
  885SOL    HW2 3555   5.106   6.316   0.025
  886SOL     OW 3556   3.296   0.401   0.712
  886SOL    HW1 3557   3.196   0.396   0.708
  886SOL    HW2 3558   3.330   0.342   0.785
  887SOL     OW 3559   4.501   0.207   4.475
  887SOL    HW1 3560   4.573   0.159   4.425
  887SOL    HW2 3561   4.514   0.194   4.573
  888SOL     OW 3562   5.867   6.821   3.055
  888SOL    HW1 3563   5.772   6.818   3.089
  888SOL    HW2 3564   5.925   6.866   3.123
  889SOL     OW 3565   1.465   6.458   5.172
  889SOL    HW1 3566   1.421   6.381   5.126
  889SOL    HW2 3567   1.487   6.529   5.106
  890SOL     OW 3568   2.165   4.915   2.192
  890SOL    HW1 3569   2.090   4.891   2.254
  890SOL    HW2 3570   2.240   4.955   2.245
  891SOL     OW 3571   6.470   3.888   1.685
  891SOL    HW1 3572   6.374   3.893   1.713
  891SOL    HW2 3573   6.477   3.838   1.599
  892SOL     OW 3574   4.320   3.931   0.019
  892SOL    HW1 3575   4.278   4.014   7.000
  892SOL    HW2 3576   4.373   3.885   6.968
  893SOL     OW 3577   2.283   1.126   2.301
  893SOL    HW1 3578   2.235   1.041   2.322
  893SOL    HW2 3579   2.369   1.106   2.254
  894SOL     OW 3580   1.523   2.417   4.369
  894SOL    HW1 3581   1.584   2.340   4.347
  894SOL    HW2 3582   1.454   2.427   4.298
  895SOL     OW 3583   1.788   5.337   4.687
  895SOL    HW1 3584   1.717   5.292   4.632
  895SOL    HW2 3585   1.866   5.276   4.698
  896SOL     OW 3586   5.152   0.091   2.122
  896SOL    HW1 3587   5.179   0.011   2.176
  896SOL    HW2 3588   5.065   0.126   2.155
  897SOL     OW 3589   5.755   1.017   0.019
  897SOL    HW1 3590   5.745   0.919   0.035
  897SOL    HW2 3591   5.851   1.042   0.025
  898SOL     OW 3592   4.504   5.701   2.717
  898SOL    HW1 3593   4.524   5.625   2.779
  898SOL    HW2 3594   4.405   5.717   2.714
  899SOL     OW 3595   6.810   4.795   0.160
  899SOL    HW1 3596   6.887   4.834   0.209
  899SOL    HW2 3597   6.832   4.701   0.134
  900SOL     OW 3598   5.127   6.867   1.678
  900SOL    HW1 3599   5.053   6.887   1.742
  900SOL    HW2 3600   5.091   6.817   1.599
  901SOL     OW 3601   0.917   1.101   5.561
  901SOL    HW1 3602   0.996   1.086   5.621
  901SOL    HW2 3603   0.840   1.046   5.593
  902SOL     OW 3604   0.328   2.599   6.274
  902SOL    HW1 3605   0.355   2.518   6.221
  902SOL    HW2 3606   0.344   2.581   6.371
  903SOL     OW 3607   6.849   4.095   6.276
  903SOL    HW1 3608   6.759   4.055   6.264
  903SOL    HW2 3609   6.916   4.023   6.294
  904SOL     OW 3610   1.451   1.850   3.872
  904SOL    HW1 3611   1.522   1.822   3.807
  904SOL    HW2 3612   1.395   1.922   3.832
  905SOL     OW 3613   4.268   3.367   6.174
  905SOL    HW1 3614   4.186   3.420   6.195
  905SOL    HW2 3615   4.243   3.273   6.154
  906SOL     OW 3616   0.120   4.024   5.743
  906SOL    HW1 3617   0.208   3.989   5.774
  906SOL    HW2 3618   0.107   4.116   5.780
  907SOL     OW 3619   5.557   3.082   3.377
  907SOL    HW1 3620   5.635   3.107   3.320
  907SOL    HW2 3621   5.542   2.983   3.370
  908SOL     OW 3622   1.873   6.369   3.668
  908SOL    HW1 3623   1.861   6.276   3.703
  908SOL    HW2 3624   1.785   6.405   3.637
  909SOL     OW 3625   2.273   6.617   1.306
  909SOL    HW1 3626   2.192   6.665   1.273
  909SOL    HW2 3627   2.352   6.641   1.250
  910SOL     OW 3628   2.534   0.220   0.716
  910SOL    HW1 3629   2.463   0.240   0.648
  910SOL    HW2 3630   2.539   0.295   0.782
  911SOL     OW 3631   0.007   5.797   1.052
  911SOL    HW1 3632   6.932   5.784   1.022
  911SOL    HW2 3633   0.040   5.711   1.092
  912SOL     OW 3634   6.595   1.216   4.788
  912SOL    HW1 3635   6.631   1.301   4.750
  912SOL    HW2 3636   6.531   1.237   4.861
  913SOL     OW 3637   2.018   0.086   2.829
  913SOL    HW1 3638   2.020   0.186   2.827
  913SOL    HW2 3639   2.072   0.050   2.752
  914SOL     OW 3640   2.615   5.583   5.010
  914SOL    HW1 3641   2.554   5.660   4.993
  914SOL    HW2 3642   2.570   5.498   4.983
  915SOL     OW 3643   1.334   3.214   0.224
  915SOL    HW1 3644   1.423   3.247   0.258
  915SOL    HW2 3645   1.266   3.286   0.236
  916SOL     OW 3646   1.550   2.866   2.129
  916SOL    HW1 3647   1.478   2.934   2.116
  916SOL    HW2 3648   1.637   2.903   2.096
  917SOL     OW 3649   5.289   0.632   1.358
  917SOL    HW1 3650   5.241   0.552   1.393
  917SOL    HW2 3651   5.324   0.613   1.267
  918SOL     OW 3652   2.599   6.021   6.906
  918SOL    HW1 3653   2.694   5.992   6.892
  918SOL    HW2 3654   2.568   6.071   6.825
  919SOL     OW 3655   6.802   5.761   2.508
  919SOL    HW1 3656   6.818   5.772   2.410
  919SOL    HW2 3657   6.835   5.671   2.537
  920SOL     OW 3658   1.468   6.902   3.435
  920SOL    HW1 3659   1.496   6.982   3.383
  920SOL    HW2 3660   1.378   6.919   3.476
  921SOL     OW 3661   4.933   4.673   4.251
  921SOL    HW1 3662   4.971   4.624   4.173
  921SOL    HW2 3663   4.861   4.735   4.220
  922SOL     OW 3664   3.338   2.938   7.005
  922SOL    HW1 3665   3.319   2.843   0.010
  922SOL    HW2 3666   3.253   2.984   6.981
  923SOL     OW 3667   3.109   5.035   6.425
  923SOL    HW1 3668   3.070   4.943   6.423
  923SOL    HW2 3669   3.063   5.089   6.495
  924SOL     OW 3670   6.146   2.941   2.064
  924SOL    HW1 3671   6.072   3.002   2.092
  924SOL    HW2 3672   6.128   2.849   2.099
  925SOL     OW 3673   6.535   1.746   5.221
  925SOL    HW1 3674   6.582   1.716   5.304
  925SOL    HW2 3675   6.456   1.687   5.205
  926SOL     OW 3676   6.315   0.946   6.977
  926SOL    HW1 3677   6.348   0.980   0.046
  926SOL    HW2 3678   6.352   0.855   6.961
  927SOL     OW 3679   5.364   4.385   3.800
  927SOL    HW1 3680   5.348   4.286   3.798
  927SOL    HW2 3681   5.454   4.405   3.762
  928SOL     OW 3682   1.933   0.440   0.276
  928SOL    HW1 3683   1.879   0.373   0.225
  928SOL    HW2 3684   1.990   0.493   0.214
  929SOL     OW 3685   0.608   1.695   0.628
  929SOL    HW1 3686   0.530   1.710   0.689
  929SOL    HW2 3687   0.611   1.768   0.560
  930SOL     OW 3688   5.718   5.709   4.699
  930SOL    HW1 3689   5.752   5.630   4.750
  930SOL    HW2 3690   5.778   5.787   4.714
  931SOL     OW 3691   6.033   3.791   3.314
  931SOL    HW1 3692   6.000   3.844   3.236
  931SOL    HW2 3693   6.003   3.834   3.399
  932SOL     OW 3694   2.237   0.186   1.712
  932SOL    HW1 3695   2.153   0.169   1.764
  932SOL    HW2 3696   2.241   0.124   1.634
  933SOL     OW 3697   0.703   5.540   2.601
  933SOL    HW1 3698   0.803   5.531   2.593
  933SOL    HW2 3699   0.682   5.601   2.677
  934SOL     OW 3700   1.882   0.501   4.618
  934SOL    HW1 3701   1.805   0.458   4.571
  934SOL    HW2 3702   1.958   0.437   4.623
  935SOL     OW 3703   5.157   3.598   5.145
  935SOL    HW1 3704   5.082   3.557   5.092
  935SOL    HW2 3705   5.119   3.639   5.228
  936SOL     OW 3706   1.555   0.848   6.359
  936SOL    HW1 3707   1.528   0.926   6.415
  936SOL    HW2 3708   1.495   0.771   6.378
  937SOL     OW 3709   4.806   1.992   5.038
  937SOL    HW1 3710   4.766   1.901   5.039
  937SOL    HW2 3711   4.901   1.988   5.066
  938SOL     OW 3712   0.203   5.095   6.638
  938SOL    HW1 3713   0.263   5.168   6.604
  938SOL    HW2 3714   0.239   5.006   6.610
  939SOL     OW 3715   4.907   1.680   5.004
  939SOL    HW1 3716   4.832   1.650   5.062
  939SOL    HW2 3717   4.993   1.640   5.036
  940SOL     OW 3718   0.219   3.141   2.675
  940SOL    HW1 3719   0.262   3.116   2.588
  940SOL    HW2 3720   0.262   3.225   2.710
  941SOL     OW 3721   6.525   0.641   4.412
  941SOL    HW1 3722   6.601   0.603   4.359
  941SOL    HW2 3723   6.513   0.588   4.496
  942SOL     OW 3724   4.875   1.039   4.084
  942SOL    HW1 3725   4.962   1.042   4.036
  942SOL    HW2 3726   4.891   1.022   4.181
  943SOL     OW 3727   1.305   2.800   3.800
  943SOL    HW1 3728   1.304   2.878   3.738
  943SOL    HW2 3729   1.243   2.730   3.766
  944SOL     OW 3730   6.538   3.503   6.069
  944SOL    HW1 3731   6.513   3.569   6.140
  944SOL    HW2 3732   6.455   3.461   6.032
  945SOL     OW 3733   6.690   4.113   5.835
  945SOL    HW1 3734   6.763   4.099   5.902
  945SOL    HW2 3735   6.639   4.027   5.822
  946SOL     OW 3736   5.186   2.449   6.114
  946SOL    HW1 3737   5.087   2.430   6.114
  946SOL    HW2 3738   5.209   2.501   6.196
  947SOL     OW 3739   3.320   2.958   4.614
  947SOL    HW1 3740   3.269   2.943   4.698
  947SOL    HW2 3741   3.418   2.949   4.632
  948SOL     OW 3742   4.282   0.468   0.772
  948SOL    HW1 3743   4.228   0.475   0.688
  948SOL    HW2 3744   4.222   0.450   0.850
  949SOL     OW 3745   6.949   6.188   6.573
  949SOL    HW1 3746   7.018   6.218   6.639
  949SOL    HW2 3747   6.961   6.239   6.488
  950SOL     OW 3748   4.118   5.035   1.763
  950SOL    HW1 3749   4.141   5.029   1.666
  950SOL    HW2 3750   4.202   5.044   1.816
  951SOL     OW 3751   1.450   1.212   2.620
  951SOL    HW1 3752   1.426   1.141   2.687
  951SOL    HW2 3753   1.367   1.248   2.578
  952SOL     OW 3754   5.954   2.029   2.032
  952SOL    HW1 3755   5.998   2.114   2.002
  952SOL    HW2 3756   5.955   1.963   1.957
  953SOL     OW 3757   5.209   6.216   5.253
  953SOL    HW1 3758   5.300   6.177   5.264
  953SOL    HW2 3759   5.195   6.287   5.321
  954SOL     OW 3760   4.960   5.682   0.781
  954SOL    HW1 3761   4.995   5.605   0.728
  954SOL    HW2 3762   5.022   5.700   0.858
  955SOL     OW 3763   6.919   4.805   3.483
  955SOL    HW1 3764   6.852   4.877   3.504
  955SOL    HW2 3765   6.944   4.810   3.386
  956SOL     OW 3766   0.953   2.054   2.097
  956SOL    HW1 3767   0.954   2.093   2.006
  956SOL    HW2 3768   0.882   2.098   2.152
  957SOL     OW 3769   1.065   4.833   4.721
  957SOL    HW1 3770   0.997   4.864   4.788
  957SOL    HW2 3771   1.157   4.846   4.758
  958SOL     OW 3772   4.597   2.573   1.899
  958SOL    HW1 3773   4.501   2.573   1.925
  958SOL    HW2 3774   4.605   2.597   1.802
  959SOL     OW 3775   2.773   4.794   3.105
  959SOL    HW1 3776   2.767   4.783   3.006
  959SOL    HW2 3777   2.715   4.725   3.150
  960SOL     OW 3778   0.167   5.686   3.661
  960SOL    HW1 3779   0.085   5.649   3.703
  960SOL    HW2 3780   0.185   5.778   3.696
  961SOL     OW 3781   5.161   0.140   3.297
  961SOL    HW1 3782   5.085   0.190   3.255
  961SOL    HW2 3783   5.130   0.050   3.326
  962SOL     OW 3784   2.029   1.073   4.302
  962SOL    HW1 3785   2.066   1.165   4.296
  962SOL    HW2 3786   1.943   1.074   4.353
  963SOL     OW 3787   6.479   1.596   5.840
  963SOL    HW1 3788   6.389   1.625   5.871
  963SOL    HW2 3789   6.490   1.498   5.855
  964SOL     OW 3790   6.459   3.693   0.887
  964SOL    HW1 3791   6.425   3.684   0.793
  964SOL    HW2 3792   6.394   3.651   0.950
  965SOL     OW 3793   5.416   2.102   1.125
  965SOL    HW1 3794   5.496   2.042   1.129
  965SOL    HW2 3795   5.383   2.108   1.031
  966SOL     OW 3796   5.609   2.069   2.546
  966SOL    HW1 3797   5.650   2.060   2.455
  966SOL    HW2 3798   5.536   2.002   2.556
  967SOL     OW 3799   2.514   4.951   1.468
  967SOL    HW1 3800   2.519   4.967   1.369
  967SOL    HW2 3801   2.418   4.941   1.495
  968SOL     OW 3802   4.653   2.613   2.318
  968SOL    HW1 3803   4.657   2.614   2.417
  968SOL    HW2 3804   4.686   2.700   2.281
  969SOL     OW 3805   4.359   6.196   6.778
  969SOL    HW1 3806   4.403   6.181   6.867
  969SOL    HW2 3807   4.273   6.245   6.790
  970SOL     OW 3808   4.779   1.331   4.700
  970SOL    HW1 3809   4.709   1.274   4.742
  970SOL    HW2 3810   4.767   1.426   4.729
  971SOL     OW 3811   0.341   1.943   2.688
  971SOL    HW1 3812   0.278   1.912   2.617
  971SOL    HW2 3813   0.432   1.905   2.672
  972SOL     OW 3814   5.342   4.236   1.299
  972SOL    HW1 3815   5.295   4.150   1.321
  972SOL    HW2 3816   5.406   4.259   1.372
  973SOL     OW 3817   6.884   4.124   0.204
  973SOL    HW1 3818   6.829   4.099   0.124
  973SOL    HW2 3819   6.958   4.057   0.216
  974SOL     OW 3820   4.971   0.274   2.283
  974SOL    HW1 3821   5.009   0.293   2.374
  974SOL    HW2 3822   4.898   0.339   2.263
  975SOL     OW 3823   1.906   5.932   6.251
  975SOL    HW1 3824   1.847   5.982   6.188
  975SOL    HW2 3825   1.978   5.885   6.200
  976SOL     OW 3826   6.606   2.763   2.273
  976SOL    HW1 3827   6.517   2.792   2.308
  976SOL    HW2 3828   6.671   2.755   2.349
  977SOL     OW 3829   1.905   0.921   4.036
  977SOL    HW1 3830   1.842   0.993   4.010
  977SOL    HW2 3831   1.927   0.928   4.133
  978SOL     OW 3832   4.329   4.354   5.472
  978SOL    HW1 3833   4.330   4.292   5.551
  978SOL    HW2 3834   4.241   4.346   5.425
  979SOL     OW 3835   6.865   1.946   1.548
  979SOL    HW1 3836   6.829   1.860   1.514
  979SOL    HW2 3837   6.926   1.986   1.480
  980SOL     OW 3838   4.103   2.128   4.010
  980SOL    HW1 3839   4.198   2.116   4.038
  980SOL    HW2 3840   4.087   2.078   3.925
  981SOL     OW 3841   1.736   1.417   5.042
  981SOL    HW1 3842   1.714   1.493   4.980
  981SOL    HW2 3843   1.798   1.353   4.995
  982SOL     OW 3844   2.855   1.544   2.904
  982SOL    HW1 3845   2.831   1.544   3.001
  982SOL    HW2 3846   2.940   1.492   2.890
  983SOL     OW 3847   5.679   2.587   3.810
  983SOL    HW1 3848   5.714   2.538   3.729
  983SOL    HW2 3849   5.581   2.570   3.818
  984SOL     OW 3850   2.905   1.216   3.682
  984SOL    HW1 3851   2.806   1.208   3.670
  984SOL    HW2 3852   2.951   1.139   3.638
  985SOL     OW 3853   4.873   4.749   6.417
  985SOL    HW1 3854   4.810   4.671   6.415
  985SOL    HW2 3855   4.966   4.716   6.433
  986SOL     OW 3856   5.357   4.181   0.395
  986SOL    HW1 3857   5.287   4.132   0.446
  986SOL    HW2 3858   5.445   4.171   0.441
  987SOL     OW 3859   4.727   6.696   1.719
  987SOL    HW1 3860   4.733   6.704   1.819
  987SOL    HW2 3861   4.811   6.731   1.678
  988SOL     OW 3862   3.505   3.123   2.177
  988SOL    HW1 3863   3.409   3.124   2.202
  988SOL    HW2 3864   3.527   3.037   2.129
  989SOL     OW 3865   6.214   1.233   5.481
  989SOL    HW1 3866   6.170   1.320   5.501
  989SOL    HW2 3867   6.232   1.227   5.383
  990SOL     OW 3868   4.520   1.055   1.947
  990SOL    HW1 3869   4.565   1.032   2.033
  990SOL    HW2 3870   4.435   1.104   1.966
  991SOL     OW 3871   1.752   2.698   5.219
  991SOL    HW1 3872   1.820   2.629   5.243
  991SOL    HW2 3873   1.786   2.752   5.142
  992SOL     OW 3874   1.163   3.221   1.402
  992SOL    HW1 3875   1.237   3.263   1.348
  992SOL    HW2 3876   1.131   3.139   1.355
  993SOL     OW 3877   1.159   4.569   1.819
  993SOL    HW1 3878   1.104   4.486   1.809
  993SOL    HW2 3879   1.251   4.545   1.849
  994SOL     OW 3880   3.205   3.814   3.088
  994SOL    HW1 3881   3.270   3.868   3.141
  994SOL    HW2 3882   3.223   3.826   2.990
  995SOL     OW 3883   3.452   2.960   6.565
  995SOL    HW1 3884   3.509   2.879   6.580
  995SOL    HW2 3885   3.467   2.995   6.472
  996SOL     OW 3886   1.951   4.529   4.634
  996SOL    HW1 3887   1.870   4.574   4.672
  996SOL    HW2 3888   2.007   4.494   4.708
  997SOL     OW 3889   6.894   0.717   2.605
  997SOL    HW1 3890   6.811   0.724   2.549
  997SOL    HW2 3891   6.885   0.775   2.685
  998SOL     OW 3892   4.421   6.630   4.120
  998SOL    HW1 3893   4.437   6.558   4.187
  998SOL    HW2 3894   4.461   6.716   4.152
  999SOL     OW 3895   5.442   4.750   1.991
  999SOL    HW1 3896   5.518   4.723   2.050
  999SOL    HW2 3897   5.367   4.784   2.048
 1000SOL     OW 3898   1.026   0.961   2.090
 1000SOL    HW1 3899   1.034   1.044   2.146
 1000SOL    HW2 3900   1.077   0.887   2.132
 1001SOL     OW 3901   5.766   6.999   0.594
 1001SOL    HW1 3902   5.699   7.002   0.668
 1001SOL    HW2 3903   5.822   6.917   0.602
 1002SOL     OW 3904   6.376   2.207   6.785
 1002SOL    HW1 3905   6.403   2.301   6.806
 1002SOL    HW2 3906   6.284   2.207   6.746
 1003SOL     OW 3907   2.230   6.395   1.443
 1003SOL    HW1 3908   2.233   6.454   1.363
 1003SOL    HW2 3909   2.211   6.449   1.524
 1004SOL     OW 3910   0.340   0.247   1.585
 1004SOL    HW1 3911   0.362   0.199   1.500
 1004SOL    HW2 3912   0.241   0.257   1.593
 1005SOL     OW 3913   0.641   1.454   3.019
 1005SOL    HW1 3914   0.665   1.450   2.922
 1005SOL    HW2 3915   0.545   1.479   3.028
 1006SOL     OW 3916   1.860   5.094   1.097
 1006SOL    HW1 3917   1.769   5.135   1.111
 1006SOL    HW2 3918   1.868   5.012   1.155
 1007SOL     OW 3919   5.377   0.112   4.208
 1007SOL    HW1 3920   5.324   0.186   4.251
 1007SOL    HW2 3921   5.319   0.031   4.198
 1008SOL     OW 3922   2.109   3.128   5.162
 1008SOL    HW1 3923   2.178   3.123   5.234
 1008SOL    HW2 3924   2.137   3.072   5.084
 1009SOL     OW 3925   0.080   6.370   4.570
 1009SOL    HW1 3926   7.010   6.340   4.539
 1009SOL    HW2 3927   0.107   6.451   4.519
 1010SOL     OW 3928   3.459   2.191   6.031
 1010SOL    HW1 3929   3.370   2.236   6.030
 1010SOL    HW2 3930   3.470   2.138   6.115
 1011SOL     OW 3931   2.561   5.305   2.410
 1011SOL    HW1 3932   2.561   5.207   2.393
 1011SOL    HW2 3933   2.467   5.340   2.409
 1012SOL     OW 3934   6.497   7.008   0.556
 1012SOL    HW1 3935   6.433   6.995   0.632
 1012SOL    HW2 3936   6.547   6.923   0.540
 1013SOL     OW 3937   1.008   1.507   6.051
 1013SOL    HW1 3938   1.026   1.586   5.993
 1013SOL    HW2 3939   1.031   1.529   6.146
 1014SOL     OW 3940   4.844   5.955   6.815
 1014SOL    HW1 3941   4.858   6.033   6.754
 1014SOL    HW2 3942   4.788   5.984   6.893
 1015SOL     OW 3943   2.157   6.233   5.466
 1015SOL    HW1 3944   2.111   6.313   5.426
 1015SOL    HW2 3945   2.088   6.169   5.500
 1016SOL     OW 3946   3.305   3.497   0.244
 1016SOL    HW1 3947   3.401   3.498   0.216
 1016SOL    HW2 3948   3.257   3.423   0.197
 1017SOL     OW 3949   4.316   2.780   1.247
 1017SOL    HW1 3950   4.259   2.774   1.165
 1017SOL    HW2 3951   4.275   2.845   1.312
 1018SOL     OW 3952   1.402   3.297   4.562
 1018SOL    HW1 3953   1.445   3.347   4.487
 1018SOL    HW2 3954   1.462   3.296   4.641
 1019SOL     OW 3955   0.687   0.215   6.931
 1019SOL    HW1 3956   0.651   0.223   6.838
 1019SOL    HW2 3957   0.781   0.183   6.928
 1020SOL     OW 3958   1.034   6.631   1.105
 1020SOL    HW1 3959   1.030   6.708   1.169
 1020SOL    HW2 3960   1.025   6.545   1.155
 1021SOL     OW 3961   5.770   1.423   1.363
 1021SOL    HW1 3962   5.857   1.416   1.411
 1021SOL    HW2 3963   5.748   1.335   1.320
 1022SOL     OW 3964   3.919   4.424   5.940
 1022SOL    HW1 3965   3.954   4.387   5.854
 1022SOL    HW2 3966   3.947   4.519   5.949
 1023SOL     OW 3967   0.339   6.868   1.883
 1023SOL    HW1 3968   0.431   6.874   1.844
 1023SOL    HW2 3969   0.344   6.855   1.982
 1024SOL     OW 3970   6.084   3.650   3.958
 1024SOL    HW1 3971   6.038   3.603   4.032
 1024SOL    HW2 3972   6.183   3.646   3.972
 1025SOL     OW 3973   3.298   3.519   0.780
 1025SOL    HW1 3974   3.293   3.428   0.821
 1025SOL    HW2 3975   3.348   3.514   0.693
 1026SOL     OW 3976   2.365   2.758   1.654
 1026SOL    HW1 3977   2.380   2.839   1.598
 1026SOL    HW2 3978   2.271   2.725   1.642
 1027SOL     OW 3979   2.865   6.183   0.828
 1027SOL    HW1 3980   2.894   6.252   0.894
 1027SOL    HW2 3981   2.774   6.149   0.854
 1028SOL     OW 3982   3.886   5.905   0.274
 1028SOL    HW1 3983   3.877   5.831   0.341
 1028SOL    HW2 3984   3.813   5.898   0.206
 1029SOL     OW 3985   1.340   0.629   6.966
 1029SOL    HW1 3986   1.270   0.684   7.011
 1029SOL    HW2 3987   1.303   0.590   6.882
 1030SOL     OW 3988   3.735   3.943   1.617
 1030SOL    HW1 3989   3.675   4.023   1.623
 1030SOL    HW2 3990   3.791   3.950   1.534
 1031SOL     OW 3991   5.080   5.424   1.009
 1031SOL    HW1 3992   5.096   5.481   0.929
 1031SOL    HW2 3993   5.000   5.366   0.994
 1032SOL     OW 3994   1.750   1.664   4.893
 1032SOL    HW1 3995   1.788   1.751   4.859
 1032SOL    HW2 3996   1.701   1.680   4.978
 1033SOL     OW 3997   1.464   6.147   1.084
 1033SOL    HW1 3998   1.514   6.234   1.086
 1033SOL    HW2 3999   1.462   6.111   0.990
 1034SOL     OW 4000   0.607   5.772   4.851
 1034SOL    HW1 4001   0.616   5.809   4.758
 1034SOL    HW2 4002   0.698   5.754   4.888
 1035SOL     OW 4003   1.176   0.910   3.263
 1035SOL    HW1 4004   1.134   1.000   3.278
 1035SOL    HW2 4005   1.253   0.898   3.326
 1036SOL     OW 4006   3.004   0.810   1.970
 1036SOL    HW1 4007   3.008   0.713   1.946
 1036SOL    HW2 4008   2.910   0.835   1.992
 1037SOL     OW 4009   2.019   0.911   1.114
 1037SOL    HW1 4010   1.963   0.991   1.090
 1037SOL    HW2 4011   2.115   0.930   1.093
 1038SOL     OW 4012   1.014   0.328   5.441
 1038SOL    HW1 4013   1.024   0.308   5.343
 1038SOL    HW2 4014   0.922   0.364   5.458
 1039SOL     OW 4015   2.872   2.656   5.820
 1039SOL    HW1 4016   2.848   2.687   5.728
 1039SOL    HW2 4017   2.966   2.684   5.840
 1040SOL     OW 4018   4.795   2.832   2.220
 1040SOL    HW1 4019   4.763   2.887   2.143
 1040SOL    HW2 4020   4.883   2.790   2.196
 1041SOL     OW 4021   6.289   6.853   4.134
 1041SOL    HW1 4022   6.215   6.893   4.080
 1041SOL    HW2 4023   6.334   6.924   4.187
 1042SOL     OW 4024   3.603   4.902   2.198
 1042SOL    HW1 4025   3.513   4.944   2.188
 1042SOL    HW2 4026   3.622   4.845   2.118
 1043SOL     OW 4027   4.405   1.506   5.210
 1043SOL    HW1 4028   4.399   1.587   5.152
 1043SOL    HW2 4029   4.403   1.424   5.153
 1044SOL     OW 4030   4.941   4.424   2.220
 1044SOL    HW1 4031   5.011   4.386   2.281
 1044SOL    HW2 4032   4.921   4.518   2.248
 1045SOL     OW 4033   2.845   6.128   2.725
 1045SOL    HW1 4034   2.885   6.060   2.664
 1045SOL    HW2 4035   2.833   6.088   2.816
 1046SOL     OW 4036   1.262   6.827   0.523
 1046SOL    HW1 4037   1.348   6.870   0.553
 1046SOL    HW2 4038   1.204   6.811   0.603
 1047SOL     OW 4039   0.980   6.160   2.315
 1047SOL    HW1 4040   1.065   6.178   2.365
 1047SOL    HW2 4041   0.921   6.240   2.319
 1048SOL     OW 4042   5.236   6.243   5.860
 1048SOL    HW1 4043   5.150   6.289   5.881
 1048SOL    HW2 4044   5.220   6.145   5.852
 1049SOL     OW 4045   6.577   4.991   3.963
 1049SOL    HW1 4046   6.545   4.902   3.994
 1049SOL    HW2 4047   6.524   5.063   4.007
 1050SOL     OW 4048   3.508   5.591   0.246
 1050SOL    HW1 4049   3.473   5.617   0.156
 1050SOL    HW2 4050   3.494   5.666   0.310
 1051SOL     OW 4051   2.632   5.303   1.172
 1051SOL    HW1 4052   2.576   5.375   1.213
 1051SOL    HW2 4053   2.676   5.339   1.090
 1052SOL     OW 4054   3.887   0.319   4.139
 1052SOL    HW1 4055   3.967   0.348   4.190
 1052SOL    HW2 4056   3.839   0.248   4.190
 1053SOL     OW 4057   5.138   5.274   3.617
 1053SOL    HW1 4058   5.162   5.326   3.535
 1053SOL    HW2 4059   5.039   5.276   3.629
 1054SOL     OW 4060   2.314   3.817   5.688
 1054SOL    HW1 4061   2.223   3.778   5.674
 1054SOL    HW2 4062   2.374   3.790   5.613
 1055SOL     OW 4063   6.002   6.569   4.112
 1055SOL    HW1 4064   6.068   6.600   4.043
 1055SOL    HW2 4065   5.920   6.626   4.108
 1056SOL     OW 4066   1.341   5.287   6.019
 1056SOL    HW1 4067   1.356   5.200   6.066
 1056SOL    HW2 4068   1.425   5.314   5.971
 1057SOL     OW 4069   3.924   3.468   3.033
 1057SOL    HW1 4070   3.997   3.514   3.083
 1057SOL    HW2 4071   3.923   3.501   2.939
 1058SOL     OW 4072   5.089   1.747   2.163
 1058SOL    HW1 4073   5.134   1.756   2.252
 1058SOL    HW2 4074   5.144   1.688   2.103
 1059SOL     OW 4075   2.213   6.981   1.501
 1059SOL    HW1 4076   2.256   6.946   1.418
 1059SOL    HW2 4077   2.121   7.013   1.481
 1060SOL     OW 4078   0.250   3.672   4.185
 1060SOL    HW1 4079   0.218   3.695   4.093
 1060SOL    HW2 4080   0.220   3.580   4.209
 1061SOL     OW 4081   5.275   3.954   1.870
 1061SOL    HW1 4082   5.256   4.047   1.903
 1061SOL    HW2 4083   5.203   3.926   1.806
 1062SOL     OW 4084   5.896   4.785   5.478
 1062SOL    HW1 4085   5.931   4.722   5.408
 1062SOL    HW2 4086   5.965   4.854   5.497
 1063SOL     OW 4087   1.394   4.411   1.839
 1063SOL    HW1 4088   1.327   4.345   1.807
 1063SOL    HW2 4089   1.451   4.369   1.910
 1064SOL     OW 4090   1.427   4.077   2.338
 1064SOL    HW1 4091   1.329   4.094   2.348
 1064SOL    HW2 4092   1.448   4.060   2.241
 1065SOL     OW 4093   4.703   0.796   4.076
 1065SOL    HW1 4094   4.775   0.863   4.091
 1065SOL    HW2 4095   4.640   0.796   4.155
 1066SOL     OW 4096   5.246   0.490   4.200
 1066SOL    HW1 4097   5.187   0.570   4.188
 1066SOL    HW2 4098   5.190   0.412   4.229
 1067SOL     OW 4099   1.463   3.283   6.994
 1067SOL    HW1 4100   1.505   3.367   0.008
 1067SOL    HW2 4101   1.409   3.241   0.047
 1068SOL     OW 4102   4.864   4.576   2.601
 1068SOL    HW1 4103   4.954   4.611   2.626
 1068SOL    HW2 4104   4.849   4.588   2.502
 1069SOL     OW 4105   4.976   5.036   1.030
 1069SOL    HW1 4106   4.888   5.018   1.074
 1069SOL    HW2 4107   5.050   5.010   1.093
 1070SOL     OW 4108   1.512   1.095   1.331
 1070SOL    HW1 4109   1.424   1.097   1.379
 1070SOL    HW2 4110   1.586   1.097   1.397
 1071SOL     OW 4111   3.178   6.570   3.444
 1071SOL    HW1 4112   3.121   6.488   3.443
 1071SOL    HW2 4113   3.220   6.580   3.534
 1072SOL     OW 4114   1.757   6.187   0.876
 1072SOL    HW1 4115   1.762   6.264   0.940
 1072SOL    HW2 4116   1.676   6.132   0.896
 1073SOL     OW 4117   3.629   6.531   2.679
 1073SOL    HW1 4118   3.591   6.455   2.732
 1073SOL    HW2 4119   3.684   6.494   2.604
 1074SOL     OW 4120   2.659   5.021   0.363
 1074SOL    HW1 4121   2.747   5.035   0.409
 1074SOL    HW2 4122   2.612   4.944   0.407
 1075SOL     OW 4123   4.479   6.388   3.848
 1075SOL    HW1 4124   4.452   6.375   3.752
 1075SOL    HW2 4125   4.412   6.446   3.894
 1076SOL     OW 4126   0.057   4.553   5.316
 1076SOL    HW1 4127   6.978   4.559   5.330
 1076SOL    HW2 4128   0.079   4.464   5.276
 1077SOL     OW 4129   5.606   0.395   0.584
 1077SOL    HW1 4130   5.706   0.391   0.590
 1077SOL    HW2 4131   5.577   0.374   0.491
 1078SOL     OW 4132   1.197   1.251   2.512
 1078SOL    HW1 4133   1.140   1.199   2.576
 1078SOL    HW2 4134   1.167   1.234   2.418
 1079SOL     OW 4135   1.616   6.125   2.173
 1079SOL    HW1 4136   1.645   6.220   2.163
 1079SOL    HW2 4137   1.692   6.071   2.208
 1080SOL     OW 4138   1.786   4.480   3.762
 1080SOL    HW1 4139   1.869   4.430   3.786
 1080SOL    HW2 4140   1.799   4.577   3.784
 1081SOL     OW 4141   7.007   6.696   5.791
 1081SOL    HW1 4142   0.076   6.706   5.747
 1081SOL    HW2 4143   6.995   6.767   5.861
 1082SOL     OW 4144   3.224   1.351   6.281
 1082SOL    HW1 4145   3.160   1.280   6.312
 1082SOL    HW2 4146   3.317   1.315   6.283
 1083SOL     OW 4147   4.040   4.205   1.066
 1083SOL    HW1 4148   3.975   4.225   1.140
 1083SOL    HW2 4149   4.036   4.108   1.043
 1084SOL     OW 4150   6.844   6.424   0.963
 1084SOL    HW1 4151   6.772   6.487   0.932
 1084SOL    HW2 4152   6.929   6.445   0.915
 1085SOL     OW 4153   1.212   4.233   3.505
 1085SOL    HW1 4154   1.233   4.331   3.510
 1085SOL    HW2 4155   1.225   4.192   3.595
 1086SOL     OW 4156   6.879   5.858   2.236
 1086SOL    HW1 4157   6.914   5.840   2.144
 1086SOL    HW2 4158   6.814   5.934   2.233
 1087SOL     OW 4159   6.359   3.334   5.952
 1087SOL    HW1 4160   6.371   3.245   5.909
 1087SOL    HW2 4161   6.264   3.364   5.941
 1088SOL     OW 4162   6.010   4.675   3.417
 1088SOL    HW1 4163   6.040   4.770   3.408
 1088SOL    HW2 4164   5.921   4.672   3.463
 1089SOL     OW 4165   1.113   0.420   4.293
 1089SOL    HW1 4166   1.145   0.374   4.376
 1089SOL    HW2 4167   1.175   0.495   4.270
 1090SOL     OW 4168   2.407   1.529   3.292
 1090SOL    HW1 4169   2.447   1.589   3.361
 1090SOL    HW2 4170   2.478   1.500   3.228
 1091SOL     OW 4171   1.794   2.824   4.974
 1091SOL    HW1 4172   1.889   2.811   4.944
 1091SOL    HW2 4173   1.736   2.843   4.894
 1092SOL     OW 4174   2.045   3.581   0.457
 1092SOL    HW1 4175   2.126   3.606   0.510
 1092SOL    HW2 4176   2.056   3.615   0.363
 1093SOL     OW 4177   1.907   1.978   2.488
 1093SOL    HW1 4178   1.842   2.007   2.418
 1093SOL    HW2 4179   1.917   1.879   2.486
 1094SOL     OW 4180   1.270   6.215   3.163
 1094SOL    HW1 4181   1.227   6.125   3.153
 1094SOL    HW2 4182   1.245   6.254   3.252
 1095SOL     OW 4183   0.143   2.392   5.601
 1095SOL    HW1 4184   0.109   2.426   5.688
 1095SOL    HW2 4185   0.185   2.467   5.550
 1096SOL     OW 4186   3.421   4.658   1.569
 1096SOL    HW1 4187   3.457   4.660   1.663
 1096SOL    HW2 4188   3.346   4.592   1.564
 1097SOL     OW 4189   1.410   3.906   4.148
 1097SOL    HW1 4190   1.455   3.949   4.227
 1097SOL    HW2 4191   1.466   3.922   4.066
 1098SOL     OW 4192   5.729   3.332   0.806
 1098SOL    HW1 4193   5.640   3.335   0.851
 1098SOL    HW2 4194   5.722   3.283   0.719
 1099SOL     OW 4195   3.860   1.432   4.960
 1099SOL    HW1 4196   3.855   1.529   4.936
 1099SOL    HW2 4197   3.816   1.417   5.049
 1100SOL     OW 4198   3.020   1.725   6.922
 1100SOL    HW1 4199   3.022   1.803   6.985
 1100SOL    HW2 4200   2.963   1.653   6.961
 1101SOL     OW 4201   6.207   2.519   0.124
 1101SOL    HW1 4202   6.205   2.584   0.048
 1101SOL    HW2 4203   6.196   2.426   0.089
 1102SOL     OW 4204   0.897   5.872   3.887
 1102SOL    HW1 4205   0.883   5.775   3.907
 1102SOL    HW2 4206   0.822   5.906   3.830
 1103SOL     OW 4207   2.920   1.343   0.670
 1103SOL    HW1 4208   2.871   1.281   0.609
 1103SOL    HW2 4209   2.917   1.436   0.633
 1104SOL     OW 4210   2.253   3.357   5.566
 1104SOL    HW1 4211   2.162   3.385   5.536
 1104SOL    HW2 4212   2.322   3.410   5.517
 1105SOL     OW 4213   5.701   3.481   4.661
 1105SOL    HW1 4214   5.702   3.496   4.760
 1105SOL    HW2 4215   5.777   3.420   4.636
 1106SOL     OW 4216   0.570   2.174   6.984
 1106SOL    HW1 4217   0.503   2.198   0.034
 1106SOL    HW2 4218   0.634   2.251   6.972
 1107SOL     OW 4219   1.230   0.441   6.158
 1107SOL    HW1 4220   1.327   0.456   6.140
 1107SOL    HW2 4221   1.215   0.433   6.256
 1108SOL     OW 4222   2.938   0.259   6.112
 1108SOL    HW1 4223   2.840   0.249   6.096
 1108SOL    HW2 4224   2.974   0.177   6.156
 1109SOL     OW 4225   4.420   6.598   4.885
 1109SOL    HW1 4226   4.425   6.684   4.935
 1109SOL    HW2 4227   4.359   6.535   4.932
 1110SOL     OW 4228   2.575   1.238   2.746
 1110SOL    HW1 4229   2.557   1.159   2.804
 1110SOL    HW2 4230   2.536   1.223   2.655
 1111SOL     OW 4231   5.513   5.621   0.198
 1111SOL    HW1 4232   5.561   5.547   0.246
 1111SOL    HW2 4233   5.483   5.588   0.108
 1112SOL     OW 4234   6.211   1.295   2.595
 1112SOL    HW1 4235   6.154   1.346   2.531
 1112SOL    HW2 4236   6.220   1.346   2.681
 1113SOL     OW 4237   0.376   3.749   2.977
 1113SOL    HW1 4238   0.284   3.725   2.944
 1113SOL    HW2 4239   0.439   3.749   2.899
 1114SOL     OW 4240   4.345   1.458   6.776
 1114SOL    HW1 4241   4.313   1.365   6.795
 1114SOL    HW2 4242   4.434   1.454   6.732
 1115SOL     OW 4243   4.380   3.036   0.140
 1115SOL    HW1 4244   4.282   3.052   0.125
 1115SOL    HW2 4245   4.406   3.073   0.229
 1116SOL     OW 4246   5.532   5.832   4.916
 1116SOL    HW1 4247   5.607   5.857   4.977
 1116SOL    HW2 4248   5.565   5.768   4.847
 1117SOL     OW 4249   2.171   2.840   1.391
 1117SOL    HW1 4250   2.110   2.919   1.383
 1117SOL    HW2 4251   2.260   2.870   1.424
 1118SOL     OW 4252   2.110   4.199   1.476
 1118SOL    HW1 4253   2.129   4.273   1.541
 1118SOL    HW2 4254   2.019   4.212   1.437
 1119SOL     OW 4255   4.483   4.237   1.261
 1119SOL    HW1 4256   4.471   4.166   1.330
 1119SOL    HW2 4257   4.396   4.282   1.244
 1120SOL     OW 4258   5.222   6.841   5.593
 1120SOL    HW1 4259   5.124   6.823   5.596
 1120SOL    HW2 4260   5.266   6.796   5.671
 1121SOL     OW 4261   5.427   4.485   2.393
 1121SOL    HW1 4262   5.526   4.474   2.404
 1121SOL    HW2 4263   5.393   4.550   2.460
 1122SOL     OW 4264   4.611   3.126   6.351
 1122SOL    HW1 4265   4.536   3.091   6.407
 1122SOL    HW2 4266   4.592   3.109   6.254
 1123SOL     OW 4267   5.354   1.476   2.903
 1123SOL    HW1 4268   5.281   1.491   2.969
 1123SOL    HW2 4269   5.434   1.439   2.949
 1124SOL     OW 4270   6.037   4.099   5.483
 1124SOL    HW1 4271   5.953   4.082   5.432
 1124SOL    HW2 4272   6.116   4.087   5.423
 1125SOL     OW 4273   2.830   1.444   5.470
 1125SOL    HW1 4274   2.796   1.350   5.466
 1125SOL    HW2 4275   2.789   1.497   5.396
 1126SOL     OW 4276   5.652   6.433   0.530
 1126SOL    HW1 4277   5.668   6.342   0.491
 1126SOL    HW2 4278   5.554   6.450   0.534
 1127SOL     OW 4279   4.694   5.471   5.004
 1127SOL    HW1 4280   4.752   5.533   5.057
 1127SOL    HW2 4281   4.661   5.398   5.063
 1128SOL     OW 4282   5.888   2.515   4.994
 1128SOL    HW1 4283   5.816   2.579   5.019
 1128SOL    HW2 4284   5.881   2.493   4.897
 1129SOL     OW 4285   3.579   0.547   6.456
 1129SOL    HW1 4286   3.640   0.567   6.533
 1129SOL    HW2 4287   3.545   0.633   6.418
 1130SOL     OW 4288   1.722   4.315   0.840
 1130SOL    HW1 4289   1.795   4.262   0.884
 1130SOL    HW2 4290   1.728   4.411   0.867
 1131SOL     OW 4291   0.354   6.243   6.095
 1131SOL    HW1 4292   0.332   6.299   6.175
 1131SOL    HW2 4293   0.341   6.147   6.117
 1132SOL     OW 4294   5.361   0.238   0.530
 1132SOL    HW1 4295   5.309   0.252   0.446
 1132SOL    HW2 4296   5.335   0.307   0.597
 1133SOL     OW 4297   0.808   1.510   0.575
 1133SOL    HW1 4298   0.733   1.571   0.598
 1133SOL    HW2 4299   0.860   1.488   0.659
 1134SOL     OW 4300   5.020   1.713   1.469
 1134SOL    HW1 4301   4.990   1.732   1.375
 1134SOL    HW2 4302   4.941   1.684   1.523
 1135SOL     OW 4303   2.783   1.244   2.071
 1135SOL    HW1 4304   2.756   1.339   2.088
 1135SOL    HW2 4305   2.863   1.222   2.128
 1136SOL     OW 4306   3.636   5.382   4.914
 1136SOL    HW1 4307   3.553   5.331   4.934
 1136SOL    HW2 4308   3.624   5.477   4.942
 1137SOL     OW 4309   1.752   2.161   6.568
 1137SOL    HW1 4310   1.737   2.253   6.605
 1137SOL    HW2 4311   1.702   2.094   6.623
 1138SOL     OW 4312   0.293   1.569   6.060
 1138SOL    HW1 4313   0.338   1.495   6.110
 1138SOL    HW2 4314   0.348   1.595   5.981
 1139SOL     OW 4315   2.695   5.869   1.357
 1139SOL    HW1 4316   2.777   5.860   1.414
 1139SOL    HW2 4317   2.710   5.824   1.269
 1140SOL     OW 4318   3.549   0.826   1.830
 1140SOL    HW1 4319   3.488   0.842   1.753
 1140SOL    HW2 4320   3.532   0.735   1.869
 1141SOL     OW 4321   6.530   6.527   6.815
 1141SOL    HW1 4322   6.569   6.437   6.836
 1141SOL    HW2 4323   6.592   6.598   6.847
 1142SOL     OW 4324   4.132   0.470   4.265
 1142SOL    HW1 4325   4.076   0.553   4.256
 1142SOL    HW2 4326   4.123   0.434   4.358
 1143SOL     OW 4327   2.161   2.959   2.350
 1143SOL    HW1 4328   2.201   2.869   2.361
 1143SOL    HW2 4329   2.132   2.994   2.439
 1144SOL     OW 4330   6.054   4.365   5.527
 1144SOL    HW1 4331   6.107   4.403   5.451
 1144SOL    HW2 4332   6.046   4.266   5.516
 1145SOL     OW 4333   0.342   4.550   2.482
 1145SOL    HW1 4334   0.413   4.512   2.423
 1145SOL    HW2 4335   0.355   4.649   2.489
 1146SOL     OW 4336   5.756   0.718   1.458
 1146SOL    HW1 4337   5.710   0.778   1.393
 1146SOL    HW2 4338   5.712   0.727   1.548
 1147SOL     OW 4339   1.930   4.664   0.725
 1147SOL    HW1 4340   1.929   4.701   0.818
 1147SOL    HW2 4341   1.889   4.731   0.663
 1148SOL     OW 4342   4.643   6.701   6.677
 1148SOL    HW1 4343   4.660   6.608   6.645
 1148SOL    HW2 4344   4.565   6.700   6.740
 1149SOL     OW 4345   6.347   4.091   3.330
 1149SOL    HW1 4346   6.328   4.072   3.233
 1149SOL    HW2 4347   6.393   4.013   3.371
 1150SOL     OW 4348   2.640   4.325   1.137
 1150SOL    HW1 4349   2.629   4.375   1.051
 1150SOL    HW2 4350   2.669   4.231   1.117
 1151SOL     OW 4351   4.680   5.496   6.974
 1151SOL    HW1 4352   4.698   5.449   6.888
 1151SOL    HW2 4353   4.653   5.430   0.024
 1152SOL     OW 4354   0.401   5.860   5.758
 1152SOL    HW1 4355   0.365   5.774   5.793
 1152SOL    HW2 4356   0.450   5.844   5.673
 1153SOL     OW 4357   1.949   6.996   2.177
 1153SOL    HW1 4358   1.971   6.916   2.121
 1153SOL    HW2 4359   1.865   0.018   2.144
 1154SOL     OW 4360   0.719   3.819   2.073
 1154SOL    HW1 4361   0.757   3.853   1.987
 1154SOL    HW2 4362   0.793   3.794   2.135
 1155SOL     OW 4363   2.784   4.941   6.715
 1155SOL    HW1 4364   2.870   4.895   6.734
 1155SOL    HW2 4365   2.720   4.877   6.674
 1156SOL     OW 4366   1.982   0.757   4.943
 1156SOL    HW1 4367   1.929   0.771   5.027
 1156SOL    HW2 4368   2.051   0.687   4.958
 1157SOL     OW 4369   6.368   1.227   4.958
 1157SOL    HW1 4370   6.327   1.308   4.916
 1157SOL    HW2 4371   6.325   1.210   5.047
 1158SOL     OW 4372   0.297   5.595   5.845
 1158SOL    HW1 4373   0.333   5.529   5.910
 1158SOL    HW2 4374   0.232   5.550   5.784
 1159SOL     OW 4375   5.118   6.917   3.361
 1159SOL    HW1 4376   5.135   6.844   3.294
 1159SOL    HW2 4377   5.162   6.893   3.447
 1160SOL     OW 4378   3.799   3.553   1.679
 1160SOL    HW1 4379   3.728   3.511   1.622
 1160SOL    HW2 4380   3.759   3.629   1.731
 1161SOL     OW 4381   4.843   0.522   6.061
 1161SOL    HW1 4382   4.937   0.545   6.089
 1161SOL    HW2 4383   4.837   0.424   6.045
 1162SOL     OW 4384   3.501   2.404   0.307
 1162SOL    HW1 4385   3.499   2.345   0.227
 1162SOL    HW2 4386   3.596   2.419   0.336
 1163SOL     OW 4387   6.379   3.273   1.629
 1163SOL    HW1 4388   6.451   3.206   1.614
 1163SOL    HW2 4389   6.308   3.262   1.560
 1164SOL     OW 4390   5.929   2.587   4.405
 1164SOL    HW1 4391   5.862   2.652   4.367
 1164SOL    HW2 4392   5.999   2.568   4.336
 1165SOL     OW 4393   1.663   4.364   4.533
 1165SOL    HW1 4394   1.693   4.428   4.605
 1165SOL    HW2 4395   1.743   4.333   4.481
 1166SOL     OW 4396   3.561   0.761   0.313
 1166SOL    HW1 4397   3.547   0.795   0.406
 1166SOL    HW2 4398   3.514   0.674   0.301
 1167SOL     OW 4399   3.610   6.924   6.403
 1167SOL    HW1 4400   3.551   6.967   6.472
 1167SOL    HW2 4401   3.597   6.969   6.315
 1168SOL     OW 4402   6.835   1.096   3.352
 1168SOL    HW1 4403   6.849   0.997   3.357
 1168SOL    HW2 4404   6.739   1.116   3.331
 1169SOL     OW 4405   5.973   3.394   6.436
 1169SOL    HW1 4406   6.034   3.467   6.406
 1169SOL    HW2 4407   5.891   3.394   6.379
 1170SOL     OW 4408   4.976   1.022   1.900
 1170SOL    HW1 4409   4.967   1.043   1.997
 1170SOL    HW2 4410   4.885   1.011   1.860
 1171SOL     OW 4411   2.632   6.336   6.637
 1171SOL    HW1 4412   2.551   6.358   6.583
 1171SOL    HW2 4413   2.628   6.387   6.724
 1172SOL     OW 4414   3.660   4.091   2.707
 1172SOL    HW1 4415   3.751   4.072   2.744
 1172SOL    HW2 4416   3.603   4.130   2.779
 1173SOL     OW 4417   3.297   6.760   5.495
 1173SOL    HW1 4418   3.281   6.675   5.545
 1173SOL    HW2 4419   3.280   6.838   5.555
 1174SOL     OW 4420   3.573   4.685   0.380
 1174SOL    HW1 4421   3.639   4.619   0.417
 1174SOL    HW2 4422   3.583   4.772   0.428
 1175SOL     OW 4423   4.126   3.370   6.627
 1175SOL    HW1 4424   4.211   3.387   6.576
 1175SOL    HW2 4425   4.084   3.458   6.651
 1176SOL     OW 4426   5.383   4.407   1.063
 1176SOL    HW1 4427   5.422   4.498   1.072
 1176SOL    HW2 4428   5.387   4.361   1.152
 1177SOL     OW 4429   0.076   1.859   5.748
 1177SOL    HW1 4430   0.071   1.823   5.841
 1177SOL    HW2 4431   0.012   1.809   5.690
 1178SOL     OW 4432   3.829   3.084   1.464
 1178SOL    HW1 4433   3.850   2.987   1.449
 1178SOL    HW2 4434   3.737   3.093   1.502
 1179SOL     OW 4435   2.956   5.519   6.999
 1179SOL    HW1 4436   3.035   5.490   0.033
 1179SOL    HW2 4437   2.938   5.616   7.015
 1180SOL     OW 4438   2.528   6.648   3.982
 1180SOL    HW1 4439   2.618   6.690   3.991
 1180SOL    HW2 4440   2.501   6.649   3.886
 1181SOL     OW 4441   6.925   2.966   4.957
 1181SOL    HW1 4442   7.015   2.972   4.915
 1181SOL    HW2 4443   6.857   3.008   4.897
 1182SOL     OW 4444   2.510   5.145   3.580
 1182SOL    HW1 4445   2.552   5.118   3.667
 1182SOL    HW2 4446   2.412   5.159   3.593
 1183SOL     OW 4447   3.859   6.244   1.217
 1183SOL    HW1 4448   3.856   6.327   1.273
 1183SOL    HW2 4449   3.953   6.213   1.208
 1184SOL     OW 4450   4.333   0.884   5.877
 1184SOL    HW1 4451   4.332   0.953   5.949
 1184SOL    HW2 4452   4.240   0.849   5.862
 1185SOL     OW 4453   1.724   0.067   0.541
 1185SOL    HW1 4454   1.727   0.162   0.571
 1185SOL    HW2 4455   1.774   0.058   0.455
 1186SOL     OW 4456   5.959   6.137   6.490
 1186SOL    HW1 4457   5.890   6.209   6.479
 1186SOL    HW2 4458   5.922   6.050   6.457
 1187SOL     OW 4459   5.180   6.564   5.455
 1187SOL    HW1 4460   5.182   6.469   5.485
 1187SOL    HW2 4461   5.141   6.622   5.526
 1188SOL     OW 4462   3.478   6.091   6.476
 1188SOL    HW1 4463   3.484   6.029   6.554
 1188SOL    HW2 4464   3.566   6.093   6.428
 1189SOL     OW 4465   5.386   0.656   1.923
 1189SOL    HW1 4466   5.303   0.656   1.867
 1189SOL    HW2 4467   5.426   0.748   1.923
 1190SOL     OW 4468   4.105   5.181   4.380
 1190SOL    HW1 4469   4.155   5.190   4.294
 1190SOL    HW2 4470   4.020   5.234   4.375
 1191SOL     OW 4471   4.149   6.531   4.798
 1191SOL    HW1 4472   4.214   6.548   4.723
 1191SOL    HW2 4473   4.089   6.609   4.808
 1192SOL     OW 4474   5.351   5.729   3.039
 1192SOL    HW1 4475   5.328   5.747   3.135
 1192SOL    HW2 4476   5.268   5.739   2.983
 1193SOL     OW 4477   0.000   0.284   5.260
 1193SOL    HW1 4478   0.018   0.254   5.166
 1193SOL    HW2 4479   0.082   0.269   5.316
 1194SOL     OW 4480   6.540   1.504   0.726
 1194SOL    HW1 4481   6.529   1.596   0.766
 1194SOL    HW2 4482   6.512   1.436   0.794
 1195SOL     OW 4483   6.088   2.935   1.280
 1195SOL    HW1 4484   6.000   2.914   1.238
 1195SOL    HW2 4485   6.089   2.901   1.374
 1196SOL     OW 4486   6.937   4.638   1.853
 1196SOL    HW1 4487   6.951   4.606   1.759
 1196SOL    HW2 4488   7.007   4.597   1.912
 1197SOL     OW 4489   4.494   6.703   4.535
 1197SOL    HW1 4490   4.413   6.756   4.509
 1197SOL    HW2 4491   4.468   6.633   4.601
 1198SOL     OW 4492   1.500   2.902   2.661
 1198SOL    HW1 4493   1.565   2.829   2.680
 1198SOL    HW2 4494   1.407   2.869   2.676
 1199SOL     OW 4495   3.600   2.938   3.314
 1199SOL    HW1 4496   3.581   3.030   3.348
 1199SOL    HW2 4497   3.685   2.938   3.262
 1200SOL     OW 4498   3.750   4.182   4.872
 1200SOL    HW1 4499   3.761   4.179   4.772
 1200SOL    HW2 4500   3.832   4.220   4.913
 1201SOL     OW 4501   0.319   1.286   4.293
 1201SOL    HW1 4502   0.232   1.302   4.338
 1201SOL    HW2 4503   0.365   1.208   4.336
 1202SOL     OW 4504   5.866   0.998   6.078
 1202SOL    HW1 4505   5.907   0.933   6.142
 1202SOL    HW2 4506   5.937   1.053   6.034
 1203SOL     OW 4507   6.522   6.509   1.135
 1203SOL    HW1 4508   6.458   6.576   1.171
 1203SOL    HW2 4509   6.583   6.479   1.209
 1204SOL     OW 4510   4.229   1.470   1.754
 1204SOL    HW1 4511   4.138   1.503   1.730
 1204SOL    HW2 4512   4.223   1.378   1.791
 1205SOL     OW 4513   4.375   3.404   6.467
 1205SOL    HW1 4514   4.353   3.452   6.382
 1205SOL    HW2 4515   4.438   3.329   6.447
 1206SOL     OW 4516   1.089   2.503   4.848
 1206SOL    HW1 4517   1.176   2.552   4.848
 1206SOL    HW2 4518   1.087   2.438   4.924
 1207SOL     OW 4519   0.445   6.755   6.890
 1207SOL    HW1 4520   0.390   6.837   6.907
 1207SOL    HW2 4521   0.385   6.675   6.888
 1208SOL     OW 4522   3.089   3.951   2.547
 1208SOL    HW1 4523   2.991   3.972   2.544
 1208SOL    HW2 4524   3.119   3.917   2.458
 1209SOL     OW 4525   5.277   6.909   4.472
 1209SOL    HW1 4526   5.296   6.864   4.559
 1209SOL    HW2 4527   5.227   6.846   4.412
 1210SOL     OW 4528   4.357   6.812   3.646
 1210SOL    HW1 4529   4.359   6.771   3.737
 1210SOL    HW2 4530   4.296   6.892   3.646
 1211SOL     OW 4531   1.096   3.232   3.478
 1211SOL    HW1 4532   1.074   3.169   3.403
 1211SOL    HW2 4533   1.012   3.275   3.510
 1212SOL     OW 4534   6.891   1.222   5.793
 1212SOL    HW1 4535   6.814   1.182   5.841
 1212SOL    HW2 4536   6.887   1.197   5.696
 1213SOL     OW 4537   5.758   3.117   3.655
 1213SOL    HW1 4538   5.755   3.017   3.647
 1213SOL    HW2 4539   5.846   3.151   3.620
 1214SOL     OW 4540   1.088   2.282   5.529
 1214SOL    HW1 4541   1.033   2.361   5.505
 1214SOL    HW2 4542   1.169   2.278   5.471
 1215SOL     OW 4543   1.907   5.256   2.054
 1215SOL    HW1 4544   1.937   5.302   1.971
 1215SOL    HW2 4545   1.984   5.246   2.116
 1216SOL     OW 4546   0.144   0.663   0.533
 1216SOL    HW1 4547   0.106   0.756   0.531
 1216SOL    HW2 4548   0.124   0.617   0.447
 1217SOL     OW 4549   3.477   5.612   1.134
 1217SOL    HW1 4550   3.554   5.550   1.147
 1217SOL    HW2 4551   3.451   5.614   1.037
 1218SOL     OW 4552   0.621   3.707   5.741
 1218SOL    HW1 4553   0.712   3.669   5.759
 1218SOL    HW2 4554   0.556   3.633   5.726
 1219SOL     OW 4555   5.060   5.117   2.405
 1219SOL    HW1 4556   4.976   5.096   2.354
 1219SOL    HW2 4557   5.069   5.216   2.415
 1220SOL     OW 4558   6.334   3.833   2.893
 1220SOL    HW1 4559   6.428   3.855   2.867
 1220SOL    HW2 4560   6.316   3.870   2.984
 1221SOL     OW 4561   5.820   3.866   6.064
 1221SOL    HW1 4562   5.725   3.853   6.035
 1221SOL    HW2 4563   5.864   3.776   6.075
 1222SOL     OW 4564   0.611   0.460   0.036
 1222SOL    HW1 4565   0.549   0.444   0.112
 1222SOL    HW2 4566   0.672   0.381   0.025
 1223SOL     OW 4567   4.415   1.414   0.710
 1223SOL    HW1 4568   4.351   1.391   0.783
 1223SOL    HW2 4569   4.501   1.366   0.724
 1224SOL     OW 4570   3.022   5.596   6.714
 1224SOL    HW1 4571   3.036   5.511   6.663
 1224SOL    HW2 4572   3.013   5.575   6.812
 1225SOL     OW 4573   3.739   2.426   0.970
 1225SOL    HW1 4574   3.702   2.376   0.892
 1225SOL    HW2 4575   3.686   2.510   0.984
 1226SOL     OW 4576   5.063   6.366   0.803
 1226SOL    HW1 4577   5.124   6.318   0.866
 1226SOL    HW2 4578   5.053   6.312   0.719
 1227SOL     OW 4579   5.447   5.203   6.725
 1227SOL    HW1 4580   5.485   5.164   6.809
 1227SOL    HW2 4581   5.522   5.220   6.660
 1228SOL     OW 4582   3.823   2.438   0.613
 1228SOL    HW1 4583   3.739   2.440   0.668
 1228SOL    HW2 4584   3.902   2.449   0.672
 1229SOL     OW 4585   1.904   5.892   1.115
 1229SOL    HW1 4586   1.953   5.965   1.067
 1229SOL    HW2 4587   1.881   5.922   1.208
 1230SOL     OW 4588   5.753   5.322   2.775
 1230SOL    HW1 4589   5.779   5.389   2.705
 1230SOL    HW2 4590   5.829   5.259   2.789
 1231SOL     OW 4591   1.300   1.621   5.608
 1231SOL    HW1 4592   1.358   1.580   5.678
 1231SOL    HW2 4593   1.329   1.715   5.590
 1232SOL     OW 4594   5.686   1.428   5.643
 1232SOL    HW1 4595   5.702   1.394   5.735
 1232SOL    HW2 4596   5.670   1.351   5.581
 1233SOL     OW 4597   0.684   5.903   4.436
 1233SOL    HW1 4598   0.718   5.922   4.344
 1233SOL    HW2 4599   0.599   5.850   4.429
 1234SOL     OW 4600   6.410   2.605   5.468
 1234SOL    HW1 4601   6.475   2.533   5.490
 1234SOL    HW2 4602   6.453   2.694   5.481
 1235SOL     OW 4603   6.251   4.377   1.200
 1235SOL    HW1 4604   6.218   4.297   1.251
 1235SOL    HW2 4605   6.348   4.365   1.180
 1236SOL     OW 4606   3.943   1.476   1.975
 1236SOL    HW1 4607   3.951   1.376   1.984
 1236SOL    HW2 4608   3.866   1.508   2.030
 1237SOL     OW 4609   1.521   5.611   4.885
 1237SOL    HW1 4610   1.563   5.608   4.976
 1237SOL    HW2 4611   1.466   5.529   4.872
 1238SOL     OW 4612   0.790   0.582   4.976
 1238SOL    HW1 4613   0.885   0.609   4.964
 1238SOL    HW2 4614   0.730   0.656   4.947
 1239SOL     OW 4615   6.627   6.539   5.880
 1239SOL    HW1 4616   6.579   6.611   5.930
 1239SOL    HW2 4617   6.722   6.534   5.911
 1240SOL     OW 4618   6.070   5.283   2.233
 1240SOL    HW1 4619   6.012   5.235   2.168
 1240SOL    HW2 4620   6.101   5.219   2.304
 1241SOL     OW 4621   6.263   4.791   4.926
 1241SOL    HW1 4622   6.203   4.834   4.994
 1241SOL    HW2 4623   6.334   4.856   4.899
 1242SOL     OW 4624   2.106   3.339   0.379
 1242SOL    HW1 4625   2.067   3.422   0.420
 1242SOL    HW2 4626   2.205   3.350   0.368
 1243SOL     OW 4627   0.048   1.319   4.464
 1243SOL    HW1 4628   6.994   1.383   4.442
 1243SOL    HW2 4629   0.070   1.326   4.561
 1244SOL     OW 4630   5.030   6.568   4.833
 1244SOL    HW1 4631   5.028   6.471   4.858
 1244SOL    HW2 4632   4.938   6.596   4.805
 1245SOL     OW 4633   5.749   4.720   0.656
 1245SOL    HW1 4634   5.721   4.629   0.625
 1245SOL    HW2 4635   5.848   4.721   0.672
 1246SOL     OW 4636   3.500   0.888   2.243
 1246SOL    HW1 4637   3.503   0.788   2.251
 1246SOL    HW2 4638   3.555   0.918   2.165
 1247SOL     OW 4639   5.493   0.058   5.663
 1247SOL    HW1 4640   5.516   6.988   5.626
 1247SOL    HW2 4641   5.516   0.129   5.597
 1248SOL     OW 4642   1.239   6.461   3.802
 1248SOL    HW1 4643   1.215   6.369   3.772
 1248SOL    HW2 4644   1.157   6.518   3.803
 1249SOL     OW 4645   0.226   3.426   1.758
 1249SOL    HW1 4646   0.151   3.363   1.737
 1249SOL    HW2 4647   0.188   3.511   1.797
 1250SOL     OW 4648   6.280   4.315   3.915
 1250SOL    HW1 4649   6.212   4.358   3.854
 1250SOL    HW2 4650   6.371   4.329   3.877
 1251SOL     OW 4651   2.364   0.730   2.425
 1251SOL    HW1 4652   2.431   0.793   2.464
 1251SOL    HW2 4653   2.272   0.757   2.453
 1252SOL     OW 4654   3.893   4.661   6.332
 1252SOL    HW1 4655   3.956   4.713   6.273
 1252SOL    HW2 4656   3.823   4.617   6.275
 1253SOL     OW 4657   2.847   0.280   1.955
 1253SOL    HW1 4658   2.787   0.288   1.875
 1253SOL    HW2 4659   2.792   0.269   2.037
 1254SOL     OW 4660   6.929   2.545   3.581
 1254SOL    HW1 4661   6.870   2.515   3.506
 1254SOL    HW2 4662   6.877   2.607   3.640
 1255SOL     OW 4663   5.972   2.595   5.932
 1255SOL    HW1 4664   5.996   2.542   6.014
 1255SOL    HW2 4665   5.888   2.647   5.950
 1256SOL     OW 4666   0.280   6.375   4.046
 1256SOL    HW1 4667   0.242   6.283   4.046
 1256SOL    HW2 4668   0.298   6.404   3.951
 1257SOL     OW 4669   6.747   5.320   4.457
 1257SOL    HW1 4670   6.693   5.363   4.385
 1257SOL    HW2 4671   6.686   5.288   4.529
 1258SOL     OW 4672   2.248   4.915   2.948
 1258SOL    HW1 4673   2.210   4.893   3.038
 1258SOL    HW2 4674   2.206   4.998   2.912
 1259SOL     OW 4675   3.646   6.318   5.026
 1259SOL    HW1 4676   3.571   6.263   5.063
 1259SOL    HW2 4677   3.659   6.295   4.930
 1260SOL     OW 4678   3.062   1.277   1.305
 1260SOL    HW1 4679   3.023   1.226   1.382
 1260SOL    HW2 4680   3.152   1.313   1.331
 1261SOL     OW 4681   0.244   4.160   6.876
 1261SOL    HW1 4682   0.278   4.086   6.935
 1261SOL    HW2 4683   0.263   4.248   6.918
 1262SOL     OW 4684   5.154   5.719   1.787
 1262SOL    HW1 4685   5.199   5.799   1.827
 1262SOL    HW2 4686   5.222   5.651   1.761
 1263SOL     OW 4687   6.543   1.265   1.422
 1263SOL    HW1 4688   6.634   1.290   1.455
 1263SOL    HW2 4689   6.481   1.343   1.432
 1264SOL     OW 4690   0.423   3.855   1.399
 1264SOL    HW1 4691   0.394   3.913   1.323
 1264SOL    HW2 4692   0.346   3.800   1.431
 1265SOL     OW 4693   6.596   5.177   3.743
 1265SOL    HW1 4694   6.535   5.226   3.681
 1265SOL    HW2 4695   6.551   5.095   3.777
 1266SOL     OW 4696   1.264   1.027   4.095
 1266SOL    HW1 4697   1.311   1.004   4.181
 1266SOL    HW2 4698   1.239   0.942   4.048
 1267SOL     OW 4699   5.673   6.673   1.111
 1267SOL    HW1 4700   5.632   6.605   1.171
 1267SOL    HW2 4701   5.626   6.672   1.022
 1268SOL     OW 4702   4.944   2.168   0.384
 1268SOL    HW1 4703   4.908   2.241   0.324
 1268SOL    HW2 4704   4.919   2.079   0.346
 1269SOL     OW 4705   5.850   6.459   5.664
 1269SOL    HW1 4706   5.918   6.531   5.676
 1269SOL    HW2 4707   5.792   6.481   5.585
 1270SOL     OW 4708   2.227   3.036   4.837
 1270SOL    HW1 4709   2.277   3.030   4.923
 1270SOL    HW2 4710   2.291   3.044   4.761
 1271SOL     OW 4711   3.568   1.996   3.550
 1271SOL    HW1 4712   3.544   1.918   3.492
 1271SOL    HW2 4713   3.491   2.019   3.609
 1272SOL     OW 4714   5.961   5.760   0.535
 1272SOL    HW1 4715   5.971   5.852   0.572
 1272SOL    HW2 4716   6.050   5.725   0.506
 1273SOL     OW 4717   1.010   4.503   0.336
 1273SOL    HW1 4718   1.059   4.463   0.258
 1273SOL    HW2 4719   1.026   4.601   0.338
 1274SOL     OW 4720   6.459   2.737   1.045
 1274SOL    HW1 4721   6.386   2.805   1.046
 1274SOL    HW2 4722   6.476   2.705   1.139
 1275SOL     OW 4723   3.821   0.081   4.295
 1275SOL    HW1 4724   3.857   0.017   4.227
 1275SOL    HW2 4725   3.874   0.072   4.379
 1276SOL     OW 4726   6.977   0.655   4.667
 1276SOL    HW1 4727   6.881   0.672   4.645
 1276SOL    HW2 4728   6.996   0.558   4.660
 1277SOL     OW 4729   1.083   6.929   5.632
 1277SOL    HW1 4730   0.988   6.954   5.617
 1277SOL    HW2 4731   1.124   6.987   5.702
 1278SOL     OW 4732   1.048   0.663   4.991
 1278SOL    HW1 4733   1.082   0.750   4.955
 1278SOL    HW2 4734   1.091   0.644   5.079
 1279SOL     OW 4735   3.746   5.232   7.005
 1279SOL    HW1 4736   3.832   5.218   6.956
 1279SOL    HW2 4737   3.689   5.150   6.996
 1280SOL     OW 4738   3.466   5.785   4.058
 1280SOL    HW1 4739   3.417   5.860   4.103
 1280SOL    HW2 4740   3.562   5.785   4.087
 1281SOL     OW 4741   1.200   5.558   2.735
 1281SOL    HW1 4742   1.153   5.540   2.649
 1281SOL    HW2 4743   1.215   5.657   2.745
 1282SOL     OW 4744   0.374   1.115   6.335
 1282SOL    HW1 4745   0.420   1.032   6.364
 1282SOL    HW2 4746   0.321   1.098   6.252
 1283SOL     OW 4747   5.350   3.097   5.441
 1283SOL    HW1 4748   5.420   3.054   5.383
 1283SOL    HW2 4749   5.314   3.178   5.396
 1284SOL     OW 4750   4.355   1.919   2.271
 1284SOL    HW1 4751   4.392   1.893   2.182
 1284SOL    HW2 4752   4.324   2.014   2.267
 1285SOL     OW 4753   4.635   3.411   6.287
 1285SOL    HW1 4754   4.673   3.321   6.264
 1285SOL    HW2 4755   4.576   3.441   6.212
 1286SOL     OW 4756   5.160   3.453   2.622
 1286SOL    HW1 4757   5.134   3.500   2.538
 1286SOL    HW2 4758   5.246   3.492   2.656
 1287SOL     OW 4759   4.646   4.100   5.480
 1287SOL    HW1 4760   4.646   4.036   5.403
 1287SOL    HW2 4761   4.583   4.067   5.550
 1288SOL     OW 4762   5.633   3.343   0.193
 1288SOL    HW1 4763   5.556   3.342   0.256
 1288SOL    HW2 4764   5.651   3.250   0.161
 1289SOL     OW 4765   0.408   6.130   1.216
 1289SOL    HW1 4766   0.376   6.052   1.162
 1289SOL    HW2 4767   0.346   6.145   1.293
 1290SOL     OW 4768   0.941   0.431   6.774
 1290SOL    HW1 4769   0.843   0.451   6.770
 1290SOL    HW2 4770   0.961   0.352   6.717
 1291SOL     OW 4771   7.015   3.770   5.653
 1291SOL    HW1 4772   6.936   3.808   5.605
 1291SOL    HW2 4773   0.067   3.840   5.660
 1292SOL     OW 4774   6.601   5.988   2.532
 1292SOL    HW1 4775   6.658   5.907   2.546
 1292SOL    HW2 4776   6.644   6.067   2.575
 1293SOL     OW 4777   1.256   1.609   6.686
 1293SOL    HW1 4778   1.264   1.675   6.612
 1293SOL    HW2 4779   1.230   1.520   6.649
 1294SOL     OW 4780   1.591   3.723   0.093
 1294SOL    HW1 4781   1.546   3.698   0.007
 1294SOL    HW2 4782   1.582   3.822   0.106
 1295SOL     OW 4783   0.136   3.748   2.839
 1295SOL    HW1 4784   0.111   3.686   2.765
 1295SOL    HW2 4785   0.057   3.805   2.863
 1296SOL     OW 4786   3.380   0.499   5.991
 1296SOL    HW1 4787   3.377   0.533   6.085
 1296SOL    HW2 4788   3.331   0.412   5.986
 1297SOL     OW 4789   5.998   0.601   0.257
 1297SOL    HW1 4790   6.087   0.583   0.298
 1297SOL    HW2 4791   5.933   0.530   0.285
 1298SOL     OW 4792   6.515   4.747   2.872
 1298SOL    HW1 4793   6.594   4.749   2.934
 1298SOL    HW2 4794   6.456   4.826   2.891
 1299SOL     OW 4795   0.179   3.994   3.191
 1299SOL    HW1 4796   0.264   4.047   3.180
 1299SOL    HW2 4797   0.101   4.049   3.161
 1300SOL     OW 4798   3.580   3.875   2.036
 1300SOL    HW1 4799   3.504   3.936   2.059
 1300SOL    HW2 4800   3.583   3.799   2.100
 1301SOL     OW 4801   0.377   5.075   2.128
 1301SOL    HW1 4802   0.477   5.082   2.129
 1301SOL    HW2 4803   0.337   5.166   2.116
 1302SOL     OW 4804   3.662   6.976   5.295
 1302SOL    HW1 4805   3.730   6.970   5.367
 1302SOL    HW2 4806   3.626   0.049   5.290
 1303SOL     OW 4807   4.759   1.567   1.549
 1303SOL    HW1 4808   4.680   1.506   1.562
 1303SOL    HW2 4809   4.727   1.662   1.544
 1304SOL     OW 4810   0.901   1.056   6.820
 1304SOL    HW1 4811   0.913   1.108   6.904
 1304SOL    HW2 4812   0.858   1.114   6.750
 1305SOL     OW 4813   5.007   3.339   0.008
 1305SOL    HW1 4814   5.059   3.366   0.089
 1305SOL    HW2 4815   5.011   3.412   6.959
 1306SOL     OW 4816   0.799   3.991   5.471
 1306SOL    HW1 4817   0.885   4.030   5.438
 1306SOL    HW2 4818   0.812   3.950   5.561
 1307SOL     OW 4819   1.139   3.211   4.993
 1307SOL    HW1 4820   1.197   3.276   5.043
 1307SOL    HW2 4821   1.054   3.257   4.966
 1308SOL     OW 4822   4.403   5.601   5.067
 1308SOL    HW1 4823   4.310   5.622   5.035
 1308SOL    HW2 4824   4.438   5.522   5.017
 1309SOL     OW 4825   5.203   2.856   5.575
 1309SOL    HW1 4826   5.236   2.940   5.532
 1309SOL    HW2 4827   5.278   2.813   5.625
 1310SOL     OW 4828   0.203   4.314   5.194
 1310SOL    HW1 4829   0.282   4.356   5.239
 1310SOL    HW2 4830   0.234   4.247   5.127
 1311SOL     OW 4831   0.133   0.768   4.121
 1311SOL    HW1 4832   0.192   0.845   4.143
 1311SOL    HW2 4833   0.118   0.764   4.022
 1312SOL     OW 4834   0.847   0.211   6.384
 1312SOL    HW1 4835   0.818   0.246   6.295
 1312SOL    HW2 4836   0.943   0.235   6.400
 1313SOL     OW 4837   1.570   4.545   4.199
 1313SOL    HW1 4838   1.642   4.601   4.239
 1313SOL    HW2 4839   1.609   4.459   4.165
 1314SOL     OW 4840   3.794   1.427   5.614
 1314SOL    HW1 4841   3.697   1.402   5.621
 1314SOL    HW2 4842   3.850   1.346   5.633
 1315SOL     OW 4843   0.633   0.597   0.545
 1315SOL    HW1 4844   0.682   0.608   0.631
 1315SOL    HW2 4845   0.535   0.597   0.562
 1316SOL     OW 4846   2.489   6.557   4.280
 1316SOL    HW1 4847   2.525   6.593   4.367
 1316SOL    HW2 4848   2.439   6.630   4.233
 1317SOL     OW 4849   1.262   4.196   4.320
 1317SOL    HW1 4850   1.270   4.239   4.230
 1317SOL    HW2 4851   1.351   4.199   4.366
 1318SOL     OW 4852   0.600   1.156   0.740
 1318SOL    HW1 4853   0.573   1.066   0.772
 1318SOL    HW2 4854   0.621   1.152   0.642
 1319SOL     OW 4855   0.157   0.749   0.167
 1319SOL    HW1 4856   0.125   0.666   0.212
 1319SOL    HW2 4857   0.110   0.828   0.205
 1320SOL     OW 4858   5.596   4.181   0.505
 1320SOL    HW1 4859   5.625   4.237   0.582
 1320SOL    HW2 4860   5.675   4.158   0.448
 1321SOL     OW 4861   4.531   2.252   5.957
 1321SOL    HW1 4862   4.620   2.287   5.927
 1321SOL    HW2 4863   4.516   2.162   5.916
 1322SOL     OW 4864   4.117   0.516   3.873
 1322SOL    HW1 4865   4.106   0.610   3.841
 1322SOL    HW2 4866   4.027   0.476   3.891
 1323SOL     OW 4867   5.320   2.159   4.721
 1323SOL    HW1 4868   5.228   2.188   4.692
 1323SOL    HW2 4869   5.372   2.240   4.749
 1324SOL     OW 4870   0.980   2.709   0.572
 1324SOL    HW1 4871   1.002   2.612   0.577
 1324SOL    HW2 4872   1.050   2.757   0.520
 1325SOL     OW 4873   1.650   6.850   2.176
 1325SOL    HW1 4874   1.669   6.910   2.254
 1325SOL    HW2 4875   1.631   6.758   2.208
 1326SOL     OW 4876   4.681   2.875   5.075
 1326SOL    HW1 4877   4.688   2.922   4.987
 1326SOL    HW2 4878   4.589   2.837   5.086
 1327SOL     OW 4879   2.041   4.390   1.763
 1327SOL    HW1 4880   2.140   4.390   1.744
 1327SOL    HW2 4881   2.017   4.306   1.811
 1328SOL     OW 4882   1.619   2.795   1.011
 1328SOL    HW1 4883   1.703   2.756   0.971
 1328SOL    HW2 4884   1.569   2.723   1.059
 1329SOL     OW 4885   1.329   2.538   0.833
 1329SOL    HW1 4886   1.320   2.636   0.852
 1329SOL    HW2 4887   1.267   2.513   0.759
 1330SOL     OW 4888   6.953   1.151   1.562
 1330SOL    HW1 4889   6.920   1.146   1.657
 1330SOL    HW2 4890   6.889   1.204   1.507
 1331SOL     OW 4891   4.974   2.150   3.291
 1331SOL    HW1 4892   5.044   2.161   3.360
 1331SOL    HW2 4893   4.906   2.084   3.322
 1332SOL     OW 4894   3.074   6.929   0.178
 1332SOL    HW1 4895   3.061   6.871   0.098
 1332SOL    HW2 4896   2.986   6.947   0.221
 1333SOL     OW 4897   3.230   3.207   6.057
 1333SOL    HW1 4898   3.252   3.186   5.962
 1333SOL    HW2 4899   3.309   3.249   6.102
 1334SOL     OW 4900   6.961   2.731   4.705
 1334SOL    HW1 4901   6.906   2.727   4.622
 1334SOL    HW2 4902   6.948   2.819   4.750
 1335SOL     OW 4903   2.566   0.532   3.294
 1335SOL    HW1 4904   2.470   0.515   3.272
 1335SOL    HW2 4905   2.612   0.572   3.215
 1336SOL     OW 4906   1.987   1.132   6.619
 1336SOL    HW1 4907   1.992   1.058   6.552
 1336SOL    HW2 4908   1.917   1.111   6.688
 1337SOL     OW 4909   1.722   1.093   5.248
 1337SOL    HW1 4910   1.765   1.114   5.336
 1337SOL    HW2 4911   1.635   1.143   5.242
 1338SOL     OW 4912   5.791   3.001   6.170
 1338SOL    HW1 4913   5.695   3.030   6.172
 1338SOL    HW2 4914   5.800   2.916   6.118
 1339SOL     OW 4915   0.278   0.551   7.011
 1339SOL    HW1 4916   0.263   0.635   0.044
 1339SOL    HW2 4917   0.284   0.474   0.054
 1340SOL     OW 4918   0.634   1.653   1.852
 1340SOL    HW1 4919   0.711   1.696   1.899
 1340SOL    HW2 4920   0.550   1.705   1.871
 1341SOL     OW 4921   4.740   0.989   5.989
 1341SOL    HW1 4922   4.701   1.081   5.985
 1341SOL    HW2 4923   4.698   0.932   5.918
 1342SOL     OW 4924   1.394   4.718   6.166
 1342SOL    HW1 4925   1.308   4.737   6.118
 1342SOL    HW2 4926   1.374   4.666   6.249
 1343SOL     OW 4927   4.495   5.894   2.440
 1343SOL    HW1 4928   4.412   5.840   2.455
 1343SOL    HW2 4929   4.503   5.917   2.343
 1344SOL     OW 4930   6.757   4.641   4.001
 1344SOL    HW1 4931   6.801   4.731   3.995
 1344SOL    HW2 4932   6.820   4.577   4.045
 1345SOL     OW 4933   1.840   1.385   3.367
 1345SOL    HW1 4934   1.784   1.345   3.293
 1345SOL    HW2 4935   1.892   1.312   3.412
 1346SOL     OW 4936   0.929   6.646   3.847
 1346SOL    HW1 4937   0.939   6.550   3.874
 1346SOL    HW2 4938   0.932   6.704   3.928
 1347SOL     OW 4939   6.224   6.437   4.325
 1347SOL    HW1 4940   6.156   6.404   4.261
 1347SOL    HW2 4941   6.200   6.529   4.356
 1348SOL     OW 4942   5.151   4.675   3.029
 1348SOL    HW1 4943   5.149   4.631   3.119
 1348SOL    HW2 4944   5.244   4.668   2.991
 1349SOL     OW 4945   4.965   2.058   6.606
 1349SOL    HW1 4946   5.064   2.064   6.597
 1349SOL    HW2 4947   4.941   1.985   6.671
 1350SOL     OW 4948   4.720   4.353   5.991
 1350SOL    HW1 4949   4.752   4.432   6.043
 1350SOL    HW2 4950   4.779   4.341   5.911
 1351SOL     OW 4951   6.723   2.415   2.847
 1351SOL    HW1 4952   6.714   2.503   2.802
 1351SOL    HW2 4953   6.679   2.344   2.792
 1352SOL     OW 4954   6.604   0.390   3.105
 1352SOL    HW1 4955   6.680   0.429   3.054
 1352SOL    HW2 4956   6.604   0.427   3.198
 1353SOL     OW 4957   5.982   4.351   6.014
 1353SOL    HW1 4958   6.013   4.354   6.109
 1353SOL    HW2 4959   6.057   4.321   5.955
 1354SOL     OW 4960   0.816   2.071   0.308
 1354SOL    HW1 4961   0.818   2.055   0.209
 1354SOL    HW2 4962   0.730   2.036   0.346
 1355SOL     OW 4963   6.595   2.456   5.211
 1355SOL    HW1 4964   6.577   2.539   5.264
 1355SOL    HW2 4965   6.693   2.443   5.201
 1356SOL     OW 4966   3.214   3.071   3.803
 1356SOL    HW1 4967   3.220   3.020   3.888
 1356SOL    HW2 4968   3.289   3.137   3.797
 1357SOL     OW 4969   2.116   4.314   5.670
 1357SOL    HW1 4970   2.166   4.369   5.604
 1357SOL    HW2 4971   2.028   4.357   5.690
 1358SOL     OW 4972   4.396   1.391   5.995
 1358SOL    HW1 4973   4.391   1.480   5.949
 1358SOL    HW2 4974   4.325   1.331   5.959
 1359SOL     OW 4975   0.395   4.801   1.324
 1359SOL    HW1 4976   0.423   4.893   1.296
 1359SOL    HW2 4977   0.346   4.807   1.411
 1360SOL     OW 4978   4.092   3.790   1.620
 1360SOL    HW1 4979   4.056   3.865   1.563
 1360SOL    HW2 4980   4.096   3.821   1.715
 1361SOL     OW 4981   0.175   6.037   5.737
 1361SOL    HW1 4982   0.251   5.975   5.755
 1361SOL    HW2 4983   0.107   6.029   5.810
 1362SOL     OW 4984   2.989   3.916   4.019
 1362SOL    HW1 4985   3.074   3.891   4.066
 1362SOL    HW2 4986   2.944   3.990   4.069
 1363SOL     OW 4987   6.637   5.923   3.935
 1363SOL    HW1 4988   6.591   5.899   3.849
 1363SOL    HW2 4989   6.568   5.932   4.007
 1364SOL     OW 4990   0.410   2.266   0.179
 1364SOL    HW1 4991   0.381   2.200   0.249
 1364SOL    HW2 4992   0.414   2.358   0.220
 1365SOL     OW 4993   1.096   2.703   5.648
 1365SOL    HW1 4994   1.053   2.782   5.691
 1365SOL    HW2 4995   1.187   2.689   5.688
 1366SOL     OW 4996   1.173   4.340   0.513
 1366SOL    HW1 4997   1.110   4.395   0.460
 1366SOL    HW2 4998   1.124   4.263   0.555
 1367SOL     OW 4999   1.505   5.554   2.580
 1367SOL    HW1 5000   1.492   5.497   2.661
 1367SOL    HW2 5001   1.557   5.636   2.604
 1368SOL     OW 5002   6.915   6.876   3.349
 1368SOL    HW1 5003   7.015   6.867   3.354
 1368SOL    HW2 5004   6.890   6.932   3.271
 1369SOL     OW 5005   1.765   0.464   2.454
 1369SOL    HW1 5006   1.838   0.405   2.419
 1369SOL    HW2 5007   1.804   0.533   2.514
 1370SOL     OW 5008   4.729   1.805   3.757
 1370SOL    HW1 5009   4.746   1.776   3.851
 1370SOL    HW2 5010   4.729   1.905   3.752
 1371SOL     OW 5011   5.671   1.457   4.581
 1371SOL    HW1 5012   5.731   1.411   4.516
 1371SOL    HW2 5013   5.580   1.468   4.540
 1372SOL     OW 5014   1.205   2.157   0.958
 1372SOL    HW1 5015   1.108   2.175   0.977
 1372SOL    HW2 5016   1.240   2.228   0.897
 1373SOL     OW 5017   4.489   2.534   0.622
 1373SOL    HW1 5018   4.550   2.612   0.608
 1373SOL    HW2 5019   4.544   2.452   0.642
 1374SOL     OW 5020   4.353   1.964   1.378
 1374SOL    HW1 5021   4.403   1.961   1.465
 1374SOL    HW2 5022   4.289   1.888   1.374
 1375SOL     OW 5023   0.060   6.710   6.264
 1375SOL    HW1 5024   0.088   6.711   6.169
 1375SOL    HW2 5025   6.980   6.706   6.269
 1376SOL     OW 5026   4.527   4.755   4.994
 1376SOL    HW1 5027   4.594   4.752   4.920
 1376SOL    HW2 5028   4.455   4.688   4.977
 1377SOL     OW 5029   0.790   3.574   3.749
 1377SOL    HW1 5030   0.830   3.660   3.780
 1377SOL    HW2 5031   0.705   3.592   3.699
 1378SOL     OW 5032   6.097   2.254   4.426
 1378SOL    HW1 5033   6.136   2.211   4.507
 1378SOL    HW2 5034   6.171   2.284   4.365
 1379SOL     OW 5035   4.407   6.377   3.558
 1379SOL    HW1 5036   4.441   6.443   3.491
 1379SOL    HW2 5037   4.307   6.386   3.566
 1380SOL     OW 5038   0.321   6.485   3.273
 1380SOL    HW1 5039   0.388   6.530   3.332
 1380SOL    HW2 5040   0.345   6.502   3.177
 1381SOL     OW 5041   5.879   1.844   0.328
 1381SOL    HW1 5042   5.875   1.928   0.381
 1381SOL    HW2 5043   5.821   1.853   0.247
 1382SOL     OW 5044   5.735   3.266   1.199
 1382SOL    HW1 5045   5.821   3.257   1.147
 1382SOL    HW2 5046   5.679   3.339   1.158
 1383SOL     OW 5047   0.799   0.734   2.033
 1383SOL    HW1 5048   0.852   0.819   2.036
 1383SOL    HW2 5049   0.858   0.659   2.002
 1384SOL     OW 5050   4.417   0.833   1.846
 1384SOL    HW1 5051   4.424   0.824   1.746
 1384SOL    HW2 5052   4.459   0.919   1.874
 1385SOL     OW 5053   2.706   4.754   3.447
 1385SOL    HW1 5054   2.640   4.827   3.464
 1385SOL    HW2 5055   2.764   4.779   3.370
 1386SOL     OW 5056   3.015   1.165   4.465
 1386SOL    HW1 5057   3.020   1.101   4.389
 1386SOL    HW2 5058   3.078   1.241   4.449
 1387SOL     OW 5059   3.964   5.225   2.633
 1387SOL    HW1 5060   3.986   5.128   2.631
 1387SOL    HW2 5061   3.889   5.241   2.697
 1388SOL     OW 5062   6.892   0.447   2.765
 1388SOL    HW1 5063   6.800   0.468   2.732
 1388SOL    HW2 5064   6.957   0.450   2.690
 1389SOL     OW 5065   6.270   0.560   3.969
 1389SOL    HW1 5066   6.313   0.637   4.015
 1389SOL    HW2 5067   6.337   0.487   3.956
 1390SOL     OW 5068   6.765   2.840   6.284
 1390SOL    HW1 5069   6.814   2.763   6.245
 1390SOL    HW2 5070   6.736   2.902   6.211
 1391SOL     OW 5071   5.945   6.749   4.825
 1391SOL    HW1 5072   6.003   6.668   4.834
 1391SOL    HW2 5073   6.002   6.828   4.802
 1392SOL     OW 5074   6.178   6.671   5.489
 1392SOL    HW1 5075   6.114   6.678   5.567
 1392SOL    HW2 5076   6.228   6.756   5.480
 1393SOL     OW 5077   6.923   4.350   6.311
 1393SOL    HW1 5078   6.889   4.258   6.289
 1393SOL    HW2 5079   6.932   4.403   6.227
 1394SOL     OW 5080   3.864   5.503   5.547
 1394SOL    HW1 5081   3.814   5.531   5.465
 1394SOL    HW2 5082   3.829   5.414   5.578
 1395SOL     OW 5083   2.165   4.623   5.041
 1395SOL    HW1 5084   2.201   4.693   4.980
 1395SOL    HW2 5085   2.237   4.592   5.102
 1396SOL     OW 5086   0.487   1.648   5.174
 1396SOL    HW1 5087   0.453   1.592   5.250
 1396SOL    HW2 5088   0.525   1.588   5.104
 1397SOL     OW 5089   0.349   0.036   4.550
 1397SOL    HW1 5090   0.303   6.974   4.516
 1397SOL    HW2 5091   0.330   0.113   4.489
 1398SOL     OW 5092   2.935   1.169   6.713
 1398SOL    HW1 5093   2.914   1.071   6.715
 1398SOL    HW2 5094   2.997   1.189   6.637
 1399SOL     OW 5095   4.020   5.202   0.597
 1399SOL    HW1 5096   4.092   5.202   0.666
 1399SOL    HW2 5097   4.049   5.258   0.520
 1400SOL     OW 5098   0.110   1.622   4.101
 1400SOL    HW1 5099   0.133   1.586   4.011
 1400SOL    HW2 5100   0.194   1.634   4.155
 1401SOL     OW 5101   6.294   0.521   4.778
 1401SOL    HW1 5102   6.211   0.553   4.732
 1401SOL    HW2 5103   6.270   0.446   4.840
 1402SOL     OW 5104   5.674   3.664   6.383
 1402SOL    HW1 5105   5.741   3.705   6.446
 1402SOL    HW2 5106   5.603   3.731   6.363
 1403SOL     OW 5107   2.194   1.921   0.962
 1403SOL    HW1 5108   2.192   2.020   0.970
 1403SOL    HW2 5109   2.139   1.880   1.035
 1404SOL     OW 5110   6.587   0.329   6.712
 1404SOL    HW1 5111   6.543   0.373   6.635
 1404SOL    HW2 5112   6.528   0.335   6.793
 1405SOL     OW 5113   2.428   3.292   0.655
 1405SOL    HW1 5114   2.484   3.247   0.725
 1405SOL    HW2 5115   2.332   3.294   0.685
 1406SOL     OW 5116   0.745   5.540   0.455
 1406SOL    HW1 5117   0.772   5.481   0.531
 1406SOL    HW2 5118   0.711   5.485   0.379
 1407SOL     OW 5119   0.405   3.487   3.117
 1407SOL    HW1 5120   0.474   3.445   3.058
 1407SOL    HW2 5121   0.368   3.569   3.072
 1408SOL     OW 5122   5.173   1.285   5.472
 1408SOL    HW1 5123   5.272   1.273   5.482
 1408SOL    HW2 5124   5.131   1.198   5.446
 1409SOL     OW 5125   0.227   0.322   5.012
 1409SOL    HW1 5126   0.149   0.384   5.018
 1409SOL    HW2 5127   0.275   0.337   4.926
 1410SOL     OW 5128   1.701   4.460   6.506
 1410SOL    HW1 5129   1.732   4.366   6.512
 1410SOL    HW2 5130   1.628   4.475   6.572
 1411SOL     OW 5131   3.690   6.619   0.464
 1411SOL    HW1 5132   3.774   6.666   0.438
 1411SOL    HW2 5133   3.642   6.674   0.533
 1412SOL     OW 5134   0.892   2.483   1.246
 1412SOL    HW1 5135   0.802   2.485   1.202
 1412SOL    HW2 5136   0.959   2.526   1.187
 1413SOL     OW 5137   2.172   1.716   5.253
 1413SOL    HW1 5138   2.159   1.814   5.236
 1413SOL    HW2 5139   2.090   1.680   5.298
 1414SOL     OW 5140   2.623   1.817   1.826
 1414SOL    HW1 5141   2.630   1.901   1.772
 1414SOL    HW2 5142   2.548   1.826   1.892
 1415SOL     OW 5143   1.952   1.068   4.807
 1415SOL    HW1 5144   1.869   1.094   4.757
 1415SOL    HW2 5145   1.961   1.124   4.889
 1416SOL     OW 5146   4.471   4.950   4.392
 1416SOL    HW1 5147   4.518   4.999   4.465
 1416SOL    HW2 5148   4.376   4.934   4.418
 1417SOL     OW 5149   2.957   2.379   0.562
 1417SOL    HW1 5150   2.932   2.463   0.514
 1417SOL    HW2 5151   2.976   2.307   0.496
 1418SOL     OW 5152   3.284   3.808   2.787
 1418SOL    HW1 5153   3.375   3.800   2.747
 1418SOL    HW2 5154   3.216   3.772   2.724
 1419SOL     OW 5155   2.691   5.663   3.475
 1419SOL    HW1 5156   2.666   5.603   3.551
 1419SOL    HW2 5157   2.609   5.692   3.426
 1420SOL     OW 5158   1.878   6.560   1.997
 1420SOL    HW1 5159   1.879   6.553   1.897
 1420SOL    HW2 5160   1.968   6.590   2.029
 1421SOL     OW 5161   2.330   4.811   3.246
 1421SOL    HW1 5162   2.385   4.861   3.314
 1421SOL    HW2 5163   2.361   4.835   3.154
 1422SOL     OW 5164   1.141   4.076   6.537
 1422SOL    HW1 5165   1.171   4.154   6.592
 1422SOL    HW2 5166   1.213   4.007   6.534
 1423SOL     OW 5167   4.958   6.829   4.141
 1423SOL    HW1 5168   4.918   6.917   4.113
 1423SOL    HW2 5169   4.900   6.754   4.109
 1424SOL     OW 5170   6.697   4.007   0.048
 1424SOL    HW1 5171   6.620   4.035   7.011
 1424SOL    HW2 5172   6.664   3.982   0.139
 1425SOL     OW 5173   2.025   5.457   5.465
 1425SOL    HW1 5174   1.928   5.459   5.487
 1425SOL    HW2 5175   2.053   5.362   5.448
 1426SOL     OW 5176   2.341   3.144   6.662
 1426SOL    HW1 5177   2.403   3.202   6.610
 1426SOL    HW2 5178   2.317   3.063   6.608
 1427SOL     OW 5179   6.743   0.111   3.475
 1427SOL    HW1 5180   6.791   0.025   3.455
 1427SOL    HW2 5181   6.646   0.101   3.451
 1428SOL     OW 5182   0.616   1.929   6.862
 1428SOL    HW1 5183   0.603   2.012   6.916
 1428SOL    HW2 5184   0.704   1.888   6.885
 1429SOL     OW 5185   4.530   1.451   0.181
 1429SOL    HW1 5186   4.505   1.423   0.274
 1429SOL    HW2 5187   4.622   1.492   0.182
 1430SOL     OW 5188   1.879   5.296   4.060
 1430SOL    HW1 5189   1.965   5.340   4.086
 1430SOL    HW2 5190   1.854   5.229   4.130
 1431SOL     OW 5191   3.027   2.189   6.999
 1431SOL    HW1 5192   3.012   2.136   6.916
 1431SOL    HW2 5193   3.072   2.276   6.976
 1432SOL     OW 5194   2.649   1.834   1.436
 1432SOL    HW1 5195   2.706   1.758   1.403
 1432SOL    HW2 5196   2.590   1.865   1.363
 1433SOL     OW 5197   4.733   0.328   5.398
 1433SOL    HW1 5198   4.677   0.254   5.363
 1433SOL    HW2 5199   4.804   0.291   5.458
 1434SOL     OW 5200   1.056   0.557   5.651
 1434SOL    HW1 5201   1.081   0.652   5.669
 1434SOL    HW2 5202   1.028   0.546   5.555
 1435SOL     OW 5203   6.915   0.023   3.146
 1435SOL    HW1 5204   6.938   0.010   3.049
 1435SOL    HW2 5205   6.936   0.117   3.173
 1436SOL     OW 5206   5.224   3.738   6.271
 1436SOL    HW1 5207   5.191   3.806   6.336
 1436SOL    HW2 5208   5.164   3.737   6.190
 1437SOL     OW 5209   3.058   2.057   5.135
 1437SOL    HW1 5210   3.019   2.093   5.219
 1437SOL    HW2 5211   3.092   2.132   5.078
 1438SOL     OW 5212   2.465   6.602   1.687
 1438SOL    HW1 5213   2.539   6.624   1.623
 1438SOL    HW2 5214   2.471   6.664   1.766
 1439SOL     OW 5215   6.372   5.276   0.835
 1439SOL    HW1 5216   6.406   5.306   0.924
 1439SOL    HW2 5217   6.442   5.220   0.790
 1440SOL     OW 5218   3.160   2.864   6.605
 1440SOL    HW1 5219   3.254   2.872   6.638
 1440SOL    HW2 5220   3.104   2.936   6.647
 1441SOL     OW 5221   6.304   1.187   3.530
 1441SOL    HW1 5222   6.241   1.244   3.478
 1441SOL    HW2 5223   6.337   1.112   3.472
 1442SOL     OW 5224   6.562   5.998   6.730
 1442SOL    HW1 5225   6.494   5.947   6.676
 1442SOL    HW2 5226   6.622   6.048   6.667
 1443SOL     OW 5227   1.187   2.714   4.032
 1443SOL    HW1 5228   1.252   2.758   3.971
 1443SOL    HW2 5229   1.142   2.783   4.089
 1444SOL     OW 5230   4.794   5.302   0.958
 1444SOL    HW1 5231   4.732   5.381   0.958
 1444SOL    HW2 5232   4.803   5.265   0.866
 1445SOL     OW 5233   0.256   3.525   2.541
 1445SOL    HW1 5234   0.180   3.500   2.481
 1445SOL    HW2 5235   0.271   3.452   2.608
 1446SOL     OW 5236   5.171   2.456   0.339
 1446SOL    HW1 5237   5.094   2.515   0.314
 1446SOL    HW2 5238   5.242   2.511   0.381
 1447SOL     OW 5239   5.867   7.005   5.096
 1447SOL    HW1 5240   5.888   6.916   5.138
 1447SOL    HW2 5241   5.859   0.054   5.168
 1448SOL     OW 5242   7.018   2.105   5.568
 1448SOL    HW1 5243   6.978   2.153   5.490
 1448SOL    HW2 5244   7.010   2.006   5.555
 1449SOL     OW 5245   0.959   1.262   7.004
 1449SOL    HW1 5246   0.951   1.284   0.081
 1449SOL    HW2 5247   0.883   1.304   6.954
 1450SOL     OW 5248   0.657   2.126   1.163
 1450SOL    HW1 5249   0.596   2.180   1.220
 1450SOL    HW2 5250   0.654   2.030   1.193
 1451SOL     OW 5251   1.743   0.038   1.982
 1451SOL    HW1 5252   1.709   7.010   2.064
 1451SOL    HW2 5253   1.776   6.991   1.916
 1452SOL     OW 5254   4.494   0.888   4.407
 1452SOL    HW1 5255   4.455   0.808   4.360
 1452SOL    HW2 5256   4.468   0.971   4.359
 1453SOL     OW 5257   0.093   4.028   5.431
 1453SOL    HW1 5258   0.094   4.010   5.530
 1453SOL    HW2 5259   0.129   4.120   5.414
 1454SOL     OW 5260   0.219   3.018   2.004
 1454SOL    HW1 5261   0.289   3.076   2.045
 1454SOL    HW2 5262   0.129   3.060   2.019
 1455SOL     OW 5263   1.247   1.059   1.467
 1455SOL    HW1 5264   1.154   1.042   1.499
 1455SOL    HW2 5265   1.302   1.092   1.544
 1456SOL     OW 5266   6.680   6.272   5.385
 1456SOL    HW1 5267   6.637   6.326   5.458
 1456SOL    HW2 5268   6.737   6.332   5.329
 1457SOL     OW 5269   1.376   6.539   1.343
 1457SOL    HW1 5270   1.464   6.495   1.357
 1457SOL    HW2 5271   1.369   6.620   1.402
 1458SOL     OW 5272   5.607   5.640   3.624
 1458SOL    HW1 5273   5.583   5.542   3.622
 1458SOL    HW2 5274   5.701   5.650   3.655
 1459SOL     OW 5275   2.786   5.822   5.639
 1459SOL    HW1 5276   2.821   5.799   5.548
 1459SOL    HW2 5277   2.743   5.742   5.680
 1460SOL     OW 5278   0.657   6.076   4.995
 1460SOL    HW1 5279   0.716   6.015   4.943
 1460SOL    HW2 5280   0.702   6.101   5.080
 1461SOL     OW 5281   6.338   4.943   2.895
 1461SOL    HW1 5282   6.343   5.032   2.850
 1461SOL    HW2 5283   6.265   4.944   2.964
 1462SOL     OW 5284   1.343   0.253   6.646
 1462SOL    HW1 5285   1.334   0.199   6.562
 1462SOL    HW2 5286   1.316   0.197   6.724
 1463SOL     OW 5287   6.761   5.555   6.418
 1463SOL    HW1 5288   6.721   5.634   6.371
 1463SOL    HW2 5289   6.853   5.579   6.451
 1464SOL     OW 5290   0.184   6.553   1.522
 1464SOL    HW1 5291   0.128   6.520   1.447
 1464SOL    HW2 5292   0.207   6.649   1.507
 1465SOL     OW 5293   1.659   1.280   2.880
 1465SOL    HW1 5294   1.608   1.340   2.818
 1465SOL    HW2 5295   1.624   1.187   2.873
 1466SOL     OW 5296   1.684   2.186   2.099
 1466SOL    HW1 5297   1.776   2.157   2.074
 1466SOL    HW2 5298   1.668   2.280   2.069
 1467SOL     OW 5299   1.862   1.483   2.602
 1467SOL    HW1 5300   1.808   1.401   2.621
 1467SOL    HW2 5301   1.953   1.456   2.569
 1468SOL     OW 5302   3.880   6.116   1.804
 1468SOL    HW1 5303   3.909   6.212   1.803
 1468SOL    HW2 5304   3.786   6.110   1.770
 1469SOL     OW 5305   0.758   1.404   1.723
 1469SOL    HW1 5306   0.716   1.485   1.764
 1469SOL    HW2 5307   0.772   1.420   1.625
 1470SOL     OW 5308   0.928   1.994   2.606
 1470SOL    HW1 5309   0.858   1.925   2.588
 1470SOL    HW2 5310   0.885   2.083   2.618
 1471SOL     OW 5311   0.487   6.866   0.987
 1471SOL    HW1 5312   0.512   6.881   0.892
 1471SOL    HW2 5313   0.569   6.865   1.044
 1472SOL     OW 5314   3.694   5.303   5.668
 1472SOL    HW1 5315   3.682   5.270   5.761
 1472SOL    HW2 5316   3.643   5.388   5.655
 1473SOL     OW 5317   4.238   6.201   5.098
 1473SOL    HW1 5318   4.305   6.155   5.039
 1473SOL    HW2 5319   4.271   6.200   5.192
 1474SOL     OW 5320   5.670   5.404   2.314
 1474SOL    HW1 5321   5.688   5.323   2.258
 1474SOL    HW2 5322   5.637   5.376   2.404
 1475SOL     OW 5323   6.124   0.432   2.045
 1475SOL    HW1 5324   6.211   0.451   2.090
 1475SOL    HW2 5325   6.096   0.338   2.064
 1476SOL     OW 5326   3.254   0.819   1.010
 1476SOL    HW1 5327   3.171   0.847   1.057
 1476SOL    HW2 5328   3.306   0.757   1.068
 1477SOL     OW 5329   3.328   6.931   5.933
 1477SOL    HW1 5330   3.301   7.001   5.866
 1477SOL    HW2 5331   3.418   6.896   5.909
 1478SOL     OW 5332   5.971   5.849   6.491
 1478SOL    HW1 5333   5.891   5.789   6.500
 1478SOL    HW2 5334   6.006   5.870   6.583
 1479SOL     OW 5335   1.446   2.270   0.490
 1479SOL    HW1 5336   1.545   2.263   0.503
 1479SOL    HW2 5337   1.425   2.279   0.393
 1480SOL     OW 5338   3.193   0.863   5.193
 1480SOL    HW1 5339   3.202   0.878   5.291
 1480SOL    HW2 5340   3.282   0.840   5.154
 1481SOL     OW 5341   6.372   3.050   5.839
 1481SOL    HW1 5342   6.325   3.026   5.754
 1481SOL    HW2 5343   6.389   2.968   5.892
 1482SOL     OW 5344   4.895   1.558   1.769
 1482SOL    HW1 5345   4.923   1.654   1.769
 1482SOL    HW2 5346   4.858   1.534   1.679
 1483SOL     OW 5347   5.229   2.070   6.627
 1483SOL    HW1 5348   5.255   2.166   6.640
 1483SOL    HW2 5349   5.293   2.027   6.563
 1484SOL     OW 5350   5.483   3.950   4.889
 1484SOL    HW1 5351   5.414   3.978   4.955
 1484SOL    HW2 5352   5.440   3.898   4.815
 1485SOL     OW 5353   3.472   1.766   3.379
 1485SOL    HW1 5354   3.527   1.709   3.319
 1485SOL    HW2 5355   3.385   1.787   3.335
 1486SOL     OW 5356   4.880   1.643   2.589
 1486SOL    HW1 5357   4.966   1.677   2.551
 1486SOL    HW2 5358   4.834   1.586   2.521
 1487SOL     OW 5359   6.993   2.343   6.123
 1487SOL    HW1 5360   6.916   2.360   6.185
 1487SOL    HW2 5361   6.979   2.256   6.076
 1488SOL     OW 5362   5.251   1.147   3.447
 1488SOL    HW1 5363   5.245   1.054   3.484
 1488SOL    HW2 5364   5.167   1.197   3.470
 1489SOL     OW 5365   4.632   4.733   5.310
 1489SOL    HW1 5366   4.622   4.822   5.356
 1489SOL    HW2 5367   4.686   4.672   5.367
 1490SOL     OW 5368   0.390   3.089   2.391
 1490SOL    HW1 5369   0.439   3.028   2.453
 1490SOL    HW2 5370   0.392   3.051   2.299
 1491SOL     OW 5371   6.561   3.755   2.533
 1491SOL    HW1 5372   6.515   3.843   2.543
 1491SOL    HW2 5373   6.536   3.714   2.446
 1492SOL     OW 5374   5.822   1.038   2.684
 1492SOL    HW1 5375   5.737   1.021   2.634
 1492SOL    HW2 5376   5.838   1.137   2.687
 1493SOL     OW 5377   4.059   6.531   5.294
 1493SOL    HW1 5378   4.073   6.608   5.232
 1493SOL    HW2 5379   4.143   6.478   5.301
 1494SOL     OW 5380   4.998   2.052   6.994
 1494SOL    HW1 5381   5.049   2.001   6.926
 1494SOL    HW2 5382   5.061   2.107   0.029
 1495SOL     OW 5383   6.570   3.580   5.255
 1495SOL    HW1 5384   6.475   3.551   5.264
 1495SOL    HW2 5385   6.611   3.537   5.174
 1496SOL     OW 5386   0.230   1.626   1.582
 1496SOL    HW1 5387   0.202   1.722   1.584
 1496SOL    HW2 5388   0.171   1.573   1.643
 1497SOL     OW 5389   6.341   3.346   2.893
 1497SOL    HW1 5390   6.402   3.302   2.959
 1497SOL    HW2 5391   6.362   3.313   2.801
 1498SOL     OW 5392   2.526   5.233   6.774
 1498SOL    HW1 5393   2.587   5.304   6.808
 1498SOL    HW2 5394   2.512   5.163   6.844
 1499SOL     OW 5395   0.691   2.793   6.216
 1499SOL    HW1 5396   0.597   2.801   6.181
 1499SOL    HW2 5397   0.710   2.697   6.239
 1500SOL     OW 5398   0.165   0.048   0.424
 1500SOL    HW1 5399   0.190   7.011   0.345
 1500SOL    HW2 5400   0.066   0.060   0.426
 1501SOL     OW 5401   5.509   2.429   6.514
 1501SOL    HW1 5402   5.576   2.438   6.440
 1501SOL    HW2 5403   5.497   2.517   6.560
 1502SOL     OW 5404   4.252   0.222   0.124
 1502SOL    HW1 5405   4.169   0.182   0.161
 1502SOL    HW2 5406   4.293   0.282   0.193
 1503SOL     OW 5407   0.560   3.622   1.722
 1503SOL    HW1 5408   0.554   3.559   1.644
 1503SOL    HW2 5409   0.654   3.622   1.758
 1504SOL     OW 5410   0.395   0.329   5.218
 1504SOL    HW1 5411   0.323   0.346   5.150
 1504SOL    HW2 5412   0.467   0.274   5.177
 1505SOL     OW 5413   5.188   0.367   5.000
 1505SOL    HW1 5414   5.207   0.465   4.995
 1505SOL    HW2 5415   5.116   0.350   5.067
 1506SOL     OW 5416   0.763   6.414   0.694
 1506SOL    HW1 5417   0.754   6.467   0.610
 1506SOL    HW2 5418   0.683   6.428   0.752
 1507SOL     OW 5419   1.015   1.703   5.654
 1507SOL    HW1 5420   1.115   1.698   5.659
 1507SOL    HW2 5421   0.988   1.771   5.586
 1508SOL     OW 5422   6.638   1.481   2.110
 1508SOL    HW1 5423   6.587   1.405   2.069
 1508SOL    HW2 5424   6.720   1.446   2.154
 1509SOL     OW 5425   3.887   1.594   6.045
 1509SOL    HW1 5426   3.893   1.693   6.030
 1509SOL    HW2 5427   3.793   1.564   6.028
 1510SOL     OW 5428   5.046   1.894   4.842
 1510SOL    HW1 5429   5.018   1.824   4.908
 1510SOL    HW2 5430   4.967   1.948   4.815
 1511SOL     OW 5431   3.861   3.282   2.705
 1511SOL    HW1 5432   3.905   3.359   2.659
 1511SOL    HW2 5433   3.765   3.276   2.676
 1512SOL     OW 5434   0.387   5.387   1.261
 1512SOL    HW1 5435   0.344   5.311   1.213
 1512SOL    HW2 5436   0.470   5.414   1.214
 1513SOL     OW 5437   3.876   0.712   4.505
 1513SOL    HW1 5438   3.780   0.692   4.490
 1513SOL    HW2 5439   3.913   0.647   4.572
 1514SOL     OW 5440   3.940   2.083   5.571
 1514SOL    HW1 5441   3.847   2.081   5.606
 1514SOL    HW2 5442   3.985   2.168   5.599
 1515SOL     OW 5443   5.970   2.144   2.988
 1515SOL    HW1 5444   5.885   2.151   3.040
 1515SOL    HW2 5445   5.965   2.202   2.907
 1516SOL     OW 5446   6.835   6.381   0.201
 1516SOL    HW1 5447   6.810   6.401   0.106
 1516SOL    HW2 5448   6.770   6.425   0.263
 1517SOL     OW 5449   4.510   6.220   3.305
 1517SOL    HW1 5450   4.457   6.229   3.221
 1517SOL    HW2 5451   4.568   6.139   3.300
 1518SOL     OW 5452   1.714   2.323   6.859
 1518SOL    HW1 5453   1.663   2.339   6.774
 1518SOL    HW2 5454   1.662   2.360   6.936
 1519SOL     OW 5455   0.031   5.319   1.249
 1519SOL    HW1 5456   0.070   5.232   1.278
 1519SOL    HW2 5457   6.960   5.330   1.290
 1520SOL     OW 5458   0.429   3.875   1.778
 1520SOL    HW1 5459   0.456   3.809   1.708
 1520SOL    HW2 5460   0.388   3.827   1.855
 1521SOL     OW 5461   1.716   4.149   6.475
 1521SOL    HW1 5462   1.719   4.077   6.544
 1521SOL    HW2 5463   1.784   4.129   6.404
 1522SOL     OW 5464   6.191   6.569   5.109
 1522SOL    HW1 5465   6.098   6.534   5.097
 1522SOL    HW2 5466   6.253   6.520   5.049
 1523SOL     OW 5467   5.297   5.927   1.270
 1523SOL    HW1 5468   5.283   5.828   1.262
 1523SOL    HW2 5469   5.376   5.954   1.215
 1524SOL     OW 5470   2.533   2.073   2.185
 1524SOL    HW1 5471   2.630   2.077   2.162
 1524SOL    HW2 5472   2.521   2.094   2.282
 1525SOL     OW 5473   0.072   2.531   0.260
 1525SOL    HW1 5474   0.154   2.569   0.216
 1525SOL    HW2 5475   0.008   2.499   0.190
 1526SOL     OW 5476   6.560   0.168   6.367
 1526SOL    HW1 5477   6.544   0.239   6.436
 1526SOL    HW2 5478   6.653   0.133   6.376
 1527SOL     OW 5479   4.010   0.505   5.205
 1527SOL    HW1 5480   4.077   0.573   5.236
 1527SOL    HW2 5481   3.955   0.475   5.283
 1528SOL     OW 5482   4.485   5.381   2.199
 1528SOL    HW1 5483   4.461   5.290   2.233
 1528SOL    HW2 5484   4.433   5.450   2.248
 1529SOL     OW 5485   3.748   0.809   0.121
 1529SOL    HW1 5486   3.831   0.757   0.140
 1529SOL    HW2 5487   3.681   0.793   0.193
 1530SOL     OW 5488   3.458   1.868   1.855
 1530SOL    HW1 5489   3.534   1.930   1.833
 1530SOL    HW2 5490   3.377   1.921   1.878
 1531SOL     OW 5491   4.610   0.538   5.555
 1531SOL    HW1 5492   4.598   0.482   5.637
 1531SOL    HW2 5493   4.635   0.480   5.478
 1532SOL     OW 5494   2.918   3.403   6.661
 1532SOL    HW1 5495   2.973   3.383   6.580
 1532SOL    HW2 5496   2.921   3.502   6.680
 1533SOL     OW 5497   5.432   4.218   6.725
 1533SOL    HW1 5498   5.518   4.235   6.772
 1533SOL    HW2 5499   5.358   4.267   6.771
 1534SOL     OW 5500   2.327   4.752   6.389
 1534SOL    HW1 5501   2.302   4.655   6.397
 1534SOL    HW2 5502   2.254   4.809   6.426
 1535SOL     OW 5503   4.891   6.341   4.157
 1535SOL    HW1 5504   4.871   6.438   4.145
 1535SOL    HW2 5505   4.987   6.329   4.181
 1536SOL     OW 5506   3.975   4.758   5.189
 1536SOL    HW1 5507   3.941   4.811   5.266
 1536SOL    HW2 5508   3.932   4.668   5.188
 1537SOL     OW 5509   4.865   6.508   3.276
 1537SOL    HW1 5510   4.820   6.505   3.186
 1537SOL    HW2 5511   4.804   6.467   3.344
 1538SOL     OW 5512   4.069   5.708   6.365
 1538SOL    HW1 5513   4.018   5.621   6.366
 1538SOL    HW2 5514   4.123   5.713   6.281
 1539SOL     OW 5515   4.675   3.972   1.463
 1539SOL    HW1 5516   4.640   4.006   1.551
 1539SOL    HW2 5517   4.603   3.919   1.417
 1540SOL     OW 5518   1.319   6.024   5.847
 1540SOL    HW1 5519   1.404   5.997   5.802
 1540SOL    HW2 5520   1.243   6.018   5.782
 1541SOL     OW 5521   3.925   3.030   3.309
 1541SOL    HW1 5522   3.970   3.119   3.308
 1541SOL    HW2 5523   3.882   3.013   3.220
 1542SOL     OW 5524   5.836   5.999   2.433
 1542SOL    HW1 5525   5.900   5.922   2.437
 1542SOL    HW2 5526   5.879   6.080   2.473
 1543SOL     OW 5527   3.699   4.859   5.342
 1543SOL    HW1 5528   3.722   4.762   5.341
 1543SOL    HW2 5529   3.733   4.901   5.426
 1544SOL     OW 5530   3.478   3.235   2.862
 1544SOL    HW1 5531   3.478   3.324   2.816
 1544SOL    HW2 5532   3.543   3.237   2.938
 1545SOL     OW 5533   4.804   1.037   3.622
 1545SOL    HW1 5534   4.831   0.942   3.639
 1545SOL    HW2 5535   4.735   1.065   3.689
 1546SOL     OW 5536   3.950   6.325   5.872
 1546SOL    HW1 5537   4.001   6.399   5.826
 1546SOL    HW2 5538   3.867   6.305   5.821
 1547SOL     OW 5539   1.499   3.274   2.883
 1547SOL    HW1 5540   1.580   3.223   2.856
 1547SOL    HW2 5541   1.432   3.273   2.808
 1548SOL     OW 5542   5.085   3.905   5.704
 1548SOL    HW1 5543   5.147   3.837   5.743
 1548SOL    HW2 5544   5.138   3.983   5.670
 1549SOL     OW 5545   4.743   1.459   2.427
 1549SOL    HW1 5546   4.683   1.434   2.503
 1549SOL    HW2 5547   4.689   1.467   2.343
 1550SOL     OW 5548   3.308   3.962   6.733
 1550SOL    HW1 5549   3.247   3.948   6.655
 1550SOL    HW2 5550   3.362   4.044   6.718
 1551SOL     OW 5551   1.824   4.748   6.005
 1551SOL    HW1 5552   1.884   4.714   6.077
 1551SOL    HW2 5553   1.861   4.721   5.916
 1552SOL     OW 5554   0.189   5.725   6.815
 1552SOL    HW1 5555   0.262   5.713   6.883
 1552SOL    HW2 5556   0.220   5.786   6.743
 1553SOL     OW 5557   0.082   1.634   5.562
 1553SOL    HW1 5558   0.030   1.574   5.622
 1553SOL    HW2 5559   0.124   1.579   5.489
 1554SOL     OW 5560   4.072   1.628   3.118
 1554SOL    HW1 5561   4.161   1.583   3.117
 1554SOL    HW2 5562   4.000   1.559   3.125
 1555SOL     OW 5563   5.292   2.243   6.909
 1555SOL    HW1 5564   5.352   2.192   6.848
 1555SOL    HW2 5565   5.255   2.322   6.859
 1556SOL     OW 5566   3.409   1.019   0.880
 1556SOL    HW1 5567   3.360   0.937   0.908
 1556SOL    HW2 5568   3.344   1.083   0.837
 1557SOL     OW 5569   2.021   0.776   6.320
 1557SOL    HW1 5570   1.999   0.697   6.264
 1557SOL    HW2 5571   1.956   0.850   6.300
 1558SOL     OW 5572   4.830   0.464   4.574
 1558SOL    HW1 5573   4.746   0.512   4.551
 1558SOL    HW2 5574   4.909   0.516   4.539
 1559SOL     OW 5575   0.267   2.844   6.762
 1559SOL    HW1 5576   0.257   2.913   6.691
 1559SOL    HW2 5577   0.354   2.796   6.750
 1560SOL     OW 5578   1.587   1.370   5.917
 1560SOL    HW1 5579   1.507   1.427   5.898
 1560SOL    HW2 5580   1.643   1.414   5.988
 1561SOL     OW 5581   5.922   6.523   4.430
 1561SOL    HW1 5582   6.000   6.583   4.412
 1561SOL    HW2 5583   5.909   6.461   4.353
 1562SOL     OW 5584   4.205   5.756   2.729
 1562SOL    HW1 5585   4.136   5.817   2.769
 1562SOL    HW2 5586   4.181   5.661   2.748
 1563SOL     OW 5587   1.936   0.529   6.188
 1563SOL    HW1 5588   1.907   0.581   6.107
 1563SOL    HW2 5589   2.002   0.459   6.160
 1564SOL     OW 5590   1.085   2.935   3.039
 1564SOL    HW1 5591   1.119   3.009   2.982
 1564SOL    HW2 5592   1.008   2.967   3.094
 1565SOL     OW 5593   4.332   5.145   4.779
 1565SOL    HW1 5594   4.270   5.223   4.775
 1565SOL    HW2 5595   4.279   5.060   4.775
 1566SOL     OW 5596   5.067   4.746   3.465
 1566SOL    HW1 5597   5.083   4.745   3.564
 1566SOL    HW2 5598   5.062   4.841   3.433
 1567SOL     OW 5599   5.678   5.190   0.187
 1567SOL    HW1 5600   5.695   5.119   0.255
 1567SOL    HW2 5601   5.766   5.229   0.158
 1568SOL     OW 5602   1.590   5.870   1.229
 1568SOL    HW1 5603   1.661   5.873   1.299
 1568SOL    HW2 5604   1.560   5.963   1.207
 1569SOL     OW 5605   3.866   6.572   3.565
 1569SOL    HW1 5606   3.793   6.584   3.633
 1569SOL    HW2 5607   3.872   6.476   3.539
 1570SOL     OW 5608   2.010   6.675   0.565
 1570SOL    HW1 5609   1.969   6.636   0.647
 1570SOL    HW2 5610   1.969   6.632   0.484
 1571SOL     OW 5611   5.919   1.779   1.885
 1571SOL    HW1 5612   5.905   1.745   1.977
 1571SOL    HW2 5613   6.002   1.739   1.847
 1572SOL     OW 5614   0.593   6.820   0.415
 1572SOL    HW1 5615   0.642   6.784   0.494
 1572SOL    HW2 5616   0.553   6.908   0.438
 1573SOL     OW 5617   5.856   3.662   2.133
 1573SOL    HW1 5618   5.805   3.709   2.205
 1573SOL    HW2 5619   5.948   3.700   2.127
 1574SOL     OW 5620   0.038   0.866   2.452
 1574SOL    HW1 5621   6.993   0.811   2.504
 1574SOL    HW2 5622   7.011   0.942   2.408
 1575SOL     OW 5623   3.080   1.713   0.496
 1575SOL    HW1 5624   3.024   1.786   0.535
 1575SOL    HW2 5625   3.154   1.691   0.558
 1576SOL     OW 5626   1.597   0.422   3.252
 1576SOL    HW1 5627   1.577   0.509   3.298
 1576SOL    HW2 5628   1.693   0.421   3.223
 1577SOL     OW 5629   2.427   0.700   5.038
 1577SOL    HW1 5630   2.429   0.622   4.975
 1577SOL    HW2 5631   2.490   0.770   5.006
 1578SOL     OW 5632   5.913   2.849   5.541
 1578SOL    HW1 5633   5.921   2.870   5.444
 1578SOL    HW2 5634   5.832   2.894   5.578
 1579SOL     OW 5635   0.735   1.707   2.280
 1579SOL    HW1 5636   0.762   1.737   2.188
 1579SOL    HW2 5637   0.660   1.641   2.272
 1580SOL     OW 5638   2.987   3.917   4.462
 1580SOL    HW1 5639   2.989   3.821   4.437
 1580SOL    HW2 5640   2.892   3.949   4.467
 1581SOL     OW 5641   0.215   4.192   4.946
 1581SOL    HW1 5642   0.273   4.125   4.900
 1581SOL    HW2 5643   0.179   4.256   4.878
 1582SOL     OW 5644   1.813   0.043   4.036
 1582SOL    HW1 5645   1.800   0.044   3.937
 1582SOL    HW2 5646   1.830   0.136   4.068
 1583SOL     OW 5647   1.202   4.649   3.224
 1583SOL    HW1 5648   1.224   4.709   3.301
 1583SOL    HW2 5649   1.275   4.583   3.210
 1584SOL     OW 5650   1.408   6.379   5.760
 1584SOL    HW1 5651   1.342   6.446   5.792
 1584SOL    HW2 5652   1.362   6.312   5.702
 1585SOL     OW 5653   5.678   1.461   3.457
 1585SOL    HW1 5654   5.712   1.538   3.510
 1585SOL    HW2 5655   5.607   1.413   3.509
 1586SOL     OW 5656   3.321   4.913   2.177
 1586SOL    HW1 5657   3.340   4.879   2.085
 1586SOL    HW2 5658   3.226   4.893   2.201
 1587SOL     OW 5659   3.268   5.533   6.102
 1587SOL    HW1 5660   3.201   5.580   6.160
 1587SOL    HW2 5661   3.232   5.444   6.075
 1588SOL     OW 5662   4.577   1.360   3.405
 1588SOL    HW1 5663   4.589   1.263   3.383
 1588SOL    HW2 5664   4.480   1.380   3.418
 1589SOL     OW 5665   5.946   3.439   1.547
 1589SOL    HW1 5666   5.855   3.443   1.506
 1589SOL    HW2 5667   5.996   3.361   1.510
 1590SOL     OW 5668   3.676   6.086   6.086
 1590SOL    HW1 5669   3.629   6.008   6.044
 1590SOL    HW2 5670   3.610   6.160   6.102
 1591SOL     OW 5671   6.591   5.144   2.654
 1591SOL    HW1 5672   6.606   5.230   2.605
 1591SOL    HW2 5673   6.674   5.119   2.703
 1592SOL     OW 5674   2.261   4.405   6.516
 1592SOL    HW1 5675   2.218   4.330   6.565
 1592SOL    HW2 5676   2.266   4.384   6.419
 1593SOL     OW 5677   1.224   6.233   4.807
 1593SOL    HW1 5678   1.199   6.328   4.786
 1593SOL    HW2 5679   1.219   6.178   4.723
 1594SOL     OW 5680   0.490   5.905   2.169
 1594SOL    HW1 5681   0.520   5.831   2.229
 1594SOL    HW2 5682   0.534   5.895   2.079
 1595SOL     OW 5683   1.644   5.649   0.762
 1595SOL    HW1 5684   1.577   5.585   0.799
 1595SOL    HW2 5685   1.723   5.654   0.823
 1596SOL     OW 5686   0.250   2.452   3.810
 1596SOL    HW1 5687   0.277   2.369   3.762
 1596SOL    HW2 5688   0.272   2.532   3.754
 1597SOL     OW 5689   2.020   6.541   6.993
 1597SOL    HW1 5690   1.955   6.521   6.919
 1597SOL    HW2 5691   2.015   6.468   0.041
 1598SOL     OW 5692   1.013   3.976   6.228
 1598SOL    HW1 5693   1.097   4.030   6.220
 1598SOL    HW2 5694   0.937   4.036   6.252
 1599SOL     OW 5695   4.746   4.572   5.505
 1599SOL    HW1 5696   4.722   4.491   5.452
 1599SOL    HW2 5697   4.723   4.557   5.601
 1600SOL     OW 5698   4.730   1.743   4.040
 1600SOL    HW1 5699   4.690   1.796   4.115
 1600SOL    HW2 5700   4.700   1.648   4.047
 1601SOL     OW 5701   0.245   4.623   4.809
 1601SOL    HW1 5702   0.250   4.675   4.723
 1601SOL    HW2 5703   0.209   4.532   4.791
 1602SOL     OW 5704   2.957   4.894   3.345
 1602SOL    HW1 5705   3.032   4.887   3.410
 1602SOL    HW2 5706   2.969   4.827   3.272
 1603SOL     OW 5707   0.666   6.127   2.520
 1603SOL    HW1 5708   0.718   6.156   2.601
 1603SOL    HW2 5709   0.670   6.199   2.451
 1604SOL     OW 5710   5.647   5.183   1.929
 1604SOL    HW1 5711   5.632   5.106   1.867
 1604SOL    HW2 5712   5.672   5.148   2.020
 1605SOL     OW 5713   6.920   6.127   1.470
 1605SOL    HW1 5714   6.967   6.167   1.391
 1605SOL    HW2 5715   6.936   6.028   1.471
 1606SOL     OW 5716   3.268   0.814   4.825
 1606SOL    HW1 5717   3.297   0.745   4.759
 1606SOL    HW2 5718   3.173   0.796   4.853
 1607SOL     OW 5719   4.395   1.073   1.207
 1607SOL    HW1 5720   4.303   1.053   1.173
 1607SOL    HW2 5721   4.449   0.989   1.210
 1608SOL     OW 5722   0.832   0.753   3.828
 1608SOL    HW1 5723   0.880   0.680   3.876
 1608SOL    HW2 5724   0.751   0.715   3.782
 1609SOL     OW 5725   3.676   6.967   0.695
 1609SOL    HW1 5726   3.618   7.014   0.761
 1609SOL    HW2 5727   3.618   6.927   0.623
 1610SOL     OW 5728   5.619   4.602   7.017
 1610SOL    HW1 5729   5.673   4.579   6.936
 1610SOL    HW2 5730   5.637   4.696   0.025
 1611SOL     OW 5731   2.423   3.520   1.304
 1611SOL    HW1 5732   2.454   3.594   1.364
 1611SOL    HW2 5733   2.432   3.433   1.352
 1612SOL     OW 5734   2.870   0.797   5.651
 1612SOL    HW1 5735   2.774   0.790   5.678
 1612SOL    HW2 5736   2.881   0.763   5.558
 1613SOL     OW 5737   2.020   5.396   1.841
 1613SOL    HW1 5738   2.120   5.392   1.849
 1613SOL    HW2 5739   1.989   5.490   1.853
 1614SOL     OW 5740   5.916   3.701   6.682
 1614SOL    HW1 5741   5.958   3.623   6.728
 1614SOL    HW2 5742   5.841   3.737   6.737
 1615SOL     OW 5743   6.292   4.793   0.912
 1615SOL    HW1 5744   6.285   4.876   0.966
 1615SOL    HW2 5745   6.332   4.720   0.968
 1616SOL     OW 5746   3.043   1.262   4.947
 1616SOL    HW1 5747   3.124   1.312   4.977
 1616SOL    HW2 5748   3.028   1.183   5.008
 1617SOL     OW 5749   6.065   0.445   2.599
 1617SOL    HW1 5750   6.112   0.377   2.542
 1617SOL    HW2 5751   5.979   0.472   2.554
 1618SOL     OW 5752   1.794   4.153   1.853
 1618SOL    HW1 5753   1.747   4.216   1.791
 1618SOL    HW2 5754   1.810   4.066   1.805
 1619SOL     OW 5755   1.111   2.969   2.533
 1619SOL    HW1 5756   1.074   2.939   2.621
 1619SOL    HW2 5757   1.037   3.000   2.474
 1620SOL     OW 5758   2.537   4.879   1.845
 1620SOL    HW1 5759   2.504   4.786   1.831
 1620SOL    HW2 5760   2.635   4.884   1.823
 1621SOL     OW 5761   0.386   0.914   0.523
 1621SOL    HW1 5762   0.362   0.949   0.613
 1621SOL    HW2 5763   0.459   0.970   0.483
 1622SOL     OW 5764   0.420   2.681   4.737
 1622SOL    HW1 5765   0.512   2.711   4.763
 1622SOL    HW2 5766   0.382   2.625   4.810
 1623SOL     OW 5767   2.090   3.225   5.807
 1623SOL    HW1 5768   2.168   3.188   5.756
 1623SOL    HW2 5769   2.079   3.322   5.785
 1624SOL     OW 5770   2.778   0.757   5.042
 1624SOL    HW1 5771   2.698   0.803   5.002
 1624SOL    HW2 5772   2.756   0.661   5.059
 1625SOL     OW 5773   1.241   5.536   1.704
 1625SOL    HW1 5774   1.265   5.440   1.693
 1625SOL    HW2 5775   1.146   5.550   1.678
 1626SOL     OW 5776   4.112   1.997   6.693
 1626SOL    HW1 5777   4.058   1.917   6.667
 1626SOL    HW2 5778   4.103   2.067   6.622
 1627SOL     OW 5779   0.241   3.365   3.888
 1627SOL    HW1 5780   0.329   3.381   3.932
 1627SOL    HW2 5781   0.226   3.435   3.817
 1628SOL     OW 5782   4.356   5.095   0.410
 1628SOL    HW1 5783   4.452   5.103   0.436
 1628SOL    HW2 5784   4.302   5.066   0.489
 1629SOL     OW 5785   2.972   1.146   4.006
 1629SOL    HW1 5786   2.898   1.184   4.061
 1629SOL    HW2 5787   2.949   1.051   3.982
 1630SOL     OW 5788   1.557   5.661   5.701
 1630SOL    HW1 5789   1.597   5.646   5.791
 1630SOL    HW2 5790   1.458   5.650   5.706
 1631SOL     OW 5791   0.633   2.592   6.403
 1631SOL    HW1 5792   0.622   2.608   6.501
 1631SOL    HW2 5793   0.616   2.495   6.383
 1632SOL     OW 5794   0.025   1.942   6.720
 1632SOL    HW1 5795   6.964   1.970   6.669
 1632SOL    HW2 5796   0.082   2.022   6.738
 1633SOL     OW 5797   5.230   3.134   4.916
 1633SOL    HW1 5798   5.169   3.139   4.996
 1633SOL    HW2 5799   5.266   3.225   4.896
 1634SOL     OW 5800   3.901   5.484   6.412
 1634SOL    HW1 5801   3.984   5.440   6.446
 1634SOL    HW2 5802   3.867   5.433   6.332
 1635SOL     OW 5803   7.009   5.920   5.931
 1635SOL    HW1 5804   0.051   5.879   5.997
 1635SOL    HW2 5805   6.929   5.958   5.978
 1636SOL     OW 5806   3.085   4.269   1.697
 1636SOL    HW1 5807   3.046   4.296   1.785
 1636SOL    HW2 5808   3.013   4.230   1.639
 1637SOL     OW 5809   0.839   0.253   2.849
 1637SOL    HW1 5810   0.852   0.239   2.948
 1637SOL    HW2 5811   0.803   0.169   2.808
 1638SOL     OW 5812   0.301   4.475   3.579
 1638SOL    HW1 5813   0.398   4.456   3.566
 1638SOL    HW2 5814   0.259   4.401   3.631
 1639SOL     OW 5815   5.136   6.727   2.862
 1639SOL    HW1 5816   5.134   6.655   2.792
 1639SOL    HW2 5817   5.211   6.709   2.925
 1640SOL     OW 5818   6.090   1.282   0.356
 1640SOL    HW1 5819   6.091   1.306   0.258
 1640SOL    HW2 5820   6.043   1.354   0.407
 1641SOL     OW 5821   5.174   2.674   4.143
 1641SOL    HW1 5822   5.157   2.700   4.238
 1641SOL    HW2 5823   5.120   2.593   4.120
 1642SOL     OW 5824   5.707   3.926   6.538
 1642SOL    HW1 5825   5.768   3.953   6.613
 1642SOL    HW2 5826   5.630   3.874   6.574
 1643SOL     OW 5827   2.882   5.250   4.029
 1643SOL    HW1 5828   2.823   5.179   4.065
 1643SOL    HW2 5829   2.834   5.338   4.031
 1644SOL     OW 5830   0.222   2.993   0.911
 1644SOL    HW1 5831   0.244   2.994   0.814
 1644SOL    HW2 5832   0.306   2.977   0.964
 1645SOL     OW 5833   3.328   5.993   5.843
 1645SOL    HW1 5834   3.247   5.980   5.785
 1645SOL    HW2 5835   3.387   5.913   5.835
 1646SOL     OW 5836   3.012   5.906   0.316
 1646SOL    HW1 5837   3.089   5.872   0.369
 1646SOL    HW2 5838   2.932   5.848   0.332
 1647SOL     OW 5839   6.360   3.043   4.825
 1647SOL    HW1 5840   6.374   3.064   4.922
 1647SOL    HW2 5841   6.411   2.960   4.802
 1648SOL     OW 5842   5.662   5.363   1.048
 1648SOL    HW1 5843   5.734   5.295   1.054
 1648SOL    HW2 5844   5.697   5.452   1.079
 1649SOL     OW 5845   3.303   0.320   4.454
 1649SOL    HW1 5846   3.321   0.279   4.365
 1649SOL    HW2 5847   3.346   0.264   4.525
 1650SOL     OW 5848   2.061   5.870   5.391
 1650SOL    HW1 5849   2.104   5.784   5.366
 1650SOL    HW2 5850   1.963   5.854   5.408
 1651SOL     OW 5851   0.396   1.424   1.049
 1651SOL    HW1 5852   0.462   1.446   0.977
 1651SOL    HW2 5853   0.310   1.472   1.031
 1652SOL     OW 5854   0.860   3.321   2.595
 1652SOL    HW1 5855   0.834   3.229   2.624
 1652SOL    HW2 5856   0.851   3.384   2.673
 1653SOL     OW 5857   1.316   0.203   1.273
 1653SOL    HW1 5858   1.243   0.230   1.335
 1653SOL    HW2 5859   1.277   0.158   1.193
 1654SOL     OW 5860   6.585   3.273   1.309
 1654SOL    HW1 5861   6.604   3.369   1.330
 1654SOL    HW2 5862   6.653   3.215   1.354
 1655SOL     OW 5863   6.591   2.750   5.240
 1655SOL    HW1 5864   6.667   2.761   5.177
 1655SOL    HW2 5865   6.567   2.839   5.280
 1656SOL     OW 5866   2.346   4.639   1.781
 1656SOL    HW1 5867   2.294   4.672   1.859
 1656SOL    HW2 5868   2.301   4.669   1.696
 1657SOL     OW 5869   6.628   0.800   3.612
 1657SOL    HW1 5870   6.553   0.858   3.579
 1657SOL    HW2 5871   6.590   0.718   3.655
 1658SOL     OW 5872   1.038   6.870   1.264
 1658SOL    HW1 5873   1.106   6.919   1.210
 1658SOL    HW2 5874   1.063   6.873   1.361
 1659SOL     OW 5875   3.820   0.549   6.314
 1659SOL    HW1 5876   3.858   0.463   6.280
 1659SOL    HW2 5877   3.731   0.532   6.357
 1660SOL     OW 5878   1.032   5.138   3.798
 1660SOL    HW1 5879   1.014   5.188   3.883
 1660SOL    HW2 5880   1.055   5.043   3.819
 1661SOL     OW 5881   2.653   1.117   1.857
 1661SOL    HW1 5882   2.663   1.170   1.773
 1661SOL    HW2 5883   2.694   1.168   1.933
 1662SOL     OW 5884   6.977   6.718   3.715
 1662SOL    HW1 5885   6.887   6.703   3.673
 1662SOL    HW2 5886   6.972   6.697   3.812
 1663SOL     OW 5887   4.078   6.692   2.728
 1663SOL    HW1 5888   4.050   6.599   2.751
 1663SOL    HW2 5889   4.060   6.752   2.806
 1664SOL     OW 5890   2.217   6.581   4.732
 1664SOL    HW1 5891   2.231   6.677   4.757
 1664SOL    HW2 5892   2.158   6.576   4.652
 1665SOL     OW 5893   0.252   1.520   3.459
 1665SOL    HW1 5894   0.264   1.573   3.544
 1665SOL    HW2 5895   0.246   1.423   3.481
 1666SOL     OW 5896   5.610   2.803   6.839
 1666SOL    HW1 5897   5.628   2.895   6.874
 1666SOL    HW2 5898   5.567   2.748   6.911
 1667SOL     OW 5899   6.613   6.507   1.571
 1667SOL    HW1 5900   6.614   6.497   1.671
 1667SOL    HW2 5901   6.565   6.591   1.546
 1668SOL     OW 5902   5.429   6.565   5.317
 1668SOL    HW1 5903   5.349   6.547   5.374
 1668SOL    HW2 5904   5.420   6.656   5.276
 1669SOL     OW 5905   0.149   5.716   6.301
 1669SOL    HW1 5906   0.175   5.726   6.205
 1669SOL    HW2 5907   0.170   5.623   6.331
 1670SOL     OW 5908   0.547   4.063   6.268
 1670SOL    HW1 5909   0.634   4.050   6.315
 1670SOL    HW2 5910   0.525   4.161   6.265
 1671SOL     OW 5911   4.747   2.133   1.052
 1671SOL    HW1 5912   4.651   2.122   1.030
 1671SOL    HW2 5913   4.757   2.179   1.140
 1672SOL     OW 5914   1.971   2.902   0.705
 1672SOL    HW1 5915   2.068   2.909   0.727
 1672SOL    HW2 5916   1.923   2.857   0.781
 1673SOL     OW 5917   0.283   2.504   4.061
 1673SOL    HW1 5918   0.359   2.568   4.061
 1673SOL    HW2 5919   0.266   2.471   3.968
 1674SOL     OW 5920   0.163   4.103   2.219
 1674SOL    HW1 5921   0.209   4.016   2.204
 1674SOL    HW2 5922   0.231   4.174   2.241
 1675SOL     OW 5923   4.129   0.831   6.431
 1675SOL    HW1 5924   4.204   0.871   6.483
 1675SOL    HW2 5925   4.163   0.797   6.343
 1676SOL     OW 5926   2.396   1.879   1.980
 1676SOL    HW1 5927   2.444   1.903   2.065
 1676SOL    HW2 5928   2.353   1.961   1.942
 1677SOL     OW 5929   3.377   2.917   5.483
 1677SOL    HW1 5930   3.336   2.862   5.556
 1677SOL    HW2 5931   3.449   2.865   5.438
 1678SOL     OW 5932   4.615   4.757   4.724
 1678SOL    HW1 5933   4.589   4.854   4.720
 1678SOL    HW2 5934   4.537   4.701   4.699
 1679SOL     OW 5935   2.539   2.491   4.946
 1679SOL    HW1 5936   2.613   2.554   4.924
 1679SOL    HW2 5937   2.454   2.542   4.958
 1680SOL     OW 5938   0.550   3.271   4.812
 1680SOL    HW1 5939   0.469   3.253   4.755
 1680SOL    HW2 5940   0.628   3.289   4.753
 1681SOL     OW 5941   6.550   5.746   0.203
 1681SOL    HW1 5942   6.547   5.647   0.209
 1681SOL    HW2 5943   6.623   5.774   0.140
 1682SOL     OW 5944   0.141   1.603   5.030
 1682SOL    HW1 5945   0.200   1.522   5.026
 1682SOL    HW2 5946   0.123   1.635   4.937
 1683SOL     OW 5947   4.420   5.636   1.214
 1683SOL    HW1 5948   4.358   5.694   1.267
 1683SOL    HW2 5949   4.503   5.688   1.192
 1684SOL     OW 5950   1.501   6.118   2.669
 1684SOL    HW1 5951   1.455   6.110   2.758
 1684SOL    HW2 5952   1.523   6.213   2.651
 1685SOL     OW 5953   2.284   1.063   5.978
 1685SOL    HW1 5954   2.323   1.131   5.915
 1685SOL    HW2 5955   2.213   1.106   6.033
 1686SOL     OW 5956   2.430   5.087   4.707
 1686SOL    HW1 5957   2.369   5.139   4.766
 1686SOL    HW2 5958   2.488   5.028   4.763
 1687SOL     OW 5959   2.619   3.548   1.075
 1687SOL    HW1 5960   2.583   3.613   1.007
 1687SOL    HW2 5961   2.590   3.576   1.166
 1688SOL     OW 5962   1.634   2.140   4.347
 1688SOL    HW1 5963   1.714   2.100   4.391
 1688SOL    HW2 5964   1.630   2.110   4.251
 1689SOL     OW 5965   5.193   1.352   2.175
 1689SOL    HW1 5966   5.183   1.434   2.119
 1689SOL    HW2 5967   5.110   1.337   2.229
 1690SOL     OW 5968   1.525   2.821   3.514
 1690SOL    HW1 5969   1.453   2.878   3.474
 1690SOL    HW2 5970   1.575   2.874   3.582
 1691SOL     OW 5971   5.859   4.176   3.463
 1691SOL    HW1 5972   5.956   4.198   3.464
 1691SOL    HW2 5973   5.816   4.217   3.382
 1692SOL     OW 5974   6.006   0.426   1.675
 1692SOL    HW1 5975   6.071   0.499   1.654
 1692SOL    HW2 5976   5.950   0.451   1.754
 1693SOL     OW 5977   0.405   2.324   1.907
 1693SOL    HW1 5978   0.427   2.422   1.911
 1693SOL    HW2 5979   0.398   2.288   2.000
 1694SOL     OW 5980   5.684   0.522   3.588
 1694SOL    HW1 5981   5.644   0.440   3.630
 1694SOL    HW2 5982   5.752   0.494   3.519
 1695SOL     OW 5983   3.233   1.602   6.450
 1695SOL    HW1 5984   3.213   1.525   6.390
 1695SOL    HW2 5985   3.329   1.600   6.477
 1696SOL     OW 5986   4.953   4.329   0.556
 1696SOL    HW1 5987   5.022   4.352   0.487
 1696SOL    HW2 5988   4.897   4.410   0.575
 1697SOL     OW 5989   5.749   6.378   1.661
 1697SOL    HW1 5990   5.807   6.316   1.715
 1697SOL    HW2 5991   5.667   6.401   1.714
 1698SOL     OW 5992   4.359   0.888   0.017
 1698SOL    HW1 5993   4.337   0.880   6.939
 1698SOL    HW2 5994   4.281   0.928   0.065
 1699SOL     OW 5995   2.626   1.171   0.791
 1699SOL    HW1 5996   2.594   1.238   0.858
 1699SOL    HW2 5997   2.632   1.214   0.701
 1700SOL     OW 5998   5.512   2.038   3.315
 1700SOL    HW1 5999   5.449   1.982   3.261
 1700SOL    HW2 6000   5.554   1.982   3.386
 1701SOL     OW 6001   5.305   4.751   5.542
 1701SOL    HW1 6002   5.384   4.742   5.483
 1701SOL    HW2 6003   5.256   4.836   5.520
 1702SOL     OW 6004   6.893   2.890   0.009
 1702SOL    HW1 6005   6.987   2.906   0.039
 1702SOL    HW2 6006   6.830   2.938   0.071
 1703SOL     OW 6007   3.482   3.454   2.412
 1703SOL    HW1 6008   3.526   3.443   2.322
 1703SOL    HW2 6009   3.396   3.403   2.413
 1704SOL     OW 6010   0.882   2.207   1.363
 1704SOL    HW1 6011   0.870   2.291   1.310
 1704SOL    HW2 6012   0.885   2.129   1.301
 1705SOL     OW 6013   3.527   2.251   1.417
 1705SOL    HW1 6014   3.457   2.297   1.362
 1705SOL    HW2 6015   3.523   2.153   1.401
 1706SOL     OW 6016   5.034   1.170   1.570
 1706SOL    HW1 6017   5.088   1.178   1.486
 1706SOL    HW2 6018   4.939   1.149   1.548
 1707SOL     OW 6019   4.924   1.955   2.568
 1707SOL    HW1 6020   4.982   1.899   2.509
 1707SOL    HW2 6021   4.862   1.896   2.620
 1708SOL     OW 6022   5.322   5.118   2.519
 1708SOL    HW1 6023   5.333   5.211   2.556
 1708SOL    HW2 6024   5.235   5.112   2.470
 1709SOL     OW 6025   2.716   5.543   1.352
 1709SOL    HW1 6026   2.643   5.603   1.384
 1709SOL    HW2 6027   2.720   5.462   1.411
 1710SOL     OW 6028   5.638   4.979   3.593
 1710SOL    HW1 6029   5.587   4.949   3.674
 1710SOL    HW2 6030   5.616   5.074   3.573
 1711SOL     OW 6031   1.306   4.865   4.416
 1711SOL    HW1 6032   1.306   4.798   4.342
 1711SOL    HW2 6033   1.217   4.910   4.419
 1712SOL     OW 6034   6.962   3.266   5.864
 1712SOL    HW1 6035   6.995   3.226   5.950
 1712SOL    HW2 6036   7.017   3.347   5.842
 1713SOL     OW 6037   4.104   2.304   1.876
 1713SOL    HW1 6038   4.034   2.277   1.809
 1713SOL    HW2 6039   4.066   2.297   1.968
 1714SOL     OW 6040   3.829   1.877   5.366
 1714SOL    HW1 6041   3.831   1.810   5.440
 1714SOL    HW2 6042   3.862   1.966   5.400
 1715SOL     OW 6043   6.883   4.234   2.715
 1715SOL    HW1 6044   6.971   4.249   2.760
 1715SOL    HW2 6045   6.832   4.320   2.714
 1716SOL     OW 6046   4.393   6.805   2.987
 1716SOL    HW1 6047   4.403   6.891   3.038
 1716SOL    HW2 6048   4.353   6.736   3.047
 1717SOL     OW 6049   2.246   6.066   6.012
 1717SOL    HW1 6050   2.178   5.993   6.006
 1717SOL    HW2 6051   2.331   6.036   5.970
 1718SOL     OW 6052   2.345   2.291   2.073
 1718SOL    HW1 6053   2.416   2.226   2.100
 1718SOL    HW2 6054   2.277   2.299   2.146
 1719SOL     OW 6055   2.177   3.855   0.861
 1719SOL    HW1 6056   2.115   3.870   0.784
 1719SOL    HW2 6057   2.137   3.788   0.923
 1720SOL     OW 6058   0.579   2.666   0.118
 1720SOL    HW1 6059   0.573   2.749   0.062
 1720SOL    HW2 6060   0.672   2.629   0.112
 1721SOL     OW 6061   1.399   6.799   1.782
 1721SOL    HW1 6062   1.467   6.759   1.843
 1721SOL    HW2 6063   1.442   6.869   1.724
 1722SOL     OW 6064   4.493   2.415   4.482
 1722SOL    HW1 6065   4.566   2.401   4.415
 1722SOL    HW2 6066   4.425   2.343   4.473
 1723SOL     OW 6067   0.184   2.737   1.965
 1723SOL    HW1 6068   0.200   2.835   1.972
 1723SOL    HW2 6069   0.087   2.721   1.945
 1724SOL     OW 6070   6.138   2.377   0.701
 1724SOL    HW1 6071   6.175   2.456   0.750
 1724SOL    HW2 6072   6.148   2.296   0.757
 1725SOL     OW 6073   2.394   4.985   6.671
 1725SOL    HW1 6074   2.402   5.078   6.707
 1725SOL    HW2 6075   2.362   4.924   6.743
 1726SOL     OW 6076   4.819   4.829   5.613
 1726SOL    HW1 6077   4.784   4.737   5.593
 1726SOL    HW2 6078   4.783   4.894   5.547
 1727SOL     OW 6079   3.834   3.316   4.472
 1727SOL    HW1 6080   3.858   3.239   4.532
 1727SOL    HW2 6081   3.735   3.332   4.477
 1728SOL     OW 6082   5.144   5.146   5.335
 1728SOL    HW1 6083   5.101   5.187   5.254
 1728SOL    HW2 6084   5.129   5.047   5.334
 1729SOL     OW 6085   2.109   3.754   3.300
 1729SOL    HW1 6086   2.066   3.769   3.211
 1729SOL    HW2 6087   2.139   3.658   3.307
 1730SOL     OW 6088   0.399   0.143   5.765
 1730SOL    HW1 6089   0.476   0.126   5.704
 1730SOL    HW2 6090   0.316   0.102   5.727
 1731SOL     OW 6091   0.036   4.360   2.277
 1731SOL    HW1 6092   0.121   4.339   2.325
 1731SOL    HW2 6093   0.013   4.284   2.215
 1732SOL     OW 6094   2.735   4.723   5.566
 1732SOL    HW1 6095   2.703   4.816   5.544
 1732SOL    HW2 6096   2.778   4.683   5.485
 1733SOL     OW 6097   1.426   4.062   2.062
 1733SOL    HW1 6098   1.357   4.040   1.993
 1733SOL    HW2 6099   1.491   4.127   2.024
 1734SOL     OW 6100   4.904   3.287   1.537
 1734SOL    HW1 6101   4.884   3.272   1.440
 1734SOL    HW2 6102   4.880   3.204   1.589
 1735SOL     OW 6103   5.272   5.946   1.921
 1735SOL    HW1 6104   5.362   5.939   1.878
 1735SOL    HW2 6105   5.258   6.040   1.952
 1736SOL     OW 6106   3.622   3.027   1.000
 1736SOL    HW1 6107   3.641   2.945   0.946
 1736SOL    HW2 6108   3.523   3.041   1.005
 1737SOL     OW 6109   2.432   1.396   4.597
 1737SOL    HW1 6110   2.495   1.428   4.668
 1737SOL    HW2 6111   2.482   1.382   4.512
 1738SOL     OW 6112   2.354   1.671   3.958
 1738SOL    HW1 6113   2.443   1.706   3.930
 1738SOL    HW2 6114   2.345   1.679   4.057
 1739SOL     OW 6115   6.063   2.323   5.319
 1739SOL    HW1 6116   6.137   2.389   5.308
 1739SOL    HW2 6117   6.058   2.265   5.238
 1740SOL     OW 6118   6.670   2.151   5.626
 1740SOL    HW1 6119   6.679   2.137   5.724
 1740SOL    HW2 6120   6.582   2.115   5.595
 1741SOL     OW 6121   1.891   0.667   3.956
 1741SOL    HW1 6122   1.902   0.617   4.042
 1741SOL    HW2 6123   1.909   0.764   3.971
 1742SOL     OW 6124   5.059   0.267   6.206
 1742SOL    HW1 6125   5.084   0.302   6.116
 1742SOL    HW2 6126   5.129   0.293   6.272
 1743SOL     OW 6127   1.326   3.011   1.740
 1743SOL    HW1 6128   1.398   3.050   1.797
 1743SOL    HW2 6129   1.237   3.048   1.768
 1744SOL     OW 6130   0.298   0.959   2.325
 1744SOL    HW1 6131   0.199   0.945   2.315
 1744SOL    HW2 6132   0.336   0.985   2.236
 1745SOL     OW 6133   5.842   0.122   3.556
 1745SOL    HW1 6134   5.883   0.054   3.617
 1745SOL    HW2 6135   5.849   0.091   3.462
 1746SOL     OW 6136   2.447   4.818   5.017
 1746SOL    HW1 6137   2.401   4.811   4.929
 1746SOL    HW2 6138   2.384   4.856   5.085
 1747SOL     OW 6139   5.757   1.907   2.904
 1747SOL    HW1 6140   5.847   1.876   2.874
 1747SOL    HW2 6141   5.692   1.899   2.829
 1748SOL     OW 6142   0.879   0.929   4.091
 1748SOL    HW1 6143   0.901   1.000   4.159
 1748SOL    HW2 6144   0.817   0.967   4.023
 1749SOL     OW 6145   2.715   7.004   4.490
 1749SOL    HW1 6146   2.784   0.037   4.439
 1749SOL    HW2 6147   2.762   6.937   4.548
 1750SOL     OW 6148   6.154   0.129   4.070
 1750SOL    HW1 6149   6.144   0.152   4.167
 1750SOL    HW2 6150   6.065   0.103   4.032
 1751SOL     OW 6151   3.898   6.142   5.019
 1751SOL    HW1 6152   3.895   6.093   5.106
 1751SOL    HW2 6153   3.935   6.234   5.033
 1752SOL     OW 6154   0.211   2.308   1.504
 1752SOL    HW1 6155   0.256   2.270   1.422
 1752SOL    HW2 6156   0.261   2.278   1.585
 1753SOL     OW 6157   0.268   1.878   0.534
 1753SOL    HW1 6158   0.299   1.844   0.445
 1753SOL    HW2 6159   0.312   1.827   0.607
 1754SOL     OW 6160   2.563   3.973   0.985
 1754SOL    HW1 6161   2.486   4.012   1.035
 1754SOL    HW2 6162   2.590   4.035   0.911
 1755SOL     OW 6163   6.265   6.202   2.124
 1755SOL    HW1 6164   6.303   6.206   2.031
 1755SOL    HW2 6165   6.319   6.260   2.184
 1756SOL     OW 6166   4.060   5.152   6.032
 1756SOL    HW1 6167   4.059   5.064   5.985
 1756SOL    HW2 6168   4.147   5.163   6.080
 1757SOL     OW 6169   2.268   4.763   4.813
 1757SOL    HW1 6170   2.208   4.825   4.762
 1757SOL    HW2 6171   2.357   4.758   4.769
 1758SOL     OW 6172   1.824   0.322   4.056
 1758SOL    HW1 6173   1.758   0.352   3.987
 1758SOL    HW2 6174   1.843   0.398   4.118
 1759SOL     OW 6175   2.117   5.328   6.412
 1759SOL    HW1 6176   2.170   5.331   6.497
 1759SOL    HW2 6177   2.048   5.256   6.418
 1760SOL     OW 6178   5.663   1.753   2.633
 1760SOL    HW1 6179   5.750   1.742   2.680
 1760SOL    HW2 6180   5.630   1.663   2.603
 1761SOL     OW 6181   0.444   0.183   0.032
 1761SOL    HW1 6182   0.396   0.220   6.972
 1761SOL    HW2 6183   0.542   0.204   0.024
 1762SOL     OW 6184   0.489   1.784   4.876
 1762SOL    HW1 6185   0.450   1.869   4.843
 1762SOL    HW2 6186   0.489   1.782   4.976
 1763SOL     OW 6187   1.367   3.331   3.906
 1763SOL    HW1 6188   1.319   3.412   3.939
 1763SOL    HW2 6189   1.309   3.251   3.916
 1764SOL     OW 6190   2.089   3.585   2.253
 1764SOL    HW1 6191   2.038   3.523   2.194
 1764SOL    HW2 6192   2.186   3.578   2.233
 1765SOL     OW 6193   3.970   1.210   0.903
 1765SOL    HW1 6194   3.904   1.238   0.972
 1765SOL    HW2 6195   3.957   1.113   0.880
 1766SOL     OW 6196   4.869   3.043   2.753
 1766SOL    HW1 6197   4.842   3.121   2.696
 1766SOL    HW2 6198   4.907   2.971   2.696
 1767SOL     OW 6199   0.313   3.363   2.806
 1767SOL    HW1 6200   0.407   3.350   2.836
 1767SOL    HW2 6201   0.255   3.382   2.885
 1768SOL     OW 6202   4.128   1.611   5.333
 1768SOL    HW1 6203   4.135   1.702   5.373
 1768SOL    HW2 6204   4.194   1.550   5.377
 1769SOL     OW 6205   4.334   2.969   5.862
 1769SOL    HW1 6206   4.273   2.922   5.798
 1769SOL    HW2 6207   4.407   3.014   5.811
 1770SOL     OW 6208   6.681   5.206   5.032
 1770SOL    HW1 6209   6.600   5.148   5.026
 1770SOL    HW2 6210   6.721   5.217   4.941
 1771SOL     OW 6211   2.691   5.291   0.182
 1771SOL    HW1 6212   2.606   5.237   0.185
 1771SOL    HW2 6213   2.749   5.259   0.108
 1772SOL     OW 6214   3.625   6.443   3.007
 1772SOL    HW1 6215   3.703   6.404   2.958
 1772SOL    HW2 6216   3.653   6.471   3.098
 1773SOL     OW 6217   3.039   4.329   6.573
 1773SOL    HW1 6218   3.115   4.346   6.636
 1773SOL    HW2 6219   3.034   4.232   6.551
 1774SOL     OW 6220   4.417   0.066   1.678
 1774SOL    HW1 6221   4.416   0.140   1.611
 1774SOL    HW2 6222   4.345   0.000   1.656
 1775SOL     OW 6223   1.372   5.366   4.104
 1775SOL    HW1 6224   1.350   5.273   4.133
 1775SOL    HW2 6225   1.388   5.367   4.005
 1776SOL     OW 6226   3.509   0.695   5.848
 1776SOL    HW1 6227   3.467   0.635   5.916
 1776SOL    HW2 6228   3.441   0.759   5.814
 1777SOL     OW 6229   3.222   5.184   5.249
 1777SOL    HW1 6230   3.138   5.131   5.261
 1777SOL    HW2 6231   3.206   5.260   5.187
 1778SOL     OW 6232   4.562   2.376   4.763
 1778SOL    HW1 6233   4.522   2.397   4.674
 1778SOL    HW2 6234   4.491   2.344   4.826
 1779SOL     OW 6235   5.123   1.732   4.283
 1779SOL    HW1 6236   5.133   1.813   4.341
 1779SOL    HW2 6237   5.201   1.726   4.221
 1780SOL     OW 6238   2.550   4.732   5.930
 1780SOL    HW1 6239   2.461   4.688   5.941
 1780SOL    HW2 6240   2.538   4.820   5.883
 1781SOL     OW 6241   4.071   5.457   3.680
 1781SOL    HW1 6242   4.160   5.416   3.663
 1781SOL    HW2 6243   4.023   5.406   3.751
 1782SOL     OW 6244   2.868   1.481   3.199
 1782SOL    HW1 6245   2.918   1.538   3.265
 1782SOL    HW2 6246   2.871   1.386   3.230
 1783SOL     OW 6247   1.747   3.633   6.404
 1783SOL    HW1 6248   1.778   3.605   6.313
 1783SOL    HW2 6249   1.739   3.553   6.462
 1784SOL     OW 6250   3.240   0.424   3.847
 1784SOL    HW1 6251   3.237   0.467   3.757
 1784SOL    HW2 6252   3.147   0.409   3.880
 1785SOL     OW 6253   5.281   5.988   3.787
 1785SOL    HW1 6254   5.336   5.962   3.707
 1785SOL    HW2 6255   5.332   5.968   3.870
 1786SOL     OW 6256   1.088   3.241   0.879
 1786SOL    HW1 6257   1.086   3.143   0.901
 1786SOL    HW2 6258   1.059   3.294   0.959
 1787SOL     OW 6259   2.177   0.988   4.561
 1787SOL    HW1 6260   2.268   1.007   4.596
 1787SOL    HW2 6261   2.181   0.976   4.462
 1788SOL     OW 6262   3.060   3.165   0.460
 1788SOL    HW1 6263   3.144   3.152   0.407
 1788SOL    HW2 6264   3.021   3.076   0.483
 1789SOL     OW 6265   6.916   2.380   2.067
 1789SOL    HW1 6266   6.882   2.445   2.135
 1789SOL    HW2 6267   6.852   2.376   1.990
 1790SOL     OW 6268   4.154   6.618   4.322
 1790SOL    HW1 6269   4.160   6.648   4.227
 1790SOL    HW2 6270   4.200   6.530   4.332
 1791SOL     OW 6271   0.396   2.134   4.515
 1791SOL    HW1 6272   0.339   2.209   4.480
 1791SOL    HW2 6273   0.477   2.124   4.457
 1792SOL     OW 6274   0.998   2.416   3.769
 1792SOL    HW1 6275   1.007   2.515   3.780
 1792SOL    HW2 6276   1.088   2.373   3.774
 1793SOL     OW 6277   6.474   0.093   3.354
 1793SOL    HW1 6278   6.488   0.105   3.255
 1793SOL    HW2 6279   6.402   0.156   3.385
 1794SOL     OW 6280   5.107   6.154   6.483
 1794SOL    HW1 6281   5.158   6.146   6.568
 1794SOL    HW2 6282   5.145   6.229   6.428
 1795SOL     OW 6283   0.520   3.950   2.210
 1795SOL    HW1 6284   0.436   3.897   2.222
 1795SOL    HW2 6285   0.572   3.913   2.133
 1796SOL     OW 6286   1.891   1.186   5.055
 1796SOL    HW1 6287   1.918   1.274   5.094
 1796SOL    HW2 6288   1.823   1.143   5.115
 1797SOL     OW 6289   1.208   1.118   6.514
 1797SOL    HW1 6290   1.208   1.026   6.475
 1797SOL    HW2 6291   1.148   1.120   6.594
 1798SOL     OW 6292   4.417   2.564   5.804
 1798SOL    HW1 6293   4.474   2.627   5.753
 1798SOL    HW2 6294   4.441   2.568   5.901
 1799SOL     OW 6295   6.680   1.969   6.168
 1799SOL    HW1 6296   6.679   2.061   6.209
 1799SOL    HW2 6297   6.740   1.910   6.222
 1800SOL     OW 6298   4.413   5.396   3.367
 1800SOL    HW1 6299   4.429   5.443   3.455
 1800SOL    HW2 6300   4.376   5.461   3.301
 1801SOL     OW 6301   1.181   1.357   2.226
 1801SOL    HW1 6302   1.266   1.314   2.196
 1801SOL    HW2 6303   1.172   1.447   2.184
 1802SOL     OW 6304   5.738   5.026   2.593
 1802SOL    HW1 6305   5.771   4.998   2.503
 1802SOL    HW2 6306   5.814   5.064   2.646
 1803SOL     OW 6307   6.756   5.740   0.897
 1803SOL    HW1 6308   6.713   5.820   0.855
 1803SOL    HW2 6309   6.814   5.693   0.830
 1804SOL     OW 6310   2.203   3.291   6.244
 1804SOL    HW1 6311   2.200   3.195   6.273
 1804SOL    HW2 6312   2.235   3.296   6.149
 1805SOL     OW 6313   0.366   4.187   5.679
 1805SOL    HW1 6314   0.444   4.127   5.696
 1805SOL    HW2 6315   0.398   4.274   5.644
 1806SOL     OW 6316   1.425   1.073   1.069
 1806SOL    HW1 6317   1.462   1.083   1.161
 1806SOL    HW2 6318   1.346   1.012   1.071
 1807SOL     OW 6319   5.353   2.256   6.289
 1807SOL    HW1 6320   5.366   2.355   6.289
 1807SOL    HW2 6321   5.256   2.235   6.277
 1808SOL     OW 6322   6.229   3.699   5.080
 1808SOL    HW1 6323   6.281   3.760   5.020
 1808SOL    HW2 6324   6.260   3.605   5.067
 1809SOL     OW 6325   2.344   2.782   4.551
 1809SOL    HW1 6326   2.406   2.708   4.578
 1809SOL    HW2 6327   2.250   2.749   4.556
 1810SOL     OW 6328   2.610   0.435   5.767
 1810SOL    HW1 6329   2.598   0.534   5.767
 1810SOL    HW2 6330   2.682   0.410   5.702
 1811SOL     OW 6331   4.095   4.749   3.362
 1811SOL    HW1 6332   4.109   4.769   3.265
 1811SOL    HW2 6333   4.043   4.663   3.371
 1812SOL     OW 6334   4.272   0.073   6.502
 1812SOL    HW1 6335   4.264   6.995   6.521
 1812SOL    HW2 6336   4.193   0.121   6.541
 1813SOL     OW 6337   4.202   4.858   1.150
 1813SOL    HW1 6338   4.165   4.948   1.174
 1813SOL    HW2 6339   4.146   4.817   1.077
 1814SOL     OW 6340   6.821   0.423   6.901
 1814SOL    HW1 6341   6.807   0.420   7.000
 1814SOL    HW2 6342   6.897   0.364   6.876
 1815SOL     OW 6343   6.557   1.870   1.833
 1815SOL    HW1 6344   6.612   1.810   1.775
 1815SOL    HW2 6345   6.554   1.961   1.793
 1816SOL     OW 6346   1.975   4.137   0.990
 1816SOL    HW1 6347   2.011   4.223   1.026
 1816SOL    HW2 6348   1.997   4.063   1.054
 1817SOL     OW 6349   3.501   6.662   2.915
 1817SOL    HW1 6350   3.406   6.642   2.893
 1817SOL    HW2 6351   3.554   6.577   2.914
 1818SOL     OW 6352   2.565   5.896   2.335
 1818SOL    HW1 6353   2.601   5.968   2.393
 1818SOL    HW2 6354   2.589   5.915   2.239
 1819SOL     OW 6355   0.640   5.475   1.187
 1819SOL    HW1 6356   0.668   5.571   1.197
 1819SOL    HW2 6357   0.720   5.416   1.201
 1820SOL     OW 6358   2.863   0.686   2.502
 1820SOL    HW1 6359   2.928   0.729   2.564
 1820SOL    HW2 6360   2.906   0.675   2.412
 1821SOL     OW 6361   2.990   0.523   1.898
 1821SOL    HW1 6362   2.980   0.576   1.815
 1821SOL    HW2 6363   2.914   0.458   1.906
 1822SOL     OW 6364   1.946   3.210   1.301
 1822SOL    HW1 6365   1.847   3.208   1.291
 1822SOL    HW2 6366   1.981   3.297   1.268
 1823SOL     OW 6367   2.815   5.655   2.652
 1823SOL    HW1 6368   2.797   5.674   2.749
 1823SOL    HW2 6369   2.864   5.732   2.612
 1824SOL     OW 6370   3.612   4.184   1.649
 1824SOL    HW1 6371   3.635   4.278   1.675
 1824SOL    HW2 6372   3.555   4.142   1.719
 1825SOL     OW 6373   1.539   2.349   4.069
 1825SOL    HW1 6374   1.607   2.410   4.028
 1825SOL    HW2 6375   1.459   2.401   4.095
 1826SOL     OW 6376   3.552   0.590   1.362
 1826SOL    HW1 6377   3.591   0.654   1.429
 1826SOL    HW2 6378   3.617   0.516   1.344
 1827SOL     OW 6379   0.448   5.445   1.529
 1827SOL    HW1 6380   0.518   5.513   1.507
 1827SOL    HW2 6381   0.429   5.390   1.448
 1828SOL     OW 6382   1.316   2.814   0.699
 1828SOL    HW1 6383   1.404   2.767   0.697
 1828SOL    HW2 6384   1.273   2.809   0.609
 1829SOL     OW 6385   2.688   0.730   3.134
 1829SOL    HW1 6386   2.780   0.719   3.097
 1829SOL    HW2 6387   2.624   0.746   3.058
 1830SOL     OW 6388   6.029   6.651   3.647
 1830SOL    HW1 6389   5.988   6.668   3.557
 1830SOL    HW2 6390   6.116   6.603   3.634
 1831SOL     OW 6391   5.831   0.347   2.257
 1831SOL    HW1 6392   5.902   0.283   2.228
 1831SOL    HW2 6393   5.754   0.342   2.193
 1832SOL     OW 6394   4.752   1.359   1.345
 1832SOL    HW1 6395   4.666   1.399   1.374
 1832SOL    HW2 6396   4.826   1.425   1.359
 1833SOL     OW 6397   5.783   0.997   0.329
 1833SOL    HW1 6398   5.779   1.096   0.317
 1833SOL    HW2 6399   5.690   0.960   0.334
 1834SOL     OW 6400   2.818   3.377   0.887
 1834SOL    HW1 6401   2.852   3.311   0.820
 1834SOL    HW2 6402   2.896   3.420   0.934
 1835SOL     OW 6403   0.330   4.373   2.124
 1835SOL    HW1 6404   0.386   4.384   2.207
 1835SOL    HW2 6405   0.390   4.370   2.044
 1836SOL     OW 6406   4.955   2.143   1.534
 1836SOL    HW1 6407   4.997   2.197   1.607
 1836SOL    HW2 6408   5.026   2.106   1.474
 1837SOL     OW 6409   0.812   0.380   4.769
 1837SOL    HW1 6410   0.793   0.444   4.843
 1837SOL    HW2 6411   0.906   0.393   4.737
 1838SOL     OW 6412   6.992   1.239   4.909
 1838SOL    HW1 6413   6.929   1.209   4.838
 1838SOL    HW2 6414   6.953   1.317   4.958
 1839SOL     OW 6415   6.181   2.396   4.784
 1839SOL    HW1 6416   6.149   2.490   4.786
 1839SOL    HW2 6417   6.216   2.370   4.874
 1840SOL     OW 6418   3.865   7.000   1.615
 1840SOL    HW1 6419   3.825   6.928   1.673
 1840SOL    HW2 6420   3.822   0.067   1.635
 1841SOL     OW 6421   2.107   1.229   3.033
 1841SOL    HW1 6422   2.031   1.281   2.993
 1841SOL    HW2 6423   2.158   1.287   3.096
 1842SOL     OW 6424   1.790   5.983   0.274
 1842SOL    HW1 6425   1.825   6.058   0.330
 1842SOL    HW2 6426   1.695   5.963   0.300
 1843SOL     OW 6427   6.355   2.146   3.124
 1843SOL    HW1 6428   6.343   2.053   3.158
 1843SOL    HW2 6429   6.367   2.208   3.202
 1844SOL     OW 6430   3.219   6.318   5.406
 1844SOL    HW1 6431   3.139   6.281   5.452
 1844SOL    HW2 6432   3.189   6.378   5.331
 1845SOL     OW 6433   2.890   0.215   4.407
 1845SOL    HW1 6434   2.943   0.239   4.488
 1845SOL    HW2 6435   2.841   0.295   4.374
 1846SOL     OW 6436   3.404   1.831   1.560
 1846SOL    HW1 6437   3.336   1.758   1.554
 1846SOL    HW2 6438   3.444   1.833   1.652
 1847SOL     OW 6439   1.577   0.873   6.916
 1847SOL    HW1 6440   1.541   0.881   7.009
 1847SOL    HW2 6441   1.517   0.923   6.853
 1848SOL     OW 6442   1.734   5.877   3.541
 1848SOL    HW1 6443   1.778   5.822   3.612
 1848SOL    HW2 6444   1.635   5.881   3.559
 1849SOL     OW 6445   3.907   2.523   1.359
 1849SOL    HW1 6446   3.997   2.484   1.384
 1849SOL    HW2 6447   3.835   2.469   1.403
 1850SOL     OW 6448   0.689   2.990   1.496
 1850SOL    HW1 6449   0.629   2.979   1.576
 1850SOL    HW2 6450   0.781   2.959   1.519
 1851SOL     OW 6451   0.327   2.574   0.210
 1851SOL    HW1 6452   0.415   2.606   0.173
 1851SOL    HW2 6453   0.320   2.599   0.306
 1852SOL     OW 6454   6.331   4.671   2.671
 1852SOL    HW1 6455   6.421   4.698   2.703
 1852SOL    HW2 6456   6.324   4.571   2.673
 1853SOL     OW 6457   0.285   2.208   2.719
 1853SOL    HW1 6458   0.215   2.253   2.664
 1853SOL    HW2 6459   0.277   2.108   2.709
 1854SOL     OW 6460   2.264   5.846   2.777
 1854SOL    HW1 6461   2.245   5.752   2.748
 1854SOL    HW2 6462   2.361   5.864   2.768
 1855SOL     OW 6463   5.032   2.658   5.689
 1855SOL    HW1 6464   5.098   2.596   5.733
 1855SOL    HW2 6465   5.080   2.740   5.657
 1856SOL     OW 6466   6.108   4.185   5.802
 1856SOL    HW1 6467   6.055   4.244   5.741
 1856SOL    HW2 6468   6.192   4.156   5.756
 1857SOL     OW 6469   4.496   1.988   5.872
 1857SOL    HW1 6470   4.490   1.977   5.772
 1857SOL    HW2 6471   4.559   1.920   5.909
 1858SOL     OW 6472   5.914   4.176   3.949
 1858SOL    HW1 6473   5.974   4.096   3.957
 1858SOL    HW2 6474   5.932   4.238   4.025
 1859SOL     OW 6475   5.994   2.706   3.677
 1859SOL    HW1 6476   5.961   2.612   3.666
 1859SOL    HW2 6477   6.074   2.720   3.618
 1860SOL     OW 6478   6.680   0.663   5.724
 1860SOL    HW1 6479   6.668   0.569   5.693
 1860SOL    HW2 6480   6.643   0.725   5.655
 1861SOL     OW 6481   6.314   6.747   1.958
 1861SOL    HW1 6482   6.250   6.788   1.893
 1861SOL    HW2 6483   6.273   6.747   2.050
 1862SOL     OW 6484   3.016   7.010   6.172
 1862SOL    HW1 6485   2.973   6.929   6.132
 1862SOL    HW2 6486   3.110   6.988   6.198
 1863SOL     OW 6487   0.871   2.920   3.703
 1863SOL    HW1 6488   0.827   2.979   3.635
 1863SOL    HW2 6489   0.803   2.857   3.741
 1864SOL     OW 6490   1.764   6.859   4.592
 1864SOL    HW1 6491   1.852   6.870   4.546
 1864SOL    HW2 6492   1.753   6.930   4.662
 1865SOL     OW 6493   3.316   6.828   6.860
 1865SOL    HW1 6494   3.368   6.884   6.924
 1865SOL    HW2 6495   3.244   6.882   6.818
 1866SOL     OW 6496   5.047   5.044   2.796
 1866SOL    HW1 6497   4.962   5.088   2.768
 1866SOL    HW2 6498   5.083   4.990   2.721
 1867SOL     OW 6499   0.829   3.835   0.410
 1867SOL    HW1 6500   0.758   3.769   0.433
 1867SOL    HW2 6501   0.788   3.925   0.395
 1868SOL     OW 6502   4.881   3.211   6.157
 1868SOL    HW1 6503   4.835   3.123   6.159
 1868SOL    HW2 6504   4.972   3.203   6.197
 1869SOL     OW 6505   5.782   3.555   5.411
 1869SOL    HW1 6506   5.723   3.518   5.340
 1869SOL    HW2 6507   5.740   3.542   5.500
 1870SOL     OW 6508   1.096   2.999   5.182
 1870SOL    HW1 6509   1.078   3.064   5.255
 1870SOL    HW2 6510   1.115   3.048   5.097
 1871SOL     OW 6511   0.686   0.287   6.650
 1871SOL    HW1 6512   0.732   0.268   6.563
 1871SOL    HW2 6513   0.673   0.386   6.660
 1872SOL     OW 6514   4.087   1.628   6.795
 1872SOL    HW1 6515   4.168   1.646   6.739
 1872SOL    HW2 6516   4.108   1.559   6.863
 1873SOL     OW 6517   5.541   1.195   6.439
 1873SOL    HW1 6518   5.525   1.292   6.422
 1873SOL    HW2 6519   5.636   1.173   6.417
 1874SOL     OW 6520   2.576   0.894   0.871
 1874SOL    HW1 6521   2.560   0.983   0.830
 1874SOL    HW2 6522   2.672   0.886   0.896
 1875SOL     OW 6523   0.141   0.302   0.173
 1875SOL    HW1 6524   0.139   0.250   0.088
 1875SOL    HW2 6525   0.208   0.261   0.235
 1876SOL     OW 6526   3.711   6.015   6.358
 1876SOL    HW1 6527   3.804   5.982   6.373
 1876SOL    HW2 6528   3.699   6.037   6.261
 1877SOL     OW 6529   0.969   1.359   3.529
 1877SOL    HW1 6530   1.044   1.402   3.480
 1877SOL    HW2 6531   0.882   1.385   3.486
 1878SOL     OW 6532   0.129   3.425   4.144
 1878SOL    HW1 6533   0.182   3.354   4.190
 1878SOL    HW2 6534   0.137   3.413   4.045
 1879SOL     OW 6535   2.213   5.197   3.600
 1879SOL    HW1 6536   2.159   5.112   3.602
 1879SOL    HW2 6537   2.189   5.253   3.680
 1880SOL     OW 6538   6.509   0.404   3.885
 1880SOL    HW1 6539   6.486   0.317   3.929
 1880SOL    HW2 6540   6.592   0.441   3.926
 1881SOL     OW 6541   6.841   3.521   2.891
 1881SOL    HW1 6542   6.789   3.436   2.905
 1881SOL    HW2 6543   6.784   3.586   2.841
 1882SOL     OW 6544   1.190   3.914   6.980
 1882SOL    HW1 6545   1.135   3.839   6.944
 1882SOL    HW2 6546   1.149   3.949   0.044
 1883SOL     OW 6547   1.431   2.397   3.808
 1883SOL    HW1 6548   1.505   2.343   3.767
 1883SOL    HW2 6549   1.381   2.341   3.874
 1884SOL     OW 6550   6.381   3.161   6.954
 1884SOL    HW1 6551   6.385   3.194   0.029
 1884SOL    HW2 6552   6.288   3.174   6.919
 1885SOL     OW 6553   1.088   1.733   5.915
 1885SOL    HW1 6554   1.021   1.808   5.912
 1885SOL    HW2 6555   1.149   1.739   5.836
 1886SOL     OW 6556   2.523   0.080   1.260
 1886SOL    HW1 6557   2.492   0.028   1.340
 1886SOL    HW2 6558   2.455   0.072   1.186
 1887SOL     OW 6559   1.775   5.910   5.510
 1887SOL    HW1 6560   1.813   5.891   5.600
 1887SOL    HW2 6561   1.786   6.007   5.489
 1888SOL     OW 6562   3.251   2.449   6.861
 1888SOL    HW1 6563   3.164   2.495   6.878
 1888SOL    HW2 6564   3.316   2.515   6.823
 1889SOL     OW 6565   6.456   3.081   6.136
 1889SOL    HW1 6566   6.435   3.146   6.062
 1889SOL    HW2 6567   6.434   2.988   6.106
 1890SOL     OW 6568   1.834   6.206   4.241
 1890SOL    HW1 6569   1.766   6.231   4.172
 1890SOL    HW2 6570   1.855   6.108   4.232
 1891SOL     OW 6571   6.036   2.606   2.816
 1891SOL    HW1 6572   6.122   2.657   2.809
 1891SOL    HW2 6573   5.978   2.649   2.886
 1892SOL     OW 6574   2.950   1.109   0.886
 1892SOL    HW1 6575   2.888   1.182   0.858
 1892SOL    HW2 6576   3.036   1.117   0.835
 1893SOL     OW 6577   3.668   2.728   0.575
 1893SOL    HW1 6578   3.595   2.756   0.513
 1893SOL    HW2 6579   3.675   2.629   0.578
 1894SOL     OW 6580   4.113   3.675   3.712
 1894SOL    HW1 6581   4.017   3.647   3.715
 1894SOL    HW2 6582   4.138   3.695   3.617
 1895SOL     OW 6583   5.468   1.027   2.171
 1895SOL    HW1 6584   5.509   1.116   2.188
 1895SOL    HW2 6585   5.533   0.955   2.196
 1896SOL     OW 6586   6.431   0.577   1.597
 1896SOL    HW1 6587   6.485   0.648   1.643
 1896SOL    HW2 6588   6.451   0.488   1.637
 1897SOL     OW 6589   1.222   4.315   2.371
 1897SOL    HW1 6590   1.222   4.374   2.291
 1897SOL    HW2 6591   1.164   4.235   2.354
 1898SOL     OW 6592   2.903   5.001   2.709
 1898SOL    HW1 6593   2.869   5.090   2.677
 1898SOL    HW2 6594   2.965   5.015   2.786
 1899SOL     OW 6595   0.981   1.603   2.125
 1899SOL    HW1 6596   0.998   1.685   2.181
 1899SOL    HW2 6597   0.897   1.559   2.156
 1900SOL     OW 6598   1.430   0.589   6.441
 1900SOL    HW1 6599   1.333   0.565   6.433
 1900SOL    HW2 6600   1.450   0.615   6.535
 1901SOL     OW 6601   2.031   2.521   1.057
 1901SOL    HW1 6602   1.983   2.443   1.097
 1901SOL    HW2 6603   2.038   2.594   1.124
 1902SOL     OW 6604   2.335   1.614   5.040
 1902SOL    HW1 6605   2.412   1.676   5.027
 1902SOL    HW2 6606   2.264   1.659   5.094
 1903SOL     OW 6607   6.581   3.443   3.195
 1903SOL    HW1 6608   6.608   3.527   3.150
 1903SOL    HW2 6609   6.533   3.464   3.280
 1904SOL     OW 6610   6.003   6.252   4.318
 1904SOL    HW1 6611   6.005   6.155   4.346
 1904SOL    HW2 6612   6.030   6.259   4.222
 1905SOL     OW 6613   1.552   0.682   4.234
 1905SOL    HW1 6614   1.560   0.621   4.156
 1905SOL    HW2 6615   1.601   0.644   4.312
 1906SOL     OW 6616   1.794   0.185   5.051
 1906SOL    HW1 6617   1.791   0.099   5.000
 1906SOL    HW2 6618   1.852   0.173   5.132
 1907SOL     OW 6619   3.237   6.797   2.615
 1907SOL    HW1 6620   3.332   6.818   2.589
 1907SOL    HW2 6621   3.235   6.709   2.663
 1908SOL     OW 6622   3.757   6.771   4.808
 1908SOL    HW1 6623   3.724   6.864   4.824
 1908SOL    HW2 6624   3.685   6.706   4.829
 1909SOL     OW 6625   0.614   4.128   2.587
 1909SOL    HW1 6626   0.638   4.151   2.682
 1909SOL    HW2 6627   0.667   4.185   2.525
 1910SOL     OW 6628   0.032   2.876   6.421
 1910SOL    HW1 6629   0.040   2.810   6.346
 1910SOL    HW2 6630   6.975   2.937   6.403
 1911SOL     OW 6631   5.779   3.332   5.198
 1911SOL    HW1 6632   5.779   3.281   5.284
 1911SOL    HW2 6633   5.694   3.316   5.149
 1912SOL     OW 6634   3.554   6.209   0.767
 1912SOL    HW1 6635   3.574   6.299   0.726
 1912SOL    HW2 6636   3.457   6.206   0.793
 1913SOL     OW 6637   1.678   5.941   4.543
 1913SOL    HW1 6638   1.640   5.939   4.450
 1913SOL    HW2 6639   1.774   5.913   4.540
 1914SOL     OW 6640   3.999   2.792   6.155
 1914SOL    HW1 6641   4.020   2.716   6.216
 1914SOL    HW2 6642   4.050   2.873   6.184
 1915SOL     OW 6643   4.241   2.366   5.405
 1915SOL    HW1 6644   4.177   2.321   5.341
 1915SOL    HW2 6645   4.260   2.305   5.482
 1916SOL     OW 6646   4.053   5.902   1.074
 1916SOL    HW1 6647   4.146   5.882   1.105
 1916SOL    HW2 6648   4.055   5.928   0.977
 1917SOL     OW 6649   3.048   2.931   5.426
 1917SOL    HW1 6650   3.083   2.839   5.410
 1917SOL    HW2 6651   2.975   2.951   5.361
 1918SOL     OW 6652   0.740   1.245   4.930
 1918SOL    HW1 6653   0.726   1.171   4.996
 1918SOL    HW2 6654   0.824   1.295   4.954
 1919SOL     OW 6655   1.987   0.413   1.612
 1919SOL    HW1 6656   1.943   0.501   1.631
 1919SOL    HW2 6657   1.943   0.342   1.666
 1920SOL     OW 6658   1.411   4.313   2.601
 1920SOL    HW1 6659   1.342   4.320   2.529
 1920SOL    HW2 6660   1.471   4.393   2.598
 1921SOL     OW 6661   1.309   4.670   6.527
 1921SOL    HW1 6662   1.246   4.736   6.567
 1921SOL    HW2 6663   1.383   4.718   6.481
 1922SOL     OW 6664   2.085   3.948   1.163
 1922SOL    HW1 6665   2.114   3.852   1.165
 1922SOL    HW2 6666   2.137   4.000   1.231
 1923SOL     OW 6667   3.290   0.515   5.416
 1923SOL    HW1 6668   3.286   0.536   5.514
 1923SOL    HW2 6669   3.337   0.589   5.368
 1924SOL     OW 6670   4.672   5.475   1.316
 1924SOL    HW1 6671   4.587   5.435   1.280
 1924SOL    HW2 6672   4.659   5.572   1.332
 1925SOL     OW 6673   2.118   4.874   0.464
 1925SOL    HW1 6674   2.109   4.935   0.544
 1925SOL    HW2 6675   2.035   4.880   0.408
 1926SOL     OW 6676   2.133   6.779   3.315
 1926SOL    HW1 6677   2.146   6.704   3.380
 1926SOL    HW2 6678   2.221   6.800   3.272
 1927SOL     OW 6679   2.795   4.680   6.501
 1927SOL    HW1 6680   2.708   4.706   6.543
 1927SOL    HW2 6681   2.796   4.582   6.482
 1928SOL     OW 6682   6.959   4.621   5.826
 1928SOL    HW1 6683   6.992   4.634   5.733
 1928SOL    HW2 6684   6.922   4.708   5.861
 1929SOL     OW 6685   1.530   5.510   1.467
 1929SOL    HW1 6686   1.523   5.599   1.513
 1929SOL    HW2 6687   1.590   5.518   1.388
 1930SOL     OW 6688   3.322   4.113   6.333
 1930SOL    HW1 6689   3.321   4.108   6.233
 1930SOL    HW2 6690   3.286   4.201   6.363
 1931SOL     OW 6691   0.742   3.636   2.286
 1931SOL    HW1 6692   0.659   3.602   2.330
 1931SOL    HW2 6693   0.759   3.730   2.315
 1932SOL     OW 6694   4.824   3.034   3.413
 1932SOL    HW1 6695   4.833   3.111   3.349
 1932SOL    HW2 6696   4.806   3.069   3.505
 1933SOL     OW 6697   2.161   3.304   0.703
 1933SOL    HW1 6698   2.124   3.359   0.628
 1933SOL    HW2 6699   2.085   3.268   0.758
 1934SOL     OW 6700   0.127   7.013   5.320
 1934SOL    HW1 6701   0.132   0.047   5.236
 1934SOL    HW2 6702   0.213   0.001   5.370
 1935SOL     OW 6703   4.129   6.358   3.563
 1935SOL    HW1 6704   4.120   6.265   3.598
 1935SOL    HW2 6705   4.086   6.422   3.627
 1936SOL     OW 6706   6.008   3.659   3.658
 1936SOL    HW1 6707   6.056   3.665   3.746
 1936SOL    HW2 6708   5.999   3.751   3.619
 1937SOL     OW 6709   4.189   6.479   1.212
 1937SOL    HW1 6710   4.137   6.516   1.134
 1937SOL    HW2 6711   4.212   6.553   1.275
 1938SOL     OW 6712   2.545   1.625   1.592
 1938SOL    HW1 6713   2.521   1.680   1.672
 1938SOL    HW2 6714   2.575   1.685   1.518
 1939SOL     OW 6715   6.471   6.921   4.486
 1939SOL    HW1 6716   6.416   6.856   4.538
 1939SOL    HW2 6717   6.536   6.872   4.428
 1940SOL     OW 6718   5.608   4.899   0.799
 1940SOL    HW1 6719   5.635   4.831   0.731
 1940SOL    HW2 6720   5.597   4.988   0.754
 1941SOL     OW 6721   0.960   3.455   4.353
 1941SOL    HW1 6722   1.032   3.387   4.342
 1941SOL    HW2 6723   0.949   3.478   4.449
 1942SOL     OW 6724   5.179   2.074   1.420
 1942SOL    HW1 6725   5.234   2.142   1.371
 1942SOL    HW2 6726   5.240   2.007   1.463
 1943SOL     OW 6727   2.453   6.066   3.803
 1943SOL    HW1 6728   2.464   6.085   3.901
 1943SOL    HW2 6729   2.492   6.142   3.750
 1944SOL     OW 6730   6.464   2.891   6.922
 1944SOL    HW1 6731   6.456   2.985   6.953
 1944SOL    HW2 6732   6.505   2.888   6.831
 1945SOL     OW 6733   3.511   5.290   0.696
 1945SOL    HW1 6734   3.466   5.202   0.709
 1945SOL    HW2 6735   3.577   5.284   0.621
 1946SOL     OW 6736   6.010   6.527   0.878
 1946SOL    HW1 6737   6.090   6.579   0.847
 1946SOL    HW2 6738   5.967   6.481   0.801
 1947SOL     OW 6739   5.293   6.425   4.342
 1947SOL    HW1 6740   5.237   6.353   4.301
 1947SOL    HW2 6741   5.254   6.450   4.431
 1948SOL     OW 6742   5.632   5.229   3.473
 1948SOL    HW1 6743   5.618   5.198   3.379
 1948SOL    HW2 6744   5.729   5.221   3.496
 1949SOL     OW 6745   3.458   3.563   5.945
 1949SOL    HW1 6746   3.430   3.493   5.879
 1949SOL    HW2 6747   3.378   3.591   5.998
 1950SOL     OW 6748   4.354   2.958   0.650
 1950SOL    HW1 6749   4.350   2.869   0.696
 1950SOL    HW2 6750   4.273   2.971   0.593
 1951SOL     OW 6751   5.970   4.612   7.015
 1951SOL    HW1 6752   5.893   4.572   6.965
 1951SOL    HW2 6753   5.942   4.634   0.088
 1952SOL     OW 6754   4.838   3.560   1.418
 1952SOL    HW1 6755   4.835   3.639   1.480
 1952SOL    HW2 6756   4.918   3.504   1.439
 1953SOL     OW 6757   6.168   1.676   5.685
 1953SOL    HW1 6758   6.208   1.637   5.767
 1953SOL    HW2 6759   6.135   1.769   5.705
 1954SOL     OW 6760   6.657   0.777   2.422
 1954SOL    HW1 6761   6.567   0.740   2.400
 1954SOL    HW2 6762   6.725   0.737   2.361
 1955SOL     OW 6763   0.703   1.086   2.703
 1955SOL    HW1 6764   0.686   0.987   2.695
 1955SOL    HW2 6765   0.722   1.109   2.798
 1956SOL     OW 6766   4.836   0.406   2.032
 1956SOL    HW1 6767   4.782   0.403   2.116
 1956SOL    HW2 6768   4.824   0.495   1.988
 1957SOL     OW 6769   5.983   4.323   4.191
 1957SOL    HW1 6770   5.900   4.299   4.242
 1957SOL    HW2 6771   6.006   4.419   4.208
 1958SOL     OW 6772   4.694   1.709   1.944
 1958SOL    HW1 6773   4.718   1.804   1.920
 1958SOL    HW2 6774   4.763   1.647   1.907
 1959SOL     OW 6775   1.457   0.453   4.051
 1959SOL    HW1 6776   1.448   0.371   4.106
 1959SOL    HW2 6777   1.545   0.452   4.003
 1960SOL     OW 6778   0.285   4.495   1.744
 1960SOL    HW1 6779   0.347   4.446   1.806
 1960SOL    HW2 6780   0.337   4.530   1.666
 1961SOL     OW 6781   5.837   4.467   4.745
 1961SOL    HW1 6782   5.916   4.509   4.700
 1961SOL    HW2 6783   5.839   4.368   4.729
 1962SOL     OW 6784   1.019   6.690   2.773
 1962SOL    HW1 6785   1.096   6.754   2.781
 1962SOL    HW2 6786   1.034   6.631   2.693
 1963SOL     OW 6787   1.052   1.671   1.299
 1963SOL    HW1 6788   1.135   1.711   1.337
 1963SOL    HW2 6789   1.076   1.609   1.225
 1964SOL     OW 6790   4.776   4.585   1.234
 1964SOL    HW1 6791   4.693   4.638   1.218
 1964SOL    HW2 6792   4.758   4.489   1.212
 1965SOL     OW 6793   1.490   2.999   4.705
 1965SOL    HW1 6794   1.585   2.981   4.680
 1965SOL    HW2 6795   1.434   2.920   4.680
 1966SOL     OW 6796   0.465   6.213   0.630
 1966SOL    HW1 6797   0.540   6.213   0.696
 1966SOL    HW2 6798   0.398   6.143   0.658
 1967SOL     OW 6799   5.594   3.035   5.229
 1967SOL    HW1 6800   5.567   2.956   5.174
 1967SOL    HW2 6801   5.659   3.007   5.299
 1968SOL     OW 6802   1.233   6.751   5.153
 1968SOL    HW1 6803   1.168   6.812   5.198
 1968SOL    HW2 6804   1.326   6.785   5.166
 1969SOL     OW 6805   2.162   2.131   0.532
 1969SOL    HW1 6806   2.171   2.037   0.499
 1969SOL    HW2 6807   2.251   2.165   0.563
 1970SOL     OW 6808   3.025   6.210   6.536
 1970SOL    HW1 6809   2.929   6.188   6.520
 1970SOL    HW2 6810   3.068   6.137   6.589
 1971SOL     OW 6811   0.395   0.400   5.899
 1971SOL    HW1 6812   0.474   0.378   5.956
 1971SOL    HW2 6813   0.378   0.325   5.835
 1972SOL     OW 6814   4.983   1.965   2.038
 1972SOL    HW1 6815   4.935   2.026   2.102
 1972SOL    HW2 6816   5.027   1.892   2.090
 1973SOL     OW 6817   3.246   2.908   0.572
 1973SOL    HW1 6818   3.251   2.858   0.658
 1973SOL    HW2 6819   3.151   2.911   0.541
 1974SOL     OW 6820   5.503   0.019   4.900
 1974SOL    HW1 6821   5.473   0.062   4.815
 1974SOL    HW2 6822   5.578   6.977   4.882
 1975SOL     OW 6823   2.041   1.661   4.639
 1975SOL    HW1 6824   1.944   1.649   4.621
 1975SOL    HW2 6825   2.078   1.731   4.578
 1976SOL     OW 6826   5.919   0.194   0.508
 1976SOL    HW1 6827   5.990   0.166   0.443
 1976SOL    HW2 6828   5.860   0.116   0.530
 1977SOL     OW 6829   1.957   3.159   4.711
 1977SOL    HW1 6830   2.032   3.109   4.753
 1977SOL    HW2 6831   1.946   3.247   4.758
 1978SOL     OW 6832   2.031   6.339   3.290
 1978SOL    HW1 6833   2.016   6.330   3.191
 1978SOL    HW2 6834   1.986   6.421   3.324
 1979SOL     OW 6835   5.550   4.431   0.219
 1979SOL    HW1 6836   5.602   4.346   0.234
 1979SOL    HW2 6837   5.568   4.465   0.126
 1980SOL     OW 6838   3.167   6.875   4.159
 1980SOL    HW1 6839   3.129   6.895   4.068
 1980SOL    HW2 6840   3.095   6.842   4.219
 1981SOL     OW 6841   6.903   3.020   1.886
 1981SOL    HW1 6842   6.815   3.032   1.931
 1981SOL    HW2 6843   6.939   2.929   1.907
 1982SOL     OW 6844   0.910   4.042   4.653
 1982SOL    HW1 6845   0.861   4.127   4.633
 1982SOL    HW2 6846   0.973   4.021   4.578
 1983SOL     OW 6847   1.224   0.816   2.205
 1983SOL    HW1 6848   1.196   0.730   2.248
 1983SOL    HW2 6849   1.312   0.844   2.243
 1984SOL     OW 6850   5.331   2.319   5.088
 1984SOL    HW1 6851   5.342   2.390   5.158
 1984SOL    HW2 6852   5.240   2.278   5.097
 1985SOL     OW 6853   0.950   6.485   2.414
 1985SOL    HW1 6854   0.949   6.542   2.331
 1985SOL    HW2 6855   1.036   6.499   2.462
 1986SOL     OW 6856   3.064   1.399   6.858
 1986SOL    HW1 6857   3.040   1.311   6.817
 1986SOL    HW2 6858   3.056   1.471   6.790
 1987SOL     OW 6859   1.976   1.832   2.852
 1987SOL    HW1 6860   2.048   1.846   2.783
 1987SOL    HW2 6861   1.998   1.752   2.907
 1988SOL     OW 6862   5.835   3.693   0.489
 1988SOL    HW1 6863   5.780   3.776   0.484
 1988SOL    HW2 6864   5.781   3.615   0.459
 1989SOL     OW 6865   2.038   5.510   4.724
 1989SOL    HW1 6866   2.006   5.569   4.798
 1989SOL    HW2 6867   2.004   5.417   4.739
 1990SOL     OW 6868   3.662   5.604   0.556
 1990SOL    HW1 6869   3.649   5.663   0.635
 1990SOL    HW2 6870   3.702   5.657   0.481
 1991SOL     OW 6871   3.052   4.767   6.443
 1991SOL    HW1 6872   2.952   4.767   6.441
 1991SOL    HW2 6873   3.084   4.701   6.510
 1992SOL     OW 6874   0.416   0.815   0.051
 1992SOL    HW1 6875   0.324   0.812   0.090
 1992SOL    HW2 6876   0.484   0.810   0.124
 1993SOL     OW 6877   3.708   2.410   5.620
 1993SOL    HW1 6878   3.723   2.497   5.574
 1993SOL    HW2 6879   3.795   2.364   5.635
 1994SOL     OW 6880   0.601   1.341   0.416
 1994SOL    HW1 6881   0.690   1.386   0.408
 1994SOL    HW2 6882   0.614   1.244   0.434
 1995SOL     OW 6883   5.396   2.544   3.798
 1995SOL    HW1 6884   5.358   2.630   3.834
 1995SOL    HW2 6885   5.439   2.561   3.709
 1996SOL     OW 6886   2.466   2.923   0.567
 1996SOL    HW1 6887   2.475   2.886   0.659
 1996SOL    HW2 6888   2.512   3.012   0.562
 1997SOL     OW 6889   2.925   2.073   4.745
 1997SOL    HW1 6890   2.931   1.981   4.707
 1997SOL    HW2 6891   2.982   2.079   4.827
 1998SOL     OW 6892   2.979   4.113   0.365
 1998SOL    HW1 6893   2.979   4.015   0.385
 1998SOL    HW2 6894   3.002   4.127   0.268
 1999SOL     OW 6895   2.156   6.293   5.920
 1999SOL    HW1 6896   2.226   6.314   5.851
 1999SOL    HW2 6897   2.189   6.220   5.980
 2000SOL     OW 6898   4.185   2.775   5.372
 2000SOL    HW1 6899   4.183   2.703   5.302
 2000SOL    HW2 6900   4.181   2.864   5.328
 2001SOL     OW 6901   2.730   0.015   1.589
 2001SOL    HW1 6902   2.638   6.998   1.573
 2001SOL    HW2 6903   2.722   0.109   1.623
 2002SOL     OW 6904   0.649   4.213   0.048
 2002SOL    HW1 6905   0.648   4.214   0.148
 2002SOL    HW2 6906   0.700   4.132   0.017
 2003SOL     OW 6907   6.314   5.612   2.507
 2003SOL    HW1 6908   6.351   5.524   2.537
 2003SOL    HW2 6909   6.230   5.631   2.557
 2004SOL     OW 6910   5.080   1.248   4.071
 2004SOL    HW1 6911   5.067   1.286   4.163
 2004SOL    HW2 6912   5.075   1.321   4.004
 2005SOL     OW 6913   0.156   4.692   0.514
 2005SOL    HW1 6914   0.183   4.780   0.553
 2005SOL    HW2 6915   0.237   4.644   0.480
 2006SOL     OW 6916   5.552   0.051   2.602
 2006SOL    HW1 6917   5.462   0.080   2.570
 2006SOL    HW2 6918   5.545   0.015   2.695
 2007SOL     OW 6919   4.627   4.528   0.458
 2007SOL    HW1 6920   4.699   4.537   0.389
 2007SOL    HW2 6921   4.668   4.533   0.549
 2008SOL     OW 6922   1.932   4.218   4.051
 2008SOL    HW1 6923   1.936   4.313   4.020
 2008SOL    HW2 6924   2.024   4.188   4.076
 2009SOL     OW 6925   5.514   0.298   2.883
 2009SOL    HW1 6926   5.429   0.282   2.833
 2009SOL    HW2 6927   5.550   0.211   2.916
 2010SOL     OW 6928   3.320   2.032   2.063
 2010SOL    HW1 6929   3.295   1.997   2.153
 2010SOL    HW2 6930   3.240   2.073   2.020
 2011SOL     OW 6931   7.013   0.454   4.978
 2011SOL    HW1 6932   0.002   0.547   4.943
 2011SOL    HW2 6933   6.926   0.446   5.028
 2012SOL     OW 6934   0.926   4.329   2.196
 2012SOL    HW1 6935   0.988   4.405   2.178
 2012SOL    HW2 6936   0.953   4.251   2.139
 2013SOL     OW 6937   6.538   2.887   2.786
 2013SOL    HW1 6938   6.589   2.934   2.715
 2013SOL    HW2 6939   6.506   2.953   2.854
 2014SOL     OW 6940   2.508   6.323   3.644
 2014SOL    HW1 6941   2.559   6.307   3.560
 2014SOL    HW2 6942   2.432   6.385   3.626
 2015SOL     OW 6943   2.102   0.561   0.079
 2015SOL    HW1 6944   2.189   0.516   0.096
 2015SOL    HW2 6945   2.116   0.659   0.071
 2016SOL     OW 6946   1.807   6.385   5.647
 2016SOL    HW1 6947   1.879   6.455   5.653
 2016SOL    HW2 6948   1.723   6.427   5.612
 2017SOL     OW 6949   3.861   0.440   3.909
 2017SOL    HW1 6950   3.852   0.383   3.827
 2017SOL    HW2 6951   3.873   0.382   3.989
 2018SOL     OW 6952   5.589   2.318   4.382
 2018SOL    HW1 6953   5.600   2.414   4.407
 2018SOL    HW2 6954   5.678   2.278   4.362
 2019SOL     OW 6955   5.034   3.851   6.081
 2019SOL    HW1 6956   5.104   3.878   6.015
 2019SOL    HW2 6957   4.978   3.930   6.105
 2020SOL     OW 6958   2.173   6.888   5.185
 2020SOL    HW1 6959   2.104   6.816   5.175
 2020SOL    HW2 6960   2.155   6.960   5.119
 2021SOL     OW 6961   0.279   6.719   4.721
 2021SOL    HW1 6962   0.336   6.771   4.785
 2021SOL    HW2 6963   0.304   6.742   4.627
 2022SOL     OW 6964   1.362   5.242   3.487
 2022SOL    HW1 6965   1.318   5.190   3.415
 2022SOL    HW2 6966   1.303   5.243   3.568
 2023SOL     OW 6967   0.031   0.776   6.403
 2023SOL    HW1 6968   0.053   0.804   6.309
 2023SOL    HW2 6969   0.093   0.703   6.431
 2024SOL     OW 6970   6.800   5.786   3.027
 2024SOL    HW1 6971   6.706   5.759   3.005
 2024SOL    HW2 6972   6.802   5.885   3.045
 2025SOL     OW 6973   3.235   1.003   3.941
 2025SOL    HW1 6974   3.139   0.974   3.931
 2025SOL    HW2 6975   3.262   1.057   3.862
 2026SOL     OW 6976   6.066   3.464   5.635
 2026SOL    HW1 6977   6.079   3.535   5.567
 2026SOL    HW2 6978   6.013   3.500   5.712
 2027SOL     OW 6979   1.131   0.267   0.033
 2027SOL    HW1 6980   1.110   0.363   0.017
 2027SOL    HW2 6981   1.052   0.222   0.074
 2028SOL     OW 6982   2.637   5.371   4.405
 2028SOL    HW1 6983   2.705   5.302   4.431
 2028SOL    HW2 6984   2.583   5.396   4.485
 2029SOL     OW 6985   6.655   1.867   0.104
 2029SOL    HW1 6986   6.640   1.930   0.180
 2029SOL    HW2 6987   6.683   1.778   0.140
 2030SOL     OW 6988   2.865   0.654   3.786
 2030SOL    HW1 6989   2.961   0.678   3.768
 2030SOL    HW2 6990   2.820   0.630   3.699
 2031SOL     OW 6991   6.883   5.800   1.591
 2031SOL    HW1 6992   6.830   5.863   1.649
 2031SOL    HW2 6993   6.908   5.719   1.644
 2032SOL     OW 6994   4.513   0.573   1.880
 2032SOL    HW1 6995   4.460   0.658   1.873
 2032SOL    HW2 6996   4.610   0.594   1.885
 2033SOL     OW 6997   3.125   3.093   6.950
 2033SOL    HW1 6998   3.161   3.166   7.008
 2033SOL    HW2 6999   3.055   3.042   7.000
 2034SOL     OW 7000   2.295   4.954   5.171
 2034SOL    HW1 7001   2.209   4.982   5.128
 2034SOL    HW2 7002   2.348   5.035   5.194
 2035SOL     OW 7003   6.330   6.637   3.595
 2035SOL    HW1 7004   6.397   6.705   3.567
 2035SOL    HW2 7005   6.327   6.631   3.695
 2036SOL     OW 7006   0.583   3.700   2.794
 2036SOL    HW1 7007   0.519   3.664   2.726
 2036SOL    HW2 7008   0.636   3.775   2.753
 2037SOL     OW 7009   6.352   3.436   5.578
 2037SOL    HW1 7010   6.366   3.356   5.519
 2037SOL    HW2 7011   6.263   3.429   5.622
 2038SOL     OW 7012   1.908   1.721   0.419
 2038SOL    HW1 7013   1.852   1.655   0.369
 2038SOL    HW2 7014   1.857   1.752   0.500
 2039SOL     OW 7015   6.845   5.745   3.525
 2039SOL    HW1 7016   6.858   5.796   3.609
 2039SOL    HW2 7017   6.761   5.691   3.531
 2040SOL     OW 7018   1.898   2.835   6.165
 2040SOL    HW1 7019   1.841   2.876   6.094
 2040SOL    HW2 7020   1.916   2.902   6.237
 2041SOL     OW 7021   0.720   6.611   5.673
 2041SOL    HW1 7022   0.807   6.645   5.709
 2041SOL    HW2 7023   0.724   6.607   5.573
 2042SOL     OW 7024   4.711   6.089   7.017
 2042SOL    HW1 7025   4.764   6.105   0.080
 2042SOL    HW2 7026   4.622   6.051   0.022
 2043SOL     OW 7027   6.272   3.719   3.427
 2043SOL    HW1 7028   6.184   3.761   3.407
 2043SOL    HW2 7029   6.260   3.648   3.497
 2044SOL     OW 7030   6.903   0.788   1.600
 2044SOL    HW1 7031   6.981   0.815   1.544
 2044SOL    HW2 7032   6.934   0.724   1.671
 2045SOL     OW 7033   1.551   5.222   4.319
 2045SOL    HW1 7034   1.495   5.206   4.400
 2045SOL    HW2 7035   1.492   5.229   4.238
 2046SOL     OW 7036   6.939   1.765   4.255
 2046SOL    HW1 7037   6.914   1.859   4.231
 2046SOL    HW2 7038   0.001   1.739   4.206
 2047SOL     OW 7039   6.913   3.132   0.555
 2047SOL    HW1 7040   6.838   3.176   0.505
 2047SOL    HW2 7041   6.881   3.101   0.644
 2048SOL     OW 7042   1.206   6.832   5.910
 2048SOL    HW1 7043   1.205   6.905   5.978
 2048SOL    HW2 7044   1.296   6.829   5.866
 2049SOL     OW 7045   5.902   1.411   3.849
 2049SOL    HW1 7046   5.857   1.323   3.836
 2049SOL    HW2 7047   5.926   1.423   3.945
 2050SOL     OW 7048   6.415   2.550   3.647
 2050SOL    HW1 7049   6.406   2.620   3.719
 2050SOL    HW2 7050   6.425   2.460   3.690
 2051SOL     OW 7051   1.208   5.663   6.594
 2051SOL    HW1 7052   1.276   5.603   6.636
 2051SOL    HW2 7053   1.253   5.728   6.533
 2052SOL     OW 7054   1.954   3.099   1.554
 2052SOL    HW1 7055   2.022   3.108   1.628
 2052SOL    HW2 7056   1.990   3.142   1.472
 2053SOL     OW 7057   6.367   5.914   4.535
 2053SOL    HW1 7058   6.368   6.008   4.502
 2053SOL    HW2 7059   6.423   5.907   4.617
 2054SOL     OW 7060   3.434   4.175   3.568
 2054SOL    HW1 7061   3.385   4.262   3.563
 2054SOL    HW2 7062   3.494   4.174   3.648
 2055SOL     OW 7063   5.618   3.447   4.222
 2055SOL    HW1 7064   5.592   3.350   4.225
 2055SOL    HW2 7065   5.593   3.491   4.308
 2056SOL     OW 7066   4.365   5.344   0.791
 2056SOL    HW1 7067   4.289   5.284   0.815
 2056SOL    HW2 7068   4.389   5.329   0.695
 2057SOL     OW 7069   5.098   4.399   5.736
 2057SOL    HW1 7070   5.195   4.375   5.735
 2057SOL    HW2 7071   5.069   4.418   5.830
 2058SOL     OW 7072   0.842   6.782   3.314
 2058SOL    HW1 7073   0.860   6.693   3.354
 2058SOL    HW2 7074   0.849   6.776   3.214
 2059SOL     OW 7075   1.801   6.063   6.010
 2059SOL    HW1 7076   1.738   6.131   6.047
 2059SOL    HW2 7077   1.812   6.076   5.912
 2060SOL     OW 7078   0.571   3.612   1.237
 2060SOL    HW1 7079   0.538   3.686   1.294
 2060SOL    HW2 7080   0.494   3.565   1.194
 2061SOL     OW 7081   1.781   1.845   2.028
 2061SOL    HW1 7082   1.761   1.748   2.018
 2061SOL    HW2 7083   1.825   1.879   1.945
 2062SOL     OW 7084   6.978   5.427   5.822
 2062SOL    HW1 7085   6.897   5.369   5.830
 2062SOL    HW2 7086   6.950   5.522   5.814
 2063SOL     OW 7087   0.848   6.996   5.210
 2063SOL    HW1 7088   0.875   6.929   5.141
 2063SOL    HW2 7089   0.907   0.057   5.202
 2064SOL     OW 7090   0.141   2.436   4.713
 2064SOL    HW1 7091   0.210   2.412   4.644
 2064SOL    HW2 7092   0.059   2.470   4.668
 2065SOL     OW 7093   5.918   2.583   5.672
 2065SOL    HW1 7094   5.946   2.604   5.766
 2065SOL    HW2 7095   5.912   2.667   5.619
 2066SOL     OW 7096   7.013   4.379   5.016
 2066SOL    HW1 7097   0.072   4.371   5.077
 2066SOL    HW2 7098   6.959   4.295   5.020
 2067SOL     OW 7099   0.236   4.947   0.611
 2067SOL    HW1 7100   0.318   4.984   0.567
 2067SOL    HW2 7101   0.234   4.977   0.707
 2068SOL     OW 7102   2.356   0.410   4.462
 2068SOL    HW1 7103   2.385   0.491   4.514
 2068SOL    HW2 7104   2.393   0.414   4.370
 2069SOL     OW 7105   6.684   2.552   3.918
 2069SOL    HW1 7106   6.649   2.460   3.901
 2069SOL    HW2 7107   6.761   2.547   3.982
 2070SOL     OW 7108   1.075   1.659   0.678
 2070SOL    HW1 7109   1.132   1.662   0.596
 2070SOL    HW2 7110   1.133   1.651   0.759
 2071SOL     OW 7111   5.643   0.591   5.735
 2071SOL    HW1 7112   5.727   0.538   5.751
 2071SOL    HW2 7113   5.564   0.537   5.764
 2072SOL     OW 7114   4.579   5.322   4.799
 2072SOL    HW1 7115   4.623   5.370   4.875
 2072SOL    HW2 7116   4.483   5.305   4.823
 2073SOL     OW 7117   4.744   6.726   4.838
 2073SOL    HW1 7118   4.649   6.726   4.807
 2073SOL    HW2 7119   4.805   6.738   4.759
 2074SOL     OW 7120   2.242   2.481   5.912
 2074SOL    HW1 7121   2.334   2.518   5.921
 2074SOL    HW2 7122   2.175   2.552   5.935
 2075SOL     OW 7123   6.787   2.755   2.966
 2075SOL    HW1 7124   6.815   2.737   3.060
 2075SOL    HW2 7125   6.728   2.682   2.934
 2076SOL     OW 7126   5.250   6.697   6.298
 2076SOL    HW1 7127   5.207   6.764   6.358
 2076SOL    HW2 7128   5.341   6.675   6.333
 2077SOL     OW 7129   0.010   1.834   1.851
 2077SOL    HW1 7130   0.059   1.913   1.814
 2077SOL    HW2 7131   0.075   1.762   1.874
 2078SOL     OW 7132   1.795   5.430   6.345
 2078SOL    HW1 7133   1.720   5.386   6.297
 2078SOL    HW2 7134   1.876   5.434   6.286
 2079SOL     OW 7135   0.064   1.684   2.962
 2079SOL    HW1 7136   0.142   1.713   3.017
 2079SOL    HW2 7137   7.007   1.746   2.978
 2080SOL     OW 7138   2.231   0.298   5.033
 2080SOL    HW1 7139   2.166   0.358   4.986
 2080SOL    HW2 7140   2.324   0.329   5.013
 2081SOL     OW 7141   0.866   6.410   4.491
 2081SOL    HW1 7142   0.782   6.422   4.544
 2081SOL    HW2 7143   0.848   6.433   4.396
 2082SOL     OW 7144   0.758   6.391   3.210
 2082SOL    HW1 7145   0.796   6.300   3.196
 2082SOL    HW2 7146   0.807   6.437   3.284
 2083SOL     OW 7147   1.225   5.568   5.444
 2083SOL    HW1 7148   1.127   5.559   5.462
 2083SOL    HW2 7149   1.262   5.645   5.496
 2084SOL     OW 7150   0.676   3.880   2.586
 2084SOL    HW1 7151   0.646   3.975   2.591
 2084SOL    HW2 7152   0.617   3.829   2.523
 2085SOL     OW 7153   4.887   0.690   0.968
 2085SOL    HW1 7154   4.803   0.656   0.927
 2085SOL    HW2 7155   4.962   0.683   0.902
 2086SOL     OW 7156   3.443   6.595   6.831
 2086SOL    HW1 7157   3.385   6.671   6.859
 2086SOL    HW2 7158   3.386   6.522   6.793
 2087SOL     OW 7159   5.307   1.290   1.616
 2087SOL    HW1 7160   5.268   1.370   1.570
 2087SOL    HW2 7161   5.269   1.283   1.709
 2088SOL     OW 7162   0.874   5.904   6.868
 2088SOL    HW1 7163   0.905   5.891   6.774
 2088SOL    HW2 7164   0.946   5.947   6.922
 2089SOL     OW 7165   4.859   2.746   6.117
 2089SOL    HW1 7166   4.956   2.762   6.097
 2089SOL    HW2 7167   4.850   2.712   6.211
 2090SOL     OW 7168   4.425   3.276   5.617
 2090SOL    HW1 7169   4.385   3.363   5.645
 2090SOL    HW2 7170   4.496   3.250   5.681
 2091SOL     OW 7171   6.662   4.959   0.972
 2091SOL    HW1 7172   6.606   4.977   1.053
 2091SOL    HW2 7173   6.670   4.860   0.960
 2092SOL     OW 7174   5.324   3.618   0.559
 2092SOL    HW1 7175   5.224   3.623   0.568
 2092SOL    HW2 7176   5.366   3.622   0.650
 2093SOL     OW 7177   3.079   2.279   1.674
 2093SOL    HW1 7178   3.176   2.301   1.685
 2093SOL    HW2 7179   3.026   2.323   1.746
 2094SOL     OW 7180   5.635   1.552   1.592
 2094SOL    HW1 7181   5.616   1.542   1.494
 2094SOL    HW2 7182   5.708   1.490   1.618
 2095SOL     OW 7183   6.074   6.509   4.759
 2095SOL    HW1 7184   6.154   6.531   4.704
 2095SOL    HW2 7185   6.050   6.413   4.746
 2096SOL     OW 7186   4.870   5.238   3.379
 2096SOL    HW1 7187   4.785   5.237   3.326
 2096SOL    HW2 7188   4.850   5.256   3.475
 2097SOL     OW 7189   3.022   2.584   6.597
 2097SOL    HW1 7190   3.042   2.682   6.592
 2097SOL    HW2 7191   3.031   2.554   6.692
 2098SOL     OW 7192   4.353   5.996   1.890
 2098SOL    HW1 7193   4.451   5.998   1.910
 2098SOL    HW2 7194   4.332   5.918   1.831
 2099SOL     OW 7195   3.560   1.517   0.222
 2099SOL    HW1 7196   3.610   1.514   0.308
 2099SOL    HW2 7197   3.533   1.424   0.195
 2100SOL     OW 7198   5.962   1.507   0.528
 2100SOL    HW1 7199   5.875   1.518   0.576
 2100SOL    HW2 7200   6.010   1.594   0.527
 2101SOL     OW 7201   0.349   6.527   0.935
 2101SOL    HW1 7202   0.309   6.452   0.987
 2101SOL    HW2 7203   0.417   6.574   0.991
 2102SOL     OW 7204   5.218   3.733   2.039
 2102SOL    HW1 7205   5.258   3.807   1.985
 2102SOL    HW2 7206   5.122   3.753   2.057
 2103SOL     OW 7207   3.284   3.288   0.056
 2103SOL    HW1 7208   3.376   3.250   0.048
 2103SOL    HW2 7209   3.272   3.362   7.010
 2104SOL     OW 7210   1.586   4.523   2.528
 2104SOL    HW1 7211   1.630   4.553   2.612
 2104SOL    HW2 7212   1.644   4.545   2.450
 2105SOL     OW 7213   4.629   4.889   6.319
 2105SOL    HW1 7214   4.612   4.795   6.292
 2105SOL    HW2 7215   4.713   4.894   6.372
 2106SOL     OW 7216   5.046   3.955   1.722
 2106SOL    HW1 7217   5.030   4.021   1.649
 2106SOL    HW2 7218   4.958   3.927   1.762
 2107SOL     OW 7219   5.835   2.351   5.482
 2107SOL    HW1 7220   5.921   2.327   5.437
 2107SOL    HW2 7221   5.804   2.440   5.448
 2108SOL     OW 7222   6.244   5.231   5.251
 2108SOL    HW1 7223   6.338   5.198   5.254
 2108SOL    HW2 7224   6.239   5.324   5.287
 2109SOL     OW 7225   3.876   6.002   2.422
 2109SOL    HW1 7226   3.835   5.922   2.466
 2109SOL    HW2 7227   3.939   5.974   2.351
 2110SOL     OW 7228   3.062   1.021   0.492
 2110SOL    HW1 7229   3.015   0.935   0.473
 2110SOL    HW2 7230   3.037   1.053   0.583
 2111SOL     OW 7231   2.154   3.475   6.516
 2111SOL    HW1 7232   2.108   3.543   6.459
 2111SOL    HW2 7233   2.217   3.521   6.579
 2112SOL     OW 7234   4.870   1.891   0.583
 2112SOL    HW1 7235   4.950   1.851   0.628
 2112SOL    HW2 7236   4.896   1.926   0.493
 2113SOL     OW 7237   2.311   1.149   5.138
 2113SOL    HW1 7238   2.238   1.081   5.123
 2113SOL    HW2 7239   2.319   1.207   5.057
 2114SOL     OW 7240   2.762   1.898   6.394
 2114SOL    HW1 7241   2.800   1.933   6.308
 2114SOL    HW2 7242   2.789   1.802   6.405
 2115SOL     OW 7243   0.586   4.185   2.083
 2115SOL    HW1 7244   0.526   4.188   2.004
 2115SOL    HW2 7245   0.556   4.114   2.146
 2116SOL     OW 7246   1.083   3.359   2.417
 2116SOL    HW1 7247   0.999   3.333   2.466
 2116SOL    HW2 7248   1.120   3.278   2.371
 2117SOL     OW 7249   5.839   3.956   1.495
 2117SOL    HW1 7250   5.901   4.003   1.558
 2117SOL    HW2 7251   5.801   3.875   1.540
 2118SOL     OW 7252   6.530   3.570   3.513
 2118SOL    HW1 7253   6.506   3.476   3.491
 2118SOL    HW2 7254   6.469   3.604   3.584
 2119SOL     OW 7255   1.983   0.781   0.626
 2119SOL    HW1 7256   1.956   0.844   0.554
 2119SOL    HW2 7257   1.901   0.751   0.676
 2120SOL     OW 7258   0.383   3.758   2.585
 2120SOL    HW1 7259   0.325   3.677   2.575
 2120SOL    HW2 7260   0.332   3.838   2.554
 2121SOL     OW 7261   1.560   2.327   5.858
 2121SOL    HW1 7262   1.571   2.335   5.957
 2121SOL    HW2 7263   1.595   2.238   5.828
 2122SOL     OW 7264   5.316   5.833   6.743
 2122SOL    HW1 7265   5.372   5.752   6.724
 2122SOL    HW2 7266   5.221   5.805   6.756
 2123SOL     OW 7267   6.510   5.793   1.456
 2123SOL    HW1 7268   6.609   5.794   1.449
 2123SOL    HW2 7269   6.473   5.881   1.424
 2124SOL     OW 7270   2.754   1.637   0.075
 2124SOL    HW1 7271   2.674   1.589   0.111
 2124SOL    HW2 7272   2.833   1.577   0.079
 2125SOL     OW 7273   0.933   6.009   1.850
 2125SOL    HW1 7274   0.965   6.001   1.944
 2125SOL    HW2 7275   0.951   5.923   1.801
 2126SOL     OW 7276   3.417   2.651   6.785
 2126SOL    HW1 7277   3.483   2.715   6.746
 2126SOL    HW2 7278   3.424   2.654   6.885
 2127SOL     OW 7279   0.831   1.654   5.323
 2127SOL    HW1 7280   0.813   1.561   5.352
 2127SOL    HW2 7281   0.826   1.659   5.223
 2128SOL     OW 7282   6.239   2.443   2.113
 2128SOL    HW1 7283   6.261   2.511   2.044
 2128SOL    HW2 7284   6.144   2.412   2.101
 2129SOL     OW 7285   4.609   4.472   4.978
 2129SOL    HW1 7286   4.510   4.488   4.985
 2129SOL    HW2 7287   4.643   4.512   4.892
 2130SOL     OW 7288   2.883   0.198   2.235
 2130SOL    HW1 7289   2.969   0.192   2.185
 2130SOL    HW2 7290   2.892   0.266   2.308
 2131SOL     OW 7291   5.246   1.090   0.569
 2131SOL    HW1 7292   5.198   1.177   0.555
 2131SOL    HW2 7293   5.210   1.021   0.506
 2132SOL     OW 7294   3.147   1.779   6.681
 2132SOL    HW1 7295   3.077   1.751   6.747
 2132SOL    HW2 7296   3.142   1.719   6.601
 2133SOL     OW 7297   3.543   2.645   1.002
 2133SOL    HW1 7298   3.531   2.700   1.085
 2133SOL    HW2 7299   3.455   2.608   0.973
 2134SOL     OW 7300   0.951   1.178   4.615
 2134SOL    HW1 7301   0.996   1.226   4.690
 2134SOL    HW2 7302   0.977   1.081   4.617
 2135SOL     OW 7303   0.898   1.495   4.521
 2135SOL    HW1 7304   0.975   1.468   4.464
 2135SOL    HW2 7305   0.842   1.415   4.543
 2136SOL     OW 7306   1.665   4.055   4.772
 2136SOL    HW1 7307   1.632   4.011   4.856
 2136SOL    HW2 7308   1.592   4.057   4.704
 2137SOL     OW 7309   0.117   6.543   4.328
 2137SOL    HW1 7310   0.142   6.610   4.257
 2137SOL    HW2 7311   0.190   6.476   4.338
 2138SOL     OW 7312   6.857   1.584   1.929
 2138SOL    HW1 7313   6.792   1.508   1.935
 2138SOL    HW2 7314   6.890   1.607   2.020
 2139SOL     OW 7315   4.161   0.775   2.648
 2139SOL    HW1 7316   4.192   0.855   2.598
 2139SOL    HW2 7317   4.094   0.802   2.717
 2140SOL     OW 7318   3.018   5.858   3.415
 2140SOL    HW1 7319   3.083   5.813   3.354
 2140SOL    HW2 7320   2.928   5.859   3.371
 2141SOL     OW 7321   0.075   3.700   1.048
 2141SOL    HW1 7322   7.017   3.661   1.096
 2141SOL    HW2 7323   0.159   3.673   1.094
 2142SOL     OW 7324   1.183   1.975   2.669
 2142SOL    HW1 7325   1.094   1.991   2.627
 2142SOL    HW2 7326   1.242   1.927   2.604
 2143SOL     OW 7327   3.349   4.945   1.032
 2143SOL    HW1 7328   3.361   4.862   0.978
 2143SOL    HW2 7329   3.279   4.929   1.102
 2144SOL     OW 7330   1.179   0.139   2.777
 2144SOL    HW1 7331   1.190   0.212   2.845
 2144SOL    HW2 7332   1.165   0.180   2.687
 2145SOL     OW 7333   3.635   5.738   3.840
 2145SOL    HW1 7334   3.631   5.763   3.743
 2145SOL    HW2 7335   3.566   5.790   3.891
 2146SOL     OW 7336   3.127   3.838   2.296
 2146SOL    HW1 7337   3.051   3.822   2.233
 2146SOL    HW2 7338   3.202   3.775   2.274
 2147SOL     OW 7339   0.048   0.358   6.809
 2147SOL    HW1 7340   0.114   0.424   6.843
 2147SOL    HW2 7341   0.012   0.389   6.720
 2148SOL     OW 7342   5.308   2.827   4.533
 2148SOL    HW1 7343   5.266   2.862   4.616
 2148SOL    HW2 7344   5.394   2.781   4.555
 2149SOL     OW 7345   3.910   0.870   1.338
 2149SOL    HW1 7346   3.909   0.963   1.373
 2149SOL    HW2 7347   3.900   0.871   1.239
 2150SOL     OW 7348   2.036   2.482   2.715
 2150SOL    HW1 7349   2.064   2.547   2.643
 2150SOL    HW2 7350   1.991   2.532   2.789
 2151SOL     OW 7351   2.140   1.482   4.035
 2151SOL    HW1 7352   2.235   1.476   4.004
 2151SOL    HW2 7353   2.082   1.512   3.959
 2152SOL     OW 7354   3.584   6.204   1.148
 2152SOL    HW1 7355   3.664   6.178   1.202
 2152SOL    HW2 7356   3.612   6.222   1.054
 2153SOL     OW 7357   3.724   0.037   3.113
 2153SOL    HW1 7358   3.641   0.018   3.165
 2153SOL    HW2 7359   3.746   0.134   3.120
 2154SOL     OW 7360   4.560   0.524   4.483
 2154SOL    HW1 7361   4.505   0.589   4.430
 2154SOL    HW2 7362   4.529   0.431   4.465
 2155SOL     OW 7363   1.487   5.539   0.031
 2155SOL    HW1 7364   1.447   5.623   7.015
 2155SOL    HW2 7365   1.572   5.519   7.003
 2156SOL     OW 7366   2.608   0.033   2.242
 2156SOL    HW1 7367   2.668   0.084   2.181
 2156SOL    HW2 7368   2.585   0.088   2.322
 2157SOL     OW 7369   6.050   1.715   3.474
 2157SOL    HW1 7370   5.998   1.666   3.543
 2157SOL    HW2 7371   6.000   1.797   3.446
 2158SOL     OW 7372   4.536   6.087   0.852
 2158SOL    HW1 7373   4.607   6.147   0.816
 2158SOL    HW2 7374   4.544   5.997   0.809
 2159SOL     OW 7375   1.753   5.508   5.530
 2159SOL    HW1 7376   1.723   5.566   5.604
 2159SOL    HW2 7377   1.686   5.435   5.514
 2160SOL     OW 7378   4.276   3.173   1.486
 2160SOL    HW1 7379   4.283   3.157   1.584
 2160SOL    HW2 7380   4.353   3.228   1.455
 2161SOL     OW 7381   5.477   2.535   3.544
 2161SOL    HW1 7382   5.554   2.527   3.481
 2161SOL    HW2 7383   5.419   2.611   3.515
 2162SOL     OW 7384   3.050   0.602   0.005
 2162SOL    HW1 7385   3.072   0.688   6.978
 2162SOL    HW2 7386   3.129   0.541   0.001
 2163SOL     OW 7387   0.122   5.455   6.359
 2163SOL    HW1 7388   0.062   5.383   6.394
 2163SOL    HW2 7389   0.139   5.440   6.262
 2164SOL     OW 7390   1.344   2.343   0.215
 2164SOL    HW1 7391   1.401   2.380   0.141
 2164SOL    HW2 7392   1.310   2.252   0.188
 2165SOL     OW 7393   0.857   1.577   2.478
 2165SOL    HW1 7394   0.947   1.613   2.501
 2165SOL    HW2 7395   0.822   1.622   2.396
 2166SOL     OW 7396   2.073   2.166   5.483
 2166SOL    HW1 7397   2.130   2.194   5.560
 2166SOL    HW2 7398   1.976   2.177   5.507
 2167SOL     OW 7399   1.897   0.922   3.456
 2167SOL    HW1 7400   1.852   0.986   3.394
 2167SOL    HW2 7401   1.991   0.953   3.473
 2168SOL     OW 7402   0.021   2.314   3.647
 2168SOL    HW1 7403   7.004   2.407   3.643
 2168SOL    HW2 7404   6.966   2.248   3.639
 2169SOL     OW 7405   5.753   2.275   5.736
 2169SOL    HW1 7406   5.814   2.260   5.815
 2169SOL    HW2 7407   5.808   2.287   5.654
 2170SOL     OW 7408   6.143   5.077   5.857
 2170SOL    HW1 7409   6.226   5.060   5.910
 2170SOL    HW2 7410   6.134   5.008   5.786
 2171SOL     OW 7411   6.017   3.493   0.539
 2171SOL    HW1 7412   5.970   3.580   0.526
 2171SOL    HW2 7413   5.991   3.454   0.627
 2172SOL     OW 7414   2.280   1.426   0.374
 2172SOL    HW1 7415   2.264   1.439   0.472
 2172SOL    HW2 7416   2.228   1.494   0.322
 2173SOL     OW 7417   3.830   7.019   5.525
 2173SOL    HW1 7418   3.876   6.933   5.546
 2173SOL    HW2 7419   3.777   0.028   5.605
 2174SOL     OW 7420   6.012   5.255   6.011
 2174SOL    HW1 7421   5.916   5.238   5.986
 2174SOL    HW2 7422   6.068   5.179   5.978
 2175SOL     OW 7423   3.425   2.104   3.192
 2175SOL    HW1 7424   3.471   2.116   3.104
 2175SOL    HW2 7425   3.491   2.114   3.266
 2176SOL     OW 7426   0.651   2.500   1.148
 2176SOL    HW1 7427   0.623   2.431   1.081
 2176SOL    HW2 7428   0.572   2.529   1.202
 2177SOL     OW 7429   6.284   0.488   2.765
 2177SOL    HW1 7430   6.306   0.559   2.698
 2177SOL    HW2 7431   6.192   0.453   2.749
 2178SOL     OW 7432   2.051   4.234   0.268
 2178SOL    HW1 7433   2.105   4.153   0.289
 2178SOL    HW2 7434   2.108   4.316   0.280
 2179SOL     OW 7435   2.222   5.208   4.901
 2179SOL    HW1 7436   2.164   5.173   4.974
 2179SOL    HW2 7437   2.167   5.226   4.820
 2180SOL     OW 7438   2.960   3.540   1.987
 2180SOL    HW1 7439   3.035   3.493   1.940
 2180SOL    HW2 7440   2.989   3.632   2.012
 2181SOL     OW 7441   5.123   4.710   5.784
 2181SOL    HW1 7442   5.171   4.695   5.870
 2181SOL    HW2 7443   5.128   4.629   5.727
 2182SOL     OW 7444   6.322   3.109   4.535
 2182SOL    HW1 7445   6.261   3.188   4.536
 2182SOL    HW2 7446   6.394   3.121   4.602
 2183SOL     OW 7447   3.535   3.672   6.423
 2183SOL    HW1 7448   3.629   3.680   6.391
 2183SOL    HW2 7449   3.516   3.743   6.491
 2184SOL     OW 7450   3.822   1.217   5.214
 2184SOL    HW1 7451   3.870   1.282   5.273
 2184SOL    HW2 7452   3.763   1.159   5.270
 2185SOL     OW 7453   1.595   2.470   0.882
 2185SOL    HW1 7454   1.499   2.497   0.872
 2185SOL    HW2 7455   1.626   2.427   0.798
 2186SOL     OW 7456   6.947   4.856   2.644
 2186SOL    HW1 7457   6.916   4.802   2.565
 2186SOL    HW2 7458   7.000   4.798   2.706
 2187SOL     OW 7459   0.755   1.823   1.504
 2187SOL    HW1 7460   0.656   1.824   1.512
 2187SOL    HW2 7461   0.787   1.728   1.506
 2188SOL     OW 7462   5.371   5.834   4.014
 2188SOL    HW1 7463   5.467   5.811   3.999
 2188SOL    HW2 7464   5.327   5.762   4.067
 2189SOL     OW 7465   1.610   6.090   6.599
 2189SOL    HW1 7466   1.669   6.163   6.633
 2189SOL    HW2 7467   1.547   6.127   6.530
 2190SOL     OW 7468   0.118   2.417   1.884
 2190SOL    HW1 7469   0.211   2.382   1.878
 2190SOL    HW2 7470   0.093   2.430   1.980
 2191SOL     OW 7471   2.971   1.711   6.084
 2191SOL    HW1 7472   3.041   1.747   6.022
 2191SOL    HW2 7473   2.932   1.627   6.045
 2192SOL     OW 7474   3.541   0.242   3.981
 2192SOL    HW1 7475   3.588   0.329   3.967
 2192SOL    HW2 7476   3.468   0.233   3.913
 2193SOL     OW 7477   6.828   6.443   6.176
 2193SOL    HW1 7478   6.753   6.378   6.183
 2193SOL    HW2 7479   6.874   6.431   6.088
 2194SOL     OW 7480   2.432   4.239   6.766
 2194SOL    HW1 7481   2.334   4.222   6.759
 2194SOL    HW2 7482   2.458   4.315   6.707
 2195SOL     OW 7483   0.563   6.516   2.662
 2195SOL    HW1 7484   0.567   6.452   2.738
 2195SOL    HW2 7485   0.560   6.465   2.576
 2196SOL     OW 7486   2.980   0.542   5.807
 2196SOL    HW1 7487   2.904   0.522   5.746
 2196SOL    HW2 7488   2.946   0.586   5.890
 2197SOL     OW 7489   4.652   3.641   1.740
 2197SOL    HW1 7490   4.697   3.575   1.800
 2197SOL    HW2 7491   4.588   3.593   1.680
 2198SOL     OW 7492   6.571   1.956   6.873
 2198SOL    HW1 7493   6.600   1.912   6.958
 2198SOL    HW2 7494   6.547   2.051   6.891
 2199SOL     OW 7495   5.649   0.949   1.810
 2199SOL    HW1 7496   5.559   0.951   1.853
 2199SOL    HW2 7497   5.664   0.858   1.770
 2200SOL     OW 7498   4.084   0.474   4.787
 2200SOL    HW1 7499   4.116   0.563   4.821
 2200SOL    HW2 7500   4.082   0.408   4.862
 2201SOL     OW 7501   6.680   2.853   2.015
 2201SOL    HW1 7502   6.658   2.823   2.107
 2201SOL    HW2 7503   6.595   2.862   1.962
 2202SOL     OW 7504   3.819   5.315   4.395
 2202SOL    HW1 7505   3.813   5.218   4.371
 2202SOL    HW2 7506   3.774   5.330   4.483
 2203SOL     OW 7507   2.096   2.346   2.204
 2203SOL    HW1 7508   2.075   2.335   2.301
 2203SOL    HW2 7509   2.050   2.428   2.169
 2204SOL     OW 7510   3.523   1.400   6.898
 2204SOL    HW1 7511   3.443   1.382   6.955
 2204SOL    HW2 7512   3.520   1.494   6.865
 2205SOL     OW 7513   1.578   6.996   6.379
 2205SOL    HW1 7514   1.628   0.022   6.452
 2205SOL    HW2 7515   1.642   6.947   6.320
 2206SOL     OW 7516   3.136   4.339   5.333
 2206SOL    HW1 7517   3.066   4.398   5.292
 2206SOL    HW2 7518   3.129   4.247   5.296
 2207SOL     OW 7519   1.938   4.067   6.317
 2207SOL    HW1 7520   2.029   4.074   6.358
 2207SOL    HW2 7521   1.946   4.043   6.221
 2208SOL     OW 7522   1.738   4.627   2.315
 2208SOL    HW1 7523   1.751   4.674   2.228
 2208SOL    HW2 7524   1.822   4.634   2.369
 2209SOL     OW 7525   1.250   5.885   5.572
 2209SOL    HW1 7526   1.172   5.941   5.542
 2209SOL    HW2 7527   1.332   5.911   5.521
 2210SOL     OW 7528   0.319   5.136   3.843
 2210SOL    HW1 7529   0.332   5.071   3.768
 2210SOL    HW2 7530   0.302   5.227   3.806
 2211SOL     OW 7531   5.506   1.462   0.000
 2211SOL    HW1 7532   5.537   1.375   6.983
 2211SOL    HW2 7533   5.425   1.493   6.970
 2212SOL     OW 7534   1.726   6.330   0.630
 2212SOL    HW1 7535   1.703   6.258   0.696
 2212SOL    HW2 7536   1.744   6.289   0.541
 2213SOL     OW 7537   4.152   2.806   5.678
 2213SOL    HW1 7538   4.155   2.788   5.579
 2213SOL    HW2 7539   4.207   2.738   5.726
 2214SOL     OW 7540   4.781   1.077   5.340
 2214SOL    HW1 7541   4.755   1.135   5.263
 2214SOL    HW2 7542   4.879   1.084   5.354
 2215SOL     OW 7543   6.696   2.026   5.887
 2215SOL    HW1 7544   6.701   2.011   5.986
 2215SOL    HW2 7545   6.787   2.016   5.847
 2216SOL     OW 7546   1.551   0.439   6.949
 2216SOL    HW1 7547   1.634   0.492   6.965
 2216SOL    HW2 7548   1.471   0.498   6.960
 2217SOL     OW 7549   3.169   6.978   1.750
 2217SOL    HW1 7550   3.148   6.951   1.844
 2217SOL    HW2 7551   3.091   6.955   1.690
 2218SOL     OW 7552   1.312   6.602   1.084
 2218SOL    HW1 7553   1.214   6.616   1.093
 2218SOL    HW2 7554   1.349   6.569   1.171
 2219SOL     OW 7555   1.008   4.356   3.348
 2219SOL    HW1 7556   1.076   4.303   3.398
 2219SOL    HW2 7557   1.022   4.344   3.249
 2220SOL     OW 7558   0.514   1.087   4.435
 2220SOL    HW1 7559   0.608   1.089   4.469
 2220SOL    HW2 7560   0.485   0.992   4.420
 2221SOL     OW 7561   6.614   0.854   0.086
 2221SOL    HW1 7562   6.665   0.809   0.013
 2221SOL    HW2 7563   6.666   0.850   0.171
 2222SOL     OW 7564   3.563   0.643   0.667
 2222SOL    HW1 7565   3.653   0.603   0.653
 2222SOL    HW2 7566   3.568   0.713   0.738
 2223SOL     OW 7567   5.253   6.634   3.783
 2223SOL    HW1 7568   5.324   6.563   3.784
 2223SOL    HW2 7569   5.200   6.628   3.699
 2224SOL     OW 7570   2.302   4.376   1.701
 2224SOL    HW1 7571   2.374   4.368   1.633
 2224SOL    HW2 7572   2.324   4.451   1.763
 2225SOL     OW 7573   6.087   5.557   3.196
 2225SOL    HW1 7574   6.115   5.465   3.168
 2225SOL    HW2 7575   6.077   5.614   3.115
 2226SOL     OW 7576   4.359   3.332   0.662
 2226SOL    HW1 7577   4.268   3.313   0.628
 2226SOL    HW2 7578   4.356   3.342   0.762
 2227SOL     OW 7579   5.870   4.667   0.260
 2227SOL    HW1 7580   5.794   4.691   0.321
 2227SOL    HW2 7581   5.956   4.697   0.301
 2228SOL     OW 7582   3.168   5.911   0.662
 2228SOL    HW1 7583   3.197   5.863   0.580
 2228SOL    HW2 7584   3.131   5.846   0.728
 2229SOL     OW 7585   4.151   1.449   4.364
 2229SOL    HW1 7586   4.072   1.507   4.385
 2229SOL    HW2 7587   4.219   1.458   4.437
 2230SOL     OW 7588   0.607   6.428   4.591
 2230SOL    HW1 7589   0.635   6.381   4.675
 2230SOL    HW2 7590   0.547   6.369   4.538
 2231SOL     OW 7591   1.894   1.890   1.537
 2231SOL    HW1 7592   1.812   1.837   1.517
 2231SOL    HW2 7593   1.975   1.839   1.507
 2232SOL     OW 7594   1.033   2.687   3.775
 2232SOL    HW1 7595   1.044   2.717   3.870
 2232SOL    HW2 7596   0.990   2.760   3.722
 2233SOL     OW 7597   3.026   4.473   0.636
 2233SOL    HW1 7598   3.094   4.533   0.594
 2233SOL    HW2 7599   2.961   4.442   0.567
 2234SOL     OW 7600   4.727   2.288   1.430
 2234SOL    HW1 7601   4.709   2.362   1.495
 2234SOL    HW2 7602   4.807   2.236   1.461
 2235SOL     OW 7603   1.520   0.331   0.299
 2235SOL    HW1 7604   1.601   0.330   0.358
 2235SOL    HW2 7605   1.542   0.289   0.211
 2236SOL     OW 7606   1.181   4.698   0.625
 2236SOL    HW1 7607   1.106   4.760   0.651
 2236SOL    HW2 7608   1.178   4.617   0.684
 2237SOL     OW 7609   5.764   4.170   4.310
 2237SOL    HW1 7610   5.715   4.226   4.377
 2237SOL    HW2 7611   5.700   4.107   4.266
 2238SOL     OW 7612   6.520   5.724   2.978
 2238SOL    HW1 7613   6.496   5.729   2.881
 2238SOL    HW2 7614   6.480   5.802   3.026
 2239SOL     OW 7615   3.842   5.210   3.688
 2239SOL    HW1 7616   3.767   5.276   3.684
 2239SOL    HW2 7617   3.910   5.241   3.755
 2240SOL     OW 7618   5.672   5.792   3.937
 2240SOL    HW1 7619   5.746   5.780   3.871
 2240SOL    HW2 7620   5.649   5.703   3.977
 2241SOL     OW 7621   0.007   6.599   2.173
 2241SOL    HW1 7622   0.016   6.665   2.099
 2241SOL    HW2 7623   0.085   6.608   2.235
 2242SOL     OW 7624   5.538   2.318   3.351
 2242SOL    HW1 7625   5.467   2.360   3.295
 2242SOL    HW2 7626   5.538   2.219   3.336
 2243SOL     OW 7627   2.824   6.164   5.208
 2243SOL    HW1 7628   2.802   6.221   5.287
 2243SOL    HW2 7629   2.740   6.128   5.168
 2244SOL     OW 7630   3.566   0.519   3.019
 2244SOL    HW1 7631   3.579   0.529   3.118
 2244SOL    HW2 7632   3.628   0.449   2.984
 2245SOL     OW 7633   0.035   2.080   1.374
 2245SOL    HW1 7634   0.108   2.066   1.307
 2245SOL    HW2 7635   0.030   2.177   1.397
 2246SOL     OW 7636   1.623   1.806   5.105
 2246SOL    HW1 7637   1.627   1.901   5.073
 2246SOL    HW2 7638   1.566   1.801   5.188
 2247SOL     OW 7639   2.168   2.622   6.522
 2247SOL    HW1 7640   2.157   2.716   6.554
 2247SOL    HW2 7641   2.231   2.619   6.445
 2248SOL     OW 7642   4.721   3.646   5.920
 2248SOL    HW1 7643   4.743   3.744   5.919
 2248SOL    HW2 7644   4.636   3.632   5.971
 2249SOL     OW 7645   5.521   6.638   2.840
 2249SOL    HW1 7646   5.583   6.608   2.768
 2249SOL    HW2 7647   5.543   6.591   2.925
 2250SOL     OW 7648   5.315   3.776   1.290
 2250SOL    HW1 7649   5.217   3.763   1.296
 2250SOL    HW2 7650   5.362   3.700   1.334
 2251SOL     OW 7651   5.867   1.503   0.257
 2251SOL    HW1 7652   5.915   1.542   0.336
 2251SOL    HW2 7653   5.772   1.535   0.257
 2252SOL     OW 7654   6.479   2.501   4.284
 2252SOL    HW1 7655   6.398   2.522   4.338
 2252SOL    HW2 7656   6.458   2.509   4.186
 2253SOL     OW 7657   0.978   3.108   6.509
 2253SOL    HW1 7658   0.935   3.059   6.584
 2253SOL    HW2 7659   1.029   3.187   6.545
 2254SOL     OW 7660   2.598   2.965   5.632
 2254SOL    HW1 7661   2.585   3.034   5.704
 2254SOL    HW2 7662   2.535   2.889   5.647
 2255SOL     OW 7663   6.435   2.493   0.769
 2255SOL    HW1 7664   6.351   2.500   0.823
 2255SOL    HW2 7665   6.424   2.543   0.683
 2256SOL     OW 7666   4.292   5.846   1.446
 2256SOL    HW1 7667   4.298   5.932   1.395
 2256SOL    HW2 7668   4.201   5.807   1.436
 2257SOL     OW 7669   0.607   2.913   4.638
 2257SOL    HW1 7670   0.649   2.926   4.727
 2257SOL    HW2 7671   0.519   2.960   4.635
 2258SOL     OW 7672   1.038   6.132   4.979
 2258SOL    HW1 7673   1.100   6.180   4.917
 2258SOL    HW2 7674   1.021   6.188   5.060
 2259SOL     OW 7675   4.493   3.478   6.062
 2259SOL    HW1 7676   4.465   3.570   6.033
 2259SOL    HW2 7677   4.413   3.430   6.100
 2260SOL     OW 7678   4.389   4.561   3.128
 2260SOL    HW1 7679   4.445   4.642   3.147
 2260SOL    HW2 7680   4.386   4.503   3.209
 2261SOL     OW 7681   6.128   6.814   1.020
 2261SOL    HW1 7682   6.116   6.907   1.055
 2261SOL    HW2 7683   6.076   6.750   1.076
 2262SOL     OW 7684   5.933   2.932   2.485
 2262SOL    HW1 7685   5.931   2.865   2.411
 2262SOL    HW2 7686   5.895   3.019   2.452
 2263SOL     OW 7687   2.604   5.591   6.153
 2263SOL    HW1 7688   2.660   5.667   6.188
 2263SOL    HW2 7689   2.536   5.565   6.221
 2264SOL     OW 7690   3.341   4.089   2.678
 2264SOL    HW1 7691   3.251   4.081   2.636
 2264SOL    HW2 7692   3.391   4.003   2.669
 2265SOL     OW 7693   0.095   0.535   3.510
 2265SOL    HW1 7694   0.084   0.635   3.515
 2265SOL    HW2 7695   0.013   0.495   3.468
 2266SOL     OW 7696   6.666   1.253   1.025
 2266SOL    HW1 7697   6.654   1.159   0.993
 2266SOL    HW2 7698   6.605   1.313   0.975
 2267SOL     OW 7699   5.741   2.730   5.081
 2267SOL    HW1 7700   5.826   2.759   5.036
 2267SOL    HW2 7701   5.666   2.790   5.052
 2268SOL     OW 7702   6.578   4.674   0.477
 2268SOL    HW1 7703   6.514   4.728   0.532
 2268SOL    HW2 7704   6.568   4.699   0.381
 2269SOL     OW 7705   6.235   5.830   5.437
 2269SOL    HW1 7706   6.149   5.875   5.459
 2269SOL    HW2 7707   6.287   5.886   5.373
 2270SOL     OW 7708   4.058   3.798   0.224
 2270SOL    HW1 7709   4.136   3.815   0.164
 2270SOL    HW2 7710   4.091   3.761   0.311
 2271SOL     OW 7711   6.316   3.974   1.246
 2271SOL    HW1 7712   6.232   4.021   1.274
 2271SOL    HW2 7713   6.352   4.016   1.163
 2272SOL     OW 7714   6.349   1.972   4.841
 2272SOL    HW1 7715   6.441   2.008   4.829
 2272SOL    HW2 7716   6.282   2.035   4.802
 2273SOL     OW 7717   1.613   1.678   1.788
 2273SOL    HW1 7718   1.542   1.748   1.786
 2273SOL    HW2 7719   1.672   1.686   1.708
 2274SOL     OW 7720   1.086   3.159   5.762
 2274SOL    HW1 7721   1.172   3.210   5.764
 2274SOL    HW2 7722   1.023   3.198   5.829
 2275SOL     OW 7723   5.100   6.919   4.807
 2275SOL    HW1 7724   5.077   7.016   4.799
 2275SOL    HW2 7725   5.040   6.864   4.749
 2276SOL     OW 7726   3.287   5.262   1.507
 2276SOL    HW1 7727   3.226   5.261   1.428
 2276SOL    HW2 7728   3.375   5.303   1.482
 2277SOL     OW 7729   2.888   3.659   4.744
 2277SOL    HW1 7730   2.826   3.585   4.769
 2277SOL    HW2 7731   2.983   3.627   4.752
 2278SOL     OW 7732   4.794   6.644   3.861
 2278SOL    HW1 7733   4.851   6.663   3.781
 2278SOL    HW2 7734   4.779   6.546   3.868
 2279SOL     OW 7735   5.574   5.308   4.381
 2279SOL    HW1 7736   5.672   5.326   4.387
 2279SOL    HW2 7737   5.535   5.300   4.472
 2280SOL     OW 7738   5.942   6.223   5.031
 2280SOL    HW1 7739   5.956   6.141   5.086
 2280SOL    HW2 7740   5.991   6.213   4.944
 2281SOL     OW 7741   3.963   1.169   1.976
 2281SOL    HW1 7742   3.905   1.175   1.895
 2281SOL    HW2 7743   4.011   1.081   1.976
 2282SOL     OW 7744   5.612   6.391   5.102
 2282SOL    HW1 7745   5.549   6.458   5.141
 2282SOL    HW2 7746   5.607   6.396   5.002
 2283SOL     OW 7747   6.835   4.137   1.480
 2283SOL    HW1 7748   6.824   4.079   1.400
 2283SOL    HW2 7749   6.883   4.086   1.552
 2284SOL     OW 7750   2.181   1.881   0.408
 2284SOL    HW1 7751   2.263   1.825   0.400
 2284SOL    HW2 7752   2.101   1.826   0.383
 2285SOL     OW 7753   2.326   3.510   6.905
 2285SOL    HW1 7754   2.256   3.440   6.918
 2285SOL    HW2 7755   2.326   3.573   6.983
 2286SOL     OW 7756   6.359   6.516   4.625
 2286SOL    HW1 7757   6.451   6.523   4.586
 2286SOL    HW2 7758   6.363   6.465   4.712
 2287SOL     OW 7759   2.423   2.535   1.978
 2287SOL    HW1 7760   2.345   2.597   1.989
 2287SOL    HW2 7761   2.392   2.441   1.988
 2288SOL     OW 7762   6.594   5.421   4.274
 2288SOL    HW1 7763   6.597   5.521   4.267
 2288SOL    HW2 7764   6.554   5.382   4.191
 2289SOL     OW 7765   6.279   3.727   2.619
 2289SOL    HW1 7766   6.192   3.772   2.599
 2289SOL    HW2 7767   6.314   3.760   2.707
 2290SOL     OW 7768   2.085   3.856   2.080
 2290SOL    HW1 7769   2.149   3.915   2.031
 2290SOL    HW2 7770   2.085   3.765   2.038
 2291SOL     OW 7771   2.090   2.357   0.333
 2291SOL    HW1 7772   2.038   2.291   0.386
 2291SOL    HW2 7773   2.181   2.321   0.313
 2292SOL     OW 7774   5.108   2.975   3.816
 2292SOL    HW1 7775   5.120   3.074   3.807
 2292SOL    HW2 7776   5.010   2.954   3.824
 2293SOL     OW 7777   6.318   0.525   0.936
 2293SOL    HW1 7778   6.284   0.574   1.017
 2293SOL    HW2 7779   6.346   0.592   0.867
 2294SOL     OW 7780   3.179   1.784   5.868
 2294SOL    HW1 7781   3.243   1.851   5.831
 2294SOL    HW2 7782   3.116   1.755   5.796
 2295SOL     OW 7783   7.014   1.126   2.835
 2295SOL    HW1 7784   0.072   1.099   2.778
 2295SOL    HW2 7785   6.966   1.044   2.866
 2296SOL     OW 7786   2.443   5.222   3.212
 2296SOL    HW1 7787   2.444   5.258   3.119
 2296SOL    HW2 7788   2.523   5.165   3.227
 2297SOL     OW 7789   4.814   4.595   6.106
 2297SOL    HW1 7790   4.890   4.640   6.059
 2297SOL    HW2 7791   4.732   4.652   6.098
 2298SOL     OW 7792   3.501   3.747   3.182
 2298SOL    HW1 7793   3.556   3.663   3.181
 2298SOL    HW2 7794   3.485   3.777   3.088
 2299SOL     OW 7795   4.801   4.281   4.870
 2299SOL    HW1 7796   4.730   4.307   4.935
 2299SOL    HW2 7797   4.891   4.308   4.906
 2300SOL     OW 7798   3.015   6.774   3.364
 2300SOL    HW1 7799   3.061   6.802   3.279
 2300SOL    HW2 7800   3.046   6.683   3.390
 2301SOL     OW 7801   3.507   2.938   3.774
 2301SOL    HW1 7802   3.438   2.949   3.845
 2301SOL    HW2 7803   3.598   2.933   3.815
 2302SOL     OW 7804   3.413   0.244   1.430
 2302SOL    HW1 7805   3.510   0.266   1.443
 2302SOL    HW2 7806   3.382   0.278   1.342
 2303SOL     OW 7807   2.426   3.205   1.348
 2303SOL    HW1 7808   2.488   3.127   1.357
 2303SOL    HW2 7809   2.386   3.206   1.257
 2304SOL     OW 7810   5.305   5.650   4.234
 2304SOL    HW1 7811   5.278   5.572   4.290
 2304SOL    HW2 7812   5.396   5.680   4.260
 2305SOL     OW 7813   2.107   0.530   3.847
 2305SOL    HW1 7814   2.022   0.577   3.874
 2305SOL    HW2 7815   2.184   0.593   3.856
 2306SOL     OW 7816   1.637   5.291   2.093
 2306SOL    HW1 7817   1.600   5.275   2.184
 2306SOL    HW2 7818   1.737   5.296   2.098
 2307SOL     OW 7819   0.657   3.293   5.685
 2307SOL    HW1 7820   0.596   3.372   5.675
 2307SOL    HW2 7821   0.633   3.223   5.618
 2308SOL     OW 7822   2.839   4.620   0.925
 2308SOL    HW1 7823   2.780   4.643   0.849
 2308SOL    HW2 7824   2.784   4.602   1.007
 2309SOL     OW 7825   1.864   0.750   4.680
 2309SOL    HW1 7826   1.775   0.770   4.720
 2309SOL    HW2 7827   1.878   0.651   4.677
 2310SOL     OW 7828   5.714   6.148   2.728
 2310SOL    HW1 7829   5.777   6.221   2.754
 2310SOL    HW2 7830   5.680   6.165   2.635
 2311SOL     OW 7831   2.834   5.845   6.820
 2311SOL    HW1 7832   2.759   5.788   6.787
 2311SOL    HW2 7833   2.904   5.787   6.863
 2312SOL     OW 7834   4.179   5.758   3.426
 2312SOL    HW1 7835   4.127   5.673   3.413
 2312SOL    HW2 7836   4.143   5.829   3.367
 2313SOL     OW 7837   5.020   4.996   2.109
 2313SOL    HW1 7838   5.062   5.085   2.092
 2313SOL    HW2 7839   5.018   4.944   2.024
 2314SOL     OW 7840   3.847   6.932   2.897
 2314SOL    HW1 7841   3.781   6.963   2.966
 2314SOL    HW2 7842   3.939   6.960   2.925
 2315SOL     OW 7843   5.239   3.710   5.780
 2315SOL    HW1 7844   5.240   3.610   5.787
 2315SOL    HW2 7845   5.332   3.744   5.770
 2316SOL     OW 7846   5.046   2.120   3.592
 2316SOL    HW1 7847   5.118   2.168   3.642
 2316SOL    HW2 7848   5.082   2.035   3.555
 2317SOL     OW 7849   6.929   5.298   3.427
 2317SOL    HW1 7850   7.019   5.317   3.386
 2317SOL    HW2 7851   6.940   5.292   3.526
 2318SOL     OW 7852   0.359   2.692   3.680
 2318SOL    HW1 7853   0.401   2.783   3.682
 2318SOL    HW2 7854   0.261   2.701   3.666
 2319SOL     OW 7855   1.409   4.611   4.828
 2319SOL    HW1 7856   1.369   4.700   4.852
 2319SOL    HW2 7857   1.430   4.561   4.912
 2320SOL     OW 7858   0.771   2.737   4.520
 2320SOL    HW1 7859   0.792   2.669   4.589
 2320SOL    HW2 7860   0.720   2.812   4.561
 2321SOL     OW 7861   3.443   0.746   5.303
 2321SOL    HW1 7862   3.475   0.772   5.394
 2321SOL    HW2 7863   3.499   0.790   5.234
 2322SOL     OW 7864   2.118   1.918   5.556
 2322SOL    HW1 7865   2.052   1.843   5.556
 2322SOL    HW2 7866   2.093   1.985   5.487
 2323SOL     OW 7867   2.574   4.691   2.486
 2323SOL    HW1 7868   2.521   4.657   2.564
 2323SOL    HW2 7869   2.529   4.665   2.401
 2324SOL     OW 7870   0.234   5.973   2.717
 2324SOL    HW1 7871   0.313   5.912   2.703
 2324SOL    HW2 7872   0.158   5.920   2.754
 2325SOL     OW 7873   1.274   3.803   1.771
 2325SOL    HW1 7874   1.325   3.716   1.766
 2325SOL    HW2 7875   1.242   3.827   1.679
 2326SOL     OW 7876   2.435   3.917   6.235
 2326SOL    HW1 7877   2.398   3.828   6.207
 2326SOL    HW2 7878   2.454   3.916   6.333
 2327SOL     OW 7879   4.922   2.608   4.994
 2327SOL    HW1 7880   4.982   2.606   4.914
 2327SOL    HW2 7881   4.908   2.702   5.024
 2328SOL     OW 7882   5.109   1.472   3.856
 2328SOL    HW1 7883   5.196   1.489   3.903
 2328SOL    HW2 7884   5.070   1.559   3.826
 2329SOL     OW 7885   1.272   5.572   4.687
 2329SOL    HW1 7886   1.209   5.586   4.610
 2329SOL    HW2 7887   1.333   5.496   4.667
 2330SOL     OW 7888   0.470   4.383   1.888
 2330SOL    HW1 7889   0.455   4.304   1.828
 2330SOL    HW2 7890   0.555   4.429   1.861
 2331SOL     OW 7891   6.086   4.933   6.680
 2331SOL    HW1 7892   6.117   5.015   6.728
 2331SOL    HW2 7893   6.165   4.886   6.640
 2332SOL     OW 7894   4.920   2.153   5.298
 2332SOL    HW1 7895   4.982   2.231   5.300
 2332SOL    HW2 7896   4.971   2.070   5.274
 2333SOL     OW 7897   0.288   4.757   2.895
 2333SOL    HW1 7898   0.386   4.747   2.875
 2333SOL    HW2 7899   0.265   4.855   2.895
 2334SOL     OW 7900   2.750   6.606   6.909
 2334SOL    HW1 7901   2.737   6.647   6.999
 2334SOL    HW2 7902   2.661   6.596   6.865
 2335SOL     OW 7903   6.233   1.621   3.295
 2335SOL    HW1 7904   6.155   1.661   3.344
 2335SOL    HW2 7905   6.300   1.586   3.360
 2336SOL     OW 7906   4.711   1.421   5.209
 2336SOL    HW1 7907   4.771   1.354   5.164
 2336SOL    HW2 7908   4.616   1.387   5.205
 2337SOL     OW 7909   5.085   0.702   3.442
 2337SOL    HW1 7910   4.986   0.693   3.442
 2337SOL    HW2 7911   5.116   0.726   3.350
 2338SOL     OW 7912   1.115   0.276   6.398
 2338SOL    HW1 7913   1.100   0.266   6.497
 2338SOL    HW2 7914   1.181   0.207   6.368
 2339SOL     OW 7915   3.185   3.743   5.414
 2339SOL    HW1 7916   3.193   3.826   5.469
 2339SOL    HW2 7917   3.233   3.756   5.328
 2340SOL     OW 7918   4.682   6.597   5.699
 2340SOL    HW1 7919   4.648   6.642   5.617
 2340SOL    HW2 7920   4.759   6.539   5.676
 2341SOL     OW 7921   5.334   3.849   0.418
 2341SOL    HW1 7922   5.275   3.903   0.478
 2341SOL    HW2 7923   5.338   3.755   0.451
 2342SOL     OW 7924   0.182   6.233   5.239
 2342SOL    HW1 7925   0.241   6.197   5.312
 2342SOL    HW2 7926   0.204   6.189   5.152
 2343SOL     OW 7927   1.462   6.841   1.155
 2343SOL    HW1 7928   1.504   6.793   1.233
 2343SOL    HW2 7929   1.412   6.775   1.099
 2344SOL     OW 7930   2.265   1.813   1.731
 2344SOL    HW1 7931   2.264   1.807   1.831
 2344SOL    HW2 7932   2.346   1.864   1.702
 2345SOL     OW 7933   1.714   6.947   5.279
 2345SOL    HW1 7934   1.720   6.855   5.318
 2345SOL    HW2 7935   1.807   6.985   5.271
 2346SOL     OW 7936   4.717   2.857   5.371
 2346SOL    HW1 7937   4.688   2.873   5.276
 2346SOL    HW2 7938   4.730   2.758   5.385
 2347SOL     OW 7939   1.590   4.326   2.308
 2347SOL    HW1 7940   1.561   4.416   2.340
 2347SOL    HW2 7941   1.523   4.257   2.337
 2348SOL     OW 7942   2.353   5.989   3.255
 2348SOL    HW1 7943   2.280   5.930   3.221
 2348SOL    HW2 7944   2.359   5.980   3.355
 2349SOL     OW 7945   1.025   6.086   6.962
 2349SOL    HW1 7946   1.037   6.176   7.005
 2349SOL    HW2 7947   1.087   6.080   6.883
 2350SOL     OW 7948   3.585   6.804   5.575
 2350SOL    HW1 7949   3.499   6.806   5.524
 2350SOL    HW2 7950   3.658   6.772   5.515
 2351SOL     OW 7951   3.525   5.192   3.647
 2351SOL    HW1 7952   3.428   5.206   3.669
 2351SOL    HW2 7953   3.572   5.280   3.644
 2352SOL     OW 7954   0.221   4.283   3.103
 2352SOL    HW1 7955   0.309   4.278   3.148
 2352SOL    HW2 7956   0.149   4.295   3.171
 2353SOL     OW 7957   2.397   4.466   4.873
 2353SOL    HW1 7958   2.415   4.553   4.827
 2353SOL    HW2 7959   2.457   4.457   4.953
 2354SOL     OW 7960   3.776   2.261   6.495
 2354SOL    HW1 7961   3.748   2.206   6.416
 2354SOL    HW2 7962   3.774   2.204   6.577
 2355SOL     OW 7963   0.423   6.255   0.139
 2355SOL    HW1 7964   0.476   6.206   0.208
 2355SOL    HW2 7965   0.342   6.296   0.182
 2356SOL     OW 7966   2.386   4.041   1.743
 2356SOL    HW1 7967   2.447   4.121   1.734
 2356SOL    HW2 7968   2.298   4.062   1.701
 2357SOL     OW 7969   4.517   5.054   4.139
 2357SOL    HW1 7970   4.532   5.003   4.055
 2357SOL    HW2 7971   4.504   4.989   4.215
 2358SOL     OW 7972   3.287   6.572   3.731
 2358SOL    HW1 7973   3.320   6.477   3.735
 2358SOL    HW2 7974   3.284   6.610   3.824
 2359SOL     OW 7975   2.105   1.121   6.177
 2359SOL    HW1 7976   2.112   1.031   6.219
 2359SOL    HW2 7977   2.100   1.191   6.248
 2360SOL     OW 7978   4.520   4.831   6.716
 2360SOL    HW1 7979   4.527   4.731   6.721
 2360SOL    HW2 7980   4.429   4.856   6.685
 2361SOL     OW 7981   2.710   6.843   3.708
 2361SOL    HW1 7982   2.615   6.855   3.681
 2361SOL    HW2 7983   2.754   6.776   3.648
 2362SOL     OW 7984   4.481   6.476   5.176
 2362SOL    HW1 7985   4.395   6.504   5.134
 2362SOL    HW2 7986   4.555   6.481   5.109
 2363SOL     OW 7987   4.762   2.578   5.386
 2363SOL    HW1 7988   4.731   2.519   5.311
 2363SOL    HW2 7989   4.824   2.526   5.446
 2364SOL     OW 7990   5.790   2.075   2.263
 2364SOL    HW1 7991   5.850   2.043   2.337
 2364SOL    HW2 7992   5.842   2.075   2.177
 2365SOL     OW 7993   5.757   4.720   5.703
 2365SOL    HW1 7994   5.818   4.735   5.625
 2365SOL    HW2 7995   5.796   4.650   5.763
 2366SOL     OW 7996   0.829   3.918   5.766
 2366SOL    HW1 7997   0.910   3.965   5.801
 2366SOL    HW2 7998   0.785   3.867   5.839
 2367SOL     OW 7999   0.831   3.008   6.064
 2367SOL    HW1 8000   0.799   2.927   6.113
 2367SOL    HW2 8001   0.774   3.021   5.982
 2368SOL     OW 8002   4.282   1.165   5.393
 2368SOL    HW1 8003   4.304   1.253   5.434
 2368SOL    HW2 8004   4.351   1.143   5.323
 2369SOL     OW 8005   2.598   1.744   3.867
 2369SOL    HW1 8006   2.694   1.726   3.888
 2369SOL    HW2 8007   2.582   1.733   3.769
 2370SOL     OW 8008   4.628   2.804   0.531
 2370SOL    HW1 8009   4.616   2.802   0.432
 2370SOL    HW2 8010   4.555   2.859   0.572
 2371SOL     OW 8011   1.218   5.903   2.501
 2371SOL    HW1 8012   1.294   5.914   2.438
 2371SOL    HW2 8013   1.166   5.821   2.478
 2372SOL     OW 8014   6.868   1.203   6.816
 2372SOL    HW1 8015   6.909   1.216   6.726
 2372SOL    HW2 8016   6.906   1.120   6.858
 2373SOL     OW 8017   6.494   1.023   6.268
 2373SOL    HW1 8018   6.468   0.927   6.257
 2373SOL    HW2 8019   6.477   1.053   6.362
 2374SOL     OW 8020   6.047   5.902   3.301
 2374SOL    HW1 8021   5.965   5.959   3.303
 2374SOL    HW2 8022   6.026   5.813   3.341
 2375SOL     OW 8023   0.794   0.683   4.162
 2375SOL    HW1 8024   0.810   0.782   4.166
 2375SOL    HW2 8025   0.844   0.645   4.084
 2376SOL     OW 8026   6.377   2.537   3.088
 2376SOL    HW1 8027   6.399   2.488   3.003
 2376SOL    HW2 8028   6.458   2.585   3.121
 2377SOL     OW 8029   3.160   3.647   4.748
 2377SOL    HW1 8030   3.217   3.579   4.701
 2377SOL    HW2 8031   3.209   3.734   4.753
 2378SOL     OW 8032   5.412   1.867   7.020
 2378SOL    HW1 8033   5.367   1.897   0.084
 2378SOL    HW2 8034   5.503   1.908   7.014
 2379SOL     OW 8035   6.299   3.857   6.842
 2379SOL    HW1 8036   6.200   3.869   6.853
 2379SOL    HW2 8037   6.332   3.793   6.911
 2380SOL     OW 8038   5.880   1.128   5.483
 2380SOL    HW1 8039   5.829   1.074   5.550
 2380SOL    HW2 8040   5.968   1.155   5.523
 2381SOL     OW 8041   1.421   4.464   5.361
 2381SOL    HW1 8042   1.520   4.464   5.344
 2381SOL    HW2 8043   1.394   4.553   5.396
 2382SOL     OW 8044   2.294   5.606   2.453
 2382SOL    HW1 8045   2.298   5.703   2.430
 2382SOL    HW2 8046   2.275   5.595   2.551
 2383SOL     OW 8047   5.314   6.092   6.682
 2383SOL    HW1 8048   5.403   6.136   6.682
 2383SOL    HW2 8049   5.326   5.993   6.675
 2384SOL     OW 8050   1.012   2.695   0.930
 2384SOL    HW1 8051   1.041   2.765   0.865
 2384SOL    HW2 8052   1.053   2.607   0.905
 2385SOL     OW 8053   0.588   0.788   0.332
 2385SOL    HW1 8054   0.575   0.745   0.422
 2385SOL    HW2 8055   0.670   0.749   0.289
 2386SOL     OW 8056   3.433   5.349   4.366
 2386SOL    HW1 8057   3.384   5.288   4.428
 2386SOL    HW2 8058   3.424   5.444   4.398
 2387SOL     OW 8059   0.040   3.766   4.437
 2387SOL    HW1 8060   6.981   3.820   4.463
 2387SOL    HW2 8061   0.068   3.790   4.344
 2388SOL     OW 8062   0.611   1.480   5.603
 2388SOL    HW1 8063   0.599   1.404   5.668
 2388SOL    HW2 8064   0.671   1.549   5.643
 2389SOL     OW 8065   4.430   4.539   3.601
 2389SOL    HW1 8066   4.490   4.617   3.584
 2389SOL    HW2 8067   4.463   4.460   3.549
 2390SOL     OW 8068   3.679   3.842   4.719
 2390SOL    HW1 8069   3.599   3.796   4.680
 2390SOL    HW2 8070   3.677   3.939   4.695
 2391SOL     OW 8071   3.743   4.064   5.937
 2391SOL    HW1 8072   3.746   4.154   5.980
 2391SOL    HW2 8073   3.650   4.027   5.944
 2392SOL     OW 8074   2.723   3.599   6.430
 2392SOL    HW1 8075   2.710   3.617   6.527
 2392SOL    HW2 8076   2.741   3.501   6.416
 2393SOL     OW 8077   3.834   5.144   1.255
 2393SOL    HW1 8078   3.795   5.125   1.345
 2393SOL    HW2 8079   3.760   5.152   1.188
 2394SOL     OW 8080   0.712   4.004   4.232
 2394SOL    HW1 8081   0.628   4.011   4.178
 2394SOL    HW2 8082   0.789   4.041   4.179
 2395SOL     OW 8083   0.103   3.105   6.831
 2395SOL    HW1 8084   0.132   3.017   6.868
 2395SOL    HW2 8085   0.118   3.106   6.733
 2396SOL     OW 8086   5.849   6.306   0.724
 2396SOL    HW1 8087   5.784   6.331   0.653
 2396SOL    HW2 8088   5.801   6.292   0.811
 2397SOL     OW 8089   6.792   4.829   0.663
 2397SOL    HW1 8090   6.848   4.911   0.654
 2397SOL    HW2 8091   6.763   4.798   0.572
 2398SOL     OW 8092   2.873   4.830   4.806
 2398SOL    HW1 8093   2.941   4.903   4.800
 2398SOL    HW2 8094   2.913   4.752   4.855
 2399SOL     OW 8095   3.661   2.136   3.350
 2399SOL    HW1 8096   3.626   2.081   3.426
 2399SOL    HW2 8097   3.759   2.117   3.338
 2400SOL     OW 8098   2.717   3.900   0.602
 2400SOL    HW1 8099   2.652   3.827   0.623
 2400SOL    HW2 8100   2.809   3.872   0.629
 2401SOL     OW 8101   3.618   0.384   4.354
 2401SOL    HW1 8102   3.547   0.330   4.309
 2401SOL    HW2 8103   3.688   0.323   4.392
 2402SOL     OW 8104   6.898   1.511   4.040
 2402SOL    HW1 8105   6.934   1.464   3.959
 2402SOL    HW2 8106   6.974   1.548   4.093
 2403SOL     OW 8107   3.205   3.258   0.926
 2403SOL    HW1 8108   3.231   3.163   0.907
 2403SOL    HW2 8109   3.109   3.271   0.902
 2404SOL     OW 8110   5.844   2.100   1.666
 2404SOL    HW1 8111   5.929   2.087   1.718
 2404SOL    HW2 8112   5.802   2.011   1.649
 2405SOL     OW 8113   3.361   4.375   5.776
 2405SOL    HW1 8114   3.264   4.370   5.800
 2405SOL    HW2 8115   3.403   4.285   5.789
 2406SOL     OW 8116   2.182   0.063   4.202
 2406SOL    HW1 8117   2.209   0.028   4.291
 2406SOL    HW2 8118   2.168   7.006   4.139
 2407SOL     OW 8119   4.285   2.289   2.941
 2407SOL    HW1 8120   4.284   2.307   2.842
 2407SOL    HW2 8121   4.364   2.233   2.963
 2408SOL     OW 8122   3.063   4.801   3.115
 2408SOL    HW1 8123   3.092   4.846   3.030
 2408SOL    HW2 8124   2.966   4.777   3.108
 2409SOL     OW 8125   2.564   3.017   1.214
 2409SOL    HW1 8126   2.609   3.009   1.302
 2409SOL    HW2 8127   2.607   3.090   1.161
 2410SOL     OW 8128   6.043   3.542   5.370
 2410SOL    HW1 8129   6.081   3.632   5.345
 2410SOL    HW2 8130   5.948   3.553   5.400
 2411SOL     OW 8131   2.980   3.532   5.766
 2411SOL    HW1 8132   2.985   3.548   5.865
 2411SOL    HW2 8133   3.000   3.436   5.747
 2412SOL     OW 8134   2.939   2.816   0.760
 2412SOL    HW1 8135   2.898   2.731   0.794
 2412SOL    HW2 8136   2.879   2.893   0.784
 2413SOL     OW 8137   5.556   3.821   6.034
 2413SOL    HW1 8138   5.481   3.786   5.978
 2413SOL    HW2 8139   5.528   3.821   6.130
 2414SOL     OW 8140   5.707   3.399   3.442
 2414SOL    HW1 8141   5.762   3.317   3.430
 2414SOL    HW2 8142   5.741   3.451   3.521
 2415SOL     OW 8143   2.001   0.103   1.441
 2415SOL    HW1 8144   1.948   0.041   1.382
 2415SOL    HW2 8145   1.938   0.161   1.492
 2416SOL     OW 8146   1.649   2.156   4.742
 2416SOL    HW1 8147   1.735   2.165   4.693
 2416SOL    HW2 8148   1.573   2.163   4.677
 2417SOL     OW 8149   5.215   2.194   0.462
 2417SOL    HW1 8150   5.182   2.280   0.425
 2417SOL    HW2 8151   5.165   2.118   0.421
 2418SOL     OW 8152   3.251   3.274   4.915
 2418SOL    HW1 8153   3.205   3.239   4.996
 2418SOL    HW2 8154   3.256   3.202   4.845
 2419SOL     OW 8155   1.448   0.032   4.459
 2419SOL    HW1 8156   1.481   6.966   4.497
 2419SOL    HW2 8157   1.477   0.040   4.363
 2420SOL     OW 8158   3.601   6.072   1.686
 2420SOL    HW1 8159   3.548   6.112   1.611
 2420SOL    HW2 8160   3.555   6.090   1.772
 2421SOL     OW 8161   3.592   6.829   3.802
 2421SOL    HW1 8162   3.547   6.844   3.890
 2421SOL    HW2 8163   3.523   6.815   3.731
 2422SOL     OW 8164   4.716   0.018   0.823
 2422SOL    HW1 8165   4.674   6.994   0.902
 2422SOL    HW2 8166   4.652   0.083   0.783
 2423SOL     OW 8167   1.971   4.970   1.387
 2423SOL    HW1 8168   2.052   4.952   1.443
 2423SOL    HW2 8169   1.956   5.069   1.381
 2424SOL     OW 8170   5.517   6.575   6.990
 2424SOL    HW1 8171   5.585   6.624   6.936
 2424SOL    HW2 8172   5.485   6.495   6.939
 2425SOL     OW 8173   5.982   6.717   5.968
 2425SOL    HW1 8174   5.987   6.671   6.057
 2425SOL    HW2 8175   5.979   6.816   5.981
 2426SOL     OW 8176   1.197   5.614   4.400
 2426SOL    HW1 8177   1.269   5.590   4.335
 2426SOL    HW2 8178   1.154   5.531   4.434
 2427SOL     OW 8179   4.936   5.896   0.631
 2427SOL    HW1 8180   4.947   5.815   0.688
 2427SOL    HW2 8181   5.009   5.899   0.563
 2428SOL     OW 8182   0.502   0.364   3.244
 2428SOL    HW1 8183   0.515   0.274   3.202
 2428SOL    HW2 8184   0.426   0.359   3.308
 2429SOL     OW 8185   5.898   5.109   3.332
 2429SOL    HW1 8186   5.971   5.041   3.326
 2429SOL    HW2 8187   5.902   5.154   3.421
 2430SOL     OW 8188   5.402   3.256   0.327
 2430SOL    HW1 8189   5.464   3.197   0.378
 2430SOL    HW2 8190   5.355   3.201   0.257
 2431SOL     OW 8191   4.525   1.082   0.779
 2431SOL    HW1 8192   4.501   1.122   0.867
 2431SOL    HW2 8193   4.574   0.996   0.793
 2432SOL     OW 8194   2.832   6.590   2.423
 2432SOL    HW1 8195   2.918   6.588   2.372
 2432SOL    HW2 8196   2.766   6.648   2.375
 2433SOL     OW 8197   1.466   0.010   0.332
 2433SOL    HW1 8198   1.457   6.979   0.418
 2433SOL    HW2 8199   1.398   0.083   0.329
 2434SOL     OW 8200   5.709   2.138   3.087
 2434SOL    HW1 8201   5.681   2.088   3.005
 2434SOL    HW2 8202   5.646   2.117   3.161
 2435SOL     OW 8203   5.334   5.034   0.280
 2435SOL    HW1 8204   5.291   5.023   0.190
 2435SOL    HW2 8205   5.361   5.129   0.292
 2436SOL     OW 8206   1.750   0.048   1.251
 2436SOL    HW1 8207   1.732   0.146   1.253
 2436SOL    HW2 8208   1.771   0.019   1.158
 2437SOL     OW 8209   4.976   6.711   1.507
 2437SOL    HW1 8210   4.969   6.616   1.477
 2437SOL    HW2 8211   4.977   6.771   1.427
 2438SOL     OW 8212   3.809   1.153   4.174
 2438SOL    HW1 8213   3.719   1.154   4.130
 2438SOL    HW2 8214   3.805   1.095   4.255
 2439SOL     OW 8215   0.837   4.209   0.625
 2439SOL    HW1 8216   0.922   4.162   0.602
 2439SOL    HW2 8217   0.795   4.166   0.705
 2440SOL     OW 8218   3.961   6.845   6.031
 2440SOL    HW1 8219   4.015   6.772   5.989
 2440SOL    HW2 8220   3.963   6.926   5.973
 2441SOL     OW 8221   5.993   1.437   0.031
 2441SOL    HW1 8222   5.938   1.481   0.101
 2441SOL    HW2 8223   5.941   1.363   7.009
 2442SOL     OW 8224   5.128   5.477   3.053
 2442SOL    HW1 8225   5.179   5.443   2.974
 2442SOL    HW2 8226   5.119   5.576   3.047
 2443SOL     OW 8227   3.483   0.340   6.676
 2443SOL    HW1 8228   3.540   0.394   6.613
 2443SOL    HW2 8229   3.521   0.248   6.684
 2444SOL     OW 8230   3.996   3.217   0.389
 2444SOL    HW1 8231   3.953   3.235   0.477
 2444SOL    HW2 8232   3.938   3.252   0.315
 2445SOL     OW 8233   6.101   1.580   1.769
 2445SOL    HW1 8234   6.184   1.633   1.750
 2445SOL    HW2 8235   6.127   1.491   1.806
 2446SOL     OW 8236   0.848   3.003   4.794
 2446SOL    HW1 8237   0.846   2.929   4.862
 2446SOL    HW2 8238   0.940   3.010   4.755
 2447SOL     OW 8239   2.690   0.907   1.229
 2447SOL    HW1 8240   2.611   0.864   1.186
 2447SOL    HW2 8241   2.774   0.871   1.189
 2448SOL     OW 8242   6.559   0.960   3.968
 2448SOL    HW1 8243   6.523   1.018   3.895
 2448SOL    HW2 8244   6.659   0.959   3.962
 2449SOL     OW 8245   0.928   3.489   1.963
 2449SOL    HW1 8246   0.973   3.519   2.047
 2449SOL    HW2 8247   0.832   3.517   1.965
 2450SOL     OW 8248   3.741   4.604   6.113
 2450SOL    HW1 8249   3.647   4.615   6.144
 2450SOL    HW2 8250   3.742   4.577   6.017
 2451SOL     OW 8251   1.539   0.124   3.716
 2451SOL    HW1 8252   1.636   0.149   3.716
 2451SOL    HW2 8253   1.502   0.133   3.623
 2452SOL     OW 8254   3.084   1.988   3.878
 2452SOL    HW1 8255   3.066   1.904   3.828
 2452SOL    HW2 8256   3.104   2.062   3.813
 2453SOL     OW 8257   0.630   3.708   0.559
 2453SOL    HW1 8258   0.567   3.706   0.481
 2453SOL    HW2 8259   0.705   3.643   0.543
 2454SOL     OW 8260   3.002   0.239   0.047
 2454SOL    HW1 8261   3.065   0.269   0.119
 2454SOL    HW2 8262   3.054   0.213   6.986
 2455SOL     OW 8263   3.740   0.379   0.353
 2455SOL    HW1 8264   3.697   0.449   0.410
 2455SOL    HW2 8265   3.784   0.311   0.411
 2456SOL     OW 8266   6.682   2.547   6.709
 2456SOL    HW1 8267   6.751   2.605   6.667
 2456SOL    HW2 8268   6.712   2.520   6.801
 2457SOL     OW 8269   6.548   0.607   6.410
 2457SOL    HW1 8270   6.507   0.518   6.430
 2457SOL    HW2 8271   6.612   0.631   6.483
 2458SOL     OW 8272   1.586   6.430   3.844
 2458SOL    HW1 8273   1.544   6.519   3.864
 2458SOL    HW2 8274   1.593   6.418   3.745
 2459SOL     OW 8275   2.989   6.242   5.518
 2459SOL    HW1 8276   2.895   6.253   5.486
 2459SOL    HW2 8277   2.990   6.241   5.618
 2460SOL     OW 8278   1.436   1.500   1.159
 2460SOL    HW1 8279   1.454   1.467   1.066
 2460SOL    HW2 8280   1.523   1.518   1.205
 2461SOL     OW 8281   5.411   0.645   3.630
 2461SOL    HW1 8282   5.502   0.644   3.670
 2461SOL    HW2 8283   5.416   0.619   3.534
 2462SOL     OW 8284   2.048   5.428   6.892
 2462SOL    HW1 8285   1.975   5.371   6.930
 2462SOL    HW2 8286   2.131   5.416   6.947
 2463SOL     OW 8287   5.891   2.002   6.626
 2463SOL    HW1 8288   5.812   1.941   6.624
 2463SOL    HW2 8289   5.915   2.029   6.533
 2464SOL     OW 8290   2.004   4.035   2.657
 2464SOL    HW1 8291   2.051   4.113   2.698
 2464SOL    HW2 8292   2.064   3.955   2.656
 2465SOL     OW 8293   1.106   6.559   6.735
 2465SOL    HW1 8294   1.128   6.641   6.683
 2465SOL    HW2 8295   1.011   6.564   6.765
 2466SOL     OW 8296   2.423   1.761   3.047
 2466SOL    HW1 8297   2.364   1.680   3.052
 2466SOL    HW2 8298   2.413   1.815   3.131
 2467SOL     OW 8299   5.196   1.843   4.539
 2467SOL    HW1 8300   5.173   1.846   4.636
 2467SOL    HW2 8301   5.294   1.859   4.527
 2468SOL     OW 8302   4.336   6.635   1.392
 2468SOL    HW1 8303   4.277   6.645   1.471
 2468SOL    HW2 8304   4.416   6.694   1.403
 2469SOL     OW 8305   4.049   3.736   5.039
 2469SOL    HW1 8306   4.089   3.736   4.947
 2469SOL    HW2 8307   3.953   3.710   5.033
 2470SOL     OW 8308   4.461   4.437   6.053
 2470SOL    HW1 8309   4.377   4.394   6.020
 2470SOL    HW2 8310   4.539   4.380   6.029
 2471SOL     OW 8311   3.077   6.169   0.638
 2471SOL    HW1 8312   3.102   6.074   0.619
 2471SOL    HW2 8313   2.998   6.171   0.700
 2472SOL     OW 8314   4.304   2.042   3.176
 2472SOL    HW1 8315   4.320   2.102   3.254
 2472SOL    HW2 8316   4.391   2.006   3.143
 2473SOL     OW 8317   1.688   3.916   5.006
 2473SOL    HW1 8318   1.729   3.848   4.944
 2473SOL    HW2 8319   1.742   3.922   5.089
 2474SOL     OW 8320   0.380   5.853   1.570
 2474SOL    HW1 8321   0.410   5.948   1.568
 2474SOL    HW2 8322   0.459   5.792   1.568
 2475SOL     OW 8323   3.809   0.392   2.620
 2475SOL    HW1 8324   3.835   0.486   2.641
 2475SOL    HW2 8325   3.716   0.391   2.584
 2476SOL     OW 8326   6.568   1.342   2.734
 2476SOL    HW1 8327   6.541   1.252   2.698
 2476SOL    HW2 8328   6.537   1.413   2.672
 2477SOL     OW 8329   4.570   1.290   2.658
 2477SOL    HW1 8330   4.472   1.302   2.640
 2477SOL    HW2 8331   4.593   1.193   2.651
 2478SOL     OW 8332   6.016   1.190   1.730
 2478SOL    HW1 8333   6.003   1.093   1.710
 2478SOL    HW2 8334   6.074   1.200   1.810
 2479SOL     OW 8335   0.764   3.259   2.109
 2479SOL    HW1 8336   0.734   3.303   2.193
 2479SOL    HW2 8337   0.864   3.263   2.103
 2480SOL     OW 8338   4.786   3.967   0.284
 2480SOL    HW1 8339   4.735   3.892   0.326
 2480SOL    HW2 8340   4.779   4.049   0.341
 2481SOL     OW 8341   3.860   6.537   0.122
 2481SOL    HW1 8342   3.871   6.456   0.064
 2481SOL    HW2 8343   3.771   6.578   0.104
 2482SOL     OW 8344   5.303   3.995   5.929
 2482SOL    HW1 8345   5.353   3.955   5.852
 2482SOL    HW2 8346   5.362   4.059   5.978
 2483SOL     OW 8347   1.700   1.259   0.390
 2483SOL    HW1 8348   1.792   1.287   0.417
 2483SOL    HW2 8349   1.663   1.196   0.458
 2484SOL     OW 8350   3.056   1.025   0.035
 2484SOL    HW1 8351   2.971   1.068   0.065
 2484SOL    HW2 8352   3.133   1.070   0.080
 2485SOL     OW 8353   6.306   3.209   1.279
 2485SOL    HW1 8354   6.289   3.273   1.204
 2485SOL    HW2 8355   6.399   3.222   1.313
 2486SOL     OW 8356   1.987   4.633   4.393
 2486SOL    HW1 8357   2.057   4.699   4.423
 2486SOL    HW2 8358   1.966   4.571   4.468
 2487SOL     OW 8359   4.043   6.194   0.512
 2487SOL    HW1 8360   4.119   6.150   0.464
 2487SOL    HW2 8361   3.977   6.125   0.541
 2488SOL     OW 8362   1.690   4.807   2.696
 2488SOL    HW1 8363   1.724   4.894   2.733
 2488SOL    HW2 8364   1.639   4.823   2.612
 2489SOL     OW 8365   1.443   5.953   3.626
 2489SOL    HW1 8366   1.434   6.032   3.686
 2489SOL    HW2 8367   1.352   5.921   3.599
 2490SOL     OW 8368   6.784   4.851   1.316
 2490SOL    HW1 8369   6.783   4.838   1.415
 2490SOL    HW2 8370   6.865   4.805   1.278
 2491SOL     OW 8371   2.319   5.331   0.527
 2491SOL    HW1 8372   2.296   5.376   0.440
 2491SOL    HW2 8373   2.388   5.386   0.575
 2492SOL     OW 8374   4.669   3.007   1.089
 2492SOL    HW1 8375   4.597   3.068   1.058
 2492SOL    HW2 8376   4.653   2.915   1.052
 2493SOL     OW 8377   5.864   0.578   1.876
 2493SOL    HW1 8378   5.867   0.556   1.974
 2493SOL    HW2 8379   5.939   0.641   1.854
 2494SOL     OW 8380   5.228   4.018   2.824
 2494SOL    HW1 8381   5.240   3.993   2.920
 2494SOL    HW2 8382   5.213   3.936   2.769
 2495SOL     OW 8383   4.929   0.235   4.488
 2495SOL    HW1 8384   5.006   0.186   4.529
 2495SOL    HW2 8385   4.911   0.318   4.541
 2496SOL     OW 8386   6.698   3.296   5.715
 2496SOL    HW1 8387   6.788   3.290   5.759
 2496SOL    HW2 8388   6.697   3.373   5.652
 2497SOL     OW 8389   0.441   0.302   0.619
 2497SOL    HW1 8390   0.436   0.402   0.623
 2497SOL    HW2 8391   0.519   0.270   0.673
 2498SOL     OW 8392   2.487   1.517   4.181
 2498SOL    HW1 8393   2.521   1.476   4.097
 2498SOL    HW2 8394   2.510   1.458   4.259
 2499SOL     OW 8395   6.301   2.598   1.829
 2499SOL    HW1 8396   6.207   2.565   1.816
 2499SOL    HW2 8397   6.353   2.583   1.745
 2500SOL     OW 8398   4.245   3.167   6.791
 2500SOL    HW1 8399   4.148   3.167   6.819
 2500SOL    HW2 8400   4.254   3.215   6.704
 2501SOL     OW 8401   5.977   4.898   0.986
 2501SOL    HW1 8402   5.944   4.810   0.952
 2501SOL    HW2 8403   6.036   4.940   0.918
 2502SOL     OW 8404   1.308   6.354   3.402
 2502SOL    HW1 8405   1.400   6.380   3.372
 2502SOL    HW2 8406   1.315   6.277   3.465
 2503SOL     OW 8407   2.465   6.088   4.080
 2503SOL    HW1 8408   2.465   6.188   4.091
 2503SOL    HW2 8409   2.537   6.048   4.137
 2504SOL     OW 8410   3.988   5.705   4.559
 2504SOL    HW1 8411   3.894   5.711   4.526
 2504SOL    HW2 8412   4.041   5.781   4.521
 2505SOL     OW 8413   0.967   6.373   2.870
 2505SOL    HW1 8414   0.948   6.295   2.928
 2505SOL    HW2 8415   1.025   6.438   2.919
 2506SOL     OW 8416   6.217   4.098   5.076
 2506SOL    HW1 8417   6.230   4.196   5.090
 2506SOL    HW2 8418   6.120   4.079   5.056
 2507SOL     OW 8419   1.085   4.085   0.620
 2507SOL    HW1 8420   1.103   4.056   0.714
 2507SOL    HW2 8421   1.105   4.010   0.558
 2508SOL     OW 8422   2.336   1.267   2.602
 2508SOL    HW1 8423   2.352   1.360   2.637
 2508SOL    HW2 8424   2.264   1.269   2.534
 2509SOL     OW 8425   6.776   2.771   1.082
 2509SOL    HW1 8426   6.869   2.739   1.064
 2509SOL    HW2 8427   6.740   2.817   1.001
 2510SOL     OW 8428   2.943   4.445   1.471
 2510SOL    HW1 8429   2.944   4.527   1.415
 2510SOL    HW2 8430   2.977   4.467   1.563
 2511SOL     OW 8431   3.037   2.085   4.476
 2511SOL    HW1 8432   3.011   2.161   4.535
 2511SOL    HW2 8433   2.991   2.002   4.507
 2512SOL     OW 8434   5.484   4.402   5.436
 2512SOL    HW1 8435   5.537   4.474   5.391
 2512SOL    HW2 8436   5.388   4.428   5.437
 2513SOL     OW 8437   1.255   4.272   5.480
 2513SOL    HW1 8438   1.321   4.228   5.542
 2513SOL    HW2 8439   1.305   4.325   5.411
 2514SOL     OW 8440   6.167   3.557   4.737
 2514SOL    HW1 8441   6.257   3.594   4.714
 2514SOL    HW2 8442   6.177   3.488   4.809
 2515SOL     OW 8443   2.239   6.763   0.394
 2515SOL    HW1 8444   2.263   6.858   0.415
 2515SOL    HW2 8445   2.191   6.722   0.471
 2516SOL     OW 8446   6.118   1.504   2.756
 2516SOL    HW1 8447   6.152   1.521   2.849
 2516SOL    HW2 8448   6.177   1.549   2.690
 2517SOL     OW 8449   1.025   6.075   5.512
 2517SOL    HW1 8450   0.988   5.991   5.551
 2517SOL    HW2 8451   1.021   6.148   5.580
 2518SOL     OW 8452   1.235   4.583   6.987
 2518SOL    HW1 8453   1.156   4.535   0.004
 2518SOL    HW2 8454   1.307   4.517   6.965
 2519SOL     OW 8455   4.368   6.492   3.113
 2519SOL    HW1 8456   4.403   6.529   3.199
 2519SOL    HW2 8457   4.356   6.393   3.121
 2520SOL     OW 8458   2.429   2.217   0.578
 2520SOL    HW1 8459   2.454   2.268   0.660
 2520SOL    HW2 8460   2.417   2.280   0.502
 2521SOL     OW 8461   1.228   0.717   5.207
 2521SOL    HW1 8462   1.272   0.803   5.180
 2521SOL    HW2 8463   1.296   0.654   5.243
 2522SOL     OW 8464   0.467   3.887   5.115
 2522SOL    HW1 8465   0.517   3.808   5.151
 2522SOL    HW2 8466   0.483   3.893   5.016
 2523SOL     OW 8467   0.147   3.287   1.066
 2523SOL    HW1 8468   0.237   3.293   1.022
 2523SOL    HW2 8469   0.077   3.320   1.003
 2524SOL     OW 8470   0.975   6.404   4.897
 2524SOL    HW1 8471   1.027   6.432   4.979
 2524SOL    HW2 8472   0.981   6.477   4.828
 2525SOL     OW 8473   1.273   1.949   5.342
 2525SOL    HW1 8474   1.314   2.035   5.311
 2525SOL    HW2 8475   1.216   1.966   5.423
 2526SOL     OW 8476   1.400   4.138   5.859
 2526SOL    HW1 8477   1.375   4.231   5.885
 2526SOL    HW2 8478   1.321   4.078   5.869
 2527SOL     OW 8479   5.072   6.074   5.022
 2527SOL    HW1 8480   5.088   6.142   5.093
 2527SOL    HW2 8481   5.146   6.007   5.022
 2528SOL     OW 8482   5.563   5.111   1.243
 2528SOL    HW1 8483   5.621   5.039   1.282
 2528SOL    HW2 8484   5.541   5.089   1.148
 2529SOL     OW 8485   6.783   6.706   6.162
 2529SOL    HW1 8486   6.705   6.725   6.222
 2529SOL    HW2 8487   6.795   6.607   6.154
 2530SOL     OW 8488   2.635   0.068   5.495
 2530SOL    HW1 8489   2.628   0.109   5.586
 2530SOL    HW2 8490   2.695   7.008   5.499
 2531SOL     OW 8491   5.010   5.796   4.395
 2531SOL    HW1 8492   5.070   5.849   4.456
 2531SOL    HW2 8493   5.063   5.722   4.353
 2532SOL     OW 8494   0.650   6.550   1.183
 2532SOL    HW1 8495   0.554   6.557   1.212
 2532SOL    HW2 8496   0.685   6.641   1.161
 2533SOL     OW 8497   3.547   6.529   3.534
 2533SOL    HW1 8498   3.575   6.540   3.629
 2533SOL    HW2 8499   3.596   6.594   3.477
 2534SOL     OW 8500   3.327   0.407   3.321
 2534SOL    HW1 8501   3.296   0.406   3.226
 2534SOL    HW2 8502   3.335   0.501   3.353
 2535SOL     OW 8503   3.619   1.879   5.179
 2535SOL    HW1 8504   3.696   1.856   5.239
 2535SOL    HW2 8505   3.599   1.976   5.187
 2536SOL     OW 8506   0.882   1.965   4.754
 2536SOL    HW1 8507   0.863   1.875   4.793
 2536SOL    HW2 8508   0.798   2.019   4.752
 2537SOL     OW 8509   3.780   0.435   6.635
 2537SOL    HW1 8510   3.827   0.358   6.591
 2537SOL    HW2 8511   3.847   0.505   6.660
 2538SOL     OW 8512   1.045   4.923   5.267
 2538SOL    HW1 8513   1.119   4.979   5.230
 2538SOL    HW2 8514   1.034   4.942   5.364
 2539SOL     OW 8515   5.287   0.956   5.299
 2539SOL    HW1 8516   5.305   1.027   5.231
 2539SOL    HW2 8517   5.333   0.980   5.385
 2540SOL     OW 8518   4.189   0.987   2.454
 2540SOL    HW1 8519   4.156   1.062   2.511
 2540SOL    HW2 8520   4.202   1.020   2.360
 2541SOL     OW 8521   2.366   6.880   5.375
 2541SOL    HW1 8522   2.285   6.870   5.318
 2541SOL    HW2 8523   2.390   6.977   5.382
 2542SOL     OW 8524   4.637   1.783   6.241
 2542SOL    HW1 8525   4.571   1.857   6.256
 2542SOL    HW2 8526   4.718   1.798   6.297
 2543SOL     OW 8527   0.944   1.329   2.924
 2543SOL    HW1 8528   1.043   1.344   2.926
 2543SOL    HW2 8529   0.899   1.412   2.892
 2544SOL     OW 8530   0.288   5.861   1.109
 2544SOL    HW1 8531   0.324   5.810   1.187
 2544SOL    HW2 8532   0.190   5.876   1.122
 2545SOL     OW 8533   1.937   0.817   1.372
 2545SOL    HW1 8534   2.035   0.803   1.389
 2545SOL    HW2 8535   1.924   0.852   1.280
 2546SOL     OW 8536   6.951   1.534   1.057
 2546SOL    HW1 8537   6.889   1.527   1.135
 2546SOL    HW2 8538   7.008   1.452   1.052
 2547SOL     OW 8539   6.287   4.218   0.516
 2547SOL    HW1 8540   6.197   4.257   0.496
 2547SOL    HW2 8541   6.352   4.292   0.535
 2548SOL     OW 8542   2.518   6.394   5.979
 2548SOL    HW1 8543   2.474   6.405   5.890
 2548SOL    HW2 8544   2.551   6.482   6.011
 2549SOL     OW 8545   2.095   0.996   0.797
 2549SOL    HW1 8546   2.098   0.910   0.747
 2549SOL    HW2 8547   2.188   1.023   0.823
 2550SOL     OW 8548   6.870   0.340   5.998
 2550SOL    HW1 8549   6.917   0.325   5.911
 2550SOL    HW2 8550   6.916   0.288   6.070
 2551SOL     OW 8551   3.693   5.039   0.744
 2551SOL    HW1 8552   3.707   5.127   0.791
 2551SOL    HW2 8553   3.782   4.998   0.724
 2552SOL     OW 8554   1.924   5.922   5.763
 2552SOL    HW1 8555   1.930   6.020   5.781
 2552SOL    HW2 8556   2.014   5.888   5.733
 2553SOL     OW 8557   4.253   3.110   6.074
 2553SOL    HW1 8558   4.283   3.056   5.995
 2553SOL    HW2 8559   4.215   3.049   6.143
 2554SOL     OW 8560   2.019   6.148   0.783
 2554SOL    HW1 8561   1.977   6.094   0.710
 2554SOL    HW2 8562   1.960   6.225   0.806
 2555SOL     OW 8563   5.905   6.867   6.478
 2555SOL    HW1 8564   5.898   6.909   6.387
 2555SOL    HW2 8565   5.896   6.938   6.548
 2556SOL     OW 8566   4.495   5.799   0.283
 2556SOL    HW1 8567   4.443   5.818   0.367
 2556SOL    HW2 8568   4.579   5.854   0.283
 2557SOL     OW 8569   2.774   3.363   6.316
 2557SOL    HW1 8570   2.686   3.343   6.272
 2557SOL    HW2 8571   2.848   3.350   6.250
 2558SOL     OW 8572   4.758   2.373   5.847
 2558SOL    HW1 8573   4.809   2.302   5.798
 2558SOL    HW2 8574   4.807   2.460   5.841
 2559SOL     OW 8575   6.591   4.287   3.850
 2559SOL    HW1 8576   6.603   4.301   3.752
 2559SOL    HW2 8577   6.630   4.364   3.900
 2560SOL     OW 8578   5.994   3.466   4.119
 2560SOL    HW1 8579   5.956   3.482   4.211
 2560SOL    HW2 8580   6.066   3.397   4.125
 2561SOL     OW 8581   2.900   6.605   4.493
 2561SOL    HW1 8582   2.807   6.619   4.460
 2561SOL    HW2 8583   2.899   6.593   4.592
 2562SOL     OW 8584   1.028   5.235   1.897
 2562SOL    HW1 8585   1.111   5.281   1.928
 2562SOL    HW2 8586   1.016   5.249   1.799
 2563SOL     OW 8587   3.961   2.024   1.004
 2563SOL    HW1 8588   3.948   1.938   1.054
 2563SOL    HW2 8589   3.903   2.025   0.923
 2564SOL     OW 8590   1.964   6.178   5.763
 2564SOL    HW1 8591   2.041   6.237   5.789
 2564SOL    HW2 8592   1.889   6.234   5.728
 2565SOL     OW 8593   0.302   6.984   6.881
 2565SOL    HW1 8594   0.234   0.032   6.908
 2565SOL    HW2 8595   0.260   6.918   6.819
 2566SOL     OW 8596   2.112   0.061   0.734
 2566SOL    HW1 8597   2.104   0.156   0.766
 2566SOL    HW2 8598   2.078   7.019   0.805
 2567SOL     OW 8599   0.626   1.448   1.215
 2567SOL    HW1 8600   0.530   1.449   1.187
 2567SOL    HW2 8601   0.685   1.445   1.135
 2568SOL     OW 8602   3.216   6.626   0.113
 2568SOL    HW1 8603   3.314   6.646   0.118
 2568SOL    HW2 8604   3.196   6.546   0.169
 2569SOL     OW 8605   2.967   1.412   1.771
 2569SOL    HW1 8606   2.870   1.415   1.796
 2569SOL    HW2 8607   2.995   1.317   1.759
 2570SOL     OW 8608   5.596   0.010   6.098
 2570SOL    HW1 8609   5.517   0.001   6.158
 2570SOL    HW2 8610   5.576   0.077   6.027
 2571SOL     OW 8611   2.412   4.446   5.158
 2571SOL    HW1 8612   2.419   4.386   5.238
 2571SOL    HW2 8613   2.481   4.518   5.164
 2572SOL     OW 8614   2.142   5.832   0.023
 2572SOL    HW1 8615   2.224   5.884   0.044
 2572SOL    HW2 8616   2.156   5.779   6.959
 2573SOL     OW 8617   6.616   2.394   1.556
 2573SOL    HW1 8618   6.691   2.400   1.490
 2573SOL    HW2 8619   6.587   2.298   1.565
 2574SOL     OW 8620   6.040   3.894   6.892
 2574SOL    HW1 8621   5.968   3.902   6.824
 2574SOL    HW2 8622   6.016   3.821   6.957
 2575SOL     OW 8623   5.435   5.512   0.533
 2575SOL    HW1 8624   5.423   5.532   0.630
 2575SOL    HW2 8625   5.465   5.596   0.486
 2576SOL     OW 8626   3.556   7.017   4.259
 2576SOL    HW1 8627   3.499   0.073   4.229
 2576SOL    HW2 8628   3.652   0.026   4.259
 2577SOL     OW 8629   3.397   6.932   1.586
 2577SOL    HW1 8630   3.466   7.003   1.597
 2577SOL    HW2 8631   3.324   6.946   1.653
 2578SOL     OW 8632   4.500   1.530   3.994
 2578SOL    HW1 8633   4.540   1.502   3.907
 2578SOL    HW2 8634   4.456   1.619   3.984
 2579SOL     OW 8635   1.242   6.251   2.426
 2579SOL    HW1 8636   1.298   6.172   2.401
 2579SOL    HW2 8637   1.229   6.252   2.525
 2580SOL     OW 8638   2.733   2.821   6.723
 2580SOL    HW1 8639   2.666   2.793   6.654
 2580SOL    HW2 8640   2.766   2.913   6.702
 2581SOL     OW 8641   0.923   4.612   0.896
 2581SOL    HW1 8642   0.948   4.708   0.908
 2581SOL    HW2 8643   0.984   4.554   0.950
 2582SOL     OW 8644   0.620   4.702   2.110
 2582SOL    HW1 8645   0.649   4.608   2.093
 2582SOL    HW2 8646   0.614   4.751   2.023
 2583SOL     OW 8647   0.916   1.099   0.555
 2583SOL    HW1 8648   0.961   1.010   0.557
 2583SOL    HW2 8649   0.884   1.123   0.647
 2584SOL     OW 8650   4.115   5.997   0.147
 2584SOL    HW1 8651   4.028   5.976   0.191
 2584SOL    HW2 8652   4.104   5.990   0.048
 2585SOL     OW 8653   5.129   2.433   0.691
 2585SOL    HW1 8654   5.103   2.400   0.782
 2585SOL    HW2 8655   5.046   2.448   0.637
 2586SOL     OW 8656   3.305   1.122   3.719
 2586SOL    HW1 8657   3.378   1.113   3.652
 2586SOL    HW2 8658   3.333   1.185   3.791
 2587SOL     OW 8659   0.299   0.891   3.567
 2587SOL    HW1 8660   0.206   0.927   3.579
 2587SOL    HW2 8661   0.295   0.803   3.519
 2588SOL     OW 8662   4.312   0.889   6.766
 2588SOL    HW1 8663   4.335   0.945   6.687
 2588SOL    HW2 8664   4.256   0.811   6.737
 2589SOL     OW 8665   0.312   5.809   6.567
 2589SOL    HW1 8666   0.336   5.855   6.481
 2589SOL    HW2 8667   0.385   5.745   6.592
 2590SOL     OW 8668   3.576   5.825   0.724
 2590SOL    HW1 8669   3.652   5.850   0.784
 2590SOL    HW2 8670   3.551   5.904   0.667
 2591SOL     OW 8671   0.061   5.268   2.679
 2591SOL    HW1 8672   0.140   5.250   2.620
 2591SOL    HW2 8673   7.016   5.326   2.630
 2592SOL     OW 8674   3.336   5.115   0.418
 2592SOL    HW1 8675   3.375   5.206   0.426
 2592SOL    HW2 8676   3.271   5.100   0.492
 2593SOL     OW 8677   3.428   5.371   0.401
 2593SOL    HW1 8678   3.513   5.346   0.447
 2593SOL    HW2 8679   3.445   5.445   0.336
 2594SOL     OW 8680   1.271   4.969   6.314
 2594SOL    HW1 8681   1.267   4.869   6.323
 2594SOL    HW2 8682   1.221   5.011   6.390
 2595SOL     OW 8683   6.505   1.190   4.119
 2595SOL    HW1 8684   6.528   1.100   4.082
 2595SOL    HW2 8685   6.489   1.182   4.218
 2596SOL     OW 8686   3.023   1.633   1.953
 2596SOL    HW1 8687   3.024   1.548   1.901
 2596SOL    HW2 8688   3.012   1.710   1.889
 2597SOL     OW 8689   1.506   5.139   5.619
 2597SOL    HW1 8690   1.466   5.204   5.553
 2597SOL    HW2 8691   1.587   5.097   5.579
 2598SOL     OW 8692   6.837   1.330   2.854
 2598SOL    HW1 8693   6.891   1.247   2.853
 2598SOL    HW2 8694   6.786   1.338   2.769
 2599SOL     OW 8695   2.179   6.558   0.922
 2599SOL    HW1 8696   2.248   6.516   0.980
 2599SOL    HW2 8697   2.136   6.635   0.970
 2600SOL     OW 8698   5.569   3.361   5.008
 2600SOL    HW1 8699   5.479   3.358   5.051
 2600SOL    HW2 8700   5.598   3.269   4.983
 2601SOL     OW 8701   2.680   1.299   1.649
 2601SOL    HW1 8702   2.671   1.382   1.704
 2601SOL    HW2 8703   2.602   1.292   1.587
 2602SOL     OW 8704   1.472   4.146   4.532
 2602SOL    HW1 8705   1.427   4.158   4.620
 2602SOL    HW2 8706   1.523   4.230   4.509
 2603SOL     OW 8707   2.449   0.977   3.836
 2603SOL    HW1 8708   2.371   0.965   3.774
 2603SOL    HW2 8709   2.424   1.040   3.909
 2604SOL     OW 8710   4.300   1.571   2.833
 2604SOL    HW1 8711   4.274   1.505   2.904
 2604SOL    HW2 8712   4.255   1.547   2.748
 2605SOL     OW 8713   1.825   3.183   3.242
 2605SOL    HW1 8714   1.812   3.264   3.299
 2605SOL    HW2 8715   1.862   3.211   3.153
 2606SOL     OW 8716   5.455   4.476   2.126
 2606SOL    HW1 8717   5.446   4.490   2.224
 2606SOL    HW2 8718   5.364   4.476   2.083
 2607SOL     OW 8719   1.497   1.807   1.119
 2607SOL    HW1 8720   1.462   1.900   1.123
 2607SOL    HW2 8721   1.422   1.743   1.106
 2608SOL     OW 8722   4.894   5.297   1.224
 2608SOL    HW1 8723   4.867   5.275   1.130
 2608SOL    HW2 8724   4.820   5.347   1.270
 2609SOL     OW 8725   6.407   1.056   1.566
 2609SOL    HW1 8726   6.482   1.079   1.504
 2609SOL    HW2 8727   6.444   1.008   1.646
 2610SOL     OW 8728   1.036   4.550   4.779
 2610SOL    HW1 8729   1.068   4.645   4.776
 2610SOL    HW2 8730   0.946   4.544   4.738
 2611SOL     OW 8731   4.298   6.920   1.062
 2611SOL    HW1 8732   4.229   6.913   1.135
 2611SOL    HW2 8733   4.295   6.838   1.005
 2612SOL     OW 8734   6.330   0.127   5.910
 2612SOL    HW1 8735   6.389   0.126   5.990
 2612SOL    HW2 8736   6.384   0.145   5.828
 2613SOL     OW 8737   2.932   5.787   6.076
 2613SOL    HW1 8738   2.842   5.797   6.118
 2613SOL    HW2 8739   2.999   5.763   6.146
 2614SOL     OW 8740   6.426   1.333   5.912
 2614SOL    HW1 8741   6.416   1.233   5.915
 2614SOL    HW2 8742   6.346   1.375   5.956
 2615SOL     OW 8743   0.034   3.154   2.232
 2615SOL    HW1 8744   0.045   3.073   2.291
 2615SOL    HW2 8745   0.077   3.233   2.276
 2616SOL     OW 8746   3.093   2.749   6.031
 2616SOL    HW1 8747   3.168   2.694   6.066
 2616SOL    HW2 8748   3.115   2.780   5.938
 2617SOL     OW 8749   3.944   6.758   0.409
 2617SOL    HW1 8750   4.010   6.720   0.473
 2617SOL    HW2 8751   3.970   6.736   0.316
 2618SOL     OW 8752   6.797   0.451   3.993
 2618SOL    HW1 8753   6.871   0.462   3.927
 2618SOL    HW2 8754   6.792   0.355   4.021
 2619SOL     OW 8755   3.720   1.919   3.149
 2619SOL    HW1 8756   3.802   1.969   3.177
 2619SOL    HW2 8757   3.652   1.984   3.115
 2620SOL     OW 8758   6.777   6.573   3.558
 2620SOL    HW1 8759   6.778   6.502   3.628
 2620SOL    HW2 8760   6.843   6.551   3.487
 2621SOL     OW 8761   0.714   5.080   2.462
 2621SOL    HW1 8762   0.650   5.149   2.428
 2621SOL    HW2 8763   0.776   5.053   2.388
 2622SOL     OW 8764   1.590   3.458   5.262
 2622SOL    HW1 8765   1.491   3.473   5.264
 2622SOL    HW2 8766   1.623   3.467   5.168
 2623SOL     OW 8767   0.950   1.109   5.911
 2623SOL    HW1 8768   0.997   1.165   5.843
 2623SOL    HW2 8769   0.994   1.120   6.000
 2624SOL     OW 8770   6.566   0.961   5.218
 2624SOL    HW1 8771   6.468   0.970   5.198
 2624SOL    HW2 8772   6.608   0.901   5.149
 2625SOL     OW 8773   2.471   3.446   5.786
 2625SOL    HW1 8774   2.498   3.476   5.695
 2625SOL    HW2 8775   2.538   3.476   5.853
 2626SOL     OW 8776   0.271   0.651   5.850
 2626SOL    HW1 8777   0.286   0.564   5.897
 2626SOL    HW2 8778   0.339   0.717   5.881
 2627SOL     OW 8779   0.736   1.081   6.240
 2627SOL    HW1 8780   0.827   1.107   6.209
 2627SOL    HW2 8781   0.672   1.157   6.225
 2628SOL     OW 8782   1.982   4.622   5.792
 2628SOL    HW1 8783   2.013   4.551   5.855
 2628SOL    HW2 8784   2.061   4.658   5.742
 2629SOL     OW 8785   3.596   3.255   2.581
 2629SOL    HW1 8786   3.520   3.217   2.634
 2629SOL    HW2 8787   3.573   3.349   2.554
 2630SOL     OW 8788   3.116   1.750   2.744
 2630SOL    HW1 8789   3.162   1.789   2.664
 2630SOL    HW2 8790   3.059   1.673   2.715
 2631SOL     OW 8791   5.071   0.675   6.096
 2631SOL    HW1 8792   5.038   0.736   6.024
 2631SOL    HW2 8793   5.081   0.726   6.181
 2632SOL     OW 8794   5.287   3.353   6.362
 2632SOL    HW1 8795   5.199   3.383   6.399
 2632SOL    HW2 8796   5.360   3.375   6.427
 2633SOL     OW 8797   0.585   2.250   4.223
 2633SOL    HW1 8798   0.650   2.293   4.286
 2633SOL    HW2 8799   0.627   2.169   4.182
 2634SOL     OW 8800   0.585   4.675   3.488
 2634SOL    HW1 8801   0.646   4.741   3.532
 2634SOL    HW2 8802   0.577   4.695   3.391
 2635SOL     OW 8803   6.709   6.009   5.552
 2635SOL    HW1 8804   6.689   6.092   5.499
 2635SOL    HW2 8805   6.807   5.991   5.550
 2636SOL     OW 8806   3.841   0.802   5.271
 2636SOL    HW1 8807   3.796   0.890   5.285
 2636SOL    HW2 8808   3.939   0.816   5.258
 2637SOL     OW 8809   5.652   1.828   3.405
 2637SOL    HW1 8810   5.611   1.830   3.496
 2637SOL    HW2 8811   5.589   1.784   3.341
 2638SOL     OW 8812   0.037   6.955   3.636
 2638SOL    HW1 8813   6.992   6.883   3.659
 2638SOL    HW2 8814   0.091   6.928   3.556
 2639SOL     OW 8815   0.810   6.040   0.370
 2639SOL    HW1 8816   0.780   5.949   0.341
 2639SOL    HW2 8817   0.881   6.073   0.307
 2640SOL     OW 8818   0.319   6.125   5.491
 2640SOL    HW1 8819   0.413   6.154   5.505
 2640SOL    HW2 8820   0.277   6.104   5.579
 2641SOL     OW 8821   5.941   3.176   2.104
 2641SOL    HW1 8822   5.987   3.242   2.163
 2641SOL    HW2 8823   5.856   3.215   2.070
 2642SOL     OW 8824   5.211   0.662   3.815
 2642SOL    HW1 8825   5.241   0.650   3.910
 2642SOL    HW2 8826   5.291   0.672   3.756
 2643SOL     OW 8827   0.526   3.788   3.261
 2643SOL    HW1 8828   0.468   3.842   3.322
 2643SOL    HW2 8829   0.470   3.730   3.203
 2644SOL     OW 8830   5.420   5.909   5.259
 2644SOL    HW1 8831   5.493   5.865   5.205
 2644SOL    HW2 8832   5.434   6.008   5.259
 2645SOL     OW 8833   3.995   5.715   3.943
 2645SOL    HW1 8834   4.053   5.710   3.862
 2645SOL    HW2 8835   3.925   5.644   3.939
 2646SOL     OW 8836   6.493   1.549   6.864
 2646SOL    HW1 8837   6.581   1.590   6.841
 2646SOL    HW2 8838   6.466   1.578   6.956
 2647SOL     OW 8839   6.664   0.121   1.947
 2647SOL    HW1 8840   6.602   0.042   1.949
 2647SOL    HW2 8841   6.692   0.138   1.852
 2648SOL     OW 8842   0.915   6.513   3.405
 2648SOL    HW1 8843   0.897   6.446   3.477
 2648SOL    HW2 8844   1.004   6.556   3.421
 2649SOL     OW 8845   6.670   3.416   0.187
 2649SOL    HW1 8846   6.602   3.489   0.195
 2649SOL    HW2 8847   6.657   3.367   0.101
 2650SOL     OW 8848   0.751   4.821   3.891
 2650SOL    HW1 8849   0.800   4.738   3.864
 2650SOL    HW2 8850   0.799   4.864   3.967
 2651SOL     OW 8851   2.354   1.512   1.262
 2651SOL    HW1 8852   2.322   1.595   1.307
 2651SOL    HW2 8853   2.445   1.528   1.223
 2652SOL     OW 8854   4.183   3.333   5.352
 2652SOL    HW1 8855   4.168   3.428   5.325
 2652SOL    HW2 8856   4.280   3.318   5.369
 2653SOL     OW 8857   4.722   6.797   5.889
 2653SOL    HW1 8858   4.632   6.830   5.918
 2653SOL    HW2 8859   4.710   6.712   5.837
 2654SOL     OW 8860   4.572   0.131   1.898
 2654SOL    HW1 8861   4.535   0.180   1.977
 2654SOL    HW2 8862   4.500   0.121   1.829
 2655SOL     OW 8863   5.569   0.040   4.397
 2655SOL    HW1 8864   5.503   0.062   4.326
 2655SOL    HW2 8865   5.540   6.977   4.445
 2656SOL     OW 8866   3.531   5.135   4.613
 2656SOL    HW1 8867   3.582   5.075   4.552
 2656SOL    HW2 8868   3.434   5.132   4.590
 2657SOL     OW 8869   0.972   4.173   0.185
 2657SOL    HW1 8870   0.931   4.108   0.120
 2657SOL    HW2 8871   1.065   4.144   0.206
 2658SOL     OW 8872   5.007   4.662   0.613
 2658SOL    HW1 8873   4.988   4.682   0.709
 2658SOL    HW2 8874   5.098   4.622   0.605
 2659SOL     OW 8875   5.220   2.864   4.997
 2659SOL    HW1 8876   5.251   2.949   4.953
 2659SOL    HW2 8877   5.122   2.871   5.015
 2660SOL     OW 8878   1.860   6.917   1.805
 2660SOL    HW1 8879   1.954   6.908   1.772
 2660SOL    HW2 8880   1.814   6.829   1.799
 2661SOL     OW 8881   2.496   6.934   1.509
 2661SOL    HW1 8882   2.401   6.950   1.536
 2661SOL    HW2 8883   2.506   6.842   1.471
 2662SOL     OW 8884   4.317   6.399   5.371
 2662SOL    HW1 8885   4.359   6.431   5.286
 2662SOL    HW2 8886   4.337   6.302   5.383
 2663SOL     OW 8887   3.571   4.107   6.436
 2663SOL    HW1 8888   3.478   4.106   6.400
 2663SOL    HW2 8889   3.635   4.129   6.363
 2664SOL     OW 8890   4.712   3.365   5.289
 2664SOL    HW1 8891   4.702   3.455   5.247
 2664SOL    HW2 8892   4.630   3.343   5.342
 2665SOL     OW 8893   2.725   2.893   5.347
 2665SOL    HW1 8894   2.670   2.960   5.296
 2665SOL    HW2 8895   2.668   2.850   5.417
 2666SOL     OW 8896   0.446   5.128   1.674
 2666SOL    HW1 8897   0.536   5.101   1.638
 2666SOL    HW2 8898   0.451   5.221   1.708
 2667SOL     OW 8899   0.860   5.586   4.590
 2667SOL    HW1 8900   0.884   5.642   4.669
 2667SOL    HW2 8901   0.760   5.576   4.585
 2668SOL     OW 8902   0.429   2.997   4.934
 2668SOL    HW1 8903   0.489   2.998   5.013
 2668SOL    HW2 8904   0.454   3.071   4.871
 2669SOL     OW 8905   2.928   4.710   6.085
 2669SOL    HW1 8906   3.024   4.707   6.112
 2669SOL    HW2 8907   2.921   4.711   5.985
 2670SOL     OW 8908   5.480   3.997   5.489
 2670SOL    HW1 8909   5.542   4.075   5.484
 2670SOL    HW2 8910   5.496   3.937   5.410
 2671SOL     OW 8911   4.366   5.665   6.811
 2671SOL    HW1 8912   4.278   5.688   6.768
 2671SOL    HW2 8913   4.387   5.732   6.881
 2672SOL     OW 8914   2.073   4.927   0.754
 2672SOL    HW1 8915   2.119   5.016   0.745
 2672SOL    HW2 8916   1.976   4.942   0.772
 2673SOL     OW 8917   6.697   1.337   1.844
 2673SOL    HW1 8918   6.692   1.248   1.799
 2673SOL    HW2 8919   6.709   1.409   1.775
 2674SOL     OW 8920   1.541   4.799   3.643
 2674SOL    HW1 8921   1.543   4.701   3.626
 2674SOL    HW2 8922   1.473   4.819   3.713
 2675SOL     OW 8923   5.940   5.617   3.934
 2675SOL    HW1 8924   5.886   5.554   3.991
 2675SOL    HW2 8925   5.976   5.690   3.991
 2676SOL     OW 8926   3.865   2.816   1.356
 2676SOL    HW1 8927   3.775   2.825   1.315
 2676SOL    HW2 8928   3.902   2.725   1.337
 2677SOL     OW 8929   2.761   4.063   6.866
 2677SOL    HW1 8930   2.786   3.994   6.933
 2677SOL    HW2 8931   2.762   4.153   6.908
 2678SOL     OW 8932   0.184   2.564   1.642
 2678SOL    HW1 8933   0.132   2.521   1.717
 2678SOL    HW2 8934   0.206   2.495   1.573
 2679SOL     OW 8935   1.736   4.761   1.816
 2679SOL    HW1 8936   1.822   4.712   1.825
 2679SOL    HW2 8937   1.754   4.860   1.817
 2680SOL     OW 8938   0.856   1.669   1.081
 2680SOL    HW1 8939   0.869   1.578   1.043
 2680SOL    HW2 8940   0.916   1.681   1.160
 2681SOL     OW 8941   1.620   2.173   5.436
 2681SOL    HW1 8942   1.645   2.253   5.491
 2681SOL    HW2 8943   1.621   2.199   5.339
 2682SOL     OW 8944   4.617   4.351   3.522
 2682SOL    HW1 8945   4.667   4.272   3.559
 2682SOL    HW2 8946   4.651   4.435   3.565
 2683SOL     OW 8947   3.051   5.549   1.646
 2683SOL    HW1 8948   3.003   5.462   1.646
 2683SOL    HW2 8949   3.062   5.582   1.552
 2684SOL     OW 8950   4.981   6.186   1.559
 2684SOL    HW1 8951   4.931   6.231   1.632
 2684SOL    HW2 8952   5.073   6.163   1.590
 2685SOL     OW 8953   5.970   6.179   6.089
 2685SOL    HW1 8954   5.933   6.093   6.124
 2685SOL    HW2 8955   5.908   6.216   6.020
 2686SOL     OW 8956   1.871   1.387   6.070
 2686SOL    HW1 8957   1.949   1.339   6.031
 2686SOL    HW2 8958   1.889   1.486   6.070
 2687SOL     OW 8959   5.311   5.349   1.290
 2687SOL    HW1 8960   5.274   5.262   1.324
 2687SOL    HW2 8961   5.405   5.361   1.325
 2688SOL     OW 8962   3.450   3.760   0.632
 2688SOL    HW1 8963   3.369   3.784   0.579
 2688SOL    HW2 8964   3.515   3.710   0.574
 2689SOL     OW 8965   1.078   4.019   2.655
 2689SOL    HW1 8966   1.035   3.943   2.703
 2689SOL    HW2 8967   1.030   4.104   2.676
 2690SOL     OW 8968   3.586   3.207   5.339
 2690SOL    HW1 8969   3.591   3.303   5.312
 2690SOL    HW2 8970   3.539   3.200   5.427
 2691SOL     OW 8971   0.807   5.199   3.647
 2691SOL    HW1 8972   0.881   5.155   3.698
 2691SOL    HW2 8973   0.722   5.190   3.698
 2692SOL     OW 8974   2.643   6.031   3.204
 2692SOL    HW1 8975   2.644   6.120   3.248
 2692SOL    HW2 8976   2.548   6.002   3.190
 2693SOL     OW 8977   2.125   4.727   3.549
 2693SOL    HW1 8978   2.073   4.804   3.586
 2693SOL    HW2 8979   2.222   4.750   3.547
 2694SOL     OW 8980   4.120   6.466   2.950
 2694SOL    HW1 8981   4.074   6.524   3.017
 2694SOL    HW2 8982   4.213   6.445   2.982
 2695SOL     OW 8983   5.931   1.385   2.464
 2695SOL    HW1 8984   5.888   1.373   2.553
 2695SOL    HW2 8985   5.912   1.304   2.407
 2696SOL     OW 8986   3.543   3.202   5.896
 2696SOL    HW1 8987   3.605   3.139   5.942
 2696SOL    HW2 8988   3.463   3.153   5.863
 2697SOL     OW 8989   3.234   0.961   3.378
 2697SOL    HW1 8990   3.230   1.028   3.303
 2697SOL    HW2 8991   3.322   0.969   3.425
 2698SOL     OW 8992   2.221   4.683   0.812
 2698SOL    HW1 8993   2.159   4.756   0.782
 2698SOL    HW2 8994   2.167   4.601   0.833
 2699SOL     OW 8995   2.493   5.590   0.905
 2699SOL    HW1 8996   2.477   5.647   0.825
 2699SOL    HW2 8997   2.430   5.616   0.978
 2700SOL     OW 8998   2.877   2.998   0.038
 2700SOL    HW1 8999   2.868   3.088   0.080
 2700SOL    HW2 9000   2.786   2.963   0.014
 2701SOL     OW 9001   5.384   1.650   5.938
 2701SOL    HW1 9002   5.410   1.661   5.842
 2701SOL    HW2 9003   5.467   1.650   5.995
 2702SOL     OW 9004   0.343   2.689   3.373
 2702SOL    HW1 9005   0.314   2.713   3.465
 2702SOL    HW2 9006   0.439   2.660   3.375
 2703SOL     OW 9007   0.838   0.121   1.053
 2703SOL    HW1 9008   0.866   0.189   0.985
 2703SOL    HW2 9009   0.879   0.032   1.030
 2704SOL     OW 9010   6.563   5.691   2.068
 2704SOL    HW1 9011   6.582   5.787   2.048
 2704SOL    HW2 9012   6.465   5.680   2.087
 2705SOL     OW 9013   6.789   6.709   4.457
 2705SOL    HW1 9014   6.848   6.629   4.446
 2705SOL    HW2 9015   6.839   6.792   4.429
 2706SOL     OW 9016   6.305   5.183   2.764
 2706SOL    HW1 9017   6.371   5.186   2.688
 2706SOL    HW2 9018   6.320   5.262   2.823
 2707SOL     OW 9019   4.120   0.884   4.501
 2707SOL    HW1 9020   4.037   0.829   4.516
 2707SOL    HW2 9021   4.094   0.980   4.491
 2708SOL     OW 9022   0.008   2.723   1.015
 2708SOL    HW1 9023   0.081   2.667   0.978
 2708SOL    HW2 9024   0.040   2.773   1.095
 2709SOL     OW 9025   4.738   0.331   0.114
 2709SOL    HW1 9026   4.734   0.431   0.105
 2709SOL    HW2 9027   4.824   0.297   0.076
 2710SOL     OW 9028   1.032   2.969   4.393
 2710SOL    HW1 9029   1.060   2.882   4.433
 2710SOL    HW2 9030   0.945   2.997   4.434
 2711SOL     OW 9031   2.499   0.698   3.630
 2711SOL    HW1 9032   2.527   0.606   3.658
 2711SOL    HW2 9033   2.564   0.734   3.562
 2712SOL     OW 9034   2.639   4.355   1.449
 2712SOL    HW1 9035   2.621   4.350   1.351
 2712SOL    HW2 9036   2.735   4.380   1.464
 2713SOL     OW 9037   2.398   2.720   5.413
 2713SOL    HW1 9038   2.307   2.686   5.439
 2713SOL    HW2 9039   2.397   2.746   5.317
 2714SOL     OW 9040   4.252   2.404   0.142
 2714SOL    HW1 9041   4.317   2.430   0.214
 2714SOL    HW2 9042   4.196   2.484   0.119
 2715SOL     OW 9043   5.264   2.481   1.038
 2715SOL    HW1 9044   5.189   2.430   0.995
 2715SOL    HW2 9045   5.329   2.509   0.968
 2716SOL     OW 9046   5.345   3.148   3.221
 2716SOL    HW1 9047   5.432   3.123   3.263
 2716SOL    HW2 9048   5.321   3.082   3.150
 2717SOL     OW 9049   0.137   0.167   2.817
 2717SOL    HW1 9050   0.163   0.117   2.900
 2717SOL    HW2 9051   0.204   0.240   2.800
 2718SOL     OW 9052   1.401   1.055   4.937
 2718SOL    HW1 9053   1.495   1.028   4.917
 2718SOL    HW2 9054   1.396   1.154   4.947
 2719SOL     OW 9055   0.700   4.971   1.394
 2719SOL    HW1 9056   0.632   5.032   1.353
 2719SOL    HW2 9057   0.761   4.936   1.323
 2720SOL     OW 9058   1.850   6.185   1.932
 2720SOL    HW1 9059   1.919   6.159   2.000
 2720SOL    HW2 9060   1.760   6.186   1.975
 2721SOL     OW 9061   3.410   6.302   3.095
 2721SOL    HW1 9062   3.423   6.375   3.163
 2721SOL    HW2 9063   3.471   6.316   3.018
 2722SOL     OW 9064   6.377   4.764   0.633
 2722SOL    HW1 9065   6.315   4.692   0.602
 2722SOL    HW2 9066   6.360   4.783   0.730
 2723SOL     OW 9067   0.765   5.912   6.138
 2723SOL    HW1 9068   0.700   5.950   6.204
 2723SOL    HW2 9069   0.813   5.834   6.180
 2724SOL     OW 9070   1.617   5.832   6.882
 2724SOL    HW1 9071   1.644   5.853   6.788
 2724SOL    HW2 9072   1.669   5.890   6.945
 2725SOL     OW 9073   5.080   4.862   5.018
 2725SOL    HW1 9074   5.094   4.788   4.952
 2725SOL    HW2 9075   5.010   4.925   4.984
 2726SOL     OW 9076   6.831   1.739   1.284
 2726SOL    HW1 9077   6.930   1.730   1.297
 2726SOL    HW2 9078   6.811   1.747   1.186
 2727SOL     OW 9079   1.126   4.447   3.791
 2727SOL    HW1 9080   1.037   4.492   3.797
 2727SOL    HW2 9081   1.157   4.449   3.696
 2728SOL     OW 9082   4.739   6.673   5.280
 2728SOL    HW1 9083   4.698   6.590   5.318
 2728SOL    HW2 9084   4.834   6.682   5.311
 2729SOL     OW 9085   6.960   6.033   0.622
 2729SOL    HW1 9086   6.951   6.080   0.534
 2729SOL    HW2 9087   6.870   6.029   0.667
 2730SOL     OW 9088   1.971   5.448   1.579
 2730SOL    HW1 9089   1.970   5.417   1.674
 2730SOL    HW2 9090   1.967   5.548   1.576
 2731SOL     OW 9091   3.185   3.459   3.341
 2731SOL    HW1 9092   3.230   3.548   3.350
 2731SOL    HW2 9093   3.090   3.466   3.372
 2732SOL     OW 9094   5.224   2.723   1.800
 2732SOL    HW1 9095   5.136   2.727   1.752
 2732SOL    HW2 9096   5.283   2.656   1.756
 2733SOL     OW 9097   6.531   2.157   4.727
 2733SOL    HW1 9098   6.598   2.124   4.793
 2733SOL    HW2 9099   6.531   2.257   4.726
 2734SOL     OW 9100   3.404   5.647   0.859
 2734SOL    HW1 9101   3.440   5.570   0.807
 2734SOL    HW2 9102   3.437   5.733   0.818
 2735SOL     OW 9103   1.777   3.353   1.582
 2735SOL    HW1 9104   1.682   3.331   1.559
 2735SOL    HW2 9105   1.837   3.278   1.552
 2736SOL     OW 9106   5.654   6.212   4.848
 2736SOL    HW1 9107   5.678   6.161   4.931
 2736SOL    HW2 9108   5.737   6.230   4.795
 2737SOL     OW 9109   2.788   4.204   5.414
 2737SOL    HW1 9110   2.797   4.275   5.345
 2737SOL    HW2 9111   2.704   4.152   5.399
 2738SOL     OW 9112   5.038   6.232   2.000
 2738SOL    HW1 9113   4.987   6.316   2.016
 2738SOL    HW2 9114   4.978   6.164   1.958
 2739SOL     OW 9115   1.200   4.572   1.163
 2739SOL    HW1 9116   1.276   4.612   1.112
 2739SOL    HW2 9117   1.146   4.515   1.101
 2740SOL     OW 9118   6.554   4.194   2.214
 2740SOL    HW1 9119   6.637   4.189   2.158
 2740SOL    HW2 9120   6.484   4.134   2.176
 2741SOL     OW 9121   6.559   0.520   4.661
 2741SOL    HW1 9122   6.621   0.449   4.691
 2741SOL    HW2 9123   6.487   0.534   4.729
 2742SOL     OW 9124   1.855   5.234   6.967
 2742SOL    HW1 9125   1.777   5.238   6.904
 2742SOL    HW2 9126   1.836   5.291   0.027
 2743SOL     OW 9127   6.330   4.745   2.352
 2743SOL    HW1 9128   6.326   4.835   2.397
 2743SOL    HW2 9129   6.392   4.750   2.274
 2744SOL     OW 9130   4.651   2.310   0.703
 2744SOL    HW1 9131   4.612   2.232   0.654
 2744SOL    HW2 9132   4.597   2.329   0.785
 2745SOL     OW 9133   6.849   0.696   5.306
 2745SOL    HW1 9134   6.940   0.657   5.297
 2745SOL    HW2 9135   6.783   0.641   5.255
 2746SOL     OW 9136   1.658   2.468   4.863
 2746SOL    HW1 9137   1.615   2.470   4.953
 2746SOL    HW2 9138   1.653   2.375   4.826
 2747SOL     OW 9139   4.665   4.570   6.423
 2747SOL    HW1 9140   4.600   4.515   6.372
 2747SOL    HW2 9141   4.654   4.553   6.521
 2748SOL     OW 9142   4.511   1.256   2.242
 2748SOL    HW1 9143   4.585   1.190   2.230
 2748SOL    HW2 9144   4.542   1.346   2.209
 2749SOL     OW 9145   0.361   4.255   1.259
 2749SOL    HW1 9146   0.356   4.167   1.213
 2749SOL    HW2 9147   0.272   4.300   1.256
 2750SOL     OW 9148   1.410   3.506   1.001
 2750SOL    HW1 9149   1.313   3.524   1.012
 2750SOL    HW2 9150   1.454   3.586   0.958
 2751SOL     OW 9151   1.329   3.325   1.640
 2751SOL    HW1 9152   1.282   3.294   1.558
 2751SOL    HW2 9153   1.283   3.289   1.721
 2752SOL     OW 9154   3.969   5.176   5.279
 2752SOL    HW1 9155   3.962   5.099   5.342
 2752SOL    HW2 9156   3.881   5.223   5.274
 2753SOL     OW 9157   0.294   6.597   5.261
 2753SOL    HW1 9158   0.227   6.616   5.333
 2753SOL    HW2 9159   0.246   6.559   5.181
 2754SOL     OW 9160   0.860   0.730   1.672
 2754SOL    HW1 9161   0.818   0.708   1.584
 2754SOL    HW2 9162   0.788   0.753   1.738
 2755SOL     OW 9163   2.102   7.013   2.563
 2755SOL    HW1 9164   2.024   6.961   2.527
 2755SOL    HW2 9165   2.149   0.038   2.487
 2756SOL     OW 9166   5.805   5.186   6.890
 2756SOL    HW1 9167   5.771   5.270   6.932
 2756SOL    HW2 9168   5.898   5.167   6.923
 2757SOL     OW 9169   2.510   0.094   6.895
 2757SOL    HW1 9170   2.558   0.073   6.980
 2757SOL    HW2 9171   2.454   0.176   6.907
 2758SOL     OW 9172   3.598   6.361   3.933
 2758SOL    HW1 9173   3.603   6.404   4.023
 2758SOL    HW2 9174   3.641   6.271   3.936
 2759SOL     OW 9175   5.235   0.115   5.751
 2759SOL    HW1 9176   5.315   0.071   5.708
 2759SOL    HW2 9177   5.210   0.197   5.699
 2760SOL     OW 9178   0.626   5.897   1.920
 2760SOL    HW1 9179   0.614   5.813   1.867
 2760SOL    HW2 9180   0.703   5.885   1.983
 2761SOL     OW 9181   2.228   5.663   4.631
 2761SOL    HW1 9182   2.249   5.734   4.699
 2761SOL    HW2 9183   2.166   5.596   4.671
 2762SOL     OW 9184   1.464   1.516   5.037
 2762SOL    HW1 9185   1.530   1.454   5.079
 2762SOL    HW2 9186   1.422   1.574   5.108
 2763SOL     OW 9187   5.170   1.527   3.101
 2763SOL    HW1 9188   5.078   1.567   3.101
 2763SOL    HW2 9189   5.205   1.525   3.195
 2764SOL     OW 9190   5.840   1.297   0.871
 2764SOL    HW1 9191   5.825   1.257   0.781
 2764SOL    HW2 9192   5.844   1.397   0.864
 2765SOL     OW 9193   5.815   0.165   1.403
 2765SOL    HW1 9194   5.778   0.256   1.386
 2765SOL    HW2 9195   5.750   0.096   1.369
 2766SOL     OW 9196   5.313   2.124   0.736
 2766SOL    HW1 9197   5.271   2.183   0.667
 2766SOL    HW2 9198   5.255   2.044   0.751
 2767SOL     OW 9199   6.744   5.491   0.163
 2767SOL    HW1 9200   6.694   5.496   0.076
 2767SOL    HW2 9201   6.681   5.460   0.235
 2768SOL     OW 9202   4.654   0.891   1.012
 2768SOL    HW1 9203   4.676   0.809   0.961
 2768SOL    HW2 9204   4.738   0.941   1.032
 2769SOL     OW 9205   2.014   4.222   4.548
 2769SOL    HW1 9206   2.077   4.299   4.560
 2769SOL    HW2 9207   2.048   4.143   4.599
 2770SOL     OW 9208   4.638   6.125   5.939
 2770SOL    HW1 9209   4.656   6.039   5.985
 2770SOL    HW2 9210   4.684   6.200   5.988
 2771SOL     OW 9211   6.873   0.839   3.761
 2771SOL    HW1 9212   6.856   0.915   3.824
 2771SOL    HW2 9213   6.788   0.815   3.715
 2772SOL     OW 9214   3.957   0.983   0.752
 2772SOL    HW1 9215   4.022   0.910   0.773
 2772SOL    HW2 9216   3.946   0.991   0.653
 2773SOL     OW 9217   5.916   2.172   5.052
 2773SOL    HW1 9218   5.863   2.249   5.086
 2773SOL    HW2 9219   5.855   2.101   5.017
 2774SOL     OW 9220   5.690   3.211   3.167
 2774SOL    HW1 9221   5.783   3.245   3.178
 2774SOL    HW2 9222   5.625   3.287   3.176
 2775SOL     OW 9223   6.907   5.719   6.179
 2775SOL    HW1 9224   6.997   5.717   6.222
 2775SOL    HW2 9225   6.884   5.813   6.154
 2776SOL     OW 9226   4.010   5.031   5.605
 2776SOL    HW1 9227   4.079   5.100   5.630
 2776SOL    HW2 9228   4.053   4.957   5.554
 2777SOL     OW 9229   2.902   1.082   2.452
 2777SOL    HW1 9230   2.957   1.010   2.494
 2777SOL    HW2 9231   2.955   1.126   2.379
 2778SOL     OW 9232   1.442   6.894   5.278
 2778SOL    HW1 9233   1.487   6.815   5.319
 2778SOL    HW2 9234   1.511   6.961   5.250
 2779SOL     OW 9235   5.008   6.412   1.409
 2779SOL    HW1 9236   4.980   6.316   1.413
 2779SOL    HW2 9237   5.107   6.418   1.402
 2780SOL     OW 9238   6.285   6.566   6.948
 2780SOL    HW1 9239   6.380   6.569   6.916
 2780SOL    HW2 9240   6.234   6.499   6.895
 2781SOL     OW 9241   5.481   6.473   2.079
 2781SOL    HW1 9242   5.400   6.437   2.125
 2781SOL    HW2 9243   5.508   6.559   2.122
 2782SOL     OW 9244   4.327   2.561   6.367
 2782SOL    HW1 9245   4.371   2.651   6.359
 2782SOL    HW2 9246   4.366   2.499   6.299
 2783SOL     OW 9247   5.276   4.124   3.637
 2783SOL    HW1 9248   5.336   4.099   3.561
 2783SOL    HW2 9249   5.249   4.041   3.687
 2784SOL     OW 9250   3.297   1.021   2.362
 2784SOL    HW1 9251   3.384   0.976   2.342
 2784SOL    HW2 9252   3.257   1.055   2.276
 2785SOL     OW 9253   4.826   1.442   0.639
 2785SOL    HW1 9254   4.814   1.467   0.736
 2785SOL    HW2 9255   4.748   1.386   0.610
 2786SOL     OW 9256   4.842   0.173   1.868
 2786SOL    HW1 9257   4.744   0.154   1.863
 2786SOL    HW2 9258   4.856   0.260   1.915
 2787SOL     OW 9259   4.901   1.466   6.318
 2787SOL    HW1 9260   4.928   1.372   6.298
 2787SOL    HW2 9261   4.966   1.529   6.277
 2788SOL     OW 9262   1.922   5.341   5.919
 2788SOL    HW1 9263   1.980   5.388   5.852
 2788SOL    HW2 9264   1.920   5.393   6.004
 2789SOL     OW 9265   1.771   1.872   4.034
 2789SOL    HW1 9266   1.867   1.900   4.040
 2789SOL    HW2 9267   1.712   1.952   4.041
 2790SOL     OW 9268   3.151   5.805   2.140
 2790SOL    HW1 9269   3.119   5.894   2.110
 2790SOL    HW2 9270   3.084   5.735   2.115
 2791SOL     OW 9271   0.773   3.109   3.534
 2791SOL    HW1 9272   0.724   3.120   3.448
 2791SOL    HW2 9273   0.794   3.199   3.573
 2792SOL     OW 9274   2.168   6.803   3.863
 2792SOL    HW1 9275   2.182   6.898   3.892
 2792SOL    HW2 9276   2.088   6.798   3.802
 2793SOL     OW 9277   5.603   4.052   2.733
 2793SOL    HW1 9278   5.573   3.957   2.729
 2793SOL    HW2 9279   5.692   4.058   2.778
 2794SOL     OW 9280   0.301   2.512   6.560
 2794SOL    HW1 9281   0.377   2.519   6.624
 2794SOL    HW2 9282   0.227   2.573   6.590
 2795SOL     OW 9283   1.087   3.399   0.364
 2795SOL    HW1 9284   0.998   3.396   0.319
 2795SOL    HW2 9285   1.085   3.470   0.435
 2796SOL     OW 9286   6.874   6.038   3.078
 2796SOL    HW1 9287   6.861   6.097   2.998
 2796SOL    HW2 9288   6.959   6.062   3.124
 2797SOL     OW 9289   5.163   5.248   4.378
 2797SOL    HW1 9290   5.233   5.319   4.375
 2797SOL    HW2 9291   5.150   5.211   4.286
 2798SOL     OW 9292   0.218   4.875   2.002
 2798SOL    HW1 9293   0.257   4.795   2.049
 2798SOL    HW2 9294   0.234   4.957   2.057
 2799SOL     OW 9295   6.031   5.571   6.737
 2799SOL    HW1 9296   5.946   5.550   6.786
 2799SOL    HW2 9297   6.054   5.667   6.749
 2800SOL     OW 9298   4.777   6.240   0.335
 2800SOL    HW1 9299   4.869   6.276   0.351
 2800SOL    HW2 9300   4.716   6.315   0.310
 2801SOL     OW 9301   6.553   5.713   6.245
 2801SOL    HW1 9302   6.596   5.652   6.179
 2801SOL    HW2 9303   6.478   5.666   6.291
 2802SOL     OW 9304   5.080   1.299   5.193
 2802SOL    HW1 9305   5.046   1.320   5.284
 2802SOL    HW2 9306   5.005   1.259   5.139
 2803SOL     OW 9307   4.135   5.695   6.687
 2803SOL    HW1 9308   4.079   5.614   6.706
 2803SOL    HW2 9309   4.116   5.728   6.595
 2804SOL     OW 9310   0.164   5.318   5.271
 2804SOL    HW1 9311   0.096   5.390   5.261
 2804SOL    HW2 9312   0.138   5.258   5.347
 2805SOL     OW 9313   5.672   3.350   1.715
 2805SOL    HW1 9314   5.634   3.442   1.719
 2805SOL    HW2 9315   5.703   3.330   1.622
 2806SOL     OW 9316   6.884   4.868   5.954
 2806SOL    HW1 9317   6.972   4.915   5.966
 2806SOL    HW2 9318   6.857   4.825   6.040
 2807SOL     OW 9319   4.856   6.278   4.581
 2807SOL    HW1 9320   4.917   6.284   4.660
 2807SOL    HW2 9321   4.773   6.228   4.607
 2808SOL     OW 9322   5.877   4.449   2.012
 2808SOL    HW1 9323   5.797   4.421   2.066
 2808SOL    HW2 9324   5.939   4.502   2.069
 2809SOL     OW 9325   5.866   3.112   0.925
 2809SOL    HW1 9326   5.822   3.191   0.882
 2809SOL    HW2 9327   5.799   3.038   0.935
 2810SOL     OW 9328   3.647   4.898   3.789
 2810SOL    HW1 9329   3.573   4.880   3.724
 2810SOL    HW2 9330   3.728   4.929   3.739
 2811SOL     OW 9331   1.220   1.906   3.430
 2811SOL    HW1 9332   1.137   1.901   3.374
 2811SOL    HW2 9333   1.222   1.829   3.493
 2812SOL     OW 9334   5.225   3.880   6.669
 2812SOL    HW1 9335   5.193   3.895   6.576
 2812SOL    HW2 9336   5.163   3.816   6.715
 2813SOL     OW 9337   0.101   0.074   6.551
 2813SOL    HW1 9338   0.140   7.010   6.514
 2813SOL    HW2 9339   0.031   0.051   6.619
 2814SOL     OW 9340   4.184   3.611   5.279
 2814SOL    HW1 9341   4.179   3.639   5.183
 2814SOL    HW2 9342   4.116   3.661   5.332
 2815SOL     OW 9343   6.153   0.243   5.501
 2815SOL    HW1 9344   6.191   0.311   5.564
 2815SOL    HW2 9345   6.129   0.160   5.553
 2816SOL     OW 9346   6.641   5.570   3.499
 2816SOL    HW1 9347   6.667   5.477   3.472
 2816SOL    HW2 9348   6.598   5.568   3.589
 2817SOL     OW 9349   2.814   6.969   1.312
 2817SOL    HW1 9350   2.750   6.972   1.390
 2817SOL    HW2 9351   2.836   6.874   1.290
 2818SOL     OW 9352   0.558   0.526   0.979
 2818SOL    HW1 9353   0.563   0.478   1.067
 2818SOL    HW2 9354   0.470   0.507   0.936
 2819SOL     OW 9355   0.898   1.145   1.323
 2819SOL    HW1 9356   0.973   1.187   1.272
 2819SOL    HW2 9357   0.926   1.135   1.419
 2820SOL     OW 9358   0.710   2.710   3.193
 2820SOL    HW1 9359   0.762   2.680   3.273
 2820SOL    HW2 9360   0.636   2.644   3.175
 2821SOL     OW 9361   3.959   3.423   0.020
 2821SOL    HW1 9362   3.919   3.356   0.083
 2821SOL    HW2 9363   4.043   3.460   0.060
 2822SOL     OW 9364   3.925   1.598   0.208
 2822SOL    HW1 9365   4.007   1.656   0.216
 2822SOL    HW2 9366   3.936   1.517   0.266
 2823SOL     OW 9367   4.536   0.550   0.357
 2823SOL    HW1 9368   4.474   0.543   0.279
 2823SOL    HW2 9369   4.626   0.578   0.325
 2824SOL     OW 9370   2.354   1.226   3.633
 2824SOL    HW1 9371   2.265   1.207   3.674
 2824SOL    HW2 9372   2.344   1.234   3.533
 2825SOL     OW 9373   5.917   0.444   6.597
 2825SOL    HW1 9374   5.907   0.358   6.548
 2825SOL    HW2 9375   5.994   0.495   6.559
 2826SOL     OW 9376   4.783   1.189   6.533
 2826SOL    HW1 9377   4.779   1.093   6.506
 2826SOL    HW2 9378   4.756   1.247   6.456
 2827SOL     OW 9379   0.070   0.920   5.462
 2827SOL    HW1 9380   0.098   0.865   5.541
 2827SOL    HW2 9381   0.148   0.932   5.400
 2828SOL     OW 9382   2.500   1.272   0.388
 2828SOL    HW1 9383   2.490   1.190   0.332
 2828SOL    HW2 9384   2.410   1.312   0.405
 2829SOL     OW 9385   3.316   3.514   5.050
 2829SOL    HW1 9386   3.223   3.507   5.085
 2829SOL    HW2 9387   3.328   3.453   4.972
 2830SOL     OW 9388   1.544   2.805   5.985
 2830SOL    HW1 9389   1.591   2.730   6.033
 2830SOL    HW2 9390   1.610   2.853   5.927
 2831SOL     OW 9391   0.719   4.894   3.587
 2831SOL    HW1 9392   0.710   4.902   3.686
 2831SOL    HW2 9393   0.810   4.923   3.559
 2832SOL     OW 9394   0.738   2.888   2.115
 2832SOL    HW1 9395   0.643   2.868   2.136
 2832SOL    HW2 9396   0.769   2.965   2.170
 2833SOL     OW 9397   3.428   2.017   2.440
 2833SOL    HW1 9398   3.515   2.066   2.434
 2833SOL    HW2 9399   3.353   2.084   2.447
 2834SOL     OW 9400   4.024   5.498   5.758
 2834SOL    HW1 9401   4.084   5.578   5.770
 2834SOL    HW2 9402   3.970   5.509   5.675
 2835SOL     OW 9403   0.385   6.892   2.150
 2835SOL    HW1 9404   0.316   6.922   2.216
 2835SOL    HW2 9405   0.476   6.902   2.189
 2836SOL     OW 9406   6.593   6.756   2.356
 2836SOL    HW1 9407   6.688   6.780   2.376
 2836SOL    HW2 9408   6.587   6.709   2.268
 2837SOL     OW 9409   5.648   4.774   2.403
 2837SOL    HW1 9410   5.560   4.821   2.390
 2837SOL    HW2 9411   5.683   4.796   2.494
 2838SOL     OW 9412   2.756   4.008   1.154
 2838SOL    HW1 9413   2.847   3.968   1.146
 2838SOL    HW2 9414   2.694   3.966   1.088
 2839SOL     OW 9415   6.897   1.976   2.272
 2839SOL    HW1 9416   6.883   1.944   2.179
 2839SOL    HW2 9417   6.948   2.062   2.272
 2840SOL     OW 9418   1.480   0.395   2.974
 2840SOL    HW1 9419   1.386   0.364   2.990
 2840SOL    HW2 9420   1.526   0.407   3.062
 2841SOL     OW 9421   0.681   0.806   6.269
 2841SOL    HW1 9422   0.716   0.897   6.246
 2841SOL    HW2 9423   0.605   0.816   6.334
 2842SOL     OW 9424   0.423   4.305   4.171
 2842SOL    HW1 9425   0.420   4.387   4.114
 2842SOL    HW2 9426   0.357   4.313   4.245
 2843SOL     OW 9427   2.318   2.369   2.736
 2843SOL    HW1 9428   2.271   2.307   2.798
 2843SOL    HW2 9429   2.271   2.457   2.734
 2844SOL     OW 9430   6.986   5.050   0.625
 2844SOL    HW1 9431   0.059   5.014   0.631
 2844SOL    HW2 9432   6.979   5.133   0.681
 2845SOL     OW 9433   6.229   2.924   1.032
 2845SOL    HW1 9434   6.150   2.911   0.972
 2845SOL    HW2 9435   6.200   2.918   1.128
 2846SOL     OW 9436   3.798   1.268   0.362
 2846SOL    HW1 9437   3.843   1.257   0.273
 2846SOL    HW2 9438   3.796   1.365   0.386
 2847SOL     OW 9439   4.985   3.431   3.536
 2847SOL    HW1 9440   4.920   3.474   3.474
 2847SOL    HW2 9441   5.077   3.438   3.497
 2848SOL     OW 9442   1.865   2.366   5.165
 2848SOL    HW1 9443   1.767   2.356   5.186
 2848SOL    HW2 9444   1.902   2.443   5.216
 2849SOL     OW 9445   4.450   6.413   0.842
 2849SOL    HW1 9446   4.471   6.366   0.756
 2849SOL    HW2 9447   4.358   6.388   0.872
 2850SOL     OW 9448   1.614   0.034   2.381
 2850SOL    HW1 9449   1.689   0.004   2.440
 2850SOL    HW2 9450   1.550   0.091   2.434
 2851SOL     OW 9451   6.263   1.171   6.173
 2851SOL    HW1 9452   6.350   1.133   6.205
 2851SOL    HW2 9453   6.238   1.249   6.230
 2852SOL     OW 9454   5.783   4.469   6.792
 2852SOL    HW1 9455   5.719   4.441   6.720
 2852SOL    HW2 9456   5.866   4.413   6.787
 2853SOL     OW 9457   1.606   1.703   6.557
 2853SOL    HW1 9458   1.689   1.686   6.505
 2853SOL    HW2 9459   1.626   1.764   6.633
 2854SOL     OW 9460   4.255   1.545   4.813
 2854SOL    HW1 9461   4.219   1.543   4.907
 2854SOL    HW2 9462   4.351   1.570   4.815
 2855SOL     OW 9463   2.351   1.144   6.943
 2855SOL    HW1 9464   2.427   1.207   6.926
 2855SOL    HW2 9465   2.269   1.178   6.897
 2856SOL     OW 9466   0.867   2.516   5.664
 2856SOL    HW1 9467   0.822   2.540   5.750
 2856SOL    HW2 9468   0.942   2.581   5.647
 2857SOL     OW 9469   2.213   2.268   2.475
 2857SOL    HW1 9470   2.286   2.213   2.434
 2857SOL    HW2 9471   2.253   2.334   2.538
 2858SOL     OW 9472   4.775   4.140   2.182
 2858SOL    HW1 9473   4.685   4.114   2.147
 2858SOL    HW2 9474   4.810   4.217   2.129
 2859SOL     OW 9475   5.628   1.020   6.712
 2859SOL    HW1 9476   5.607   1.010   6.615
 2859SOL    HW2 9477   5.577   0.951   6.764
 2860SOL     OW 9478   3.107   1.136   1.746
 2860SOL    HW1 9479   3.140   1.084   1.824
 2860SOL    HW2 9480   3.184   1.177   1.698
 2861SOL     OW 9481   3.721   3.843   5.597
 2861SOL    HW1 9482   3.804   3.898   5.601
 2861SOL    HW2 9483   3.690   3.836   5.502
 2862SOL     OW 9484   5.921   1.690   2.698
 2862SOL    HW1 9485   5.977   1.753   2.752
 2862SOL    HW2 9486   5.975   1.611   2.671
 2863SOL     OW 9487   4.919   1.285   6.761
 2863SOL    HW1 9488   4.872   1.235   6.688
 2863SOL    HW2 9489   4.995   1.230   6.795
 2864SOL     OW 9490   4.321   1.516   2.058
 2864SOL    HW1 9491   4.398   1.454   2.047
 2864SOL    HW2 9492   4.290   1.548   1.969
 2865SOL     OW 9493   4.160   4.376   6.659
 2865SOL    HW1 9494   4.203   4.339   6.741
 2865SOL    HW2 9495   4.079   4.429   6.683
 2866SOL     OW 9496   6.518   5.466   0.305
 2866SOL    HW1 9497   6.540   5.496   0.398
 2866SOL    HW2 9498   6.426   5.428   0.303
 2867SOL     OW 9499   0.030   5.513   2.981
 2867SOL    HW1 9500   0.067   5.548   2.895
 2867SOL    HW2 9501   0.102   5.509   3.050
 2868SOL     OW 9502   0.630   1.853   5.389
 2868SOL    HW1 9503   0.606   1.844   5.486
 2868SOL    HW2 9504   0.675   1.770   5.358
 2869SOL     OW 9505   6.728   1.269   3.730
 2869SOL    HW1 9506   6.653   1.269   3.664
 2869SOL    HW2 9507   6.708   1.337   3.802
 2870SOL     OW 9508   0.320   1.533   4.830
 2870SOL    HW1 9509   0.378   1.612   4.847
 2870SOL    HW2 9510   0.374   1.460   4.787
 2871SOL     OW 9511   0.196   2.144   6.735
 2871SOL    HW1 9512   0.194   2.241   6.759
 2871SOL    HW2 9513   0.289   2.119   6.706
 2872SOL     OW 9514   2.501   2.119   2.482
 2872SOL    HW1 9515   2.586   2.071   2.462
 2872SOL    HW2 9516   2.457   2.077   2.561
 2873SOL     OW 9517   0.318   5.284   2.850
 2873SOL    HW1 9518   0.359   5.375   2.844
 2873SOL    HW2 9519   0.228   5.285   2.806
 2874SOL     OW 9520   4.053   6.656   3.143
 2874SOL    HW1 9521   4.113   6.628   3.218
 2874SOL    HW2 9522   4.041   6.755   3.145
 2875SOL     OW 9523   4.400   6.976   0.591
 2875SOL    HW1 9524   4.458   0.037   0.595
 2875SOL    HW2 9525   4.350   6.968   0.677
 2876SOL     OW 9526   1.707   0.590   1.963
 2876SOL    HW1 9527   1.666   0.511   2.008
 2876SOL    HW2 9528   1.807   0.585   1.971
 2877SOL     OW 9529   3.247   2.595   5.362
 2877SOL    HW1 9530   3.272   2.552   5.275
 2877SOL    HW2 9531   3.200   2.529   5.419
 2878SOL     OW 9532   3.774   5.004   4.824
 2878SOL    HW1 9533   3.748   5.021   4.919
 2878SOL    HW2 9534   3.691   4.997   4.768
 2879SOL     OW 9535   5.714   5.015   0.447
 2879SOL    HW1 9536   5.644   5.060   0.502
 2879SOL    HW2 9537   5.674   4.936   0.400
 2880SOL     OW 9538   6.712   0.520   1.884
 2880SOL    HW1 9539   6.721   0.452   1.957
 2880SOL    HW2 9540   6.693   0.610   1.924
 2881SOL     OW 9541   5.262   5.959   0.012
 2881SOL    HW1 9542   5.196   6.034   0.014
 2881SOL    HW2 9543   5.242   5.898   6.955
 2882SOL     OW 9544   0.714   4.631   2.383
 2882SOL    HW1 9545   0.707   4.686   2.300
 2882SOL    HW2 9546   0.632   4.575   2.393
 2883SOL     OW 9547   5.633   0.181   3.168
 2883SOL    HW1 9548   5.654   0.122   3.089
 2883SOL    HW2 9549   5.546   0.227   3.152
 2884SOL     OW 9550   1.149   0.117   2.504
 2884SOL    HW1 9551   1.103   0.040   2.548
 2884SOL    HW2 9552   1.091   0.154   2.432
 2885SOL     OW 9553   0.863   3.369   3.560
 2885SOL    HW1 9554   0.834   3.422   3.640
 2885SOL    HW2 9555   0.874   3.431   3.481
 2886SOL     OW 9556   1.620   4.243   5.962
 2886SOL    HW1 9557   1.542   4.188   5.932
 2886SOL    HW2 9558   1.609   4.266   6.059
 2887SOL     OW 9559   0.217   0.639   5.100
 2887SOL    HW1 9560   0.271   0.597   5.027
 2887SOL    HW2 9561   0.124   0.656   5.066
 2888SOL     OW 9562   0.631   4.391   0.307
 2888SOL    HW1 9563   0.696   4.407   0.382
 2888SOL    HW2 9564   0.635   4.468   0.243
 2889SOL     OW 9565   1.929   6.237   2.353
 2889SOL    HW1 9566   1.957   6.142   2.365
 2889SOL    HW2 9567   1.976   6.275   2.273
 2890SOL     OW 9568   2.156   6.018   0.466
 2890SOL    HW1 9569   2.108   5.995   0.551
 2890SOL    HW2 9570   2.176   5.935   0.416
 2891SOL     OW 9571   0.868   4.198   3.801
 2891SOL    HW1 9572   0.896   4.205   3.706
 2891SOL    HW2 9573   0.907   4.274   3.854
 2892SOL     OW 9574   5.369   3.296   6.849
 2892SOL    HW1 9575   5.293   3.326   6.790
 2892SOL    HW2 9576   5.387   3.366   6.918
 2893SOL     OW 9577   7.014   6.395   4.841
 2893SOL    HW1 9578   0.031   6.346   4.762
 2893SOL    HW2 9579   7.007   6.493   4.820
 2894SOL     OW 9580   0.880   3.094   2.341
 2894SOL    HW1 9581   0.821   3.138   2.409
 2894SOL    HW2 9582   0.862   3.133   2.251
 2895SOL     OW 9583   4.849   2.613   5.848
 2895SOL    HW1 9584   4.849   2.671   5.930
 2895SOL    HW2 9585   4.890   2.664   5.772
 2896SOL     OW 9586   4.724   5.640   6.280
 2896SOL    HW1 9587   4.710   5.543   6.259
 2896SOL    HW2 9588   4.636   5.684   6.297
 2897SOL     OW 9589   4.017   5.023   2.949
 2897SOL    HW1 9590   3.936   5.031   2.891
 2897SOL    HW2 9591   4.046   5.114   2.979
 2898SOL     OW 9592   4.574   5.031   4.686
 2898SOL    HW1 9593   4.613   5.098   4.623
 2898SOL    HW2 9594   4.489   5.067   4.725
 2899SOL     OW 9595   1.251   1.693   0.449
 2899SOL    HW1 9596   1.275   1.704   0.353
 2899SOL    HW2 9597   1.329   1.656   0.499
 2900SOL     OW 9598   1.822   4.338   5.751
 2900SOL    HW1 9599   1.744   4.333   5.814
 2900SOL    HW2 9600   1.857   4.246   5.733
 2901SOL     OW 9601   2.643   5.531   3.746
 2901SOL    HW1 9602   2.597   5.487   3.824
 2901SOL    HW2 9603   2.740   5.508   3.748
 2902SOL     OW 9604   4.818   6.762   2.597
 2902SOL    HW1 9605   4.755   6.773   2.521
 2902SOL    HW2 9606   4.873   6.845   2.607
 2903SOL     OW 9607   3.087   0.705   0.763
 2903SOL    HW1 9608   3.100   0.701   0.862
 2903SOL    HW2 9609   3.173   0.684   0.718
 2904SOL     OW 9610   2.097   3.828   4.879
 2904SOL    HW1 9611   2.060   3.778   4.957
 2904SOL    HW2 9612   2.181   3.875   4.906
 2905SOL     OW 9613   1.629   2.584   4.561
 2905SOL    HW1 9614   1.647   2.521   4.637
 2905SOL    HW2 9615   1.609   2.531   4.478
 2906SOL     OW 9616   4.121   5.387   1.538
 2906SOL    HW1 9617   4.062   5.323   1.587
 2906SOL    HW2 9618   4.118   5.368   1.440
 2907SOL     OW 9619   0.635   1.152   3.622
 2907SOL    HW1 9620   0.572   1.090   3.575
 2907SOL    HW2 9621   0.689   1.203   3.555
 2908SOL     OW 9622   5.058   6.068   3.961
 2908SOL    HW1 9623   5.031   5.976   3.932
 2908SOL    HW2 9624   5.085   6.121   3.881
 2909SOL     OW 9625   1.546   5.586   3.683
 2909SOL    HW1 9626   1.630   5.622   3.723
 2909SOL    HW2 9627   1.473   5.587   3.751
 2910SOL     OW 9628   4.632   0.144   4.126
 2910SOL    HW1 9629   4.635   0.241   4.104
 2910SOL    HW2 9630   4.580   0.096   4.055
 2911SOL     OW 9631   0.630   5.590   3.422
 2911SOL    HW1 9632   0.553   5.648   3.394
 2911SOL    HW2 9633   0.658   5.532   3.345
 2912SOL     OW 9634   4.649   0.871   0.045
 2912SOL    HW1 9635   4.717   0.942   0.028
 2912SOL    HW2 9636   4.562   0.898   0.004
 2913SOL     OW 9637   2.850   4.702   2.766
 2913SOL    HW1 9638   2.899   4.640   2.704
 2913SOL    HW2 9639   2.846   4.793   2.725
 2914SOL     OW 9640   6.313   6.471   0.192
 2914SOL    HW1 9641   6.290   6.490   0.097
 2914SOL    HW2 9642   6.359   6.383   0.198
 2915SOL     OW 9643   5.413   1.940   3.601
 2915SOL    HW1 9644   5.324   1.917   3.563
 2915SOL    HW2 9645   5.427   2.039   3.596
 2916SOL     OW 9646   1.409   6.543   0.196
 2916SOL    HW1 9647   1.372   6.488   0.121
 2916SOL    HW2 9648   1.347   6.620   0.213
 2917SOL     OW 9649   2.791   6.966   3.346
 2917SOL    HW1 9650   2.889   6.947   3.334
 2917SOL    HW2 9651   2.740   6.880   3.341
 2918SOL     OW 9652   6.222   5.574   5.008
 2918SOL    HW1 9653   6.173   5.544   5.090
 2918SOL    HW2 9654   6.283   5.649   5.032
 2919SOL     OW 9655   6.713   1.139   2.082
 2919SOL    HW1 9656   6.798   1.178   2.117
 2919SOL    HW2 9657   6.692   1.179   1.992
 2920SOL     OW 9658   2.696   1.514   1.821
 2920SOL    HW1 9659   2.668   1.605   1.791
 2920SOL    HW2 9660   2.711   1.515   1.920
 2921SOL     OW 9661   1.005   0.031   3.924
 2921SOL    HW1 9662   0.990   6.961   3.966
 2921SOL    HW2 9663   1.101   0.057   3.934
 2922SOL     OW 9664   5.083   0.932   0.421
 2922SOL    HW1 9665   5.027   0.963   0.343
 2922SOL    HW2 9666   5.038   0.855   0.465
 2923SOL     OW 9667   6.412   5.125   2.205
 2923SOL    HW1 9668   6.345   5.058   2.172
 2923SOL    HW2 9669   6.430   5.192   2.133
 2924SOL     OW 9670   6.561   2.177   5.262
 2924SOL    HW1 9671   6.536   2.270   5.234
 2924SOL    HW2 9672   6.527   2.160   5.354
 2925SOL     OW 9673   4.681   1.067   2.219
 2925SOL    HW1 9674   4.777   1.081   2.193
 2925SOL    HW2 9675   4.662   0.969   2.222
 2926SOL     OW 9676   6.647   1.686   4.225
 2926SOL    HW1 9677   6.588   1.688   4.145
 2926SOL    HW2 9678   6.742   1.670   4.197
 2927SOL     OW 9679   1.035   3.043   1.742
 2927SOL    HW1 9680   0.985   3.030   1.657
 2927SOL    HW2 9681   1.023   3.137   1.774
 2928SOL     OW 9682   0.184   1.568   6.340
 2928SOL    HW1 9683   0.222   1.538   6.252
 2928SOL    HW2 9684   0.206   1.664   6.355
 2929SOL     OW 9685   6.905   2.281   6.712
 2929SOL    HW1 9686   6.908   2.293   6.612
 2929SOL    HW2 9687   6.976   2.338   6.754
 2930SOL     OW 9688   4.458   0.753   4.859
 2930SOL    HW1 9689   4.495   0.664   4.833
 2930SOL    HW2 9690   4.413   0.795   4.780
 2931SOL     OW 9691   5.309   4.909   0.799
 2931SOL    HW1 9692   5.409   4.902   0.805
 2931SOL    HW2 9693   5.283   4.944   0.709
 2932SOL     OW 9694   0.860   5.208   1.169
 2932SOL    HW1 9695   0.878   5.234   1.074
 2932SOL    HW2 9696   0.938   5.236   1.226
 2933SOL     OW 9697   6.698   4.830   3.090
 2933SOL    HW1 9698   6.790   4.826   3.128
 2933SOL    HW2 9699   6.671   4.926   3.077
 2934SOL     OW 9700   4.756   1.157   0.040
 2934SOL    HW1 9701   4.695   1.203   6.995
 2934SOL    HW2 9702   4.850   1.161   0.007
 2935SOL     OW 9703   6.036   3.168   0.081
 2935SOL    HW1 9704   6.063   3.140   7.009
 2935SOL    HW2 9705   5.983   3.095   0.124
 2936SOL     OW 9706   4.154   6.194   1.180
 2936SOL    HW1 9707   4.229   6.136   1.147
 2936SOL    HW2 9708   4.163   6.285   1.140
 2937SOL     OW 9709   4.538   4.870   0.534
 2937SOL    HW1 9710   4.519   4.813   0.454
 2937SOL    HW2 9711   4.531   4.966   0.509
 2938SOL     OW 9712   4.542   5.204   6.920
 2938SOL    HW1 9713   4.483   5.273   6.963
 2938SOL    HW2 9714   4.600   5.249   6.851
 2939SOL     OW 9715   1.003   1.131   3.253
 2939SOL    HW1 9716   0.922   1.088   3.214
 2939SOL    HW2 9717   1.017   1.220   3.210
 2940SOL     OW 9718   5.731   5.207   6.216
 2940SOL    HW1 9719   5.741   5.220   6.118
 2940SOL    HW2 9720   5.767   5.287   6.265
 2941SOL     OW 9721   1.889   2.693   4.576
 2941SOL    HW1 9722   1.861   2.632   4.650
 2941SOL    HW2 9723   1.915   2.639   4.496
 2942SOL     OW 9724   3.047   2.431   0.911
 2942SOL    HW1 9725   3.060   2.446   0.813
 2942SOL    HW2 9726   2.995   2.507   0.950
 2943SOL     OW 9727   4.511   4.736   3.435
 2943SOL    HW1 9728   4.569   4.817   3.431
 2943SOL    HW2 9729   4.533   4.675   3.359
 2944SOL     OW 9730   3.100   6.435   4.418
 2944SOL    HW1 9731   3.134   6.468   4.330
 2944SOL    HW2 9732   3.034   6.500   4.455
 2945SOL     OW 9733   3.657   4.182   4.037
 2945SOL    HW1 9734   3.567   4.195   4.078
 2945SOL    HW2 9735   3.725   4.164   4.108
 2946SOL     OW 9736   0.718   5.090   5.815
 2946SOL    HW1 9737   0.626   5.113   5.783
 2946SOL    HW2 9738   0.729   5.119   5.909
 2947SOL     OW 9739   0.345   3.604   0.674
 2947SOL    HW1 9740   0.419   3.647   0.726
 2947SOL    HW2 9741   0.361   3.506   0.668
 2948SOL     OW 9742   0.844   4.378   5.790
 2948SOL    HW1 9743   0.867   4.337   5.878
 2948SOL    HW2 9744   0.918   4.361   5.725
 2949SOL     OW 9745   2.945   5.284   0.952
 2949SOL    HW1 9746   2.942   5.360   1.016
 2949SOL    HW2 9747   3.023   5.296   0.889
 2950SOL     OW 9748   5.243   3.997   4.391
 2950SOL    HW1 9749   5.168   4.039   4.442
 2950SOL    HW2 9750   5.227   3.898   4.383
 2951SOL     OW 9751   5.838   1.623   0.935
 2951SOL    HW1 9752   5.755   1.621   0.878
 2951SOL    HW2 9753   5.909   1.675   0.888
 2952SOL     OW 9754   1.006   5.487   5.150
 2952SOL    HW1 9755   0.932   5.527   5.205
 2952SOL    HW2 9756   0.985   5.391   5.131
 2953SOL     OW 9757   5.319   2.916   2.664
 2953SOL    HW1 9758   5.370   3.001   2.671
 2953SOL    HW2 9759   5.229   2.927   2.707
 2954SOL     OW 9760   0.414   5.370   1.783
 2954SOL    HW1 9761   0.403   5.439   1.854
 2954SOL    HW2 9762   0.403   5.413   1.693
 2955SOL     OW 9763   0.863   3.902   1.843
 2955SOL    HW1 9764   0.846   3.836   1.770
 2955SOL    HW2 9765   0.821   3.989   1.819
 2956SOL     OW 9766   5.766   6.358   3.194
 2956SOL    HW1 9767   5.735   6.378   3.287
 2956SOL    HW2 9768   5.863   6.334   3.195
 2957SOL     OW 9769   6.088   2.963   1.567
 2957SOL    HW1 9770   6.085   2.864   1.582
 2957SOL    HW2 9771   6.090   3.009   1.656
 2958SOL     OW 9772   2.235   4.967   3.834
 2958SOL    HW1 9773   2.146   4.955   3.789
 2958SOL    HW2 9774   2.233   5.050   3.889
 2959SOL     OW 9775   4.724   4.207   0.435
 2959SOL    HW1 9776   4.819   4.240   0.439
 2959SOL    HW2 9777   4.667   4.276   0.392
 2960SOL     OW 9778   3.397   0.739   6.844
 2960SOL    HW1 9779   3.461   0.756   6.769
 2960SOL    HW2 9780   3.412   0.647   6.880
 2961SOL     OW 9781   4.875   3.245   3.253
 2961SOL    HW1 9782   4.890   3.261   3.155
 2961SOL    HW2 9783   4.901   3.327   3.304
 2962SOL     OW 9784   4.278   0.551   3.204
 2962SOL    HW1 9785   4.194   0.579   3.248
 2962SOL    HW2 9786   4.312   0.467   3.246
 2963SOL     OW 9787   1.891   0.185   6.378
 2963SOL    HW1 9788   1.848   0.152   6.295
 2963SOL    HW2 9789   1.854   0.136   6.457
 2964SOL     OW 9790   0.854   0.610   2.963
 2964SOL    HW1 9791   0.871   0.708   2.959
 2964SOL    HW2 9792   0.778   0.592   3.025
 2965SOL     OW 9793   6.709   2.064   4.520
 2965SOL    HW1 9794   6.668   2.098   4.604
 2965SOL    HW2 9795   6.666   1.977   4.495
 2966SOL     OW 9796   5.818   6.157   4.047
 2966SOL    HW1 9797   5.769   6.134   3.963
 2966SOL    HW2 9798   5.752   6.188   4.116
 2967SOL     OW 9799   6.070   0.814   4.887
 2967SOL    HW1 9800   6.023   0.841   4.971
 2967SOL    HW2 9801   6.168   0.824   4.898
 2968SOL     OW 9802   0.950   3.550   6.312
 2968SOL    HW1 9803   0.915   3.630   6.264
 2968SOL    HW2 9804   0.935   3.468   6.256
 2969SOL     OW 9805   5.475   1.452   3.753
 2969SOL    HW1 9806   5.440   1.433   3.844
 2969SOL    HW2 9807   5.495   1.550   3.744
 2970SOL     OW 9808   1.914   5.012   6.108
 2970SOL    HW1 9809   1.894   4.953   6.029
 2970SOL    HW2 9810   2.012   5.009   6.128
 2971SOL     OW 9811   4.779   4.061   0.026
 2971SOL    HW1 9812   4.858   4.123   0.024
 2971SOL    HW2 9813   4.771   4.022   0.118
 2972SOL     OW 9814   6.440   4.630   6.392
 2972SOL    HW1 9815   6.421   4.573   6.472
 2972SOL    HW2 9816   6.404   4.584   6.310
 2973SOL     OW 9817   5.365   6.993   3.122
 2973SOL    HW1 9818   5.346   0.049   3.183
 2973SOL    HW2 9819   5.297   6.989   3.049
 2974SOL     OW 9820   0.542   4.762   2.822
 2974SOL    HW1 9821   0.592   4.822   2.759
 2974SOL    HW2 9822   0.584   4.672   2.823
 2975SOL     OW 9823   5.952   3.380   4.585
 2975SOL    HW1 9824   6.031   3.435   4.613
 2975SOL    HW2 9825   5.923   3.408   4.494
 2976SOL     OW 9826   3.986   2.137   3.584
 2976SOL    HW1 9827   3.905   2.114   3.637
 2976SOL    HW2 9828   3.971   2.115   3.488
 2977SOL     OW 9829   2.671   6.693   3.354
 2977SOL    HW1 9830   2.590   6.750   3.361
 2977SOL    HW2 9831   2.688   6.669   3.259
 2978SOL     OW 9832   4.874   4.387   0.236
 2978SOL    HW1 9833   4.928   4.307   0.209
 2978SOL    HW2 9834   4.936   4.457   0.273
 2979SOL     OW 9835   4.096   1.093   3.908
 2979SOL    HW1 9836   4.175   1.136   3.953
 2979SOL    HW2 9837   4.059   1.022   3.968
 2980SOL     OW 9838   1.321   6.222   4.050
 2980SOL    HW1 9839   1.287   6.316   4.055
 2980SOL    HW2 9840   1.261   6.163   4.104
 2981SOL     OW 9841   2.109   0.829   5.940
 2981SOL    HW1 9842   2.116   0.805   5.843
 2981SOL    HW2 9843   2.171   0.905   5.959
 2982SOL     OW 9844   4.102   5.285   2.978
 2982SOL    HW1 9845   4.096   5.366   3.036
 2982SOL    HW2 9846   4.187   5.289   2.924
 2983SOL     OW 9847   0.835   1.433   3.205
 2983SOL    HW1 9848   0.847   1.531   3.218
 2983SOL    HW2 9849   0.766   1.416   3.135
 2984SOL     OW 9850   5.532   5.579   1.536
 2984SOL    HW1 9851   5.436   5.605   1.543
 2984SOL    HW2 9852   5.539   5.485   1.505
 2985SOL     OW 9853   1.305   2.412   5.817
 2985SOL    HW1 9854   1.400   2.399   5.847
 2985SOL    HW2 9855   1.303   2.434   5.720
 2986SOL     OW 9856   3.280   3.769   5.153
 2986SOL    HW1 9857   3.307   3.685   5.106
 2986SOL    HW2 9858   3.199   3.808   5.108
 2987SOL     OW 9859   6.122   1.424   4.264
 2987SOL    HW1 9860   6.172   1.374   4.335
 2987SOL    HW2 9861   6.074   1.358   4.206
 2988SOL     OW 9862   0.921   5.871   2.614
 2988SOL    HW1 9863   1.000   5.932   2.623
 2988SOL    HW2 9864   0.925   5.826   2.525
 2989SOL     OW 9865   6.440   6.086   6.435
 2989SOL    HW1 9866   6.468   6.165   6.490
 2989SOL    HW2 9867   6.345   6.098   6.406
 2990SOL     OW 9868   4.065   1.934   4.703
 2990SOL    HW1 9869   4.104   1.892   4.621
 2990SOL    HW2 9870   3.968   1.911   4.710
 2991SOL     OW 9871   6.699   4.530   5.650
 2991SOL    HW1 9872   6.736   4.447   5.692
 2991SOL    HW2 9873   6.633   4.572   5.713
 2992SOL     OW 9874   2.800   5.888   4.938
 2992SOL    HW1 9875   2.764   5.795   4.929
 2992SOL    HW2 9876   2.797   5.934   4.849
 2993SOL     OW 9877   0.470   5.465   0.952
 2993SOL    HW1 9878   0.433   5.537   0.894
 2993SOL    HW2 9879   0.542   5.502   1.010
 2994SOL     OW 9880   4.218   6.917   0.038
 2994SOL    HW1 9881   4.226   6.967   0.124
 2994SOL    HW2 9882   4.157   6.839   0.050
 2995SOL     OW 9883   2.911   2.547   6.295
 2995SOL    HW1 9884   2.928   2.645   6.304
 2995SOL    HW2 9885   2.893   2.508   6.385
 2996SOL     OW 9886   1.972   1.015   3.127
 2996SOL    HW1 9887   2.021   1.093   3.089
 2996SOL    HW2 9888   1.891   1.046   3.176
 2997SOL     OW 9889   5.760   0.653   2.810
 2997SOL    HW1 9890   5.857   0.675   2.801
 2997SOL    HW2 9891   5.707   0.712   2.749
 2998SOL     OW 9892   4.372   0.343   4.209
 2998SOL    HW1 9893   4.380   0.286   4.291
 2998SOL    HW2 9894   4.279   0.379   4.202
 2999SOL     OW 9895   3.043   5.043   4.712
 2999SOL    HW1 9896   3.121   5.097   4.742
 2999SOL    HW2 9897   2.971   5.103   4.678
 3000SOL     OW 9898   2.841   3.495   6.922
 3000SOL    HW1 9899   2.865   3.445   6.838
 3000SOL    HW2 9900   2.750   3.536   6.912
 3001SOL     OW 9901   5.454   6.962   6.521
 3001SOL    HW1 9902   5.361   6.943   6.490
 3001SOL    HW2 9903   5.450   7.004   6.612
 3002SOL     OW 9904   3.826   1.089   0.080
 3002SOL    HW1 9905   3.778   1.001   0.085
 3002SOL    HW2 9906   3.814   1.129   7.010
 3003SOL     OW 9907   1.715   6.311   0.198
 3003SOL    HW1 9908   1.712   6.406   0.167
 3003SOL    HW2 9909   1.804   6.293   0.241
 3004SOL     OW 9910   1.009   4.555   3.077
 3004SOL    HW1 9911   0.944   4.631   3.075
 3004SOL    HW2 9912   1.091   4.582   3.127
 3005SOL     OW 9913   3.442   2.033   0.205
 3005SOL    HW1 9914   3.456   1.940   0.171
 3005SOL    HW2 9915   3.482   2.098   0.140
 3006SOL     OW 9916   5.178   1.476   5.719
 3006SOL    HW1 9917   5.171   1.574   5.701
 3006SOL    HW2 9918   5.122   1.426   5.653
 3007SOL     OW 9919   5.877   5.302   1.470
 3007SOL    HW1 9920   5.880   5.237   1.394
 3007SOL    HW2 9921   5.970   5.319   1.504
 3008SOL     OW 9922   3.959   1.982   6.215
 3008SOL    HW1 9923   4.037   2.033   6.178
 3008SOL    HW2 9924   3.887   2.047   6.240
 3009SOL     OW 9925   0.362   1.345   2.573
 3009SOL    HW1 9926   0.283   1.339   2.634
 3009SOL    HW2 9927   0.399   1.253   2.557
 3010SOL     OW 9928   3.732   5.712   2.979
 3010SOL    HW1 9929   3.825   5.743   2.958
 3010SOL    HW2 9930   3.720   5.706   3.078
 3011SOL     OW 9931   5.633   1.605   1.226
 3011SOL    HW1 9932   5.587   1.559   1.150
 3011SOL    HW2 9933   5.694   1.541   1.272
 3012SOL     OW 9934   1.210   3.934   5.894
 3012SOL    HW1 9935   1.193   3.893   5.805
 3012SOL    HW2 9936   1.146   4.010   5.909
 3013SOL     OW 9937   5.743   6.165   5.245
 3013SOL    HW1 9938   5.743   6.230   5.169
 3013SOL    HW2 9939   5.830   6.171   5.294
 3014SOL     OW 9940   5.007   2.530   4.680
 3014SOL    HW1 9941   5.088   2.565   4.727
 3014SOL    HW2 9942   4.961   2.604   4.632
 3015SOL     OW 9943   3.573   1.717   0.460
 3015SOL    HW1 9944   3.490   1.681   0.417
 3015SOL    HW2 9945   3.577   1.816   0.450
 3016SOL     OW 9946   2.166   5.694   3.966
 3016SOL    HW1 9947   2.133   5.774   4.015
 3016SOL    HW2 9948   2.263   5.706   3.945
 3017SOL     OW 9949   6.407   5.031   2.460
 3017SOL    HW1 9950   6.475   5.065   2.525
 3017SOL    HW2 9951   6.432   5.062   2.368
 3018SOL     OW 9952   3.272   6.249   5.854
 3018SOL    HW1 9953   3.293   6.154   5.877
 3018SOL    HW2 9954   3.178   6.254   5.819
 3019SOL     OW 9955   0.550   6.902   6.438
 3019SOL    HW1 9956   0.450   6.893   6.440
 3019SOL    HW2 9957   0.581   6.941   6.525
 3020SOL     OW 9958   4.138   3.031   1.813
 3020SOL    HW1 9959   4.125   2.938   1.778
 3020SOL    HW2 9960   4.224   3.068   1.779
 3021SOL     OW 9961   2.983   6.562   6.821
 3021SOL    HW1 9962   2.886   6.583   6.835
 3021SOL    HW2 9963   3.007   6.478   6.869
 3022SOL     OW 9964   3.567   5.384   4.097
 3022SOL    HW1 9965   3.600   5.295   4.065
 3022SOL    HW2 9966   3.500   5.370   4.170
 3023SOL     OW 9967   4.144   0.432   2.920
 3023SOL    HW1 9968   4.101   0.478   2.998
 3023SOL    HW2 9969   4.112   0.338   2.915
 3024SOL     OW 9970   4.461   6.790   5.308
 3024SOL    HW1 9971   4.401   6.805   5.230
 3024SOL    HW2 9972   4.549   6.756   5.277
 3025SOL     OW 9973   3.162   1.261   0.388
 3025SOL    HW1 9974   3.084   1.295   0.335
 3025SOL    HW2 9975   3.135   1.178   0.437
 3026SOL     OW 9976   1.318   0.525   0.824
 3026SOL    HW1 9977   1.313   0.624   0.835
 3026SOL    HW2 9978   1.337   0.503   0.728
 3027SOL     OW 9979   3.776   0.391   2.920
 3027SOL    HW1 9980   3.813   0.474   2.960
 3027SOL    HW2 9981   3.850   0.327   2.899
 3028SOL     OW 9982   1.053   4.102   5.401
 3028SOL    HW1 9983   1.142   4.144   5.420
 3028SOL    HW2 9984   1.047   4.078   5.304
 3029SOL     OW 9985   0.206   2.770   4.577
 3029SOL    HW1 9986   0.279   2.758   4.644
 3029SOL    HW2 9987   0.129   2.711   4.600
 3030SOL     OW 9988   0.495   3.213   6.156
 3030SOL    HW1 9989   0.490   3.200   6.255
 3030SOL    HW2 9990   0.583   3.179   6.123
 3031SOL     OW 9991   0.447   3.700   0.343
 3031SOL    HW1 9992   0.365   3.745   0.377
 3031SOL    HW2 9993   0.507   3.767   0.299
 3032SOL     OW 9994   3.707   6.954   1.391
 3032SOL    HW1 9995   3.670   0.025   1.370
 3032SOL    HW2 9996   3.774   6.962   1.465
 3033SOL     OW 9997   6.306   1.898   1.942
 3033SOL    HW1 9998   6.246   1.827   1.977
 3033SOL    HW2 9999   6.399   1.884   1.978
 3034SOL     OW10000   1.370   5.858   2.949
 3034SOL    HW110001   1.413   5.949   2.953
 3034SOL    HW210002   1.313   5.845   3.030
 3035SOL     OW10003   0.566   3.232   6.774
 3035SOL    HW110004   0.655   3.239   6.730
 3035SOL    HW210005   0.577   3.224   6.873
 3036SOL     OW10006   1.847   1.623   6.433
 3036SOL    HW110007   1.797   1.538   6.420
 3036SOL    HW210008   1.929   1.606   6.488
 3037SOL     OW10009   6.698   5.297   5.587
 3037SOL    HW110010   6.771   5.263   5.527
 3037SOL    HW210011   6.665   5.385   5.553
 3038SOL     OW10012   5.763   6.311   6.460
 3038SOL    HW110013   5.786   6.408   6.465
 3038SOL    HW210014   5.680   6.299   6.406
 3039SOL     OW10015   0.201   3.830   0.837
 3039SOL    HW110016   0.257   3.765   0.786
 3039SOL    HW210017   0.141   3.781   0.900
 3040SOL     OW10018   3.777   3.694   6.310
 3040SOL    HW110019   3.783   3.683   6.211
 3040SOL    HW210020   3.836   3.770   6.339
 3041SOL     OW10021   2.438   2.681   4.139
 3041SOL    HW110022   2.342   2.678   4.168
 3041SOL    HW210023   2.497   2.687   4.220
 3042SOL     OW10024   4.027   6.040   2.004
 3042SOL    HW110025   4.113   6.069   1.961
 3042SOL    HW210026   3.957   6.027   1.933
 3043SOL     OW10027   2.215   5.028   1.555
 3043SOL    HW110028   2.212   5.034   1.655
 3043SOL    HW210029   2.204   5.119   1.516
 3044SOL     OW10030   3.510   3.875   5.800
 3044SOL    HW110031   3.569   3.865   5.720
 3044SOL    HW210032   3.546   3.820   5.875
 3045SOL     OW10033   4.632   0.584   2.949
 3045SOL    HW110034   4.722   0.541   2.952
 3045SOL    HW210035   4.561   0.515   2.937
 3046SOL     OW10036   2.020   0.851   6.585
 3046SOL    HW110037   1.940   0.811   6.630
 3046SOL    HW210038   2.028   0.813   6.493
 3047SOL     OW10039   5.715   0.858   2.078
 3047SOL    HW110040   5.772   0.776   2.079
 3047SOL    HW210041   5.712   0.895   1.985
 3048SOL     OW10042   3.873   2.252   1.732
 3048SOL    HW110043   3.800   2.235   1.799
 3048SOL    HW210044   3.838   2.313   1.660
 3049SOL     OW10045   0.867   6.511   2.142
 3049SOL    HW110046   0.920   6.539   2.062
 3049SOL    HW210047   0.772   6.493   2.114
 3050SOL     OW10048   3.214   0.988   1.952
 3050SOL    HW110049   3.284   0.973   1.883
 3050SOL    HW210050   3.149   0.912   1.950
 3051SOL     OW10051   2.250   4.040   0.117
 3051SOL    HW110052   2.153   4.049   0.094
 3051SOL    HW210053   2.299   3.997   0.041
 3052SOL     OW10054   5.731   0.079   1.664
 3052SOL    HW110055   5.737   0.130   1.578
 3052SOL    HW210056   5.635   0.071   1.691
 3053SOL     OW10057   0.040   1.680   6.757
 3053SOL    HW110058   0.033   1.780   6.756
 3053SOL    HW210059   0.059   1.647   6.664
 3054SOL     OW10060   6.601   2.043   0.525
 3054SOL    HW110061   6.509   2.002   0.524
 3054SOL    HW210062   6.668   1.973   0.500
 3055SOL     OW10063   4.928   0.045   4.022
 3055SOL    HW110064   4.965   0.101   3.948
 3055SOL    HW210065   4.850   0.093   4.064
 3056SOL     OW10066   5.818   0.372   4.769
 3056SOL    HW110067   5.847   0.294   4.826
 3056SOL    HW210068   5.783   0.445   4.828
 3057SOL     OW10069   4.033   5.939   2.849
 3057SOL    HW110070   3.934   5.947   2.864
 3057SOL    HW210071   4.075   6.030   2.854
 3058SOL     OW10072   0.330   5.227   0.987
 3058SOL    HW110073   0.371   5.314   0.960
 3058SOL    HW210074   0.236   5.222   0.953
 3059SOL     OW10075   2.741   2.400   4.310
 3059SOL    HW110076   2.819   2.383   4.250
 3059SOL    HW210077   2.659   2.416   4.256
 3060SOL     OW10078   0.671   5.435   0.217
 3060SOL    HW110079   0.657   5.340   0.245
 3060SOL    HW210080   0.723   5.437   0.132
 3061SOL     OW10081   0.026   6.904   5.567
 3061SOL    HW110082   0.042   6.965   5.490
 3061SOL    HW210083   7.015   6.815   5.533
 3062SOL     OW10084   1.573   0.208   0.049
 3062SOL    HW110085   1.551   0.136   7.004
 3062SOL    HW210086   1.567   0.297   0.004
 3063SOL     OW10087   2.732   5.014   2.122
 3063SOL    HW110088   2.685   4.929   2.146
 3063SOL    HW210089   2.666   5.077   2.079
 3064SOL     OW10090   5.691   4.257   3.253
 3064SOL    HW110091   5.630   4.335   3.270
 3064SOL    HW210092   5.750   4.277   3.175
 3065SOL     OW10093   2.483   0.700   0.652
 3065SOL    HW110094   2.464   0.798   0.663
 3065SOL    HW210095   2.399   0.648   0.664
 3066SOL     OW10096   5.286   5.252   0.763
 3066SOL    HW110097   5.302   5.284   0.856
 3066SOL    HW210098   5.218   5.180   0.763
 3067SOL     OW10099   3.885   2.257   5.205
 3067SOL    HW110100   3.901   2.172   5.154
 3067SOL    HW210101   3.797   2.250   5.253
 3068SOL     OW10102   6.413   0.008   1.421
 3068SOL    HW110103   6.323   6.989   1.439
 3068SOL    HW210104   6.448   6.994   1.333
 3069SOL     OW10105   6.588   6.241   1.747
 3069SOL    HW110106   6.555   6.208   1.659
 3069SOL    HW210107   6.688   6.240   1.748
 3070SOL     OW10108   2.040   1.764   0.760
 3070SOL    HW110109   2.058   1.677   0.806
 3070SOL    HW210110   2.109   1.831   0.788
 3071SOL     OW10111   6.038   6.414   3.190
 3071SOL    HW110112   6.131   6.385   3.209
 3071SOL    HW210113   6.005   6.473   3.265
 3072SOL     OW10114   1.659   6.610   0.155
 3072SOL    HW110115   1.570   6.569   0.174
 3072SOL    HW210116   1.650   6.709   0.151
 3073SOL     OW10117   6.504   3.094   4.111
 3073SOL    HW110118   6.584   3.133   4.064
 3073SOL    HW210119   6.500   3.129   4.204
 3074SOL     OW10120   6.106   3.421   1.222
 3074SOL    HW110121   6.060   3.345   1.176
 3074SOL    HW210122   6.038   3.489   1.249
 3075SOL     OW10123   2.586   5.940   2.076
 3075SOL    HW110124   2.510   5.984   2.123
 3075SOL    HW210125   2.552   5.890   1.996
 3076SOL     OW10126   6.607   0.085   4.630
 3076SOL    HW110127   6.557   0.029   4.564
 3076SOL    HW210128   6.563   0.077   4.719
 3077SOL     OW10129   4.786   5.756   2.064
 3077SOL    HW110130   4.774   5.721   2.157
 3077SOL    HW210131   4.720   5.711   2.003
 3078SOL     OW10132   0.483   2.821   2.167
 3078SOL    HW110133   0.453   2.764   2.091
 3078SOL    HW210134   0.454   2.780   2.254
 3079SOL     OW10135   2.525   2.473   3.742
 3079SOL    HW110136   2.515   2.405   3.669
 3079SOL    HW210137   2.578   2.434   3.817
 3080SOL     OW10138   4.843   3.889   3.318
 3080SOL    HW110139   4.752   3.923   3.342
 3080SOL    HW210140   4.865   3.917   3.225
 3081SOL     OW10141   0.305   2.469   5.928
 3081SOL    HW110142   0.321   2.474   6.026
 3081SOL    HW210143   0.383   2.509   5.879
 3082SOL     OW10144   2.681   6.328   3.881
 3082SOL    HW110145   2.723   6.237   3.872
 3082SOL    HW210146   2.631   6.350   3.798
 3083SOL     OW10147   3.847   5.859   3.425
 3083SOL    HW110148   3.891   5.899   3.505
 3083SOL    HW210149   3.807   5.771   3.450
 3084SOL     OW10150   6.170   4.050   4.773
 3084SOL    HW110151   6.267   4.037   4.753
 3084SOL    HW210152   6.149   4.009   4.862
 3085SOL     OW10153   6.479   4.206   1.204
 3085SOL    HW110154   6.568   4.246   1.183
 3085SOL    HW210155   6.451   4.144   1.131
 3086SOL     OW10156   4.484   1.423   1.699
 3086SOL    HW110157   4.393   1.453   1.727
 3086SOL    HW210158   4.475   1.352   1.629
 3087SOL     OW10159   0.263   5.434   3.764
 3087SOL    HW110160   0.196   5.497   3.725
 3087SOL    HW210161   0.312   5.388   3.690
 3088SOL     OW10162   1.493   4.538   5.066
 3088SOL    HW110163   1.541   4.578   5.144
 3088SOL    HW210164   1.466   4.444   5.088
 3089SOL     OW10165   1.396   3.524   6.623
 3089SOL    HW110166   1.315   3.531   6.564
 3089SOL    HW210167   1.477   3.511   6.566
 3090SOL     OW10168   2.244   2.115   1.871
 3090SOL    HW110169   2.285   2.170   1.944
 3090SOL    HW210170   2.246   2.168   1.786
 3091SOL     OW10171   1.851   1.166   0.793
 3091SOL    HW110172   1.936   1.113   0.796
 3091SOL    HW210173   1.860   1.247   0.850
 3092SOL     OW10174   4.729   0.651   0.190
 3092SOL    HW110175   4.702   0.729   0.134
 3092SOL    HW210176   4.822   0.664   0.223
 3093SOL     OW10177   5.673   6.736   5.880
 3093SOL    HW110178   5.676   6.637   5.870
 3093SOL    HW210179   5.765   6.771   5.897
 3094SOL     OW10180   2.117   6.689   4.219
 3094SOL    HW110181   2.040   6.744   4.186
 3094SOL    HW210182   2.131   6.611   4.158
 3095SOL     OW10183   2.016   5.186   5.427
 3095SOL    HW110184   2.076   5.108   5.445
 3095SOL    HW210185   1.921   5.155   5.427
 3096SOL     OW10186   1.550   6.050   4.990
 3096SOL    HW110187   1.535   6.001   4.904
 3096SOL    HW210188   1.648   6.053   5.009
 3097SOL     OW10189   6.172   2.252   0.015
 3097SOL    HW110190   6.148   2.232   6.940
 3097SOL    HW210191   6.107   2.207   0.076
 3098SOL     OW10192   2.998   3.417   1.062
 3098SOL    HW110193   2.967   3.390   1.154
 3098SOL    HW210194   3.097   3.430   1.062
 3099SOL     OW10195   0.609   6.516   3.031
 3099SOL    HW110196   0.599   6.463   2.947
 3099SOL    HW210197   0.654   6.460   3.101
 3100SOL     OW10198   6.538   6.427   4.322
 3100SOL    HW110199   6.573   6.428   4.416
 3100SOL    HW210200   6.444   6.461   4.321
 3101SOL     OW10201   5.514   6.740   6.353
 3101SOL    HW110202   5.505   6.837   6.379
 3101SOL    HW210203   5.592   6.730   6.292
 3102SOL     OW10204   0.119   5.234   1.889
 3102SOL    HW110205   0.097   5.136   1.893
 3102SOL    HW210206   0.214   5.248   1.917
 3103SOL     OW10207   4.085   0.361   2.535
 3103SOL    HW110208   3.995   0.375   2.575
 3103SOL    HW210209   4.098   0.425   2.458
 3104SOL     OW10210   5.091   0.169   4.807
 3104SOL    HW110211   5.146   0.196   4.728
 3104SOL    HW210212   5.114   0.227   4.886
 3105SOL     OW10213   6.089   4.751   1.708
 3105SOL    HW110214   6.087   4.733   1.806
 3105SOL    HW210215   6.150   4.686   1.663
 3106SOL     OW10216   6.687   1.625   3.118
 3106SOL    HW110217   6.683   1.635   3.217
 3106SOL    HW210218   6.773   1.581   3.092
 3107SOL     OW10219   4.312   1.270   5.037
 3107SOL    HW110220   4.223   1.309   5.013
 3107SOL    HW210221   4.347   1.217   4.959
 3108SOL     OW10222   1.312   6.454   4.338
 3108SOL    HW110223   1.293   6.480   4.243
 3108SOL    HW210224   1.410   6.437   4.349
 3109SOL     OW10225   6.013   6.133   2.951
 3109SOL    HW110226   5.939   6.082   2.995
 3109SOL    HW210227   5.974   6.211   2.903
 3110SOL     OW10228   1.774   2.216   3.110
 3110SOL    HW110229   1.805   2.121   3.108
 3110SOL    HW210230   1.813   2.266   3.033
 3111SOL     OW10231   6.537   5.521   3.755
 3111SOL    HW110232   6.578   5.485   3.839
 3111SOL    HW210233   6.473   5.454   3.718
 3112SOL     OW10234   5.276   2.335   6.633
 3112SOL    HW110235   5.355   2.356   6.576
 3112SOL    HW210236   5.236   2.420   6.667
 3113SOL     OW10237   2.509   5.934   3.498
 3113SOL    HW110238   2.494   5.837   3.480
 3113SOL    HW210239   2.436   5.969   3.558
 3114SOL     OW10240   4.242   1.500   1.182
 3114SOL    HW110241   4.244   1.453   1.094
 3114SOL    HW210242   4.147   1.521   1.206
 3115SOL     OW10243   3.954   3.608   6.570
 3115SOL    HW110244   3.922   3.620   6.664
 3115SOL    HW210245   3.878   3.584   6.510
 3116SOL     OW10246   0.837   2.983   6.677
 3116SOL    HW110247   0.764   2.919   6.653
 3116SOL    HW210248   0.833   3.003   6.775
 3117SOL     OW10249   4.503   3.634   5.342
 3117SOL    HW110250   4.413   3.617   5.303
 3117SOL    HW210251   4.573   3.604   5.277
 3118SOL     OW10252   0.728   5.431   1.803
 3118SOL    HW110253   0.705   5.352   1.860
 3118SOL    HW210254   0.798   5.406   1.736
 3119SOL     OW10255   1.774   3.472   5.875
 3119SOL    HW110256   1.757   3.374   5.890
 3119SOL    HW210257   1.851   3.483   5.812
 3120SOL     OW10258   3.379   6.711   4.747
 3120SOL    HW110259   3.402   6.788   4.688
 3120SOL    HW210260   3.280   6.696   4.747
 3121SOL     OW10261   0.255   1.202   3.777
 3121SOL    HW110262   0.222   1.213   3.870
 3121SOL    HW210263   0.261   1.105   3.754
 3122SOL     OW10264   3.573   6.837   5.839
 3122SOL    HW110265   3.569   6.812   5.742
 3122SOL    HW210266   3.597   6.757   5.893
 3123SOL     OW10267   3.373   1.290   3.924
 3123SOL    HW110268   3.430   1.228   3.979
 3123SOL    HW210269   3.295   1.320   3.978
 3124SOL     OW10270   3.727   0.241   4.566
 3124SOL    HW110271   3.760   0.315   4.624
 3124SOL    HW210272   3.628   0.231   4.579
 3125SOL     OW10273   6.802   2.554   4.924
 3125SOL    HW110274   6.717   2.518   4.885
 3125SOL    HW210275   6.860   2.590   4.851
 3126SOL     OW10276   5.209   5.167   5.728
 3126SOL    HW110277   5.163   5.091   5.683
 3126SOL    HW210278   5.147   5.245   5.732
 3127SOL     OW10279   1.157   3.244   4.356
 3127SOL    HW110280   1.253   3.260   4.380
 3127SOL    HW210281   1.132   3.151   4.383
 3128SOL     OW10282   2.736   0.722   6.588
 3128SOL    HW110283   2.697   0.667   6.662
 3128SOL    HW210284   2.665   0.741   6.521
 3129SOL     OW10285   6.727   3.768   6.162
 3129SOL    HW110286   6.760   3.730   6.076
 3129SOL    HW210287   6.727   3.697   6.232
 3130SOL     OW10288   2.083   3.925   1.591
 3130SOL    HW110289   2.034   3.910   1.677
 3130SOL    HW210290   2.064   4.017   1.557
 3131SOL     OW10291   6.790   2.139   1.239
 3131SOL    HW110292   6.851   2.216   1.221
 3131SOL    HW210293   6.844   2.058   1.263
 3132SOL     OW10294   4.386   5.492   5.923
 3132SOL    HW110295   4.481   5.471   5.946
 3132SOL    HW210296   4.339   5.407   5.898
 3133SOL     OW10297   3.563   1.572   4.388
 3133SOL    HW110298   3.537   1.476   4.381
 3133SOL    HW210299   3.638   1.591   4.324
 3134SOL     OW10300   4.932   4.060   1.330
 3134SOL    HW110301   4.921   4.126   1.404
 3134SOL    HW210302   4.850   4.004   1.322
 3135SOL     OW10303   4.794   0.612   5.823
 3135SOL    HW110304   4.858   0.555   5.772
 3135SOL    HW210305   4.796   0.586   5.920
 3136SOL     OW10306   5.547   0.800   0.635
 3136SOL    HW110307   5.500   0.841   0.556
 3136SOL    HW210308   5.631   0.755   0.604
 3137SOL     OW10309   6.426   1.066   3.283
 3137SOL    HW110310   6.407   0.987   3.224
 3137SOL    HW210311   6.439   1.148   3.226
 3138SOL     OW10312   6.504   3.932   4.082
 3138SOL    HW110313   6.555   3.863   4.031
 3138SOL    HW210314   6.419   3.954   4.032
 3139SOL     OW10315   5.389   6.456   0.500
 3139SOL    HW110316   5.351   6.432   0.411
 3139SOL    HW210317   5.321   6.505   0.554
 3140SOL     OW10318   5.797   0.354   6.841
 3140SOL    HW110319   5.849   0.370   6.757
 3140SOL    HW210320   5.822   0.266   6.880
 3141SOL     OW10321   0.132   6.257   6.781
 3141SOL    HW110322   0.208   6.192   6.773
 3141SOL    HW210323   0.064   6.221   6.843
 3142SOL     OW10324   3.259   6.428   1.804
 3142SOL    HW110325   3.271   6.512   1.753
 3142SOL    HW210326   3.211   6.360   1.748
 3143SOL     OW10327   6.741   1.611   6.450
 3143SOL    HW110328   6.705   1.675   6.518
 3143SOL    HW210329   6.835   1.587   6.475
 3144SOL     OW10330   4.449   4.139   1.505
 3144SOL    HW110331   4.508   4.199   1.560
 3144SOL    HW210332   4.370   4.112   1.558
 3145SOL     OW10333   2.286   5.927   1.185
 3145SOL    HW110334   2.217   5.970   1.126
 3145SOL    HW210335   2.338   5.998   1.232
 3146SOL     OW10336   1.272   7.016   3.032
 3146SOL    HW110337   1.248   0.010   2.936
 3146SOL    HW210338   1.227   6.934   3.066
 3147SOL     OW10339   3.361   5.025   0.752
 3147SOL    HW110340   3.326   5.003   0.844
 3147SOL    HW210341   3.458   5.002   0.748
 3148SOL     OW10342   5.253   5.850   4.972
 3148SOL    HW110343   5.215   5.771   5.021
 3148SOL    HW210344   5.351   5.838   4.961
 3149SOL     OW10345   2.475   0.945   6.133
 3149SOL    HW110346   2.515   0.993   6.211
 3149SOL    HW210347   2.408   1.004   6.088
 3150SOL     OW10348   6.007   6.146   3.859
 3150SOL    HW110349   5.990   6.080   3.786
 3150SOL    HW210350   5.928   6.147   3.921
 3151SOL     OW10351   5.177   1.078   5.770
 3151SOL    HW110352   5.119   1.124   5.837
 3151SOL    HW210353   5.128   1.001   5.730
 3152SOL     OW10354   1.498   5.845   0.209
 3152SOL    HW110355   1.498   5.765   0.268
 3152SOL    HW210356   1.431   5.832   0.135
 3153SOL     OW10357   6.220   4.974   2.099
 3153SOL    HW110358   6.133   5.020   2.117
 3153SOL    HW210359   6.205   4.894   2.041
 3154SOL     OW10360   6.016   1.096   6.715
 3154SOL    HW110361   6.111   1.066   6.723
 3154SOL    HW210362   5.969   1.041   6.647
 3155SOL     OW10363   6.037   4.390   1.484
 3155SOL    HW110364   5.997   4.343   1.563
 3155SOL    HW210365   6.127   4.426   1.509
 3156SOL     OW10366   3.185   3.034   3.526
 3156SOL    HW110367   3.263   2.972   3.516
 3156SOL    HW210368   3.173   3.057   3.623
 3157SOL     OW10369   2.658   2.261   5.076
 3157SOL    HW110370   2.630   2.338   5.018
 3157SOL    HW210371   2.737   2.287   5.132
 3158SOL     OW10372   4.280   0.162   2.957
 3158SOL    HW110373   4.334   0.172   3.040
 3158SOL    HW210374   4.306   0.233   2.891
 3159SOL     OW10375   5.292   1.614   6.882
 3159SOL    HW110376   5.270   1.592   6.977
 3159SOL    HW210377   5.341   1.700   6.878
 3160SOL     OW10378   0.515   6.440   5.699
 3160SOL    HW110379   0.580   6.515   5.698
 3160SOL    HW210380   0.499   6.408   5.605
 3161SOL     OW10381   1.677   1.687   3.111
 3161SOL    HW110382   1.631   1.624   3.173
 3161SOL    HW210383   1.681   1.647   3.019
 3162SOL     OW10384   1.267   6.574   1.916
 3162SOL    HW110385   1.278   6.666   1.880
 3162SOL    HW210386   1.357   6.534   1.933
 3163SOL     OW10387   4.384   2.379   6.184
 3163SOL    HW110388   4.357   2.296   6.234
 3163SOL    HW210389   4.436   2.353   6.103
 3164SOL     OW10390   4.736   4.301   1.241
 3164SOL    HW110391   4.787   4.261   1.166
 3164SOL    HW210392   4.645   4.261   1.246
 3165SOL     OW10393   0.833   6.142   0.621
 3165SOL    HW110394   0.824   6.111   0.527
 3165SOL    HW210395   0.801   6.236   0.629
 3166SOL     OW10396   4.725   2.114   5.492
 3166SOL    HW110397   4.803   2.128   5.432
 3166SOL    HW210398   4.695   2.203   5.528
 3167SOL     OW10399   6.595   3.556   1.316
 3167SOL    HW110400   6.622   3.633   1.373
 3167SOL    HW210401   6.499   3.533   1.334
 3168SOL     OW10402   4.766   2.253   0.161
 3168SOL    HW110403   4.748   2.182   0.093
 3168SOL    HW210404   4.690   2.257   0.226
 3169SOL     OW10405   1.406   3.860   5.081
 3169SOL    HW110406   1.489   3.859   5.026
 3169SOL    HW210407   1.337   3.799   5.041
 3170SOL     OW10408   3.871   0.649   0.938
 3170SOL    HW110409   3.827   0.628   0.851
 3170SOL    HW210410   3.934   0.575   0.962
 3171SOL     OW10411   0.261   6.807   1.381
 3171SOL    HW110412   0.280   6.888   1.438
 3171SOL    HW210413   0.254   6.835   1.286
 3172SOL     OW10414   0.433   5.126   6.978
 3172SOL    HW110415   0.415   5.060   6.905
 3172SOL    HW210416   0.365   5.200   6.974
 3173SOL     OW10417   3.019   2.148   0.410
 3173SOL    HW110418   3.092   2.092   0.449
 3173SOL    HW210419   2.943   2.089   0.381
 3174SOL     OW10420   3.129   2.752   6.346
 3174SOL    HW110421   3.127   2.793   6.437
 3174SOL    HW210422   3.176   2.812   6.282
 3175SOL     OW10423   6.875   0.204   0.629
 3175SOL    HW110424   6.925   0.127   0.668
 3175SOL    HW210425   6.789   0.217   0.679
 3176SOL     OW10426   1.293   4.859   4.898
 3176SOL    HW110427   1.349   4.942   4.902
 3176SOL    HW210428   1.255   4.840   4.989
 3177SOL     OW10429   4.695   4.457   4.082
 3177SOL    HW110430   4.635   4.490   4.009
 3177SOL    HW210431   4.667   4.497   4.169
 3178SOL     OW10432   6.359   1.922   0.245
 3178SOL    HW110433   6.312   1.840   0.215
 3178SOL    HW210434   6.370   1.920   0.345
 3179SOL     OW10435   1.798   3.036   2.125
 3179SOL    HW110436   1.780   3.041   2.223
 3179SOL    HW210437   1.890   3.070   2.107
 3180SOL     OW10438   4.051   1.409   7.016
 3180SOL    HW110439   3.957   1.406   6.982
 3180SOL    HW210440   4.054   1.455   0.084
 3181SOL     OW10441   0.877   1.293   2.489
 3181SOL    HW110442   0.932   1.254   2.562
 3181SOL    HW210443   0.859   1.390   2.509
 3182SOL     OW10444   2.482   1.650   5.379
 3182SOL    HW110445   2.435   1.731   5.345
 3182SOL    HW210446   2.528   1.604   5.304
 3183SOL     OW10447   4.236   4.145   1.705
 3183SOL    HW110448   4.151   4.195   1.686
 3183SOL    HW210449   4.295   4.200   1.764
 3184SOL     OW10450   1.055   2.388   2.611
 3184SOL    HW110451   1.143   2.350   2.640
 3184SOL    HW210452   1.068   2.483   2.583
 3185SOL     OW10453   6.167   5.705   0.190
 3185SOL    HW110454   6.096   5.660   0.243
 3185SOL    HW210455   6.239   5.739   0.252
 3186SOL     OW10456   3.857   1.821   2.105
 3186SOL    HW110457   3.778   1.841   2.163
 3186SOL    HW210458   3.916   1.754   2.151
 3187SOL     OW10459   4.827   3.890   0.636
 3187SOL    HW110460   4.901   3.828   0.664
 3187SOL    HW210461   4.760   3.840   0.582
 3188SOL     OW10462   3.743   6.443   4.482
 3188SOL    HW110463   3.801   6.520   4.457
 3188SOL    HW210464   3.766   6.412   4.574
 3189SOL     OW10465   1.832   1.543   1.912
 3189SOL    HW110466   1.736   1.565   1.895
 3189SOL    HW210467   1.864   1.477   1.845
 3190SOL     OW10468   0.150   6.458   0.622
 3190SOL    HW110469   0.215   6.382   0.631
 3190SOL    HW210470   0.059   6.421   0.606
 3191SOL     OW10471   4.272   6.792   0.422
 3191SOL    HW110472   4.319   6.852   0.487
 3191SOL    HW210473   4.295   6.697   0.442
 3192SOL     OW10474   0.299   2.605   0.528
 3192SOL    HW110475   0.325   2.564   0.615
 3192SOL    HW210476   0.200   2.617   0.525
 3193SOL     OW10477   4.257   1.779   6.130
 3193SOL    HW110478   4.190   1.774   6.205
 3193SOL    HW210479   4.246   1.865   6.082
 3194SOL     OW10480   0.249   3.285   5.753
 3194SOL    HW110481   0.208   3.366   5.795
 3194SOL    HW210482   0.205   3.265   5.666
 3195SOL     OW10483   2.858   2.278   3.352
 3195SOL    HW110484   2.948   2.246   3.322
 3195SOL    HW210485   2.865   2.312   3.446
 3196SOL     OW10486   0.567   0.737   5.332
 3196SOL    HW110487   0.659   0.715   5.366
 3196SOL    HW210488   0.505   0.752   5.409
 3197SOL     OW10489   1.384   6.181   3.786
 3197SOL    HW110490   1.437   6.265   3.773
 3197SOL    HW210491   1.362   6.171   3.883
 3198SOL     OW10492   6.149   2.190   5.540
 3198SOL    HW110493   6.130   2.240   5.456
 3198SOL    HW210494   6.155   2.254   5.617
 3199SOL     OW10495   4.801   2.793   1.885
 3199SOL    HW110496   4.749   2.712   1.911
 3199SOL    HW210497   4.772   2.871   1.941
 3200SOL     OW10498   6.773   2.534   1.791
 3200SOL    HW110499   6.687   2.549   1.840
 3200SOL    HW210500   6.757   2.474   1.712
 3201SOL     OW10501   4.977   4.118   4.465
 3201SOL    HW110502   4.886   4.087   4.492
 3201SOL    HW210503   4.972   4.213   4.433
 3202SOL     OW10504   1.329   4.544   1.399
 3202SOL    HW110505   1.300   4.456   1.436
 3202SOL    HW210506   1.271   4.568   1.322
 3203SOL     OW10507   6.247   2.702   6.288
 3203SOL    HW110508   6.267   2.742   6.377
 3203SOL    HW210509   6.208   2.772   6.228
 3204SOL     OW10510   4.304   6.755   2.113
 3204SOL    HW110511   4.400   6.781   2.122
 3204SOL    HW210512   4.273   6.712   2.197
 3205SOL     OW10513   0.007   3.555   6.973
 3205SOL    HW110514   7.016   3.503   0.038
 3205SOL    HW210515   6.987   3.646   6.983
 3206SOL     OW10516   0.114   7.010   6.165
 3206SOL    HW110517   0.199   6.970   6.199
 3206SOL    HW210518   0.125   0.013   6.068
 3207SOL     OW10519   0.599   1.289   5.783
 3207SOL    HW110520   0.510   1.283   5.828
 3207SOL    HW210521   0.624   1.198   5.748
 3208SOL     OW10522   5.040   6.502   5.207
 3208SOL    HW110523   5.113   6.519   5.274
 3208SOL    HW210524   5.005   6.590   5.174
 3209SOL     OW10525   4.125   5.474   3.173
 3209SOL    HW110526   4.190   5.549   3.162
 3209SOL    HW210527   4.065   5.494   3.251
 3210SOL     OW10528   0.630   4.019   1.459
 3210SOL    HW110529   0.590   4.110   1.467
 3210SOL    HW210530   0.557   3.952   1.440
 3211SOL     OW10531   2.304   3.198   1.024
 3211SOL    HW110532   2.367   3.181   0.948
 3211SOL    HW210533   2.284   3.296   1.030
 3212SOL     OW10534   2.923   1.210   0.240
 3212SOL    HW110535   2.848   1.197   0.175
 3212SOL    HW210536   2.891   1.188   0.332
 3213SOL     OW10537   6.534   5.682   2.671
 3213SOL    HW110538   6.623   5.699   2.629
 3213SOL    HW210539   6.463   5.678   2.600
 3214SOL     OW10540   4.684   5.702   0.859
 3214SOL    HW110541   4.775   5.699   0.818
 3214SOL    HW210542   4.658   5.610   0.888
 3215SOL     OW10543   0.348   3.280   0.888
 3215SOL    HW110544   0.388   3.197   0.926
 3215SOL    HW210545   0.352   3.276   0.788
 3216SOL     OW10546   5.698   5.563   1.772
 3216SOL    HW110547   5.628   5.531   1.835
 3216SOL    HW210548   5.655   5.593   1.687
 3217SOL     OW10549   0.459   5.534   2.804
 3217SOL    HW110550   0.450   5.544   2.705
 3217SOL    HW210551   0.425   5.616   2.849
 3218SOL     OW10552   4.108   6.998   4.005
 3218SOL    HW110553   4.073   0.008   4.093
 3218SOL    HW210554   4.032   6.972   3.946
 3219SOL     OW10555   0.182   2.212   3.214
 3219SOL    HW110556   0.215   2.181   3.303
 3219SOL    HW210557   0.222   2.301   3.192
 3220SOL     OW10558   6.427   6.179   5.979
 3220SOL    HW110559   6.390   6.267   5.950
 3220SOL    HW210560   6.505   6.154   5.921
 3221SOL     OW10561   2.974   6.931   1.570
 3221SOL    HW110562   2.969   6.857   1.502
 3221SOL    HW210563   2.884   6.974   1.578
 3222SOL     OW10564   4.274   1.434   3.085
 3222SOL    HW110565   4.205   1.363   3.097
 3222SOL    HW210566   4.324   1.447   3.171
 3223SOL     OW10567   1.722   5.551   6.906
 3223SOL    HW110568   1.697   5.645   6.882
 3223SOL    HW210569   1.818   5.535   6.883
 3224SOL     OW10570   4.340   3.783   6.303
 3224SOL    HW110571   4.263   3.719   6.300
 3224SOL    HW210572   4.423   3.733   6.329
 3225SOL     OW10573   4.467   3.284   5.353
 3225SOL    HW110574   4.439   3.193   5.322
 3225SOL    HW210575   4.447   3.293   5.451
 3226SOL     OW10576   1.675   1.810   4.310
 3226SOL    HW110577   1.662   1.811   4.211
 3226SOL    HW210578   1.587   1.815   4.356
 3227SOL     OW10579   3.077   2.290   6.263
 3227SOL    HW110580   2.983   2.323   6.266
 3227SOL    HW210581   3.134   2.347   6.323
 3228SOL     OW10582   5.658   3.779   2.982
 3228SOL    HW110583   5.608   3.826   2.909
 3228SOL    HW210584   5.669   3.841   3.060
 3229SOL     OW10585   3.402   1.678   5.371
 3229SOL    HW110586   3.448   1.747   5.314
 3229SOL    HW210587   3.344   1.621   5.314
 3230SOL     OW10588   1.567   2.799   3.902
 3230SOL    HW110589   1.608   2.852   3.828
 3230SOL    HW210590   1.483   2.756   3.870
 3231SOL     OW10591   2.533   0.425   2.029
 3231SOL    HW110592   2.509   0.369   1.950
 3231SOL    HW210593   2.454   0.481   2.055
 3232SOL     OW10594   4.136   5.494   4.710
 3232SOL    HW110595   4.146   5.550   4.628
 3232SOL    HW210596   4.043   5.457   4.715
 3233SOL     OW10597   1.259   2.895   1.510
 3233SOL    HW110598   1.295   2.952   1.583
 3233SOL    HW210599   1.309   2.914   1.425
 3234SOL     OW10600   6.767   1.830   0.481
 3234SOL    HW110601   6.732   1.736   0.486
 3234SOL    HW210602   6.866   1.828   0.471
 3235SOL     OW10603   4.825   0.462   1.508
 3235SOL    HW110604   4.821   0.554   1.547
 3235SOL    HW210605   4.840   0.469   1.409
 3236SOL     OW10606   1.577   3.316   0.319
 3236SOL    HW110607   1.547   3.407   0.292
 3236SOL    HW210608   1.675   3.318   0.339
 3237SOL     OW10609   5.892   1.262   3.394
 3237SOL    HW110610   5.826   1.336   3.403
 3237SOL    HW210611   5.850   1.185   3.345
 3238SOL     OW10612   0.448   4.674   0.776
 3238SOL    HW110613   0.507   4.668   0.857
 3238SOL    HW210614   0.423   4.770   0.760
 3239SOL     OW10615   6.082   1.740   0.475
 3239SOL    HW110616   6.154   1.715   0.411
 3239SOL    HW210617   6.016   1.801   0.429
 3240SOL     OW10618   1.154   6.082   5.259
 3240SOL    HW110619   1.131   5.997   5.211
 3240SOL    HW210620   1.136   6.071   5.356
 3241SOL     OW10621   4.683   1.210   4.186
 3241SOL    HW110622   4.735   1.279   4.237
 3241SOL    HW210623   4.746   1.142   4.149
 3242SOL     OW10624   3.165   4.778   1.200
 3242SOL    HW110625   3.090   4.741   1.256
 3242SOL    HW210626   3.164   4.735   1.110
 3243SOL     OW10627   5.565   4.850   0.288
 3243SOL    HW110628   5.624   4.859   0.209
 3243SOL    HW210629   5.483   4.907   0.275
 3244SOL     OW10630   5.056   5.997   0.882
 3244SOL    HW110631   5.014   6.002   0.791
 3244SOL    HW210632   5.105   5.910   0.891
 3245SOL     OW10633   5.383   2.455   5.568
 3245SOL    HW110634   5.368   2.357   5.563
 3245SOL    HW210635   5.481   2.474   5.562
 3246SOL     OW10636   5.841   1.212   3.032
 3246SOL    HW110637   5.779   1.153   2.980
 3246SOL    HW210638   5.856   1.297   2.982
 3247SOL     OW10639   6.538   4.714   3.302
 3247SOL    HW110640   6.618   4.744   3.249
 3247SOL    HW210641   6.562   4.710   3.399
 3248SOL     OW10642   6.150   3.081   1.807
 3248SOL    HW110643   6.127   3.177   1.823
 3248SOL    HW210644   6.133   3.028   1.891
 3249SOL     OW10645   3.049   3.475   5.102
 3249SOL    HW110646   3.002   3.463   5.014
 3249SOL    HW210647   3.040   3.391   5.156
 3250SOL     OW10648   5.303   0.120   2.506
 3250SOL    HW110649   5.289   0.154   2.413
 3250SOL    HW210650   5.268   0.027   2.513
 3251SOL     OW10651   3.880   0.865   2.348
 3251SOL    HW110652   3.924   0.811   2.420
 3251SOL    HW210653   3.796   0.906   2.384
 3252SOL     OW10654   2.734   1.817   2.188
 3252SOL    HW110655   2.652   1.791   2.239
 3252SOL    HW210656   2.707   1.858   2.101
 3253SOL     OW10657   5.975   2.933   2.777
 3253SOL    HW110658   5.951   2.912   2.682
 3253SOL    HW210659   6.050   2.874   2.807
 3254SOL     OW10660   4.781   5.834   5.832
 3254SOL    HW110661   4.715   5.763   5.809
 3254SOL    HW210662   4.801   5.889   5.751
 3255SOL     OW10663   5.041   6.589   1.773
 3255SOL    HW110664   5.039   6.664   1.707
 3255SOL    HW210665   5.128   6.592   1.824
 3256SOL     OW10666   5.127   0.502   0.105
 3256SOL    HW110667   5.181   0.430   0.061
 3256SOL    HW210668   5.058   0.536   0.041
 3257SOL     OW10669   1.132   2.699   1.179
 3257SOL    HW110670   1.150   2.782   1.232
 3257SOL    HW210671   1.084   2.723   1.094
 3258SOL     OW10672   3.872   4.864   1.948
 3258SOL    HW110673   3.781   4.822   1.954
 3258SOL    HW210674   3.905   4.884   2.041
 3259SOL     OW10675   4.659   5.984   3.784
 3259SOL    HW110676   4.666   6.036   3.870
 3259SOL    HW210677   4.576   6.011   3.735
 3260SOL     OW10678   2.005   1.844   1.138
 3260SOL    HW110679   1.975   1.904   1.211
 3260SOL    HW210680   1.930   1.829   1.073
 3261SOL     OW10681   4.688   6.290   0.717
 3261SOL    HW110682   4.682   6.213   0.653
 3261SOL    HW210683   4.719   6.372   0.668
 3262SOL     OW10684   3.711   2.064   2.695
 3262SOL    HW110685   3.710   1.966   2.676
 3262SOL    HW210686   3.698   2.115   2.610
 3263SOL     OW10687   3.538   1.158   4.103
 3263SOL    HW110688   3.530   1.203   4.193
 3263SOL    HW210689   3.513   1.062   4.112
 3264SOL     OW10690   1.502   4.578   0.852
 3264SOL    HW110691   1.565   4.607   0.779
 3264SOL    HW210692   1.551   4.576   0.939
 3265SOL     OW10693   4.510   2.037   5.608
 3265SOL    HW110694   4.483   1.961   5.549
 3265SOL    HW210695   4.600   2.070   5.579
 3266SOL     OW10696   0.719   2.658   0.443
 3266SOL    HW110697   0.807   2.673   0.488
 3266SOL    HW210698   0.734   2.617   0.353
 3267SOL     OW10699   4.091   1.399   0.354
 3267SOL    HW110700   4.121   1.322   0.410
 3267SOL    HW210701   4.123   1.484   0.394
 3268SOL     OW10702   1.662   4.564   0.261
 3268SOL    HW110703   1.746   4.569   0.315
 3268SOL    HW210704   1.583   4.570   0.321
 3269SOL     OW10705   4.144   4.993   1.501
 3269SOL    HW110706   4.049   4.963   1.507
 3269SOL    HW210707   4.165   5.019   1.407
 3270SOL     OW10708   1.632   4.830   5.483
 3270SOL    HW110709   1.540   4.860   5.456
 3270SOL    HW210710   1.692   4.910   5.489
 3271SOL     OW10711   5.570   3.519   3.023
 3271SOL    HW110712   5.616   3.607   3.012
 3271SOL    HW210713   5.612   3.451   2.963
 3272SOL     OW10714   3.654   3.845   0.062
 3272SOL    HW110715   3.557   3.854   0.043
 3272SOL    HW210716   3.690   3.764   0.017
 3273SOL     OW10717   0.526   6.386   2.422
 3273SOL    HW110718   0.513   6.309   2.360
 3273SOL    HW210719   0.547   6.468   2.369
 3274SOL     OW10720   3.658   1.277   0.980
 3274SOL    HW110721   3.658   1.309   0.885
 3274SOL    HW210722   3.603   1.339   1.036
 3275SOL     OW10723   1.112   0.800   6.657
 3275SOL    HW110724   1.070   0.761   6.575
 3275SOL    HW210725   1.049   0.865   6.699
 3276SOL     OW10726   3.572   5.167   6.607
 3276SOL    HW110727   3.529   5.130   6.689
 3276SOL    HW210728   3.503   5.183   6.537
 3277SOL     OW10729   5.204   0.069   6.785
 3277SOL    HW110730   5.289   0.102   6.743
 3277SOL    HW210731   5.227   0.003   6.857
 3278SOL     OW10732   0.067   1.003   5.863
 3278SOL    HW110733   0.041   1.082   5.807
 3278SOL    HW210734   7.019   0.988   5.935
 3279SOL     OW10735   6.995   0.561   0.734
 3279SOL    HW110736   0.037   0.607   0.671
 3279SOL    HW210737   6.901   0.584   0.710
 3280SOL     OW10738   3.457   4.929   5.450
 3280SOL    HW110739   3.540   4.965   5.406
 3280SOL    HW210740   3.429   4.846   5.403
 3281SOL     OW10741   2.008   5.827   0.682
 3281SOL    HW110742   1.926   5.882   0.701
 3281SOL    HW210743   1.999   5.784   0.592
 3282SOL     OW10744   2.036   5.190   4.674
 3282SOL    HW110745   2.003   5.098   4.651
 3282SOL    HW210746   2.098   5.222   4.603
 3283SOL     OW10747   3.302   1.349   1.384
 3283SOL    HW110748   3.311   1.269   1.444
 3283SOL    HW210749   3.374   1.347   1.315
 3284SOL     OW10750   5.969   6.257   0.214
 3284SOL    HW110751   5.972   6.267   0.114
 3284SOL    HW210752   5.979   6.347   0.256
 3285SOL     OW10753   5.736   2.820   3.190
 3285SOL    HW110754   5.697   2.880   3.120
 3285SOL    HW210755   5.675   2.819   3.270
 3286SOL     OW10756   4.158   3.619   3.173
 3286SOL    HW110757   4.096   3.673   3.229
 3286SOL    HW210758   4.237   3.591   3.227
 3287SOL     OW10759   1.391   5.932   0.471
 3287SOL    HW110760   1.424   6.006   0.414
 3287SOL    HW210761   1.325   5.877   0.420
 3288SOL     OW10762   0.803   5.183   6.463
 3288SOL    HW110763   0.752   5.157   6.545
 3288SOL    HW210764   0.848   5.271   6.477
 3289SOL     OW10765   2.458   6.625   5.466
 3289SOL    HW110766   2.439   6.723   5.472
 3289SOL    HW210767   2.382   6.579   5.421
 3290SOL     OW10768   0.124   6.464   1.869
 3290SOL    HW110769   0.187   6.527   1.914
 3290SOL    HW210770   0.156   6.370   1.880
 3291SOL     OW10771   0.805   5.732   0.060
 3291SOL    HW110772   0.856   5.779   7.008
 3291SOL    HW210773   0.780   5.640   0.028
 3292SOL     OW10774   0.635   0.712   6.958
 3292SOL    HW110775   0.624   0.619   6.995
 3292SOL    HW210776   0.546   0.757   6.952
 3293SOL     OW10777   0.017   3.527   3.239
 3293SOL    HW110778   0.045   3.452   3.300
 3293SOL    HW210779   6.938   3.541   3.246
 3294SOL     OW10780   0.436   1.374   6.233
 3294SOL    HW110781   0.534   1.361   6.250
 3294SOL    HW210782   0.385   1.300   6.278
 3295SOL     OW10783   1.587   3.112   1.883
 3295SOL    HW110784   1.559   3.105   1.979
 3295SOL    HW210785   1.674   3.161   1.876
 3296SOL     OW10786   2.039   6.220   1.527
 3296SOL    HW110787   2.107   6.263   1.467
 3296SOL    HW210788   1.996   6.290   1.584
 3297SOL     OW10789   2.746   0.000   4.971
 3297SOL    HW110790   2.813   6.951   4.997
 3297SOL    HW210791   2.742   0.071   5.042
 3298SOL     OW10792   6.305   1.822   4.056
 3298SOL    HW110793   6.237   1.845   3.986
 3298SOL    HW210794   6.383   1.778   4.012
 3299SOL     OW10795   2.200   6.277   3.877
 3299SOL    HW110796   2.207   6.342   3.801
 3299SOL    HW210797   2.291   6.257   3.912
 3300SOL     OW10798   0.511   0.805   5.883
 3300SOL    HW110799   0.588   0.864   5.911
 3300SOL    HW210800   0.544   0.712   5.870
 3301SOL     OW10801   2.106   3.365   3.788
 3301SOL    HW110802   2.136   3.372   3.883
 3301SOL    HW210803   2.121   3.452   3.741
 3302SOL     OW10804   1.587   5.640   5.159
 3302SOL    HW110805   1.547   5.704   5.225
 3302SOL    HW210806   1.684   5.629   5.178
 3303SOL     OW10807   3.704   2.946   1.759
 3303SOL    HW110808   3.756   2.886   1.699
 3303SOL    HW210809   3.725   2.925   1.855
 3304SOL     OW10810   1.412   5.150   3.820
 3304SOL    HW110811   1.384   5.058   3.847
 3304SOL    HW210812   1.512   5.154   3.815
 3305SOL     OW10813   2.261   0.990   2.975
 3305SOL    HW110814   2.247   0.931   3.055
 3305SOL    HW210815   2.219   1.079   2.991
 3306SOL     OW10816   2.118   5.392   3.779
 3306SOL    HW110817   2.181   5.463   3.748
 3306SOL    HW210818   2.130   5.378   3.878
 3307SOL     OW10819   6.996   5.699   6.510
 3307SOL    HW110820   6.950   5.782   6.543
 3307SOL    HW210821   0.023   5.719   6.424
 3308SOL     OW10822   4.760   6.290   6.790
 3308SOL    HW110823   4.795   6.246   6.707
 3308SOL    HW210824   4.723   6.221   6.852
 3309SOL     OW10825   0.770   5.209   1.943
 3309SOL    HW110826   0.869   5.212   1.934
 3309SOL    HW210827   0.735   5.127   1.898
 3310SOL     OW10828   6.462   4.372   4.678
 3310SOL    HW110829   6.428   4.309   4.608
 3310SOL    HW210830   6.407   4.456   4.677
 3311SOL     OW10831   2.258   4.421   2.116
 3311SOL    HW110832   2.215   4.511   2.112
 3311SOL    HW210833   2.241   4.373   2.030
 3312SOL     OW10834   3.716   4.298   6.068
 3312SOL    HW110835   3.629   4.347   6.060
 3312SOL    HW210836   3.788   4.351   6.022
 3313SOL     OW10837   0.163   5.448   2.408
 3313SOL    HW110838   0.224   5.519   2.373
 3313SOL    HW210839   0.217   5.368   2.433
 3314SOL     OW10840   1.633   1.526   4.687
 3314SOL    HW110841   1.686   1.568   4.761
 3314SOL    HW210842   1.643   1.427   4.690
 3315SOL     OW10843   6.546   3.647   3.975
 3315SOL    HW110844   6.557   3.597   4.061
 3315SOL    HW210845   6.569   3.587   3.899
 3316SOL     OW10846   3.526   1.774   6.067
 3316SOL    HW110847   3.529   1.683   6.025
 3316SOL    HW210848   3.446   1.780   6.126
 3317SOL     OW10849   4.851   3.081   1.718
 3317SOL    HW110850   4.885   2.992   1.688
 3317SOL    HW210851   4.760   3.071   1.757
 3318SOL     OW10852   2.960   0.253   0.640
 3318SOL    HW110853   3.033   0.217   0.583
 3318SOL    HW210854   2.950   0.351   0.624
 3319SOL     OW10855   6.237   6.815   4.605
 3319SOL    HW110856   6.189   6.897   4.635
 3319SOL    HW210857   6.262   6.760   4.685
 3320SOL     OW10858   5.449   1.056   5.493
 3320SOL    HW110859   5.523   1.114   5.458
 3320SOL    HW210860   5.437   1.072   5.591
 3321SOL     OW10861   3.389   2.332   1.656
 3321SOL    HW110862   3.435   2.331   1.567
 3321SOL    HW210863   3.456   2.313   1.728
 3322SOL     OW10864   5.113   3.240   1.721
 3322SOL    HW110865   5.088   3.269   1.629
 3322SOL    HW210866   5.039   3.185   1.760
 3323SOL     OW10867   2.188   4.014   6.403
 3323SOL    HW110868   2.181   3.920   6.436
 3323SOL    HW210869   2.282   4.046   6.412
 3324SOL     OW10870   0.902   4.190   6.355
 3324SOL    HW110871   0.850   4.273   6.374
 3324SOL    HW210872   0.999   4.205   6.375
 3325SOL     OW10873   2.147   2.845   6.664
 3325SOL    HW110874   2.217   2.848   6.736
 3325SOL    HW210875   2.104   2.935   6.656
 3326SOL     OW10876   5.508   1.550   2.217
 3326SOL    HW110877   5.506   1.649   2.216
 3326SOL    HW210878   5.570   1.517   2.146
 3327SOL     OW10879   3.147   6.197   1.553
 3327SOL    HW110880   3.170   6.138   1.631
 3327SOL    HW210881   3.128   6.140   1.473
 3328SOL     OW10882   3.943   1.837   2.634
 3328SOL    HW110883   3.956   1.829   2.733
 3328SOL    HW210884   3.995   1.916   2.600
 3329SOL     OW10885   4.832   0.860   4.947
 3329SOL    HW110886   4.873   0.825   5.032
 3329SOL    HW210887   4.841   0.792   4.875
 3330SOL     OW10888   6.124   6.330   1.535
 3330SOL    HW110889   6.061   6.320   1.612
 3330SOL    HW210890   6.091   6.403   1.475
 3331SOL     OW10891   0.579   3.579   2.025
 3331SOL    HW110892   0.634   3.635   2.087
 3331SOL    HW210893   0.570   3.626   1.937
 3332SOL     OW10894   6.305   4.388   0.184
 3332SOL    HW110895   6.251   4.439   0.251
 3332SOL    HW210896   6.399   4.419   0.186
 3333SOL     OW10897   3.105   3.779   6.810
 3333SOL    HW110898   3.046   3.731   6.745
 3333SOL    HW210899   3.097   3.878   6.795
 3334SOL     OW10900   1.992   3.500   2.497
 3334SOL    HW110901   2.017   3.523   2.403
 3334SOL    HW210902   2.072   3.463   2.544
 3335SOL     OW10903   4.820   6.716   6.447
 3335SOL    HW110904   4.914   6.697   6.475
 3335SOL    HW210905   4.758   6.649   6.490
 3336SOL     OW10906   2.085   6.564   4.483
 3336SOL    HW110907   2.085   6.614   4.397
 3336SOL    HW210908   2.029   6.481   4.473
 3337SOL     OW10909   2.523   4.054   1.473
 3337SOL    HW110910   2.529   4.128   1.539
 3337SOL    HW210911   2.616   4.022   1.449
 3338SOL     OW10912   6.833   2.520   1.399
 3338SOL    HW110913   6.857   2.447   1.462
 3338SOL    HW210914   6.884   2.603   1.424
 3339SOL     OW10915   1.252   6.768   6.601
 3339SOL    HW110916   1.266   6.787   6.699
 3339SOL    HW210917   1.301   6.685   6.576
 3340SOL     OW10918   3.347   0.764   3.874
 3340SOL    HW110919   3.365   0.686   3.934
 3340SOL    HW210920   3.331   0.846   3.929
 3341SOL     OW10921   2.057   4.394   3.868
 3341SOL    HW110922   2.132   4.350   3.818
 3341SOL    HW210923   2.091   4.476   3.914
 3342SOL     OW10924   1.197   0.404   3.508
 3342SOL    HW110925   1.120   0.400   3.571
 3342SOL    HW210926   1.165   0.387   3.415
 3343SOL     OW10927   5.456   4.705   6.593
 3343SOL    HW110928   5.504   4.627   6.552
 3343SOL    HW210929   5.381   4.733   6.533
 3344SOL     OW10930   6.075   3.841   4.266
 3344SOL    HW110931   6.072   3.917   4.202
 3344SOL    HW210932   5.993   3.843   4.323
 3345SOL     OW10933   1.041   4.538   6.425
 3345SOL    HW110934   1.066   4.580   6.512
 3345SOL    HW210935   1.118   4.483   6.390
 3346SOL     OW10936   0.854   0.726   0.165
 3346SOL    HW110937   0.788   0.706   0.092
 3346SOL    HW210938   0.893   0.817   0.151
 3347SOL     OW10939   0.927   3.304   5.914
 3347SOL    HW110940   0.857   3.366   5.879
 3347SOL    HW210941   0.956   3.334   6.005
 3348SOL     OW10942   4.118   3.296   4.793
 3348SOL    HW110943   4.057   3.333   4.863
 3348SOL    HW210944   4.193   3.247   4.837
 3349SOL     OW10945   2.098   5.133   2.891
 3349SOL    HW110946   2.036   5.148   2.813
 3349SOL    HW210947   2.068   5.187   2.969
 3350SOL     OW10948   0.292   2.855   5.869
 3350SOL    HW110949   0.278   2.853   5.770
 3350SOL    HW210950   0.304   2.950   5.899
 3351SOL     OW10951   4.589   1.451   1.976
 3351SOL    HW110952   4.566   1.439   1.880
 3351SOL    HW210953   4.602   1.549   1.995
 3352SOL     OW10954   5.980   2.689   0.967
 3352SOL    HW110955   5.993   2.760   0.897
 3352SOL    HW210956   5.889   2.650   0.957
 3353SOL     OW10957   2.946   5.841   1.486
 3353SOL    HW110958   3.010   5.916   1.470
 3353SOL    HW210959   2.995   5.754   1.486
 3354SOL     OW10960   4.430   2.694   5.422
 3354SOL    HW110961   4.510   2.723   5.474
 3354SOL    HW210962   4.357   2.762   5.433
 3355SOL     OW10963   1.796   1.725   5.957
 3355SOL    HW110964   1.878   1.706   6.011
 3355SOL    HW210965   1.773   1.643   5.904
 3356SOL     OW10966   0.842   5.985   5.869
 3356SOL    HW110967   0.747   6.011   5.854
 3356SOL    HW210968   0.865   6.000   5.966
 3357SOL     OW10969   3.324   3.664   2.266
 3357SOL    HW110970   3.407   3.687   2.316
 3357SOL    HW210971   3.283   3.581   2.305
 3358SOL     OW10972   4.566   1.282   2.953
 3358SOL    HW110973   4.587   1.281   2.855
 3358SOL    HW210974   4.468   1.264   2.965
 3359SOL     OW10975   0.045   5.824   2.888
 3359SOL    HW110976   0.064   5.750   2.823
 3359SOL    HW210977   6.996   5.793   2.954
 3360SOL     OW10978   0.501   1.764   6.294
 3360SOL    HW110979   0.452   1.839   6.250
 3360SOL    HW210980   0.561   1.719   6.228
 3361SOL     OW10981   7.016   5.613   4.657
 3361SOL    HW110982   0.056   5.662   4.594
 3361SOL    HW210983   7.003   5.519   4.624
 3362SOL     OW10984   3.332   1.733   2.541
 3362SOL    HW110985   3.342   1.809   2.477
 3362SOL    HW210986   3.334   1.646   2.492
 3363SOL     OW10987   6.554   2.123   1.741
 3363SOL    HW110988   6.502   2.118   1.656
 3363SOL    HW210989   6.505   2.181   1.807
 3364SOL     OW10990   2.520   4.626   3.763
 3364SOL    HW110991   2.527   4.545   3.705
 3364SOL    HW210992   2.474   4.699   3.712
 3365SOL     OW10993   6.993   3.201   5.165
 3365SOL    HW110994   6.979   3.129   5.097
 3365SOL    HW210995   6.987   3.161   5.257
 3366SOL     OW10996   5.267   4.800   4.057
 3366SOL    HW110997   5.268   4.758   4.147
 3366SOL    HW210998   5.284   4.898   4.065
 3367SOL     OW10999   3.921   3.715   3.249
 3367SOL    HW111000   3.892   3.624   3.278
 3367SOL    HW211001   3.844   3.763   3.207
 3368SOL     OW11002   0.701   5.602   6.351
 3368SOL    HW111003   0.669   5.521   6.400
 3368SOL    HW211004   0.801   5.601   6.349
 3369SOL     OW11005   4.112   1.662   0.910
 3369SOL    HW111006   4.080   1.670   1.005
 3369SOL    HW211007   4.125   1.753   0.872
 3370SOL     OW11008   6.703   6.381   1.334
 3370SOL    HW111009   6.708   6.282   1.319
 3370SOL    HW211010   6.665   6.400   1.424
 3371SOL     OW11011   2.123   3.349   1.737
 3371SOL    HW111012   2.199   3.400   1.778
 3371SOL    HW211013   2.050   3.413   1.711
 3372SOL     OW11014   6.918   1.945   0.029
 3372SOL    HW111015   6.970   1.867   0.065
 3372SOL    HW211016   6.823   1.916   0.012
 3373SOL     OW11017   0.306   2.301   4.241
 3373SOL    HW111018   0.299   2.371   4.170
 3373SOL    HW211019   0.401   2.272   4.249
 3374SOL     OW11020   0.927   6.819   4.068
 3374SOL    HW111021   0.977   6.742   4.108
 3374SOL    HW211022   0.845   6.838   4.122
 3375SOL     OW11023   0.002   4.475   0.544
 3375SOL    HW111024   6.936   4.512   0.579
 3375SOL    HW211025   0.058   4.549   0.507
 3376SOL     OW11026   3.583   2.870   4.900
 3376SOL    HW111027   3.525   2.793   4.877
 3376SOL    HW211028   3.616   2.860   4.994
 3377SOL     OW11029   0.146   5.374   6.090
 3377SOL    HW111030   0.171   5.405   5.998
 3377SOL    HW211031   0.050   5.347   6.092
 3378SOL     OW11032   1.481   6.198   0.330
 3378SOL    HW111033   1.453   6.247   0.413
 3378SOL    HW211034   1.561   6.243   0.291
 3379SOL     OW11035   1.052   1.637   4.726
 3379SOL    HW111036   0.976   1.611   4.666
 3379SOL    HW211037   1.016   1.668   4.814
 3380SOL     OW11038   4.940   6.333   5.417
 3380SOL    HW111039   4.972   6.376   5.332
 3380SOL    HW211040   4.841   6.342   5.424
 3381SOL     OW11041   6.630   2.807   0.817
 3381SOL    HW111042   6.603   2.777   0.725
 3381SOL    HW211043   6.567   2.768   0.885
 3382SOL     OW11044   0.487   2.873   6.476
 3382SOL    HW111045   0.501   2.970   6.457
 3382SOL    HW211046   0.477   2.823   6.390
 3383SOL     OW11047   3.178   5.375   0.861
 3383SOL    HW111048   3.203   5.414   0.773
 3383SOL    HW211049   3.257   5.328   0.901
 3384SOL     OW11050   2.058   3.615   0.980
 3384SOL    HW111051   1.986   3.600   1.049
 3384SOL    HW211052   2.027   3.580   0.892
 3385SOL     OW11053   6.945   3.497   4.498
 3385SOL    HW111054   7.008   3.568   4.467
 3385SOL    HW211055   6.926   3.509   4.595
 3386SOL     OW11056   5.497   3.937   6.740
 3386SOL    HW111057   5.421   3.879   6.710
 3386SOL    HW211058   5.474   4.033   6.722
 3387SOL     OW11059   4.965   0.290   3.182
 3387SOL    HW111060   4.952   0.371   3.240
 3387SOL    HW211061   4.879   0.241   3.173
 3388SOL     OW11062   5.734   3.179   2.499
 3388SOL    HW111063   5.676   3.106   2.463
 3388SOL    HW211064   5.712   3.195   2.595
 3389SOL     OW11065   6.188   6.048   5.921
 3389SOL    HW111066   6.262   6.110   5.948
 3389SOL    HW211067   6.113   6.056   5.987
 3390SOL     OW11068   5.077   0.009   6.212
 3390SOL    HW111069   5.001   6.967   6.189
 3390SOL    HW211070   5.052   0.103   6.185
 3391SOL     OW11071   4.862   2.356   3.599
 3391SOL    HW111072   4.907   2.273   3.569
 3391SOL    HW211073   4.791   2.382   3.533
 3392SOL     OW11074   3.484   6.585   4.474
 3392SOL    HW111075   3.577   6.552   4.489
 3392SOL    HW211076   3.423   6.543   4.541
 3393SOL     OW11077   6.010   6.016   0.604
 3393SOL    HW111078   6.033   6.083   0.674
 3393SOL    HW211079   6.062   6.035   0.521
 3394SOL     OW11080   4.817   3.852   0.951
 3394SOL    HW111081   4.820   3.943   0.994
 3394SOL    HW211082   4.803   3.862   0.853
 3395SOL     OW11083   5.089   2.089   3.058
 3395SOL    HW111084   5.188   2.076   3.055
 3395SOL    HW211085   5.066   2.155   3.130
 3396SOL     OW11086   5.593   1.034   3.835
 3396SOL    HW111087   5.596   0.942   3.798
 3396SOL    HW211088   5.656   1.093   3.783
 3397SOL     OW11089   3.722   4.926   6.282
 3397SOL    HW111090   3.785   4.852   6.257
 3397SOL    HW211091   3.773   5.012   6.290
 3398SOL     OW11092   1.530   0.175   5.110
 3398SOL    HW111093   1.488   0.259   5.145
 3398SOL    HW211094   1.625   0.193   5.084
 3399SOL     OW11095   5.607   5.485   3.293
 3399SOL    HW111096   5.530   5.512   3.350
 3399SOL    HW211097   5.585   5.399   3.246
 3400SOL     OW11098   5.267   3.582   6.638
 3400SOL    HW111099   5.306   3.582   6.730
 3400SOL    HW211100   5.200   3.508   6.631
 3401SOL     OW11101   5.837   4.056   6.745
 3401SOL    HW111102   5.907   4.125   6.726
 3401SOL    HW211103   5.758   4.101   6.788
 3402SOL     OW11104   5.712   5.744   6.492
 3402SOL    HW111105   5.687   5.650   6.513
 3402SOL    HW211106   5.664   5.773   6.409
 3403SOL     OW11107   4.999   5.442   6.984
 3403SOL    HW111108   4.962   5.523   6.940
 3403SOL    HW211109   4.942   5.417   0.043
 3404SOL     OW11110   5.340   2.583   0.590
 3404SOL    HW111111   5.274   2.527   0.639
 3404SOL    HW211112   5.335   2.677   0.623
 3405SOL     OW11113   5.662   4.435   6.525
 3405SOL    HW111114   5.727   4.378   6.474
 3405SOL    HW211115   5.580   4.450   6.469
 3406SOL     OW11116   0.742   3.110   2.651
 3406SOL    HW111117   0.711   3.023   2.613
 3406SOL    HW211118   0.748   3.102   2.751
 3407SOL     OW11119   1.796   4.311   0.186
 3407SOL    HW111120   1.883   4.295   0.233
 3407SOL    HW211121   1.760   4.401   0.212
 3408SOL     OW11122   5.178   3.002   4.686
 3408SOL    HW111123   5.125   3.048   4.614
 3408SOL    HW211124   5.188   3.062   4.764
 3409SOL     OW11125   4.031   6.300   0.225
 3409SOL    HW111126   4.021   6.250   0.310
 3409SOL    HW211127   3.962   6.373   0.221
 3410SOL     OW11128   6.579   6.473   1.851
 3410SOL    HW111129   6.670   6.495   1.884
 3410SOL    HW211130   6.576   6.380   1.817
 3411SOL     OW11131   0.488   2.791   0.485
 3411SOL    HW111132   0.562   2.729   0.456
 3411SOL    HW211133   0.415   2.738   0.527
 3412SOL     OW11134   5.104   3.552   1.546
 3412SOL    HW111135   5.111   3.652   1.538
 3412SOL    HW211136   5.072   3.528   1.637
 3413SOL     OW11137   6.375   1.348   0.481
 3413SOL    HW111138   6.420   1.322   0.396
 3413SOL    HW211139   6.443   1.372   0.550
 3414SOL     OW11140   3.439   1.898   5.828
 3414SOL    HW111141   3.424   1.820   5.767
 3414SOL    HW211142   3.473   1.864   5.916
 3415SOL     OW11143   2.184   2.209   4.363
 3415SOL    HW111144   2.237   2.124   4.375
 3415SOL    HW211145   2.126   2.200   4.282
 3416SOL     OW11146   5.283   0.553   0.354
 3416SOL    HW111147   5.380   0.554   0.328
 3416SOL    HW211148   5.230   0.507   0.283
 3417SOL     OW11149   0.388   6.721   4.340
 3417SOL    HW111150   0.423   6.647   4.282
 3417SOL    HW211151   0.368   6.801   4.283
 3418SOL     OW11152   3.719   5.974   3.181
 3418SOL    HW111153   3.755   6.067   3.167
 3418SOL    HW211154   3.763   5.934   3.261
 3419SOL     OW11155   3.358   4.940   5.722
 3419SOL    HW111156   3.268   4.984   5.712
 3419SOL    HW211157   3.403   4.938   5.632
 3420SOL     OW11158   5.759   3.518   3.673
 3420SOL    HW111159   5.850   3.557   3.659
 3420SOL    HW211160   5.745   3.501   3.771
 3421SOL     OW11161   5.166   1.878   3.509
 3421SOL    HW111162   5.177   1.786   3.545
 3421SOL    HW211163   5.179   1.877   3.410
 3422SOL     OW11164   2.370   0.403   0.125
 3422SOL    HW111165   2.443   0.468   0.145
 3422SOL    HW211166   2.329   0.372   0.211
 3423SOL     OW11167   0.123   4.784   6.402
 3423SOL    HW111168   0.054   4.856   6.399
 3423SOL    HW211169   0.118   4.729   6.318
 3424SOL     OW11170   3.048   6.612   1.029
 3424SOL    HW111171   3.003   6.627   1.117
 3424SOL    HW211172   3.141   6.650   1.032
 3425SOL     OW11173   5.172   4.356   2.429
 3425SOL    HW111174   5.252   4.414   2.415
 3425SOL    HW211175   5.144   4.360   2.525
 3426SOL     OW11176   5.130   2.666   1.210
 3426SOL    HW111177   5.104   2.626   1.298
 3426SOL    HW211178   5.132   2.594   1.141
 3427SOL     OW11179   0.917   2.020   1.593
 3427SOL    HW111180   0.852   1.945   1.578
 3427SOL    HW211181   0.905   2.089   1.522
 3428SOL     OW11182   3.813   4.472   6.998
 3428SOL    HW111183   3.728   4.494   0.027
 3428SOL    HW211184   3.798   4.483   6.899
 3429SOL     OW11185   0.588   1.768   1.131
 3429SOL    HW111186   0.683   1.764   1.103
 3429SOL    HW211187   0.546   1.677   1.122
 3430SOL     OW11188   2.421   5.212   5.194
 3430SOL    HW111189   2.449   5.274   5.269
 3430SOL    HW211190   2.380   5.266   5.121
 3431SOL     OW11191   1.390   5.913   1.438
 3431SOL    HW111192   1.427   5.860   1.513
 3431SOL    HW211193   1.436   5.888   1.353
 3432SOL     OW11194   2.638   4.529   6.089
 3432SOL    HW111195   2.722   4.568   6.126
 3432SOL    HW211196   2.605   4.586   6.014
 3433SOL     OW11197   1.183   0.890   4.872
 3433SOL    HW111198   1.251   0.962   4.885
 3433SOL    HW211199   1.150   0.893   4.777
 3434SOL     OW11200   3.723   1.763   1.624
 3434SOL    HW111201   3.753   1.788   1.716
 3434SOL    HW211202   3.637   1.712   1.630
 3435SOL     OW11203   2.227   1.338   1.058
 3435SOL    HW111204   2.284   1.377   1.130
 3435SOL    HW211205   2.283   1.279   0.999
 3436SOL     OW11206   3.708   5.882   0.057
 3436SOL    HW111207   3.716   5.798   0.002
 3436SOL    HW211208   3.615   5.918   0.049
 3437SOL     OW11209   2.608   6.076   5.614
 3437SOL    HW111210   2.619   5.979   5.637
 3437SOL    HW211211   2.513   6.103   5.631
 3438SOL     OW11212   1.011   3.637   1.387
 3438SOL    HW111213   1.002   3.650   1.485
 3438SOL    HW211214   0.923   3.606   1.349
 3439SOL     OW11215   3.352   6.302   4.237
 3439SOL    HW111216   3.323   6.387   4.194
 3439SOL    HW211217   3.448   6.309   4.264
 3440SOL     OW11218   3.653   2.873   2.449
 3440SOL    HW111219   3.675   2.967   2.420
 3440SOL    HW211220   3.558   2.870   2.479
 3441SOL     OW11221   6.841   5.950   6.510
 3441SOL    HW111222   6.865   6.046   6.523
 3441SOL    HW211223   6.768   5.942   6.442
 3442SOL     OW11224   2.564   3.766   1.381
 3442SOL    HW111225   2.516   3.791   1.466
 3442SOL    HW211226   2.541   3.832   1.310
 3443SOL     OW11227   3.592   6.364   1.937
 3443SOL    HW111228   3.684   6.351   1.974
 3443SOL    HW211229   3.567   6.461   1.943
 3444SOL     OW11230   4.736   5.392   0.240
 3444SOL    HW111231   4.829   5.393   0.275
 3444SOL    HW211232   4.699   5.299   0.242
 3445SOL     OW11233   6.061   5.246   3.110
 3445SOL    HW111234   5.963   5.264   3.123
 3445SOL    HW211235   6.086   5.267   3.015
 3446SOL     OW11236   6.166   0.603   1.554
 3446SOL    HW111237   6.265   0.608   1.569
 3446SOL    HW211238   6.131   0.693   1.531
 3447SOL     OW11239   5.244   6.561   0.741
 3447SOL    HW111240   5.237   6.652   0.699
 3447SOL    HW211241   5.153   6.520   0.746
 3448SOL     OW11242   3.403   6.702   6.296
 3448SOL    HW111243   3.371   6.791   6.264
 3448SOL    HW211244   3.501   6.708   6.316
 3449SOL     OW11245   5.838   5.046   5.019
 3449SOL    HW111246   5.921   5.088   5.055
 3449SOL    HW211247   5.862   4.972   4.956
 3450SOL     OW11248   0.957   1.622   6.315
 3450SOL    HW111249   1.055   1.636   6.328
 3450SOL    HW211250   0.931   1.532   6.349
 3451SOL     OW11251   2.373   5.959   0.063
 3451SOL    HW111252   2.421   5.918   0.140
 3451SOL    HW211253   2.440   5.994   7.017
 3452SOL     OW11254   5.526   0.406   6.670
 3452SOL    HW111255   5.614   0.418   6.715
 3452SOL    HW211256   5.541   0.390   6.572
 3453SOL     OW11257   5.678   5.508   6.583
 3453SOL    HW111258   5.697   5.528   6.679
 3453SOL    HW211259   5.679   5.409   6.569
 3454SOL     OW11260   0.802   3.733   4.994
 3454SOL    HW111261   0.802   3.657   5.059
 3454SOL    HW211262   0.713   3.779   4.996
 3455SOL     OW11263   2.873   1.727   3.919
 3455SOL    HW111264   2.941   1.731   3.845
 3455SOL    HW211265   2.892   1.799   3.985
 3456SOL     OW11266   5.274   4.854   2.185
 3456SOL    HW111267   5.194   4.907   2.159
 3456SOL    HW211268   5.255   4.804   2.270
 3457SOL     OW11269   4.774   5.635   4.076
 3457SOL    HW111270   4.724   5.629   4.163
 3457SOL    HW211271   4.868   5.605   4.089
 3458SOL     OW11272   4.131   1.472   2.298
 3458SOL    HW111273   4.032   1.472   2.308
 3458SOL    HW211274   4.157   1.538   2.227
 3459SOL     OW11275   4.662   2.195   3.207
 3459SOL    HW111276   4.636   2.209   3.111
 3459SOL    HW211277   4.755   2.158   3.211
 3460SOL     OW11278   2.946   1.681   6.380
 3460SOL    HW111279   2.924   1.687   6.283
 3460SOL    HW211280   3.045   1.676   6.391
 3461SOL     OW11281   4.687   3.700   6.712
 3461SOL    HW111282   4.740   3.723   6.794
 3461SOL    HW211283   4.601   3.658   6.739
 3462SOL     OW11284   0.988   4.006   5.158
 3462SOL    HW111285   0.929   4.071   5.111
 3462SOL    HW211286   0.960   3.912   5.136
 3463SOL     OW11287   0.700   4.118   1.200
 3463SOL    HW111288   0.640   4.079   1.269
 3463SOL    HW211289   0.646   4.149   1.122
 3464SOL     OW11290   0.260   4.549   6.741
 3464SOL    HW111291   0.177   4.587   6.699
 3464SOL    HW211292   0.329   4.620   6.749
 3465SOL     OW11293   1.740   2.630   1.843
 3465SOL    HW111294   1.715   2.724   1.821
 3465SOL    HW211295   1.710   2.569   1.769
 3466SOL     OW11296   6.752   5.239   6.333
 3466SOL    HW111297   6.798   5.224   6.246
 3466SOL    HW211298   6.777   5.329   6.369
 3467SOL     OW11299   1.607   3.206   6.401
 3467SOL    HW111300   1.519   3.162   6.382
 3467SOL    HW211301   1.672   3.138   6.434
 3468SOL     OW11302   4.137   6.337   2.608
 3468SOL    HW111303   4.156   6.299   2.517
 3468SOL    HW211304   4.202   6.411   2.627
 3469SOL     OW11305   6.221   1.672   2.561
 3469SOL    HW111306   6.244   1.759   2.605
 3469SOL    HW211307   6.224   1.683   2.462
 3470SOL     OW11308   6.672   4.700   0.890
 3470SOL    HW111309   6.692   4.747   0.804
 3470SOL    HW211310   6.657   4.603   0.872
 3471SOL     OW11311   4.312   5.388   4.913
 3471SOL    HW111312   4.255   5.436   4.846
 3471SOL    HW211313   4.256   5.361   4.991
 3472SOL     OW11314   2.388   0.456   2.682
 3472SOL    HW111315   2.328   0.534   2.660
 3472SOL    HW211316   2.482   0.488   2.690
 3473SOL     OW11317   6.547   1.411   6.405
 3473SOL    HW111318   6.615   1.477   6.438
 3473SOL    HW211319   6.563   1.392   6.308
 3474SOL     OW11320   3.357   5.182   2.231
 3474SOL    HW111321   3.354   5.240   2.149
 3474SOL    HW211322   3.335   5.088   2.206
 3475SOL     OW11323   1.102   6.295   4.504
 3475SOL    HW111324   1.158   6.356   4.449
 3475SOL    HW211325   1.009   6.330   4.508
 3476SOL     OW11326   3.190   1.178   3.172
 3476SOL    HW111327   3.282   1.215   3.178
 3476SOL    HW211328   3.163   1.170   3.076
 3477SOL     OW11329   3.103   5.629   1.408
 3477SOL    HW111330   3.200   5.649   1.423
 3477SOL    HW211331   3.076   5.661   1.317
 3478SOL     OW11332   2.738   5.547   5.737
 3478SOL    HW111333   2.749   5.491   5.655
 3478SOL    HW211334   2.822   5.543   5.791
 3479SOL     OW11335   0.831   0.379   3.454
 3479SOL    HW111336   0.781   0.296   3.427
 3479SOL    HW211337   0.850   0.376   3.552
 3480SOL     OW11338   6.707   0.303   4.748
 3480SOL    HW111339   6.801   0.326   4.724
 3480SOL    HW211340   6.672   0.234   4.684
 3481SOL     OW11341   4.573   0.091   0.027
 3481SOL    HW111342   4.487   0.116   7.002
 3481SOL    HW211343   4.622   0.174   0.053
 3482SOL     OW11344   5.710   1.645   0.494
 3482SOL    HW111345   5.749   1.734   0.517
 3482SOL    HW211346   5.686   1.644   0.397
 3483SOL     OW11347   3.733   0.785   1.519
 3483SOL    HW111348   3.798   0.801   1.445
 3483SOL    HW211349   3.694   0.872   1.550
 3484SOL     OW11350   3.087   3.802   2.010
 3484SOL    HW111351   3.177   3.760   2.004
 3484SOL    HW211352   3.075   3.866   1.934
 3485SOL     OW11353   1.086   0.444   4.775
 3485SOL    HW111354   1.157   0.375   4.788
 3485SOL    HW211355   1.086   0.506   4.854
 3486SOL     OW11356   3.179   1.356   2.580
 3486SOL    HW111357   3.102   1.327   2.637
 3486SOL    HW211358   3.147   1.420   2.510
 3487SOL     OW11359   6.394   2.038   5.986
 3487SOL    HW111360   6.473   1.997   5.939
 3487SOL    HW211361   6.418   2.130   6.017
 3488SOL     OW11362   5.780   3.204   4.071
 3488SOL    HW111363   5.713   3.170   4.005
 3488SOL    HW211364   5.857   3.245   4.022
 3489SOL     OW11365   2.608   6.493   0.691
 3489SOL    HW111366   2.560   6.445   0.617
 3489SOL    HW211367   2.694   6.445   0.710
 3490SOL     OW11368   4.517   4.153   6.523
 3490SOL    HW111369   4.535   4.238   6.572
 3490SOL    HW211370   4.587   4.139   6.453
 3491SOL     OW11371   6.283   2.893   4.055
 3491SOL    HW111372   6.381   2.884   4.067
 3491SOL    HW211373   6.262   2.984   4.021
 3492SOL     OW11374   1.037   5.861   1.054
 3492SOL    HW111375   1.040   5.914   0.970
 3492SOL    HW211376   1.085   5.911   1.127
 3493SOL     OW11377   6.613   5.531   6.964
 3493SOL    HW111378   6.522   5.561   6.993
 3493SOL    HW211379   6.620   5.540   6.865
 3494SOL     OW11380   3.927   0.141   1.298
 3494SOL    HW111381   3.868   0.107   1.225
 3494SOL    HW211382   3.870   0.173   1.375
 3495SOL     OW11383   4.205   4.680   2.482
 3495SOL    HW111384   4.214   4.615   2.558
 3495SOL    HW211385   4.295   4.717   2.460
 3496SOL     OW11386   0.605   3.161   1.298
 3496SOL    HW111387   0.629   3.108   1.379
 3496SOL    HW211388   0.688   3.191   1.251
 3497SOL     OW11389   4.119   6.956   2.963
 3497SOL    HW111390   4.165   6.880   2.917
 3497SOL    HW211391   4.177   0.018   2.958
 3498SOL     OW11392   2.443   2.385   0.340
 3498SOL    HW111393   2.521   2.338   0.298
 3498SOL    HW211394   2.474   2.470   0.382
 3499SOL     OW11395   5.556   2.624   4.596
 3499SOL    HW111396   5.653   2.612   4.617
 3499SOL    HW211397   5.501   2.577   4.665
 3500SOL     OW11398   0.173   4.277   5.509
 3500SOL    HW111399   0.227   4.335   5.448
 3500SOL    HW211400   0.230   4.246   5.585
 3501SOL     OW11401   0.482   5.125   4.109
 3501SOL    HW111402   0.425   5.180   4.047
 3501SOL    HW211403   0.435   5.039   4.131
 3502SOL     OW11404   6.970   2.681   2.214
 3502SOL    HW111405   0.017   2.629   2.160
 3502SOL    HW211406   6.925   2.748   2.156
 3503SOL     OW11407   5.473   6.159   5.258
 3503SOL    HW111408   5.480   6.219   5.178
 3503SOL    HW211409   5.565   6.133   5.287
 3504SOL     OW11410   2.863   2.896   1.604
 3504SOL    HW111411   2.874   2.967   1.673
 3504SOL    HW211412   2.888   2.807   1.643
 3505SOL     OW11413   5.727   5.341   5.067
 3505SOL    HW111414   5.760   5.255   5.104
 3505SOL    HW211415   5.740   5.414   5.134
 3506SOL     OW11416   4.503   5.825   5.327
 3506SOL    HW111417   4.585   5.768   5.337
 3506SOL    HW211418   4.452   5.824   5.413
 3507SOL     OW11419   1.859   0.542   6.927
 3507SOL    HW111420   1.869   0.486   6.845
 3507SOL    HW211421   1.940   0.530   6.985
 3508SOL     OW11422   3.864   2.612   6.009
 3508SOL    HW111423   3.928   2.673   6.055
 3508SOL    HW211424   3.865   2.629   5.911
 3509SOL     OW11425   5.185   6.405   6.381
 3509SOL    HW111426   5.281   6.431   6.376
 3509SOL    HW211427   5.136   6.468   6.442
 3510SOL     OW11428   1.927   2.630   1.523
 3510SOL    HW111429   1.996   2.573   1.478
 3510SOL    HW211430   1.907   2.710   1.466
 3511SOL     OW11431   1.746   4.620   7.010
 3511SOL    HW111432   1.845   4.605   7.003
 3511SOL    HW211433   1.715   4.597   0.082
 3512SOL     OW11434   0.794   4.451   0.518
 3512SOL    HW111435   0.817   4.361   0.556
 3512SOL    HW211436   0.867   4.481   0.457
 3513SOL     OW11437   5.864   4.402   0.826
 3513SOL    HW111438   5.861   4.499   0.851
 3513SOL    HW211439   5.805   4.387   0.746
 3514SOL     OW11440   0.442   0.954   1.926
 3514SOL    HW111441   0.488   1.007   1.997
 3514SOL    HW211442   0.482   0.863   1.920
 3515SOL     OW11443   3.790   6.402   2.498
 3515SOL    HW111444   3.832   6.337   2.561
 3515SOL    HW211445   3.860   6.436   2.435
 3516SOL     OW11446   4.390   0.762   1.059
 3516SOL    HW111447   4.297   0.793   1.039
 3516SOL    HW211448   4.456   0.834   1.036
 3517SOL     OW11449   0.454   2.087   6.636
 3517SOL    HW111450   0.499   2.077   6.725
 3517SOL    HW211451   0.523   2.081   6.563
 3518SOL     OW11452   5.017   4.008   5.157
 3518SOL    HW111453   4.970   3.929   5.197
 3518SOL    HW211454   5.023   4.081   5.225
 3519SOL     OW11455   1.862   0.380   6.712
 3519SOL    HW111456   1.890   0.404   6.619
 3519SOL    HW211457   1.764   0.358   6.712
 3520SOL     OW11458   3.411   4.630   0.986
 3520SOL    HW111459   3.426   4.601   1.081
 3520SOL    HW211460   3.317   4.607   0.959
 3521SOL     OW11461   5.548   3.087   1.536
 3521SOL    HW111462   5.462   3.047   1.568
 3521SOL    HW211463   5.558   3.179   1.574
 3522SOL     OW11464   3.528   5.570   2.085
 3522SOL    HW111465   3.607   5.558   2.146
 3522SOL    HW211466   3.459   5.627   2.130
 3523SOL     OW11467   3.176   4.504   5.549
 3523SOL    HW111468   3.165   4.437   5.476
 3523SOL    HW211469   3.273   4.520   5.565
 3524SOL     OW11470   2.465   0.522   1.211
 3524SOL    HW111471   2.381   0.478   1.182
 3524SOL    HW211472   2.539   0.455   1.214
 3525SOL     OW11473   0.431   3.367   1.930
 3525SOL    HW111474   0.468   3.448   1.974
 3525SOL    HW211475   0.353   3.393   1.872
 3526SOL     OW11476   1.299   0.103   3.836
 3526SOL    HW111477   1.396   0.104   3.816
 3526SOL    HW211478   1.266   0.197   3.849
 3527SOL     OW11479   5.671   2.964   5.586
 3527SOL    HW111480   5.611   2.912   5.526
 3527SOL    HW211481   5.635   2.962   5.680
 3528SOL     OW11482   1.023   5.710   3.527
 3528SOL    HW111483   1.066   5.631   3.482
 3528SOL    HW211484   1.093   5.762   3.577
 3529SOL     OW11485   3.939   0.025   5.816
 3529SOL    HW111486   3.959   6.980   5.743
 3529SOL    HW211487   3.853   0.071   5.798
 3530SOL     OW11488   2.034   4.871   2.647
 3530SOL    HW111489   1.962   4.919   2.698
 3530SOL    HW211490   2.051   4.782   2.689
 3531SOL     OW11491   5.015   4.641   1.113
 3531SOL    HW111492   4.932   4.644   1.168
 3531SOL    HW211493   5.090   4.602   1.167
 3532SOL     OW11494   3.182   0.498   0.395
 3532SOL    HW111495   3.176   0.567   0.323
 3532SOL    HW211496   3.132   0.529   0.476
 3533SOL     OW11497   1.266   2.194   3.518
 3533SOL    HW111498   1.209   2.270   3.487
 3533SOL    HW211499   1.256   2.117   3.455
 3534SOL     OW11500   5.682   0.872   5.298
 3534SOL    HW111501   5.777   0.850   5.281
 3534SOL    HW211502   5.647   0.816   5.373
 3535SOL     OW11503   6.920   5.573   0.729
 3535SOL    HW111504   6.936   5.505   0.658
 3535SOL    HW211505   7.006   5.593   0.776
 3536SOL     OW11506   2.232   2.964   3.906
 3536SOL    HW111507   2.241   2.865   3.895
 3536SOL    HW211508   2.305   3.010   3.856
 3537SOL     OW11509   2.889   4.608   0.342
 3537SOL    HW111510   2.915   4.531   0.285
 3537SOL    HW211511   2.790   4.605   0.360
 3538SOL     OW11512   2.889   0.882   3.986
 3538SOL    HW111513   2.793   0.908   3.992
 3538SOL    HW211514   2.896   0.786   3.963
 3539SOL     OW11515   5.931   3.677   5.808
 3539SOL    HW111516   5.977   3.685   5.896
 3539SOL    HW211517   5.984   3.724   5.738
 3540SOL     OW11518   2.214   1.868   6.130
 3540SOL    HW111519   2.250   1.961   6.141
 3540SOL    HW211520   2.279   1.812   6.079
 3541SOL     OW11521   2.642   2.888   6.985
 3541SOL    HW111522   2.673   2.837   6.905
 3541SOL    HW211523   2.558   2.848   0.000
 3542SOL     OW11524   6.087   2.720   0.372
 3542SOL    HW111525   6.182   2.752   0.372
 3542SOL    HW211526   6.086   2.620   0.376
 3543SOL     OW11527   1.642   3.018   3.668
 3543SOL    HW111528   1.598   3.108   3.671
 3543SOL    HW211529   1.738   3.028   3.642
 3544SOL     OW11530   1.968   4.679   6.301
 3544SOL    HW111531   1.951   4.668   6.399
 3544SOL    HW211532   2.037   4.750   6.287
 3545SOL     OW11533   3.840   5.028   0.273
 3545SOL    HW111534   3.839   4.945   0.217
 3545SOL    HW211535   3.748   5.067   0.277
 3546SOL     OW11536   6.837   5.175   3.029
 3546SOL    HW111537   6.781   5.257   3.035
 3546SOL    HW211538   6.833   5.138   2.936
 3547SOL     OW11539   6.650   4.409   5.223
 3547SOL    HW111540   6.698   4.451   5.300
 3547SOL    HW211541   6.699   4.327   5.194
 3548SOL     OW11542   5.699   0.534   4.949
 3548SOL    HW111543   5.618   0.475   4.947
 3548SOL    HW211544   5.747   0.521   5.036
 3549SOL     OW11545   2.176   4.747   5.603
 3549SOL    HW111546   2.276   4.735   5.603
 3549SOL    HW211547   2.134   4.673   5.551
 3550SOL     OW11548   5.731   2.765   4.321
 3550SOL    HW111549   5.645   2.718   4.301
 3550SOL    HW211550   5.777   2.787   4.235
 3551SOL     OW11551   3.322   1.800   4.833
 3551SOL    HW111552   3.341   1.880   4.890
 3551SOL    HW211553   3.396   1.787   4.768
 3552SOL     OW11554   5.871   5.629   2.233
 3552SOL    HW111555   5.825   5.692   2.170
 3552SOL    HW211556   5.803   5.565   2.271
 3553SOL     OW11557   3.600   5.344   6.292
 3553SOL    HW111558   3.549   5.417   6.246
 3553SOL    HW211559   3.613   5.368   6.389
 3554SOL     OW11560   4.973   2.912   0.427
 3554SOL    HW111561   4.997   3.004   0.395
 3554SOL    HW211562   4.940   2.918   0.521
 3555SOL     OW11563   1.332   1.726   4.094
 3555SOL    HW111564   1.250   1.768   4.134
 3555SOL    HW211565   1.373   1.788   4.028
 3556SOL     OW11566   3.501   0.944   3.481
 3556SOL    HW111567   3.529   0.952   3.385
 3556SOL    HW211568   3.510   0.849   3.510
 3557SOL     OW11569   1.287   6.720   3.590
 3557SOL    HW111570   1.342   6.675   3.661
 3557SOL    HW211571   1.260   6.811   3.622
 3558SOL     OW11572   2.702   4.624   1.158
 3558SOL    HW111573   2.671   4.549   1.218
 3558SOL    HW211574   2.629   4.692   1.152
 3559SOL     OW11575   1.524   5.850   4.315
 3559SOL    HW111576   1.454   5.868   4.246
 3559SOL    HW211577   1.529   5.752   4.332
 3560SOL     OW11578   1.937   4.769   3.343
 3560SOL    HW111579   1.945   4.812   3.253
 3560SOL    HW211580   2.027   4.765   3.387
 3561SOL     OW11581   5.146   4.534   5.499
 3561SOL    HW111582   5.125   4.482   5.582
 3561SOL    HW211583   5.219   4.599   5.517
 3562SOL     OW11584   3.444   1.890   4.200
 3562SOL    HW111585   3.484   1.806   4.162
 3562SOL    HW211586   3.515   1.943   4.246
 3563SOL     OW11587   6.169   1.899   5.968
 3563SOL    HW111588   6.254   1.950   5.984
 3563SOL    HW211589   6.129   1.927   5.881
 3564SOL     OW11590   0.530   4.712   3.198
 3564SOL    HW111591   0.484   4.800   3.195
 3564SOL    HW211592   0.480   4.646   3.142
 3565SOL     OW11593   3.460   5.412   2.984
 3565SOL    HW111594   3.501   5.361   3.060
 3565SOL    HW211595   3.532   5.434   2.918
 3566SOL     OW11596   6.022   0.892   5.660
 3566SOL    HW111597   6.097   0.951   5.690
 3566SOL    HW211598   5.992   0.834   5.736
 3567SOL     OW11599   0.655   2.359   6.003
 3567SOL    HW111600   0.747   2.347   6.041
 3567SOL    HW211601   0.634   2.456   5.996
 3568SOL     OW11602   6.467   3.952   4.724
 3568SOL    HW111603   6.445   3.932   4.819
 3568SOL    HW211604   6.401   3.906   4.664
 3569SOL     OW11605   3.236   1.895   5.488
 3569SOL    HW111606   3.304   1.824   5.506
 3569SOL    HW211607   3.283   1.980   5.463
 3570SOL     OW11608   4.668   0.712   6.154
 3570SOL    HW111609   4.641   0.644   6.223
 3570SOL    HW211610   4.743   0.677   6.100
 3571SOL     OW11611   0.569   5.163   0.203
 3571SOL    HW111612   0.556   5.145   0.105
 3571SOL    HW211613   0.507   5.105   0.256
 3572SOL     OW11614   5.454   4.015   3.457
 3572SOL    HW111615   5.455   3.915   3.455
 3572SOL    HW211616   5.454   4.050   3.363
 3573SOL     OW11617   0.473   4.812   3.934
 3573SOL    HW111618   0.568   4.840   3.924
 3573SOL    HW211619   0.423   4.834   3.851
 3574SOL     OW11620   0.336   4.437   0.410
 3574SOL    HW111621   0.302   4.493   0.334
 3574SOL    HW211622   0.432   4.459   0.427
 3575SOL     OW11623   5.403   4.630   2.899
 3575SOL    HW111624   5.423   4.727   2.883
 3575SOL    HW211625   5.450   4.599   2.982
 3576SOL     OW11626   2.107   1.632   5.731
 3576SOL    HW111627   2.038   1.562   5.715
 3576SOL    HW211628   2.191   1.608   5.683
 3577SOL     OW11629   0.861   3.618   5.825
 3577SOL    HW111630   0.924   3.662   5.889
 3577SOL    HW211631   0.909   3.600   5.739
 3578SOL     OW11632   3.577   2.434   0.700
 3578SOL    HW111633   3.496   2.456   0.755
 3578SOL    HW211634   3.558   2.353   0.645
 3579SOL     OW11635   6.633   4.101   4.551
 3579SOL    HW111636   6.582   4.043   4.615
 3579SOL    HW211637   6.680   4.043   4.484
 3580SOL     OW11638   5.838   2.316   1.091
 3580SOL    HW111639   5.786   2.302   1.175
 3580SOL    HW211640   5.866   2.227   1.054
 3581SOL     OW11641   6.610   7.020   4.085
 3581SOL    HW111642   6.526   0.023   4.135
 3581SOL    HW211643   6.594   0.012   3.987
 3582SOL     OW11644   0.733   1.686   5.732
 3582SOL    HW111645   0.829   1.705   5.715
 3582SOL    HW211646   0.678   1.765   5.705
 3583SOL     OW11647   1.336   3.844   6.593
 3583SOL    HW111648   1.423   3.820   6.551
 3583SOL    HW211649   1.261   3.805   6.538
 3584SOL     OW11650   5.860   5.283   0.484
 3584SOL    HW111651   5.813   5.194   0.489
 3584SOL    HW211652   5.793   5.356   0.497
 3585SOL     OW11653   3.953   5.770   5.181
 3585SOL    HW111654   4.011   5.725   5.112
 3585SOL    HW211655   3.954   5.869   5.166
 3586SOL     OW11656   0.212   2.040   5.105
 3586SOL    HW111657   0.207   2.094   5.021
 3586SOL    HW211658   0.139   1.972   5.105
 3587SOL     OW11659   3.041   5.035   6.160
 3587SOL    HW111660   2.943   5.037   6.178
 3587SOL    HW211661   3.090   5.017   6.245
 3588SOL     OW11662   1.070   2.732   4.527
 3588SOL    HW111663   0.996   2.718   4.592
 3588SOL    HW211664   1.082   2.650   4.471
 3589SOL     OW11665   4.214   1.659   4.110
 3589SOL    HW111666   4.279   1.699   4.045
 3589SOL    HW211667   4.148   1.728   4.138
 3590SOL     OW11668   0.302   3.608   5.987
 3590SOL    HW111669   0.345   3.684   5.938
 3590SOL    HW211670   0.296   3.631   6.084
 3591SOL     OW11671   5.000   3.562   5.998
 3591SOL    HW111672   4.907   3.569   5.961
 3591SOL    HW211673   5.038   3.654   6.010
 3592SOL     OW11674   6.368   4.344   2.723
 3592SOL    HW111675   6.278   4.309   2.697
 3592SOL    HW211676   6.439   4.298   2.670
 3593SOL     OW11677   2.019   5.830   3.656
 3593SOL    HW111678   2.003   5.796   3.749
 3593SOL    HW211679   2.105   5.880   3.654
 3594SOL     OW11680   3.982   0.771   3.178
 3594SOL    HW111681   3.980   0.870   3.166
 3594SOL    HW211682   4.023   0.749   3.266
 3595SOL     OW11683   2.656   5.326   6.432
 3595SOL    HW111684   2.591   5.366   6.497
 3595SOL    HW211685   2.608   5.303   6.347
 3596SOL     OW11686   6.379   2.500   2.801
 3596SOL    HW111687   6.358   2.403   2.816
 3596SOL    HW211688   6.415   2.512   2.709
 3597SOL     OW11689   1.966   0.033   5.314
 3597SOL    HW111690   2.037   6.995   5.275
 3597SOL    HW211691   1.964   0.021   5.413
 3598SOL     OW11692   1.287   5.910   6.094
 3598SOL    HW111693   1.290   5.924   5.995
 3598SOL    HW211694   1.378   5.884   6.126
 3599SOL     OW11695   0.564   1.875   5.669
 3599SOL    HW111696   0.562   1.952   5.732
 3599SOL    HW211697   0.479   1.822   5.678
 3600SOL     OW11698   1.247   3.535   0.033
 3600SOL    HW111699   1.258   3.513   6.956
 3600SOL    HW211700   1.190   3.616   0.043
 3601SOL     OW11701   6.035   4.385   0.433
 3601SOL    HW111702   5.980   4.302   0.442
 3601SOL    HW211703   6.015   4.429   0.346
 3602SOL     OW11704   1.378   1.900   0.645
 3602SOL    HW111705   1.297   1.916   0.702
 3602SOL    HW211706   1.440   1.979   0.652
 3603SOL     OW11707   3.371   6.249   3.839
 3603SOL    HW111708   3.420   6.239   3.752
 3603SOL    HW211709   3.425   6.306   3.901
 3604SOL     OW11710   0.123   5.064   4.014
 3604SOL    HW111711   0.195   5.082   3.947
 3604SOL    HW211712   0.153   5.094   4.105
 3605SOL     OW11713   5.377   4.175   5.255
 3605SOL    HW111714   5.314   4.228   5.312
 3605SOL    HW211715   5.469   4.179   5.295
 3606SOL     OW11716   6.999   6.274   5.540
 3606SOL    HW111717   6.975   6.288   5.444
 3606SOL    HW211718   0.060   6.328   5.562
 3607SOL     OW11719   5.301   6.275   1.386
 3607SOL    HW111720   5.319   6.333   1.307
 3607SOL    HW211721   5.328   6.181   1.365
 3608SOL     OW11722   0.010   2.011   2.703
 3608SOL    HW111723   0.077   2.012   2.778
 3608SOL    HW211724   6.938   2.019   2.740
 3609SOL     OW11725   0.354   0.354   4.070
 3609SOL    HW111726   0.418   0.285   4.034
 3609SOL    HW211727   0.405   0.439   4.089
 3610SOL     OW11728   1.100   0.234   5.721
 3610SOL    HW111729   1.184   0.184   5.701
 3610SOL    HW211730   1.067   0.278   5.638
 3611SOL     OW11731   4.112   6.258   6.068
 3611SOL    HW111732   4.127   6.345   6.115
 3611SOL    HW211733   4.044   6.270   5.997
 3612SOL     OW11734   5.924   0.375   6.188
 3612SOL    HW111735   5.836   0.346   6.225
 3612SOL    HW211736   5.961   0.303   6.130
 3613SOL     OW11737   4.325   4.945   1.922
 3613SOL    HW111738   4.321   4.881   1.998
 3613SOL    HW211739   4.395   5.014   1.940
 3614SOL     OW11740   3.532   3.649   2.923
 3614SOL    HW111741   3.624   3.650   2.885
 3614SOL    HW211742   3.472   3.596   2.864
 3615SOL     OW11743   5.295   6.190   0.330
 3615SOL    HW111744   5.263   6.141   0.249
 3615SOL    HW211745   5.281   6.133   0.411
 3616SOL     OW11746   0.051   2.714   5.702
 3616SOL    HW111747   0.008   2.804   5.710
 3616SOL    HW211748   0.034   2.662   5.785
 3617SOL     OW11749   4.592   0.645   6.872
 3617SOL    HW111750   4.539   0.657   6.956
 3617SOL    HW211751   4.675   0.700   6.877
 3618SOL     OW11752   2.074   1.894   4.919
 3618SOL    HW111753   1.999   1.889   4.853
 3618SOL    HW211754   2.157   1.923   4.872
 3619SOL     OW11755   6.228   3.260   4.183
 3619SOL    HW111756   6.188   3.175   4.217
 3619SOL    HW211757   6.253   3.249   4.087
 3620SOL     OW11758   6.195   6.164   6.365
 3620SOL    HW111759   6.112   6.138   6.414
 3620SOL    HW211760   6.186   6.259   6.334
 3621SOL     OW11761   3.403   2.528   5.791
 3621SOL    HW111762   3.498   2.521   5.823
 3621SOL    HW211763   3.347   2.460   5.838
 3622SOL     OW11764   1.870   2.353   4.204
 3622SOL    HW111765   1.855   2.369   4.107
 3622SOL    HW211766   1.914   2.264   4.217
 3623SOL     OW11767   6.254   5.475   4.285
 3623SOL    HW111768   6.326   5.408   4.304
 3623SOL    HW211769   6.295   5.565   4.269
 3624SOL     OW11770   1.534   6.569   2.242
 3624SOL    HW111771   1.548   6.511   2.322
 3624SOL    HW211772   1.437   6.587   2.230
 3625SOL     OW11773   5.426   3.994   7.016
 3625SOL    HW111774   5.361   3.918   0.002
 3625SOL    HW211775   5.475   3.988   6.929
 3626SOL     OW11776   1.603   3.683   5.833
 3626SOL    HW111777   1.672   3.754   5.847
 3626SOL    HW211778   1.644   3.593   5.850
 3627SOL     OW11779   3.414   2.903   3.535
 3627SOL    HW111780   3.475   2.887   3.457
 3627SOL    HW211781   3.466   2.903   3.620
 3628SOL     OW11782   1.373   0.402   1.817
 3628SOL    HW111783   1.394   0.308   1.842
 3628SOL    HW211784   1.362   0.457   1.900
 3629SOL     OW11785   6.813   2.005   4.192
 3629SOL    HW111786   6.752   2.075   4.230
 3629SOL    HW211787   6.780   1.977   4.103
 3630SOL     OW11788   5.128   2.616   3.242
 3630SOL    HW111789   5.071   2.534   3.246
 3630SOL    HW211790   5.107   2.676   3.318
 3631SOL     OW11791   1.725   0.278   3.496
 3631SOL    HW111792   1.804   0.318   3.450
 3631SOL    HW211793   1.651   0.266   3.430
 3632SOL     OW11794   4.964   6.796   1.065
 3632SOL    HW111795   4.936   6.729   0.997
 3632SOL    HW211796   4.888   6.812   1.129
 3633SOL     OW11797   3.033   1.675   5.623
 3633SOL    HW111798   3.100   1.602   5.606
 3633SOL    HW211799   2.946   1.634   5.653
 3634SOL     OW11800   0.282   5.475   4.529
 3634SOL    HW111801   0.284   5.494   4.627
 3634SOL    HW211802   0.219   5.400   4.511
 3635SOL     OW11803   2.781   6.112   6.490
 3635SOL    HW111804   2.762   6.038   6.425
 3635SOL    HW211805   2.696   6.159   6.512
 3636SOL     OW11806   0.154   5.516   6.640
 3636SOL    HW111807   0.184   5.568   6.720
 3636SOL    HW211808   0.132   5.578   6.566
 3637SOL     OW11809   6.003   1.718   1.384
 3637SOL    HW111810   5.996   1.637   1.441
 3637SOL    HW211811   6.096   1.755   1.389
 3638SOL     OW11812   0.283   4.817   4.595
 3638SOL    HW111813   0.186   4.835   4.614
 3638SOL    HW211814   0.340   4.871   4.657
 3639SOL     OW11815   3.225   4.474   1.568
 3639SOL    HW111816   3.226   4.452   1.470
 3639SOL    HW211817   3.183   4.398   1.618
 3640SOL     OW11818   3.231   0.691   0.205
 3640SOL    HW111819   3.273   0.768   0.251
 3640SOL    HW211820   3.150   0.722   0.154
 3641SOL     OW11821   5.370   2.954   4.283
 3641SOL    HW111822   5.347   2.923   4.375
 3641SOL    HW211823   5.401   2.876   4.228
 3642SOL     OW11824   4.621   0.847   0.624
 3642SOL    HW111825   4.550   0.845   0.553
 3642SOL    HW211826   4.704   0.888   0.587
 3643SOL     OW11827   3.338   5.643   4.977
 3643SOL    HW111828   3.353   5.630   4.879
 3643SOL    HW211829   3.321   5.740   4.995
 3644SOL     OW11830   6.654   1.502   1.616
 3644SOL    HW111831   6.705   1.579   1.654
 3644SOL    HW211832   6.564   1.532   1.586
 3645SOL     OW11833   6.978   3.236   3.685
 3645SOL    HW111834   6.883   3.253   3.713
 3645SOL    HW211835   0.013   3.318   3.701
 3646SOL     OW11836   6.139   4.111   6.722
 3646SOL    HW111837   6.111   4.061   6.804
 3646SOL    HW211838   6.194   4.051   6.663
 3647SOL     OW11839   2.283   3.247   0.116
 3647SOL    HW111840   2.304   3.290   0.204
 3647SOL    HW211841   2.195   3.281   0.083
 3648SOL     OW11842   3.091   4.985   2.901
 3648SOL    HW111843   3.097   5.083   2.918
 3648SOL    HW211844   3.166   4.956   2.841
 3649SOL     OW11845   5.175   3.449   2.130
 3649SOL    HW111846   5.226   3.524   2.089
 3649SOL    HW211847   5.183   3.368   2.072
 3650SOL     OW11848   0.219   4.955   0.911
 3650SOL    HW111849   0.285   5.005   0.967
 3650SOL    HW211850   0.129   4.957   0.957
 3651SOL     OW11851   0.569   6.757   3.889
 3651SOL    HW111852   0.472   6.775   3.871
 3651SOL    HW211853   0.607   6.831   3.945
 3652SOL     OW11854   5.836   6.069   3.306
 3652SOL    HW111855   5.762   6.134   3.324
 3652SOL    HW211856   5.813   6.013   3.226
 3653SOL     OW11857   0.673   1.632   4.508
 3653SOL    HW111858   0.757   1.577   4.506
 3653SOL    HW211859   0.598   1.579   4.468
 3654SOL     OW11860   2.429   5.633   0.617
 3654SOL    HW111861   2.369   5.703   0.654
 3654SOL    HW211862   2.524   5.653   0.642
 3655SOL     OW11863   1.945   0.137   3.270
 3655SOL    HW111864   1.940   0.089   3.182
 3655SOL    HW211865   1.888   0.089   3.337
 3656SOL     OW11866   1.014   3.544   2.223
 3656SOL    HW111867   0.916   3.545   2.244
 3656SOL    HW211868   1.063   3.499   2.297
 3657SOL     OW11869   4.955   4.912   6.177
 3657SOL    HW111870   4.939   4.877   6.270
 3657SOL    HW211871   4.938   4.839   6.111
 3658SOL     OW11872   1.505   5.867   4.762
 3658SOL    HW111873   1.583   5.861   4.699
 3658SOL    HW211874   1.493   5.778   4.807
 3659SOL     OW11875   1.842   3.442   5.435
 3659SOL    HW111876   1.758   3.475   5.392
 3659SOL    HW211877   1.865   3.351   5.400
 3660SOL     OW11878   4.613   0.251   3.340
 3660SOL    HW111879   4.660   0.196   3.270
 3660SOL    HW211880   4.677   0.319   3.376
 3661SOL     OW11881   5.534   1.167   6.079
 3661SOL    HW111882   5.621   1.168   6.030
 3661SOL    HW211883   5.536   1.237   6.151
 3662SOL     OW11884   4.382   0.458   3.935
 3662SOL    HW111885   4.310   0.524   3.911
 3662SOL    HW211886   4.353   0.406   4.015
 3663SOL     OW11887   1.602   2.763   0.720
 3663SOL    HW111888   1.681   2.706   0.697
 3663SOL    HW211889   1.612   2.797   0.813
 3664SOL     OW11890   5.269   1.950   2.344
 3664SOL    HW111891   5.304   1.946   2.438
 3664SOL    HW211892   5.342   1.982   2.284
 3665SOL     OW11893   2.193   5.638   5.348
 3665SOL    HW111894   2.285   5.635   5.387
 3665SOL    HW211895   2.139   5.564   5.386
 3666SOL     OW11896   0.910   3.939   3.527
 3666SOL    HW111897   0.859   4.025   3.524
 3666SOL    HW211898   1.005   3.955   3.501
 3667SOL     OW11899   0.085   1.223   1.866
 3667SOL    HW111900   0.018   1.149   1.856
 3667SOL    HW211901   0.132   1.237   1.779
 3668SOL     OW11902   1.538   1.380   2.237
 3668SOL    HW111903   1.514   1.421   2.149
 3668SOL    HW211904   1.611   1.433   2.280
 3669SOL     OW11905   5.603   1.410   2.972
 3669SOL    HW111906   5.584   1.397   3.070
 3669SOL    HW211907   5.680   1.473   2.962
 3670SOL     OW11908   2.578   4.530   0.429
 3670SOL    HW111909   2.571   4.538   0.329
 3670SOL    HW211910   2.488   4.545   0.469
 3671SOL     OW11911   5.847   0.599   3.885
 3671SOL    HW111912   5.939   0.637   3.874
 3671SOL    HW211913   5.780   0.661   3.846
 3672SOL     OW11914   5.541   2.132   1.448
 3672SOL    HW111915   5.569   2.059   1.386
 3672SOL    HW211916   5.499   2.092   1.530
 3673SOL     OW11917   4.248   6.443   6.561
 3673SOL    HW111918   4.320   6.495   6.516
 3673SOL    HW211919   4.258   6.452   6.660
 3674SOL     OW11920   0.649   0.114   5.348
 3674SOL    HW111921   0.657   0.213   5.336
 3674SOL    HW211922   0.692   0.067   5.270
 3675SOL     OW11923   2.035   3.409   4.767
 3675SOL    HW111924   1.949   3.455   4.745
 3675SOL    HW211925   2.096   3.412   4.688
 3676SOL     OW11926   5.443   4.523   4.159
 3676SOL    HW111927   5.389   4.577   4.224
 3676SOL    HW211928   5.398   4.435   4.145
 3677SOL     OW11929   1.813   6.126   3.287
 3677SOL    HW111930   1.760   6.166   3.211
 3677SOL    HW211931   1.877   6.194   3.322
 3678SOL     OW11932   0.108   2.479   5.133
 3678SOL    HW111933   0.143   2.547   5.068
 3678SOL    HW211934   0.155   2.490   5.220
 3679SOL     OW11935   1.500   0.570   2.793
 3679SOL    HW111936   1.510   0.526   2.704
 3679SOL    HW211937   1.493   0.500   2.864
 3680SOL     OW11938   5.517   2.203   3.609
 3680SOL    HW111939   5.517   2.256   3.525
 3680SOL    HW211940   5.473   2.255   3.682
 3681SOL     OW11941   0.107   0.186   5.953
 3681SOL    HW111942   0.160   0.134   5.886
 3681SOL    HW211943   0.073   0.270   5.911
 3682SOL     OW11944   6.086   2.163   6.723
 3682SOL    HW111945   6.078   2.245   6.666
 3682SOL    HW211946   6.026   2.091   6.687
 3683SOL     OW11947   0.230   0.008   3.006
 3683SOL    HW111948   0.252   0.009   3.104
 3683SOL    HW211949   0.198   6.937   2.980
 3684SOL     OW11950   2.022   4.658   0.010
 3684SOL    HW111951   2.010   4.654   0.109
 3684SOL    HW211952   2.035   4.753   7.001
 3685SOL     OW11953   6.607   6.543   6.545
 3685SOL    HW111954   6.529   6.557   6.485
 3685SOL    HW211955   6.576   6.544   6.640
 3686SOL     OW11956   5.597   6.037   3.890
 3686SOL    HW111957   5.540   6.061   3.812
 3686SOL    HW211958   5.619   5.940   3.886
 3687SOL     OW11959   3.577   5.908   5.010
 3687SOL    HW111960   3.636   5.829   4.994
 3687SOL    HW211961   3.540   5.940   4.922
 3688SOL     OW11962   6.448   3.700   6.598
 3688SOL    HW111963   6.416   3.766   6.667
 3688SOL    HW211964   6.546   3.711   6.585
 3689SOL     OW11965   2.236   0.459   6.497
 3689SOL    HW111966   2.137   0.474   6.493
 3689SOL    HW211967   2.256   0.364   6.476
 3690SOL     OW11968   5.088   6.217   0.593
 3690SOL    HW111969   5.057   6.257   0.507
 3690SOL    HW211970   5.108   6.120   0.579
 3691SOL     OW11971   2.853   3.272   0.108
 3691SOL    HW111972   2.854   3.351   0.047
 3691SOL    HW211973   2.900   3.295   0.194
 3692SOL     OW11974   0.285   5.884   5.113
 3692SOL    HW111975   0.243   5.952   5.053
 3692SOL    HW211976   0.351   5.929   5.174
 3693SOL     OW11977   2.075   2.843   2.806
 3693SOL    HW111978   2.039   2.787   2.880
 3693SOL    HW211979   2.155   2.798   2.766
 3694SOL     OW11980   1.188   5.555   3.213
 3694SOL    HW111981   1.167   5.506   3.297
 3694SOL    HW211982   1.178   5.494   3.134
 3695SOL     OW11983   6.640   3.106   1.655
 3695SOL    HW111984   6.622   3.137   1.748
 3695SOL    HW211985   6.658   3.008   1.655
 3696SOL     OW11986   3.757   5.628   5.332
 3696SOL    HW111987   3.795   5.702   5.277
 3696SOL    HW211988   3.659   5.643   5.346
 3697SOL     OW11989   0.180   6.195   2.894
 3697SOL    HW111990   0.271   6.235   2.904
 3697SOL    HW211991   0.187   6.104   2.854
 3698SOL     OW11992   2.243   0.710   5.248
 3698SOL    HW111993   2.315   0.675   5.188
 3698SOL    HW211994   2.172   0.640   5.259
 3699SOL     OW11995   0.781   2.986   4.080
 3699SOL    HW111996   0.766   2.905   4.136
 3699SOL    HW211997   0.755   3.068   4.131
 3700SOL     OW11998   0.133   0.083   5.058
 3700SOL    HW111999   0.063   0.078   4.987
 3700SOL    HW212000   0.184   0.168   5.049
 3701SOL     OW12001   1.657   0.466   3.872
 3701SOL    HW112002   1.737   0.525   3.864
 3701SOL    HW212003   1.616   0.453   3.782
 3702SOL     OW12004   5.530   6.554   2.578
 3702SOL    HW112005   5.444   6.539   2.626
 3702SOL    HW212006   5.526   6.640   2.527
 3703SOL     OW12007   4.956   1.266   6.157
 3703SOL    HW112008   4.928   1.171   6.173
 3703SOL    HW212009   4.994   1.275   6.065
 3704SOL     OW12010   3.371   1.272   1.766
 3704SOL    HW112011   3.421   1.353   1.737
 3704SOL    HW212012   3.304   1.298   1.836
 3705SOL     OW12013   4.510   5.541   3.580
 3705SOL    HW112014   4.475   5.486   3.656
 3705SOL    HW212015   4.609   5.548   3.585
 3706SOL     OW12016   1.454   3.536   6.039
 3706SOL    HW112017   1.492   3.465   6.099
 3706SOL    HW212018   1.527   3.599   6.013
 3707SOL     OW12019   5.260   4.046   5.060
 3707SOL    HW112020   5.306   4.107   5.125
 3707SOL    HW212021   5.173   4.017   5.098
 3708SOL     OW12022   6.860   0.901   6.026
 3708SOL    HW112023   6.857   0.887   6.125
 3708SOL    HW212024   6.836   0.816   5.979
 3709SOL     OW12025   3.413   0.643   1.118
 3709SOL    HW112026   3.484   0.687   1.065
 3709SOL    HW212027   3.448   0.620   1.209
 3710SOL     OW12028   6.654   5.457   6.656
 3710SOL    HW112029   6.661   5.503   6.568
 3710SOL    HW212030   6.580   5.390   6.653
 3711SOL     OW12031   0.542   7.003   3.721
 3711SOL    HW112032   0.640   6.982   3.723
 3711SOL    HW212033   0.494   6.935   3.665
 3712SOL     OW12034   6.954   6.101   6.905
 3712SOL    HW112035   6.857   6.094   6.929
 3712SOL    HW212036   6.995   6.010   6.908
 3713SOL     OW12037   1.137   6.504   5.111
 3713SOL    HW112038   1.170   6.598   5.114
 3713SOL    HW212039   1.212   6.441   5.129
 3714SOL     OW12040   4.959   5.618   5.749
 3714SOL    HW112041   5.041   5.665   5.716
 3714SOL    HW212042   4.884   5.683   5.758
 3715SOL     OW12043   6.211   4.098   2.714
 3715SOL    HW112044   6.123   4.122   2.671
 3715SOL    HW212045   6.200   4.014   2.767
 3716SOL     OW12046   6.293   6.897   5.297
 3716SOL    HW112047   6.255   6.884   5.205
 3716SOL    HW212048   6.275   6.991   5.326
 3717SOL     OW12049   5.776   6.125   0.027
 3717SOL    HW112050   5.697   6.078   0.066
 3717SOL    HW212051   5.860   6.083   0.062
 3718SOL     OW12052   1.759   0.666   0.298
 3718SOL    HW112053   1.671   0.640   0.258
 3718SOL    HW212054   1.827   0.596   0.277
 3719SOL     OW12055   5.219   4.842   1.046
 3719SOL    HW112056   5.156   4.766   1.058
 3719SOL    HW212057   5.230   4.861   0.948
 3720SOL     OW12058   6.101   2.209   6.007
 3720SOL    HW112059   6.004   2.214   6.033
 3720SOL    HW212060   6.146   2.140   6.063
 3721SOL     OW12061   5.623   4.282   2.073
 3721SOL    HW112062   5.618   4.246   1.980
 3721SOL    HW212063   5.572   4.368   2.078
 3722SOL     OW12064   6.679   6.063   1.339
 3722SOL    HW112065   6.774   6.092   1.330
 3722SOL    HW212066   6.652   6.012   1.257
 3723SOL     OW12067   6.484   6.002   2.014
 3723SOL    HW112068   6.394   5.987   2.056
 3723SOL    HW212069   6.473   6.022   1.917
 3724SOL     OW12070   1.950   3.978   5.143
 3724SOL    HW112071   1.980   4.048   5.077
 3724SOL    HW212072   1.975   3.888   5.108
 3725SOL     OW12073   6.089   4.825   1.222
 3725SOL    HW112074   6.158   4.758   1.193
 3725SOL    HW212075   6.032   4.850   1.144
 3726SOL     OW12076   6.096   4.249   0.928
 3726SOL    HW112077   6.019   4.310   0.912
 3726SOL    HW212078   6.064   4.155   0.934
 3727SOL     OW12079   6.702   1.982   5.177
 3727SOL    HW112080   6.645   1.914   5.223
 3727SOL    HW212081   6.657   2.072   5.183
 3728SOL     OW12082   0.883   3.943   6.733
 3728SOL    HW112083   0.949   4.012   6.702
 3728SOL    HW212084   0.882   3.867   6.669
 3729SOL     OW12085   1.343   2.069   3.760
 3729SOL    HW112086   1.307   2.109   3.676
 3729SOL    HW212087   1.275   2.076   3.833
 3730SOL     OW12088   2.763   4.948   6.138
 3730SOL    HW112089   2.822   4.879   6.095
 3730SOL    HW212090   2.677   4.905   6.165
 3731SOL     OW12091   5.839   0.130   0.922
 3731SOL    HW112092   5.838   0.066   0.846
 3731SOL    HW212093   5.763   0.109   0.984
 3732SOL     OW12094   2.924   1.967   6.179
 3732SOL    HW112095   2.976   2.038   6.131
 3732SOL    HW212096   2.937   1.879   6.132
 3733SOL     OW12097   1.474   3.734   2.259
 3733SOL    HW112098   1.406   3.760   2.190
 3733SOL    HW212099   1.436   3.748   2.350
 3734SOL     OW12100   5.055   1.318   1.828
 3734SOL    HW112101   5.016   1.405   1.796
 3734SOL    HW212102   5.046   1.249   1.756
 3735SOL     OW12103   2.251   0.740   3.468
 3735SOL    HW112104   2.322   0.744   3.538
 3735SOL    HW212105   2.257   0.654   3.419
 3736SOL     OW12106   6.869   2.420   0.118
 3736SOL    HW112107   6.899   2.347   0.056
 3736SOL    HW212108   6.815   2.380   0.193
 3737SOL     OW12109   4.673   0.448   3.565
 3737SOL    HW112110   4.672   0.362   3.616
 3737SOL    HW212111   4.580   0.486   3.564
 3738SOL     OW12112   0.160   5.781   1.974
 3738SOL    HW112113   0.063   5.796   1.954
 3738SOL    HW212114   0.213   5.860   1.943
 3739SOL     OW12115   2.754   4.749   1.730
 3739SOL    HW112116   2.776   4.688   1.806
 3739SOL    HW212117   2.711   4.697   1.656
 3740SOL     OW12118   5.976   0.852   0.517
 3740SOL    HW112119   5.999   0.820   0.425
 3740SOL    HW212120   6.022   0.940   0.534
 3741SOL     OW12121   5.687   3.370   1.449
 3741SOL    HW112122   5.693   3.336   1.356
 3741SOL    HW212123   5.608   3.431   1.458
 3742SOL     OW12124   2.367   1.912   6.697
 3742SOL    HW112125   2.370   1.909   6.597
 3742SOL    HW212126   2.272   1.928   6.726
 3743SOL     OW12127   5.062   2.889   1.073
 3743SOL    HW112128   5.070   2.858   0.979
 3743SOL    HW212129   5.087   2.815   1.135
 3744SOL     OW12130   0.869   5.859   3.189
 3744SOL    HW112131   0.872   5.759   3.181
 3744SOL    HW212132   0.779   5.887   3.222
 3745SOL     OW12133   3.714   5.030   1.761
 3745SOL    HW112134   3.683   4.954   1.705
 3745SOL    HW212135   3.640   5.059   1.822
 3746SOL     OW12136   5.557   0.845   3.073
 3746SOL    HW112137   5.476   0.899   3.051
 3746SOL    HW212138   5.635   0.880   3.022
 3747SOL     OW12139   2.717   6.813   5.550
 3747SOL    HW112140   2.815   6.829   5.535
 3747SOL    HW212141   2.675   6.783   5.465
 3748SOL     OW12142   6.220   0.663   1.151
 3748SOL    HW112143   6.283   0.736   1.175
 3748SOL    HW212144   6.129   0.683   1.187
 3749SOL     OW12145   1.657   5.951   3.891
 3749SOL    HW112146   1.618   5.978   3.979
 3749SOL    HW212147   1.725   5.879   3.905
 3750SOL     OW12148   1.359   3.874   0.743
 3750SOL    HW112149   1.396   3.919   0.662
 3750SOL    HW212150   1.326   3.783   0.719
 3751SOL     OW12151   7.005   3.648   1.663
 3751SOL    HW112152   6.945   3.572   1.688
 3751SOL    HW212153   0.029   3.629   1.576
 3752SOL     OW12154   5.392   0.826   6.792
 3752SOL    HW112155   5.344   0.861   6.872
 3752SOL    HW212156   5.326   0.799   6.722
 3753SOL     OW12157   6.603   0.687   5.987
 3753SOL    HW112158   6.668   0.635   6.042
 3753SOL    HW212159   6.635   0.692   5.892
 3754SOL     OW12160   2.224   0.419   1.127
 3754SOL    HW112161   2.172   0.498   1.095
 3754SOL    HW212162   2.181   0.381   1.209
 3755SOL     OW12163   4.792   4.888   5.106
 3755SOL    HW112164   4.701   4.854   5.130
 3755SOL    HW212165   4.853   4.882   5.186
 3756SOL     OW12166   2.992   5.342   6.209
 3756SOL    HW112167   3.064   5.312   6.146
 3756SOL    HW212168   3.010   5.307   6.301
 3757SOL     OW12169   6.271   4.971   1.696
 3757SOL    HW112170   6.319   4.950   1.781
 3757SOL    HW212171   6.191   4.911   1.687
 3758SOL     OW12172   2.324   1.296   4.892
 3758SOL    HW112173   2.260   1.271   4.819
 3758SOL    HW212174   2.332   1.396   4.896
 3759SOL     OW12175   4.277   0.263   6.099
 3759SOL    HW112176   4.300   0.308   6.012
 3759SOL    HW212177   4.287   0.328   6.174
 3760SOL     OW12178   1.533   1.282   4.072
 3760SOL    HW112179   1.507   1.268   4.168
 3760SOL    HW212180   1.623   1.325   4.068
 3761SOL     OW12181   6.884   1.103   5.562
 3761SOL    HW112182   6.787   1.099   5.542
 3761SOL    HW212183   6.928   1.017   5.536
 3762SOL     OW12184   2.100   4.452   0.697
 3762SOL    HW112185   2.116   4.418   0.604
 3762SOL    HW212186   2.040   4.532   0.694
 3763SOL     OW12187   0.330   3.278   6.942
 3763SOL    HW112188   0.257   3.236   6.888
 3763SOL    HW212189   0.401   3.311   6.880
 3764SOL     OW12190   1.379   6.793   2.521
 3764SOL    HW112191   1.349   6.839   2.437
 3764SOL    HW212192   1.478   6.786   2.522
 3765SOL     OW12193   5.534   1.777   0.954
 3765SOL    HW112194   5.522   1.806   1.049
 3765SOL    HW212195   5.567   1.682   0.951
 3766SOL     OW12196   1.828   1.971   4.471
 3766SOL    HW112197   1.919   1.934   4.488
 3766SOL    HW212198   1.779   1.912   4.406
 3767SOL     OW12199   3.232   4.390   6.734
 3767SOL    HW112200   3.292   4.311   6.722
 3767SOL    HW212201   3.234   4.419   6.830
 3768SOL     OW12202   0.632   0.008   4.628
 3768SOL    HW112203   0.537   0.041   4.631
 3768SOL    HW212204   0.647   6.977   4.544
 3769SOL     OW12205   6.101   5.134   5.051
 3769SOL    HW112206   6.156   5.180   5.121
 3769SOL    HW212207   6.102   5.188   4.967
 3770SOL     OW12208   1.005   0.508   0.016
 3770SOL    HW112209   0.986   0.597   0.058
 3770SOL    HW212210   0.963   0.504   6.946
 3771SOL     OW12211   5.140   4.018   0.552
 3771SOL    HW112212   5.088   4.001   0.636
 3771SOL    HW212213   5.077   4.024   0.474
 3772SOL     OW12214   0.425   0.448   0.240
 3772SOL    HW112215   0.400   0.505   0.318
 3772SOL    HW212216   0.409   0.352   0.264
 3773SOL     OW12217   5.814   3.846   5.101
 3773SOL    HW112218   5.859   3.761   5.128
 3773SOL    HW212219   5.724   3.826   5.063
 3774SOL     OW12220   5.956   5.578   1.717
 3774SOL    HW112221   5.870   5.556   1.761
 3774SOL    HW212222   5.964   5.677   1.705
 3775SOL     OW12223   4.666   5.266   2.449
 3775SOL    HW112224   4.686   5.217   2.364
 3775SOL    HW212225   4.669   5.365   2.432
 3776SOL     OW12226   4.055   2.218   6.537
 3776SOL    HW112227   3.975   2.235   6.480
 3776SOL    HW212228   4.103   2.304   6.553
 3777SOL     OW12229   3.200   4.921   3.594
 3777SOL    HW112230   3.297   4.896   3.597
 3777SOL    HW212231   3.191   5.017   3.566
 3778SOL     OW12232   2.611   5.172   2.722
 3778SOL    HW112233   2.683   5.211   2.665
 3778SOL    HW212234   2.522   5.203   2.690
 3779SOL     OW12235   0.602   4.960   0.973
 3779SOL    HW112236   0.634   4.969   0.878
 3779SOL    HW212237   0.645   4.880   1.015
 3780SOL     OW12238   6.119   4.590   4.718
 3780SOL    HW112239   6.141   4.493   4.726
 3780SOL    HW212240   6.197   4.640   4.680
 3781SOL     OW12241   0.090   6.547   3.398
 3781SOL    HW112242   0.097   6.511   3.491
 3781SOL    HW212243   0.164   6.509   3.342
 3782SOL     OW12244   2.638   0.493   2.771
 3782SOL    HW112245   2.689   0.462   2.690
 3782SOL    HW212246   2.640   0.421   2.840
 3783SOL     OW12247   5.780   5.407   4.085
 3783SOL    HW112248   5.826   5.369   4.165
 3783SOL    HW212249   5.757   5.333   4.021
 3784SOL     OW12250   5.400   2.829   2.410
 3784SOL    HW112251   5.370   2.860   2.501
 3784SOL    HW212252   5.319   2.813   2.353
 3785SOL     OW12253   1.485   3.654   5.559
 3785SOL    HW112254   1.574   3.652   5.513
 3785SOL    HW212255   1.499   3.676   5.656
 3786SOL     OW12256   2.293   4.288   3.331
 3786SOL    HW112257   2.312   4.385   3.346
 3786SOL    HW212258   2.269   4.273   3.236
 3787SOL     OW12259   5.811   1.210   2.280
 3787SOL    HW112260   5.730   1.260   2.312
 3787SOL    HW212261   5.790   1.113   2.276
 3788SOL     OW12262   0.384   4.711   5.053
 3788SOL    HW112263   0.349   4.709   5.146
 3788SOL    HW212264   0.313   4.682   4.989
 3789SOL     OW12265   0.600   3.960   4.603
 3789SOL    HW112266   0.659   3.985   4.527
 3789SOL    HW212267   0.549   3.877   4.580
 3790SOL     OW12268   1.089   4.631   5.755
 3790SOL    HW112269   1.184   4.661   5.760
 3790SOL    HW212270   1.032   4.706   5.722
 3791SOL     OW12271   5.240   1.450   6.664
 3791SOL    HW112272   5.294   1.366   6.655
 3791SOL    HW212273   5.263   1.495   6.750
 3792SOL     OW12274   1.477   1.978   3.412
 3792SOL    HW112275   1.389   1.932   3.420
 3792SOL    HW212276   1.473   2.047   3.341
 3793SOL     OW12277   4.651   0.099   2.341
 3793SOL    HW112278   4.686   0.142   2.424
 3793SOL    HW212279   4.576   0.154   2.304
 3794SOL     OW12280   2.538   2.557   1.721
 3794SOL    HW112281   2.479   2.626   1.681
 3794SOL    HW212282   2.519   2.548   1.819
 3795SOL     OW12283   5.030   6.034   1.307
 3795SOL    HW112284   4.997   6.074   1.393
 3795SOL    HW212285   5.130   6.029   1.309
 3796SOL     OW12286   3.976   1.776   2.917
 3796SOL    HW112287   4.026   1.858   2.945
 3796SOL    HW212288   3.989   1.704   2.984
 3797SOL     OW12289   0.569   3.299   2.937
 3797SOL    HW112290   0.652   3.352   2.919
 3797SOL    HW212291   0.589   3.227   3.002
 3798SOL     OW12292   2.535   5.562   2.731
 3798SOL    HW112293   2.616   5.532   2.680
 3798SOL    HW212294   2.533   5.662   2.733
 3799SOL     OW12295   6.432   3.119   3.608
 3799SOL    HW112296   6.509   3.059   3.587
 3799SOL    HW212297   6.444   3.206   3.559
 3800SOL     OW12298   5.259   1.641   3.628
 3800SOL    HW112299   5.180   1.619   3.685
 3800SOL    HW212300   5.337   1.662   3.688
 3801SOL     OW12301   6.098   6.758   1.718
 3801SOL    HW112302   6.025   6.819   1.688
 3801SOL    HW212303   6.173   6.760   1.652
 3802SOL     OW12304   1.390   2.191   1.420
 3802SOL    HW112305   1.440   2.128   1.479
 3802SOL    HW212306   1.299   2.208   1.460
 3803SOL     OW12307   4.041   3.429   2.535
 3803SOL    HW112308   3.981   3.504   2.506
 3803SOL    HW212309   4.116   3.420   2.470
 3804SOL     OW12310   4.204   1.016   3.066
 3804SOL    HW112311   4.109   0.990   3.051
 3804SOL    HW212312   4.263   0.936   3.051
 3805SOL     OW12313   2.095   2.722   1.735
 3805SOL    HW112314   2.041   2.664   1.674
 3805SOL    HW212315   2.040   2.798   1.766
 3806SOL     OW12316   3.918   3.667   6.061
 3806SOL    HW112317   3.830   3.704   6.030
 3806SOL    HW212318   3.992   3.707   6.007
 3807SOL     OW12319   1.905   5.572   2.533
 3807SOL    HW112320   1.915   5.667   2.502
 3807SOL    HW212321   1.848   5.570   2.615
 3808SOL     OW12322   4.093   0.788   0.501
 3808SOL    HW112323   3.996   0.765   0.492
 3808SOL    HW212324   4.123   0.839   0.421
 3809SOL     OW12325   5.421   2.573   1.640
 3809SOL    HW112326   5.383   2.480   1.634
 3809SOL    HW212327   5.506   2.577   1.588
 3810SOL     OW12328   5.569   2.794   3.411
 3810SOL    HW112329   5.626   2.802   3.492
 3810SOL    HW212330   5.476   2.769   3.438
 3811SOL     OW12331   6.755   6.079   4.545
 3811SOL    HW112332   6.686   6.085   4.473
 3811SOL    HW212333   6.738   5.999   4.602
 3812SOL     OW12334   4.182   5.375   5.440
 3812SOL    HW112335   4.148   5.315   5.367
 3812SOL    HW212336   4.152   5.468   5.423
 3813SOL     OW12337   4.905   3.622   0.149
 3813SOL    HW112338   4.849   3.539   0.153
 3813SOL    HW212339   4.942   3.642   0.240
 3814SOL     OW12340   6.474   0.044   5.502
 3814SOL    HW112341   6.452   0.090   5.587
 3814SOL    HW212342   6.449   0.102   5.425
 3815SOL     OW12343   3.532   1.629   1.029
 3815SOL    HW112344   3.606   1.670   0.975
 3815SOL    HW212345   3.465   1.700   1.052
 3816SOL     OW12346   1.099   5.099   6.469
 3816SOL    HW112347   1.026   5.149   6.423
 3816SOL    HW212348   1.153   5.162   6.524
 3817SOL     OW12349   5.314   3.715   2.312
 3817SOL    HW112350   5.255   3.654   2.366
 3817SOL    HW212351   5.287   3.712   2.216
 3818SOL     OW12352   6.740   0.893   0.336
 3818SOL    HW112353   6.651   0.937   0.352
 3818SOL    HW212354   6.760   0.830   0.411
 3819SOL     OW12355   5.819   5.673   2.800
 3819SOL    HW112356   5.809   5.616   2.881
 3819SOL    HW212357   5.758   5.752   2.807
 3820SOL     OW12358   5.101   0.273   4.270
 3820SOL    HW112359   5.041   0.250   4.346
 3820SOL    HW212360   5.079   0.215   4.192
 3821SOL     OW12361   2.058   1.207   1.753
 3821SOL    HW112362   2.118   1.173   1.825
 3821SOL    HW212363   2.112   1.232   1.673
 3822SOL     OW12364   2.231   0.007   0.504
 3822SOL    HW112365   2.329   0.012   0.520
 3822SOL    HW212366   2.183   0.058   0.576
 3823SOL     OW12367   2.826   3.727   6.203
 3823SOL    HW112368   2.768   3.691   6.276
 3823SOL    HW212369   2.797   3.820   6.179
 3824SOL     OW12370   0.635   3.317   0.260
 3824SOL    HW112371   0.714   3.372   0.233
 3824SOL    HW212372   0.561   3.377   0.291
 3825SOL     OW12373   0.492   5.316   0.468
 3825SOL    HW112374   0.459   5.239   0.413
 3825SOL    HW212375   0.438   5.397   0.449
 3826SOL     OW12376   1.108   3.907   0.390
 3826SOL    HW112377   1.166   3.827   0.374
 3826SOL    HW212378   1.012   3.881   0.384
 3827SOL     OW12379   1.787   1.280   1.776
 3827SOL    HW112380   1.876   1.249   1.743
 3827SOL    HW212381   1.783   1.274   1.875
 3828SOL     OW12382   3.647   3.213   3.315
 3828SOL    HW112383   3.715   3.191   3.245
 3828SOL    HW212384   3.601   3.299   3.292
 3829SOL     OW12385   1.018   4.857   2.225
 3829SOL    HW112386   0.929   4.901   2.229
 3829SOL    HW212387   1.044   4.844   2.129
 3830SOL     OW12388   0.709   0.395   5.366
 3830SOL    HW112389   0.738   0.484   5.401
 3830SOL    HW212390   0.718   0.393   5.267
 3831SOL     OW12391   4.775   2.225   2.746
 3831SOL    HW112392   4.725   2.167   2.682
 3831SOL    HW212393   4.801   2.171   2.827
 3832SOL     OW12394   0.338   0.676   3.355
 3832SOL    HW112395   0.260   0.616   3.372
 3832SOL    HW212396   0.376   0.656   3.265
 3833SOL     OW12397   6.934   5.796   6.844
 3833SOL    HW112398   0.010   5.767   6.842
 3833SOL    HW212399   6.905   5.825   6.753
 3834SOL     OW12400   4.105   3.938   1.013
 3834SOL    HW112401   4.036   3.909   1.079
 3834SOL    HW212402   4.147   3.857   0.971
 3835SOL     OW12403   3.805   6.045   4.376
 3835SOL    HW112404   3.887   6.096   4.402
 3835SOL    HW212405   3.762   6.007   4.458
 3836SOL     OW12406   0.336   4.774   5.675
 3836SOL    HW112407   0.414   4.812   5.624
 3836SOL    HW212408   0.368   4.700   5.734
 3837SOL     OW12409   4.262   4.006   6.535
 3837SOL    HW112410   4.288   3.949   6.457
 3837SOL    HW212411   4.343   4.049   6.574
 3838SOL     OW12412   0.800   3.383   3.951
 3838SOL    HW112413   0.794   3.451   3.879
 3838SOL    HW212414   0.869   3.314   3.926
 3839SOL     OW12415   5.699   1.680   3.065
 3839SOL    HW112416   5.724   1.768   3.025
 3839SOL    HW212417   5.630   1.694   3.136
 3840SOL     OW12418   2.932   1.552   6.633
 3840SOL    HW112419   2.925   1.589   6.540
 3840SOL    HW212420   2.843   1.513   6.660
 3841SOL     OW12421   0.583   3.316   5.099
 3841SOL    HW112422   0.548   3.271   5.017
 3841SOL    HW212423   0.682   3.307   5.103
 3842SOL     OW12424   1.986   2.625   1.991
 3842SOL    HW112425   1.906   2.592   1.941
 3842SOL    HW212426   2.041   2.683   1.932
 3843SOL     OW12427   5.475   4.888   2.842
 3843SOL    HW112428   5.565   4.901   2.884
 3843SOL    HW212429   5.411   4.956   2.878
 3844SOL     OW12430   1.201   2.437   5.265
 3844SOL    HW112431   1.114   2.430   5.217
 3844SOL    HW212432   1.233   2.531   5.264
 3845SOL     OW12433   3.372   4.152   5.490
 3845SOL    HW112434   3.393   4.141   5.393
 3845SOL    HW212435   3.327   4.240   5.504
 3846SOL     OW12436   6.865   5.085   3.270
 3846SOL    HW112437   6.850   5.121   3.178
 3846SOL    HW212438   6.888   5.160   3.332
 3847SOL     OW12439   5.441   2.695   4.163
 3847SOL    HW112440   5.486   2.673   4.077
 3847SOL    HW212441   5.343   2.679   4.154
 3848SOL     OW12442   4.412   5.230   2.551
 3848SOL    HW112443   4.352   5.283   2.491
 3848SOL    HW212444   4.507   5.244   2.523
 3849SOL     OW12445   0.695   1.348   6.216
 3849SOL    HW112446   0.781   1.351   6.268
 3849SOL    HW212447   0.708   1.391   6.127
 3850SOL     OW12448   2.772   3.372   1.843
 3850SOL    HW112449   2.716   3.445   1.804
 3850SOL    HW212450   2.848   3.412   1.893
 3851SOL     OW12451   0.787   4.268   2.418
 3851SOL    HW112452   0.860   4.268   2.486
 3851SOL    HW212453   0.826   4.276   2.327
 3852SOL     OW12454   4.069   6.426   3.838
 3852SOL    HW112455   4.015   6.343   3.855
 3852SOL    HW212456   4.085   6.474   3.924
 3853SOL     OW12457   0.566   4.417   3.569
 3853SOL    HW112458   0.569   4.421   3.669
 3853SOL    HW212459   0.585   4.508   3.532
 3854SOL     OW12460   1.895   2.604   2.924
 3854SOL    HW112461   1.823   2.567   2.982
 3854SOL    HW212462   1.983   2.595   2.971
 3855SOL     OW12463   5.464   6.511   6.513
 3855SOL    HW112464   5.503   6.585   6.459
 3855SOL    HW212465   5.467   6.426   6.459
 3856SOL     OW12466   6.841   0.406   6.415
 3856SOL    HW112467   6.864   0.341   6.343
 3856SOL    HW212468   6.781   0.477   6.379
 3857SOL     OW12469   0.486   6.499   0.043
 3857SOL    HW112470   0.500   6.580   0.100
 3857SOL    HW212471   0.467   6.420   0.102
 3858SOL     OW12472   2.596   0.732   5.732
 3858SOL    HW112473   2.582   0.767   5.824
 3858SOL    HW212474   2.521   0.764   5.673
 3859SOL     OW12475   5.542   1.284   2.311
 3859SOL    HW112476   5.465   1.246   2.361
 3859SOL    HW212477   5.527   1.381   2.294
 3860SOL     OW12478   2.432   1.081   5.354
 3860SOL    HW112479   2.371   1.099   5.278
 3860SOL    HW212480   2.525   1.067   5.320
 3861SOL     OW12481   4.329   4.979   3.137
 3861SOL    HW112482   4.240   4.934   3.136
 3861SOL    HW212483   4.320   5.071   3.177
 3862SOL     OW12484   0.559   0.780   5.051
 3862SOL    HW112485   0.471   0.817   5.022
 3862SOL    HW212486   0.555   0.756   5.148
 3863SOL     OW12487   5.826   2.810   6.530
 3863SOL    HW112488   5.832   2.904   6.499
 3863SOL    HW212489   5.868   2.802   6.621
 3864SOL     OW12490   2.541   0.503   5.258
 3864SOL    HW112491   2.508   0.554   5.179
 3864SOL    HW212492   2.487   0.528   5.339
 3865SOL     OW12493   3.222   0.347   0.178
 3865SOL    HW112494   3.301   0.383   0.130
 3865SOL    HW212495   3.199   0.406   0.256
 3866SOL     OW12496   3.074   0.281   1.147
 3866SOL    HW112497   3.067   0.190   1.188
 3866SOL    HW212498   3.024   0.282   1.060
 3867SOL     OW12499   0.624   5.082   3.810
 3867SOL    HW112500   0.533   5.092   3.851
 3867SOL    HW212501   0.679   5.021   3.868
 3868SOL     OW12502   2.867   6.996   0.369
 3868SOL    HW112503   2.858   6.897   0.357
 3868SOL    HW212504   2.837   0.001   0.461
 3869SOL     OW12505   5.779   3.871   4.780
 3869SOL    HW112506   5.806   3.944   4.716
 3869SOL    HW212507   5.724   3.910   4.854
 3870SOL     OW12508   5.545   6.001   0.105
 3870SOL    HW112509   5.534   6.095   0.139
 3870SOL    HW212510   5.456   5.964   0.081
 3871SOL     OW12511   2.964   0.262   3.072
 3871SOL    HW112512   3.013   0.178   3.050
 3871SOL    HW212513   2.934   0.260   3.167
 3872SOL     OW12514   3.723   2.907   3.949
 3872SOL    HW112515   3.718   2.942   4.042
 3872SOL    HW212516   3.809   2.857   3.936
 3873SOL     OW12517   6.501   2.718   0.541
 3873SOL    HW112518   6.594   2.732   0.506
 3873SOL    HW212519   6.435   2.749   0.474
 3874SOL     OW12520   4.181   6.248   7.002
 3874SOL    HW112521   4.172   6.334   6.952
 3874SOL    HW212522   4.105   6.238   0.046
 3875SOL     OW12523   2.116   3.049   2.080
 3875SOL    HW112524   2.138   3.014   2.171
 3875SOL    HW212525   2.081   3.142   2.087
 3876SOL     OW12526   3.939   5.479   0.983
 3876SOL    HW112527   4.010   5.548   0.965
 3876SOL    HW212528   3.956   5.399   0.925
 3877SOL     OW12529   6.039   3.113   0.535
 3877SOL    HW112530   6.099   3.124   0.455
 3877SOL    HW212531   6.006   3.019   0.539
 3878SOL     OW12532   3.463   6.865   4.498
 3878SOL    HW112533   3.499   6.913   4.418
 3878SOL    HW212534   3.512   6.778   4.508
 3879SOL     OW12535   5.243   5.188   1.481
 3879SOL    HW112536   5.330   5.199   1.529
 3879SOL    HW212537   5.181   5.134   1.538
 3880SOL     OW12538   5.748   4.957   4.083
 3880SOL    HW112539   5.694   5.023   4.134
 3880SOL    HW212540   5.758   4.873   4.137
 3881SOL     OW12541   1.428   3.561   1.718
 3881SOL    HW112542   1.459   3.619   1.643
 3881SOL    HW212543   1.402   3.471   1.684
 3882SOL     OW12544   1.147   1.382   5.875
 3882SOL    HW112545   1.092   1.438   5.938
 3882SOL    HW212546   1.101   1.375   5.787
 3883SOL     OW12547   3.796   0.680   3.490
 3883SOL    HW112548   3.784   0.762   3.546
 3883SOL    HW212549   3.894   0.663   3.478
 3884SOL     OW12550   0.260   5.188   3.557
 3884SOL    HW112551   0.216   5.200   3.468
 3884SOL    HW212552   0.347   5.139   3.545
 3885SOL     OW12553   6.424   0.214   2.796
 3885SOL    HW112554   6.512   0.181   2.827
 3885SOL    HW212555   6.422   0.314   2.801
 3886SOL     OW12556   6.338   6.232   4.791
 3886SOL    HW112557   6.378   6.141   4.783
 3886SOL    HW212558   6.255   6.238   4.735
 3887SOL     OW12559   0.041   0.629   6.105
 3887SOL    HW112560   0.006   0.621   6.012
 3887SOL    HW212561   0.092   0.546   6.128
 3888SOL     OW12562   6.662   0.393   5.584
 3888SOL    HW112563   6.760   0.380   5.598
 3888SOL    HW212564   6.637   0.363   5.491
 3889SOL     OW12565   6.969   3.794   5.918
 3889SOL    HW112566   0.028   3.805   5.857
 3889SOL    HW212567   6.909   3.723   5.881
 3890SOL     OW12568   5.511   5.550   2.884
 3890SOL    HW112569   5.603   5.523   2.915
 3890SOL    HW212570   5.470   5.610   2.952
 3891SOL     OW12571   5.648   4.168   4.971
 3891SOL    HW112572   5.584   4.104   4.929
 3891SOL    HW212573   5.709   4.205   4.900
 3892SOL     OW12574   0.210   1.454   1.330
 3892SOL    HW112575   0.122   1.501   1.332
 3892SOL    HW212576   0.272   1.497   1.396
 3893SOL     OW12577   4.234   4.348   1.246
 3893SOL    HW112578   4.277   4.425   1.198
 3893SOL    HW212579   4.157   4.314   1.192
 3894SOL     OW12580   3.267   2.212   1.134
 3894SOL    HW112581   3.284   2.281   1.204
 3894SOL    HW212582   3.352   2.163   1.114
 3895SOL     OW12583   1.717   0.411   5.972
 3895SOL    HW112584   1.759   0.501   5.987
 3895SOL    HW212585   1.775   0.341   6.013
 3896SOL     OW12586   6.928   0.673   5.851
 3896SOL    HW112587   6.849   0.690   5.792
 3896SOL    HW212588   7.012   0.692   5.801
 3897SOL     OW12589   3.722   5.903   2.111
 3897SOL    HW112590   3.766   5.859   2.033
 3897SOL    HW212591   3.791   5.929   2.178
 3898SOL     OW12592   3.358   3.466   4.702
 3898SOL    HW112593   3.354   3.444   4.605
 3898SOL    HW212594   3.319   3.390   4.755
 3899SOL     OW12595   5.912   0.659   4.454
 3899SOL    HW112596   5.856   0.731   4.495
 3899SOL    HW212597   5.880   0.641   4.361
 3900SOL     OW12598   5.824   2.679   4.015
 3900SOL    HW112599   5.756   2.641   3.952
 3900SOL    HW212600   5.878   2.748   3.967
 3901SOL     OW12601   3.064   0.486   5.247
 3901SOL    HW112602   3.117   0.476   5.331
 3901SOL    HW212603   2.994   0.556   5.259
 3902SOL     OW12604   5.996   3.847   2.518
 3902SOL    HW112605   5.940   3.930   2.512
 3902SOL    HW212606   5.954   3.774   2.463
 3903SOL     OW12607   4.516   5.542   0.303
 3903SOL    HW112608   4.513   5.642   0.293
 3903SOL    HW212609   4.589   5.505   0.246
 3904SOL     OW12610   1.776   6.977   4.857
 3904SOL    HW112611   1.680   7.000   4.871
 3904SOL    HW212612   1.792   6.882   4.885
 3905SOL     OW12613   6.619   6.847   5.556
 3905SOL    HW112614   6.564   6.930   5.546
 3905SOL    HW212615   6.636   6.831   5.653
 3906SOL     OW12616   4.111   5.360   5.081
 3906SOL    HW112617   4.043   5.330   5.014
 3906SOL    HW212618   4.077   5.439   5.131
 3907SOL     OW12619   6.573   6.430   5.588
 3907SOL    HW112620   6.594   6.525   5.569
 3907SOL    HW212621   6.532   6.423   5.679
 3908SOL     OW12622   0.968   0.588   0.668
 3908SOL    HW112623   0.982   0.492   0.643
 3908SOL    HW212624   0.876   0.599   0.705
 3909SOL     OW12625   0.673   5.810   5.393
 3909SOL    HW112626   0.716   5.898   5.375
 3909SOL    HW212627   0.574   5.823   5.403
 3910SOL     OW12628   3.681   3.758   1.815
 3910SOL    HW112629   3.623   3.801   1.885
 3910SOL    HW212630   3.698   3.823   1.742
 3911SOL     OW12631   4.110   1.185   0.153
 3911SOL    HW112632   4.026   1.161   0.105
 3911SOL    HW212633   4.100   1.275   0.195
 3912SOL     OW12634   3.241   1.112   6.640
 3912SOL    HW112635   3.286   1.199   6.618
 3912SOL    HW212636   3.279   1.075   6.725
 3913SOL     OW12637   1.740   5.701   6.340
 3913SOL    HW112638   1.828   5.746   6.345
 3913SOL    HW212639   1.753   5.603   6.327
 3914SOL     OW12640   3.674   0.935   0.770
 3914SOL    HW112641   3.605   0.994   0.813
 3914SOL    HW212642   3.762   0.982   0.769
 3915SOL     OW12643   4.339   6.297   1.883
 3915SOL    HW112644   4.369   6.202   1.893
 3915SOL    HW212645   4.361   6.329   1.791
 3916SOL     OW12646   1.706   6.217   2.985
 3916SOL    HW112647   1.687   6.296   3.045
 3916SOL    HW212648   1.767   6.246   2.912
 3917SOL     OW12649   1.595   4.842   6.880
 3917SOL    HW112650   1.626   4.783   6.954
 3917SOL    HW212651   1.666   4.849   6.810
 3918SOL     OW12652   5.161   6.652   2.448
 3918SOL    HW112653   5.230   6.580   2.459
 3918SOL    HW212654   5.082   6.615   2.399
 3919SOL     OW12655   3.321   6.294   6.448
 3919SOL    HW112656   3.395   6.227   6.452
 3919SOL    HW212657   3.237   6.252   6.482
 3920SOL     OW12658   2.838   2.381   6.529
 3920SOL    HW112659   2.935   2.406   6.528
 3920SOL    HW212660   2.788   2.443   6.590
 3921SOL     OW12661   0.071   2.789   0.695
 3921SOL    HW112662   0.038   2.789   0.789
 3921SOL    HW212663   0.158   2.839   0.691
 3922SOL     OW12664   5.527   4.613   1.221
 3922SOL    HW112665   5.607   4.552   1.212
 3922SOL    HW212666   5.534   4.687   1.154
 3923SOL     OW12667   6.714   1.583   0.234
 3923SOL    HW112668   6.731   1.559   0.329
 3923SOL    HW212669   6.789   1.550   0.176
 3924SOL     OW12670   0.429   5.369   3.186
 3924SOL    HW112671   0.471   5.457   3.167
 3924SOL    HW212672   0.346   5.359   3.131
 3925SOL     OW12673   3.799   4.269   0.875
 3925SOL    HW112674   3.834   4.239   0.787
 3925SOL    HW212675   3.745   4.195   0.916
 3926SOL     OW12676   6.632   6.222   2.691
 3926SOL    HW112677   6.693   6.290   2.731
 3926SOL    HW212678   6.609   6.154   2.761
 3927SOL     OW12679   7.014   3.831   4.090
 3927SOL    HW112680   6.928   3.877   4.066
 3927SOL    HW212681   0.069   3.869   4.035
 3928SOL     OW12682   3.051   5.346   4.831
 3928SOL    HW112683   3.134   5.291   4.816
 3928SOL    HW212684   3.017   5.331   4.924
 3929SOL     OW12685   0.284   2.263   6.431
 3929SOL    HW112686   0.257   2.343   6.483
 3929SOL    HW212687   0.348   2.208   6.485
 3930SOL     OW12688   2.035   1.896   4.073
 3930SOL    HW112689   2.041   1.830   4.148
 3930SOL    HW212690   2.080   1.859   3.992
 3931SOL     OW12691   2.312   1.001   2.712
 3931SOL    HW112692   2.277   0.974   2.801
 3931SOL    HW212693   2.300   1.099   2.700
 3932SOL     OW12694   1.689   4.402   3.208
 3932SOL    HW112695   1.787   4.391   3.227
 3932SOL    HW212696   1.639   4.322   3.241
 3933SOL     OW12697   2.559   6.873   6.783
 3933SOL    HW112698   2.649   6.881   6.740
 3933SOL    HW212699   2.533   6.961   6.823
 3934SOL     OW12700   0.400   1.027   1.389
 3934SOL    HW112701   0.384   0.960   1.317
 3934SOL    HW212702   0.492   1.066   1.379
 3935SOL     OW12703   1.922   6.883   5.552
 3935SOL    HW112704   1.868   6.942   5.612
 3935SOL    HW212705   2.004   6.853   5.601
 3936SOL     OW12706   0.203   5.683   5.521
 3936SOL    HW112707   0.215   5.587   5.544
 3936SOL    HW212708   0.107   5.709   5.535
 3937SOL     OW12709   0.488   0.380   2.257
 3937SOL    HW112710   0.479   0.443   2.334
 3937SOL    HW212711   0.549   0.304   2.282
 3938SOL     OW12712   0.096   2.586   4.246
 3938SOL    HW112713   0.155   2.657   4.286
 3938SOL    HW212714   0.150   2.530   4.183
 3939SOL     OW12715   3.084   1.390   2.905
 3939SOL    HW112716   3.171   1.424   2.869
 3939SOL    HW212717   3.092   1.291   2.920
 3940SOL     OW12718   3.884   4.856   2.233
 3940SOL    HW112719   3.784   4.859   2.226
 3940SOL    HW212720   3.910   4.800   2.312
 3941SOL     OW12721   5.687   1.318   5.891
 3941SOL    HW112722   5.725   1.367   5.969
 3941SOL    HW212723   5.588   1.337   5.885
 3942SOL     OW12724   0.749   6.670   5.402
 3942SOL    HW112725   0.819   6.619   5.352
 3942SOL    HW212726   0.679   6.703   5.338
 3943SOL     OW12727   0.792   3.495   2.820
 3943SOL    HW112728   0.724   3.568   2.826
 3943SOL    HW212729   0.884   3.534   2.820
 3944SOL     OW12730   5.821   4.044   5.308
 3944SOL    HW112731   5.797   3.994   5.391
 3944SOL    HW212732   5.795   3.991   5.228
 3945SOL     OW12733   1.096   2.663   2.226
 3945SOL    HW112734   1.091   2.652   2.325
 3945SOL    HW212735   1.124   2.577   2.184
 3946SOL     OW12736   6.572   4.501   6.136
 3946SOL    HW112737   6.582   4.434   6.063
 3946SOL    HW212738   6.494   4.561   6.116
 3947SOL     OW12739   6.032   5.436   1.973
 3947SOL    HW112740   5.969   5.512   1.984
 3947SOL    HW212741   6.051   5.395   2.063
 3948SOL     OW12742   0.991   4.876   0.937
 3948SOL    HW112743   0.931   4.903   1.013
 3948SOL    HW212744   1.075   4.930   0.940
 3949SOL     OW12745   5.654   0.472   3.047
 3949SOL    HW112746   5.600   0.414   2.985
 3949SOL    HW212747   5.687   0.552   2.997
 3950SOL     OW12748   3.328   3.895   1.668
 3950SOL    HW112749   3.327   3.954   1.748
 3950SOL    HW212750   3.273   3.935   1.595
 3951SOL     OW12751   0.235   6.527   6.928
 3951SOL    HW112752   0.163   6.489   6.985
 3951SOL    HW212753   0.323   6.519   6.976
 3952SOL     OW12754   6.698   3.944   4.318
 3952SOL    HW112755   6.629   3.964   4.248
 3952SOL    HW212756   6.715   3.845   4.321
 3953SOL     OW12757   3.286   4.316   0.423
 3953SOL    HW112758   3.376   4.281   0.397
 3953SOL    HW212759   3.297   4.393   0.485
 3954SOL     OW12760   5.647   5.664   5.795
 3954SOL    HW112761   5.613   5.595   5.859
 3954SOL    HW212762   5.737   5.696   5.825
 3955SOL     OW12763   4.070   6.711   0.159
 3955SOL    HW112764   3.989   6.668   0.117
 3955SOL    HW212765   4.134   6.640   0.188
 3956SOL     OW12766   0.569   2.091   3.454
 3956SOL    HW112767   0.536   2.182   3.430
 3956SOL    HW212768   0.587   2.039   3.370
 3957SOL     OW12769   4.646   6.621   3.601
 3957SOL    HW112770   4.742   6.621   3.629
 3957SOL    HW212771   4.590   6.578   3.672
 3958SOL     OW12772   5.541   0.364   6.407
 3958SOL    HW112773   5.609   0.292   6.417
 3958SOL    HW212774   5.554   0.411   6.320
 3959SOL     OW12775   3.649   6.608   0.874
 3959SOL    HW112776   3.637   6.573   0.781
 3959SOL    HW212777   3.659   6.532   0.937
 3960SOL     OW12778   5.160   1.964   6.161
 3960SOL    HW112779   5.145   2.005   6.071
 3960SOL    HW212780   5.190   2.034   6.225
 3961SOL     OW12781   5.620   2.557   2.140
 3961SOL    HW112782   5.558   2.512   2.076
 3961SOL    HW212783   5.588   2.541   2.234
 3962SOL     OW12784   1.610   5.267   6.778
 3962SOL    HW112785   1.553   5.248   6.698
 3962SOL    HW212786   1.684   5.328   6.752
 3963SOL     OW12787   4.520   4.573   3.874
 3963SOL    HW112788   4.463   4.622   3.939
 3963SOL    HW212789   4.475   4.568   3.785
 3964SOL     OW12790   4.626   4.745   4.301
 3964SOL    HW112791   4.592   4.806   4.372
 3964SOL    HW212792   4.552   4.686   4.269
 3965SOL     OW12793   3.907   3.357   6.147
 3965SOL    HW112794   3.910   3.289   6.074
 3965SOL    HW212795   3.885   3.447   6.108
 3966SOL     OW12796   6.245   5.625   0.471
 3966SOL    HW112797   6.239   5.527   0.448
 3966SOL    HW212798   6.339   5.647   0.499
 3967SOL     OW12799   1.343   4.088   2.734
 3967SOL    HW112800   1.258   4.069   2.685
 3967SOL    HW212801   1.387   4.169   2.696
 3968SOL     OW12802   0.096   0.234   1.069
 3968SOL    HW112803   0.071   0.313   1.013
 3968SOL    HW212804   0.136   0.163   1.011
 3969SOL     OW12805   1.065   3.597   2.768
 3969SOL    HW112806   1.025   3.688   2.759
 3969SOL    HW212807   1.125   3.579   2.690
 3970SOL     OW12808   4.760   5.196   4.126
 3970SOL    HW112809   4.778   5.245   4.041
 3970SOL    HW212810   4.693   5.123   4.109
 3971SOL     OW12811   2.247   4.583   2.422
 3971SOL    HW112812   2.286   4.649   2.486
 3971SOL    HW212813   2.263   4.490   2.455
 3972SOL     OW12814   1.509   5.152   1.094
 3972SOL    HW112815   1.448   5.230   1.111
 3972SOL    HW212816   1.480   5.103   1.012
 3973SOL     OW12817   1.947   4.252   5.264
 3973SOL    HW112818   1.860   4.298   5.281
 3973SOL    HW212819   1.958   4.236   5.166
 3974SOL     OW12820   0.972   0.238   5.176
 3974SOL    HW112821   1.042   0.228   5.106
 3974SOL    HW212822   0.893   0.286   5.137
 3975SOL     OW12823   5.271   0.321   6.404
 3975SOL    HW112824   5.224   0.368   6.479
 3975SOL    HW212825   5.366   0.351   6.401
 3976SOL     OW12826   1.545   5.180   1.847
 3976SOL    HW112827   1.544   5.214   1.941
 3976SOL    HW212828   1.592   5.246   1.789
 3977SOL     OW12829   3.010   4.678   5.362
 3977SOL    HW112830   2.974   4.615   5.293
 3977SOL    HW212831   3.020   4.629   5.449
 3978SOL     OW12832   5.268   0.163   4.557
 3978SOL    HW112833   5.356   0.184   4.600
 3978SOL    HW212834   5.265   0.065   4.536
 3979SOL     OW12835   2.324   5.793   1.685
 3979SOL    HW112836   2.270   5.726   1.633
 3979SOL    HW212837   2.300   5.885   1.654
 3980SOL     OW12838   0.493   4.689   6.838
 3980SOL    HW112839   0.503   4.637   6.923
 3980SOL    HW212840   0.578   4.685   6.786
 3981SOL     OW12841   1.729   1.185   6.207
 3981SOL    HW112842   1.632   1.180   6.181
 3981SOL    HW212843   1.778   1.241   6.140
 3982SOL     OW12844   1.895   0.750   4.400
 3982SOL    HW112845   1.891   0.735   4.498
 3982SOL    HW212846   1.840   0.830   4.376
 3983SOL     OW12847   4.171   5.385   4.097
 3983SOL    HW112848   4.263   5.416   4.120
 3983SOL    HW212849   4.109   5.464   4.095
 3984SOL     OW12850   1.675   0.826   2.835
 3984SOL    HW112851   1.614   0.747   2.829
 3984SOL    HW212852   1.697   0.844   2.931
 3985SOL     OW12853   3.719   4.845   6.747
 3985SOL    HW112854   3.684   4.888   6.664
 3985SOL    HW212855   3.758   4.756   6.724
 3986SOL     OW12856   0.023   2.202   2.250
 3986SOL    HW112857   0.060   2.274   2.308
 3986SOL    HW212858   7.003   2.242   2.168
 3987SOL     OW12859   2.909   5.641   4.463
 3987SOL    HW112860   2.905   5.565   4.528
 3987SOL    HW212861   2.832   5.636   4.401
 3988SOL     OW12862   3.542   3.242   0.125
 3988SOL    HW112863   3.547   3.319   0.188
 3988SOL    HW212864   3.568   3.271   0.033
 3989SOL     OW12865   6.715   1.221   0.477
 3989SOL    HW112866   6.695   1.317   0.493
 3989SOL    HW212867   6.756   1.210   0.386
 3990SOL     OW12868   5.801   2.372   3.384
 3990SOL    HW112869   5.868   2.381   3.311
 3990SOL    HW212870   5.714   2.341   3.346
 3991SOL     OW12871   5.808   1.660   2.103
 3991SOL    HW112872   5.748   1.740   2.094
 3991SOL    HW212873   5.778   1.588   2.041
 3992SOL     OW12874   3.783   2.398   6.984
 3992SOL    HW112875   3.714   2.410   6.913
 3992SOL    HW212876   3.869   2.367   6.943
 3993SOL     OW12877   0.615   2.160   2.941
 3993SOL    HW112878   0.660   2.217   3.010
 3993SOL    HW212879   0.530   2.122   2.978
 3994SOL     OW12880   0.939   2.341   6.036
 3994SOL    HW112881   1.018   2.351   6.096
 3994SOL    HW212882   0.968   2.349   5.941
 3995SOL     OW12883   1.939   3.748   4.171
 3995SOL    HW112884   1.978   3.727   4.260
 3995SOL    HW212885   1.878   3.827   4.179
 3996SOL     OW12886   0.727   1.271   4.529
 3996SOL    HW112887   0.728   1.268   4.430
 3996SOL    HW212888   0.808   1.223   4.565
 3997SOL     OW12889   4.730   2.526   3.052
 3997SOL    HW112890   4.800   2.584   3.010
 3997SOL    HW212891   4.646   2.531   2.999
 3998SOL     OW12892   4.620   1.023   2.655
 3998SOL    HW112893   4.545   0.982   2.707
 3998SOL    HW212894   4.707   1.006   2.703
 3999SOL     OW12895   5.432   3.352   3.969
 3999SOL    HW112896   5.447   3.366   4.067
 3999SOL    HW212897   5.497   3.284   3.934
 4000SOL     OW12898   2.711   5.057   3.172
 4000SOL    HW112899   2.734   4.964   3.142
 4000SOL    HW212900   2.792   5.100   3.210
 4001SOL     OW12901   2.149   1.765   3.834
 4001SOL    HW112902   2.191   1.840   3.782
 4001SOL    HW212903   2.220   1.717   3.885
 4002SOL     OW12904   2.669   2.842   0.343
 4002SOL    HW112905   2.591   2.887   0.387
 4002SOL    HW212906   2.674   2.870   0.247
 4003SOL     OW12907   2.646   6.469   5.137
 4003SOL    HW112908   2.569   6.424   5.181
 4003SOL    HW212909   2.625   6.566   5.125
 4004SOL     OW12910   6.120   1.922   3.838
 4004SOL    HW112911   6.077   1.971   3.914
 4004SOL    HW212912   6.118   1.980   3.756
 4005SOL     OW12913   5.398   5.353   1.003
 4005SOL    HW112914   5.493   5.327   1.019
 4005SOL    HW212915   5.347   5.345   1.089
 4006SOL     OW12916   3.721   5.089   2.346
 4006SOL    HW112917   3.751   5.069   2.440
 4006SOL    HW212918   3.673   5.009   2.309
 4007SOL     OW12919   0.786   3.440   1.325
 4007SOL    HW112920   0.798   3.358   1.270
 4007SOL    HW212921   0.710   3.494   1.289
 4008SOL     OW12922   3.694   2.101   4.201
 4008SOL    HW112923   3.743   2.187   4.188
 4008SOL    HW212924   3.661   2.067   4.113
 4009SOL     OW12925   5.339   2.711   0.311
 4009SOL    HW112926   5.392   2.674   0.234
 4009SOL    HW212927   5.242   2.703   0.291
 4010SOL     OW12928   2.275   3.451   1.073
 4010SOL    HW112929   2.216   3.519   1.029
 4010SOL    HW212930   2.328   3.495   1.145
 4011SOL     OW12931   0.767   0.778   1.394
 4011SOL    HW112932   0.694   0.818   1.450
 4011SOL    HW212933   0.784   0.837   1.315
 4012SOL     OW12934   4.133   4.963   2.228
 4012SOL    HW112935   4.195   4.895   2.189
 4012SOL    HW212936   4.042   4.922   2.240
 4013SOL     OW12937   2.507   0.426   0.926
 4013SOL    HW112938   2.492   0.481   1.008
 4013SOL    HW212939   2.590   0.457   0.879
 4014SOL     OW12940   4.326   6.230   3.088
 4014SOL    HW112941   4.247   6.171   3.070
 4014SOL    HW212942   4.408   6.189   3.047
 4015SOL     OW12943   4.500   5.768   6.327
 4015SOL    HW112944   4.420   5.819   6.298
 4015SOL    HW212945   4.480   5.720   6.413
 4016SOL     OW12946   1.495   5.784   6.200
 4016SOL    HW112947   1.591   5.799   6.224
 4016SOL    HW212948   1.473   5.688   6.212
 4017SOL     OW12949   0.076   6.451   0.141
 4017SOL    HW112950   7.009   6.432   0.186
 4017SOL    HW212951   0.141   6.487   0.208
 4018SOL     OW12952   5.616   6.698   2.202
 4018SOL    HW112953   5.565   6.760   2.141
 4018SOL    HW212954   5.710   6.689   2.169
 4019SOL     OW12955   5.875   3.456   2.948
 4019SOL    HW112956   5.912   3.547   2.965
 4019SOL    HW212957   5.909   3.393   3.018
 4020SOL     OW12958   5.697   2.692   5.369
 4020SOL    HW112959   5.692   2.695   5.270
 4020SOL    HW212960   5.788   2.718   5.400
 4021SOL     OW12961   2.971   3.263   5.682
 4021SOL    HW112962   2.966   3.244   5.780
 4021SOL    HW212963   3.041   3.204   5.641
 4022SOL     OW12964   4.347   0.600   0.142
 4022SOL    HW112965   4.262   0.560   0.108
 4022SOL    HW212966   4.358   0.692   0.104
 4023SOL     OW12967   6.396   1.562   5.002
 4023SOL    HW112968   6.495   1.572   4.993
 4023SOL    HW212969   6.360   1.520   4.919
 4024SOL     OW12970   3.011   5.154   4.255
 4024SOL    HW112971   2.988   5.209   4.175
 4024SOL    HW212972   3.100   5.111   4.241
 4025SOL     OW12973   0.709   6.342   4.821
 4025SOL    HW112974   0.696   6.279   4.898
 4025SOL    HW212975   0.802   6.378   4.824
 4026SOL     OW12976   6.319   6.205   4.165
 4026SOL    HW112977   6.321   6.270   4.241
 4026SOL    HW212978   6.243   6.228   4.104
 4027SOL     OW12979   3.375   4.123   2.391
 4027SOL    HW112980   3.351   4.184   2.466
 4027SOL    HW212981   3.468   4.089   2.404
 4028SOL     OW12982   1.931   2.273   3.898
 4028SOL    HW112983   1.848   2.232   3.860
 4028SOL    HW212984   1.971   2.335   3.830
 4029SOL     OW12985   2.472   4.330   6.248
 4029SOL    HW112986   2.494   4.401   6.182
 4029SOL    HW212987   2.377   4.303   6.238
 4030SOL     OW12988   1.647   1.844   6.788
 4030SOL    HW112989   1.562   1.796   6.806
 4030SOL    HW212990   1.667   1.908   6.863
 4031SOL     OW12991   4.879   5.833   2.966
 4031SOL    HW112992   4.943   5.785   3.026
 4031SOL    HW212993   4.923   5.916   2.931
 4032SOL     OW12994   5.905   0.319   3.018
 4032SOL    HW112995   5.814   0.330   3.057
 4032SOL    HW212996   5.900   0.264   2.935
 4033SOL     OW12997   3.086   3.334   2.604
 4033SOL    HW112998   3.052   3.305   2.694
 4033SOL    HW212999   3.168   3.282   2.581
 4034SOL     OW13000   5.964   1.750   4.829
 4034SOL    HW113001   5.982   1.771   4.733
 4034SOL    HW213002   6.048   1.761   4.882
 4035SOL     OW13003   0.231   2.577   0.938
 4035SOL    HW113004   0.231   2.536   1.029
 4035SOL    HW213005   0.233   2.504   0.869
 4036SOL     OW13006   5.130   7.015   2.939
 4036SOL    HW113007   5.099   6.923   2.915
 4036SOL    HW213008   5.063   0.039   2.999
 4037SOL     OW13009   1.819   2.657   0.570
 4037SOL    HW113010   1.844   2.730   0.506
 4037SOL    HW213011   1.748   2.600   0.529
 4038SOL     OW13012   4.570   4.688   2.018
 4038SOL    HW113013   4.611   4.623   2.081
 4038SOL    HW213014   4.497   4.644   1.967
 4039SOL     OW13015   4.754   4.672   1.533
 4039SOL    HW113016   4.674   4.612   1.540
 4039SOL    HW213017   4.783   4.700   1.625
 4040SOL     OW13018   3.297   6.978   6.207
 4040SOL    HW113019   3.337   0.045   6.234
 4040SOL    HW213020   3.311   6.964   6.109
 4041SOL     OW13021   2.234   5.772   1.402
 4041SOL    HW113022   2.142   5.797   1.430
 4041SOL    HW213023   2.261   5.824   1.321
 4042SOL     OW13024   6.095   4.941   3.029
 4042SOL    HW113025   6.012   4.916   2.978
 4042SOL    HW213026   6.074   5.016   3.092
 4043SOL     OW13027   5.113   2.430   4.443
 4043SOL    HW113028   5.126   2.526   4.419
 4043SOL    HW213029   5.086   2.423   4.539
 4044SOL     OW13030   4.890   0.668   4.326
 4044SOL    HW113031   4.983   0.669   4.362
 4044SOL    HW213032   4.877   0.587   4.268
 4045SOL     OW13033   2.705   4.158   6.253
 4045SOL    HW113034   2.616   4.196   6.277
 4045SOL    HW213035   2.692   4.075   6.198
 4046SOL     OW13036   0.968   1.091   3.618
 4046SOL    HW113037   0.893   1.090   3.685
 4046SOL    HW213038   0.974   1.182   3.577
 4047SOL     OW13039   2.771   2.631   0.887
 4047SOL    HW113040   2.805   2.611   0.978
 4047SOL    HW213041   2.736   2.547   0.845
 4048SOL     OW13042   5.546   1.810   2.089
 4048SOL    HW113043   5.570   1.862   2.006
 4048SOL    HW213044   5.541   1.872   2.167
 4049SOL     OW13045   6.370   5.909   0.326
 4049SOL    HW113046   6.410   5.841   0.265
 4049SOL    HW213047   6.442   5.962   0.370
 4050SOL     OW13048   1.919   6.561   0.331
 4050SOL    HW113049   1.879   6.591   0.244
 4050SOL    HW213050   2.003   6.509   0.313
 4051SOL     OW13051   3.925   2.821   0.492
 4051SOL    HW113052   3.922   2.873   0.407
 4051SOL    HW213053   3.832   2.800   0.522
 4052SOL     OW13054   0.279   0.620   1.686
 4052SOL    HW113055   0.374   0.622   1.654
 4052SOL    HW213056   0.266   0.540   1.744
 4053SOL     OW13057   3.304   5.192   3.854
 4053SOL    HW113058   3.322   5.253   3.931
 4053SOL    HW213059   3.206   5.174   3.847
 4054SOL     OW13060   1.198   3.016   1.095
 4054SOL    HW113061   1.120   3.001   1.157
 4054SOL    HW213062   1.282   3.020   1.148
 4055SOL     OW13063   3.239   3.830   5.799
 4055SOL    HW113064   3.230   3.748   5.741
 4055SOL    HW213065   3.336   3.853   5.808
 4056SOL     OW13066   4.425   2.751   0.241
 4056SOL    HW113067   4.443   2.847   0.221
 4056SOL    HW213068   4.474   2.693   0.175
 4057SOL     OW13069   5.533   2.660   0.041
 4057SOL    HW113070   5.501   2.565   0.044
 4057SOL    HW213071   5.626   2.665   0.076
 4058SOL     OW13072   1.515   1.277   4.621
 4058SOL    HW113073   1.449   1.312   4.687
 4058SOL    HW213074   1.502   1.322   4.533
 4059SOL     OW13075   1.826   2.354   3.401
 4059SOL    HW113076   1.817   2.383   3.496
 4059SOL    HW213077   1.913   2.306   3.389
 4060SOL     OW13078   4.580   5.274   5.182
 4060SOL    HW113079   4.526   5.339   5.236
 4060SOL    HW213080   4.524   5.195   5.159
 4061SOL     OW13081   3.355   4.880   1.898
 4061SOL    HW113082   3.414   4.962   1.896
 4061SOL    HW213083   3.408   4.800   1.870
 4062SOL     OW13084   3.102   1.115   2.915
 4062SOL    HW113085   3.161   1.043   2.879
 4062SOL    HW213086   3.007   1.093   2.896
 4063SOL     OW13087   5.012   0.303   5.214
 4063SOL    HW113088   4.933   0.261   5.168
 4063SOL    HW213089   5.009   0.281   5.312
 4064SOL     OW13090   1.445   0.197   3.437
 4064SOL    HW113091   1.469   0.151   3.352
 4064SOL    HW213092   1.349   0.226   3.434
 4065SOL     OW13093   1.285   6.786   0.254
 4065SOL    HW113094   1.278   6.797   0.353
 4065SOL    HW213095   1.265   6.874   0.210
 4066SOL     OW13096   5.291   4.873   2.656
 4066SOL    HW113097   5.351   4.877   2.735
 4066SOL    HW213098   5.322   4.938   2.587
 4067SOL     OW13099   6.230   3.264   2.283
 4067SOL    HW113100   6.303   3.315   2.239
 4067SOL    HW213101   6.155   3.325   2.306
 4068SOL     OW13102   4.103   0.354   4.518
 4068SOL    HW113103   4.141   0.261   4.524
 4068SOL    HW213104   4.112   0.399   4.607
 4069SOL     OW13105   4.182   3.794   6.707
 4069SOL    HW113106   4.188   3.860   6.632
 4069SOL    HW213107   4.253   3.724   6.696
 4070SOL     OW13108   1.263   3.307   3.105
 4070SOL    HW113109   1.199   3.368   3.151
 4070SOL    HW213110   1.352   3.352   3.098
 4071SOL     OW13111   1.379   0.939   5.187
 4071SOL    HW113112   1.446   1.006   5.219
 4071SOL    HW213113   1.336   0.972   5.103
 4072SOL     OW13114   0.567   6.555   4.185
 4072SOL    HW113115   0.561   6.527   4.089
 4072SOL    HW213116   0.619   6.487   4.237
 4073SOL     OW13117   2.462   5.355   5.709
 4073SOL    HW113118   2.561   5.359   5.722
 4073SOL    HW213119   2.431   5.260   5.715
 4074SOL     OW13120   0.928   2.432   2.365
 4074SOL    HW113121   1.013   2.441   2.313
 4074SOL    HW213122   0.949   2.406   2.459
 4075SOL     OW13123   4.691   2.648   2.646
 4075SOL    HW113124   4.712   2.702   2.728
 4075SOL    HW213125   4.771   2.593   2.621
 4076SOL     OW13126   2.058   3.918   5.944
 4076SOL    HW113127   1.975   3.973   5.951
 4076SOL    HW213128   2.132   3.964   5.994
 4077SOL     OW13129   3.049   6.784   6.979
 4077SOL    HW113130   3.125   6.726   7.009
 4077SOL    HW213131   2.979   6.726   6.936
 4078SOL     OW13132   6.630   5.619   1.801
 4078SOL    HW113133   6.652   5.716   1.809
 4078SOL    HW213134   6.602   5.583   1.890
 4079SOL     OW13135   1.207   1.481   3.367
 4079SOL    HW113136   1.268   1.512   3.440
 4079SOL    HW213137   1.248   1.401   3.323
 4080SOL     OW13138   2.649   3.583   0.738
 4080SOL    HW113139   2.591   3.652   0.782
 4080SOL    HW213140   2.665   3.508   0.803
 4081SOL     OW13141   1.667   1.071   3.984
 4081SOL    HW113142   1.600   1.142   4.006
 4081SOL    HW213143   1.635   1.019   3.904
 4082SOL     OW13144   1.573   1.726   0.531
 4082SOL    HW113145   1.655   1.751   0.582
 4082SOL    HW213146   1.515   1.807   0.520
 4083SOL     OW13147   6.092   4.354   3.717
 4083SOL    HW113148   6.010   4.350   3.774
 4083SOL    HW213149   6.073   4.313   3.628
 4084SOL     OW13150   4.953   2.721   3.034
 4084SOL    HW113151   5.052   2.712   3.045
 4084SOL    HW213152   4.912   2.751   3.120
 4085SOL     OW13153   2.886   5.286   0.402
 4085SOL    HW113154   2.794   5.291   0.362
 4085SOL    HW213155   2.898   5.198   0.448
 4086SOL     OW13156   0.092   4.658   0.786
 4086SOL    HW113157   0.147   4.741   0.795
 4086SOL    HW213158   0.103   4.620   0.694
 4087SOL     OW13159   2.516   0.696   2.889
 4087SOL    HW113160   2.562   0.615   2.853
 4087SOL    HW213161   2.422   0.700   2.854
 4088SOL     OW13162   6.433   1.073   5.909
 4088SOL    HW113163   6.498   1.041   5.840
 4088SOL    HW213164   6.390   0.994   5.953
 4089SOL     OW13165   6.298   5.626   4.758
 4089SOL    HW113166   6.392   5.652   4.782
 4089SOL    HW213167   6.251   5.594   4.841
 4090SOL     OW13168   1.931   5.623   5.111
 4090SOL    HW113169   1.910   5.670   5.197
 4090SOL    HW213170   2.029   5.604   5.106
 4091SOL     OW13171   0.483   5.464   6.918
 4091SOL    HW113172   0.418   5.388   6.915
 4091SOL    HW213173   0.446   5.539   6.972
 4092SOL     OW13174   6.123   2.315   3.768
 4092SOL    HW113175   6.166   2.311   3.858
 4092SOL    HW213176   6.154   2.239   3.712
 4093SOL     OW13177   5.302   6.660   1.395
 4093SOL    HW113178   5.286   6.573   1.347
 4093SOL    HW213179   5.256   6.734   1.345
 4094SOL     OW13180   0.904   4.855   6.164
 4094SOL    HW113181   0.889   4.855   6.065
 4094SOL    HW213182   0.842   4.921   6.207
 4095SOL     OW13183   0.902   3.689   0.171
 4095SOL    HW113184   0.851   3.724   0.093
 4095SOL    HW213185   0.890   3.750   0.249
 4096SOL     OW13186   2.917   0.947   6.319
 4096SOL    HW113187   2.989   0.954   6.250
 4096SOL    HW213188   2.908   0.852   6.349
 4097SOL     OW13189   5.424   5.075   5.576
 4097SOL    HW113190   5.468   5.022   5.649
 4097SOL    HW213191   5.346   5.126   5.613
 4098SOL     OW13192   1.511   3.275   0.932
 4098SOL    HW113193   1.432   3.242   0.881
 4098SOL    HW213194   1.486   3.357   0.984
 4099SOL     OW13195   3.149   5.179   0.623
 4099SOL    HW113196   3.220   5.135   0.677
 4099SOL    HW213197   3.167   5.278   0.619
 4100SOL     OW13198   1.289   0.650   4.305
 4100SOL    HW113199   1.376   0.680   4.267
 4100SOL    HW213200   1.294   0.650   4.405
 4101SOL     OW13201   0.657   1.436   6.571
 4101SOL    HW113202   0.560   1.437   6.593
 4101SOL    HW213203   0.691   1.530   6.565
 4102SOL     OW13204   1.857   0.499   0.709
 4102SOL    HW113205   1.903   0.548   0.635
 4102SOL    HW213206   1.789   0.559   0.751
 4103SOL     OW13207   0.071   6.782   1.996
 4103SOL    HW113208   0.130   6.809   1.920
 4103SOL    HW213209   0.012   6.858   2.020
 4104SOL     OW13210   0.534   5.360   3.603
 4104SOL    HW113211   0.544   5.267   3.567
 4104SOL    HW213212   0.564   5.426   3.534
 4105SOL     OW13213   5.948   0.766   2.424
 4105SOL    HW113214   6.006   0.804   2.495
 4105SOL    HW213215   5.926   0.671   2.447
 4106SOL     OW13216   0.837   2.056   3.627
 4106SOL    HW113217   0.872   2.145   3.598
 4106SOL    HW213218   0.749   2.039   3.582
 4107SOL     OW13219   1.023   6.122   0.238
 4107SOL    HW113220   1.075   6.198   0.277
 4107SOL    HW213221   1.013   6.135   0.139
 4108SOL     OW13222   6.579   5.139   4.693
 4108SOL    HW113223   6.668   5.165   4.729
 4108SOL    HW213224   6.520   5.220   4.686
 4109SOL     OW13225   5.754   6.966   4.693
 4109SOL    HW113226   5.810   6.899   4.741
 4109SOL    HW213227   5.699   6.920   4.624
 4110SOL     OW13228   3.771   2.974   6.283
 4110SOL    HW113229   3.833   3.046   6.313
 4110SOL    HW213230   3.823   2.894   6.254
 4111SOL     OW13231   6.119   4.911   6.302
 4111SOL    HW113232   6.033   4.960   6.299
 4111SOL    HW213233   6.194   4.976   6.315
 4112SOL     OW13234   4.696   6.698   4.365
 4112SOL    HW113235   4.769   6.638   4.399
 4112SOL    HW213236   4.627   6.709   4.436
 4113SOL     OW13237   4.852   5.929   5.118
 4113SOL    HW113238   4.945   5.955   5.094
 4113SOL    HW213239   4.819   5.859   5.055
 4114SOL     OW13240   6.917   1.479   3.059
 4114SOL    HW113241   6.880   1.405   3.004
 4114SOL    HW213242   6.956   1.549   2.999
 4115SOL     OW13243   2.830   5.088   3.513
 4115SOL    HW113244   2.837   4.991   3.491
 4115SOL    HW213245   2.810   5.099   3.610
 4116SOL     OW13246   4.575   1.798   3.470
 4116SOL    HW113247   4.529   1.789   3.382
 4116SOL    HW213248   4.602   1.707   3.503
 4117SOL     OW13249   1.204   2.650   3.355
 4117SOL    HW113250   1.255   2.634   3.440
 4117SOL    HW213251   1.122   2.702   3.374
 4118SOL     OW13252   5.309   6.681   6.651
 4118SOL    HW113253   5.335   6.776   6.633
 4118SOL    HW213254   5.354   6.622   6.584
 4119SOL     OW13255   3.029   1.460   3.767
 4119SOL    HW113256   3.083   1.457   3.852
 4119SOL    HW213257   2.980   1.374   3.755
 4120SOL     OW13258   3.411   1.366   5.930
 4120SOL    HW113259   3.324   1.362   5.880
 4120SOL    HW213260   3.422   1.282   5.983
 4121SOL     OW13261   6.092   0.429   3.263
 4121SOL    HW113262   6.122   0.427   3.168
 4121SOL    HW213263   6.082   0.524   3.293
 4122SOL     OW13264   1.784   6.595   4.439
 4122SOL    HW113265   1.813   6.679   4.486
 4122SOL    HW213266   1.839   6.518   4.473
 4123SOL     OW13267   4.242   4.888   4.760
 4123SOL    HW113268   4.285   4.798   4.757
 4123SOL    HW213269   4.147   4.879   4.789
 4124SOL     OW13270   6.752   6.772   1.094
 4124SOL    HW113271   6.729   6.834   1.019
 4124SOL    HW213272   6.741   6.677   1.063
 4125SOL     OW13273   4.308   2.054   2.731
 4125SOL    HW113274   4.262   2.017   2.811
 4125SOL    HW213275   4.281   2.003   2.649
 4126SOL     OW13276   1.724   3.555   3.188
 4126SOL    HW113277   1.725   3.616   3.267
 4126SOL    HW213278   1.630   3.547   3.154
 4127SOL     OW13279   5.435   3.387   5.432
 4127SOL    HW113280   5.502   3.319   5.400
 4127SOL    HW213281   5.458   3.477   5.394
 4128SOL     OW13282   0.601   3.399   1.570
 4128SOL    HW113283   0.611   3.324   1.636
 4128SOL    HW213284   0.670   3.389   1.498
 4129SOL     OW13285   3.280   1.388   0.006
 4129SOL    HW113286   3.290   1.480   0.042
 4129SOL    HW213287   3.213   1.388   6.951
 4130SOL     OW13288   6.207   2.225   0.473
 4130SOL    HW113289   6.190   2.293   0.543
 4130SOL    HW213290   6.244   2.270   0.391
 4131SOL     OW13291   0.327   1.458   3.013
 4131SOL    HW113292   0.266   1.536   3.000
 4131SOL    HW213293   0.275   1.381   3.049
 4132SOL     OW13294   5.217   3.729   4.411
 4132SOL    HW113295   5.207   3.661   4.338
 4132SOL    HW213296   5.234   3.682   4.497
 4133SOL     OW13297   4.291   5.800   1.722
 4133SOL    HW113298   4.274   5.713   1.769
 4133SOL    HW213299   4.327   5.782   1.630
 4134SOL     OW13300   2.261   4.109   0.998
 4134SOL    HW113301   2.171   4.150   1.015
 4134SOL    HW213302   2.251   4.010   0.992
 4135SOL     OW13303   0.412   2.718   1.679
 4135SOL    HW113304   0.407   2.814   1.706
 4135SOL    HW213305   0.320   2.684   1.658
 4136SOL     OW13306   1.272   3.932   2.960
 4136SOL    HW113307   1.344   3.955   3.025
 4136SOL    HW213308   1.295   3.968   2.870
 4137SOL     OW13309   1.941   3.479   0.750
 4137SOL    HW113310   1.880   3.410   0.712
 4137SOL    HW213311   1.933   3.564   0.699
 4138SOL     OW13312   3.483   5.128   2.624
 4138SOL    HW113313   3.388   5.144   2.654
 4138SOL    HW213314   3.486   5.045   2.569
 4139SOL     OW13315   1.797   1.651   4.525
 4139SOL    HW113316   1.738   1.691   4.455
 4139SOL    HW213317   1.742   1.596   4.588
 4140SOL     OW13318   3.477   1.301   4.650
 4140SOL    HW113319   3.444   1.207   4.655
 4140SOL    HW213320   3.534   1.322   4.729
 4141SOL     OW13321   5.649   6.968   1.024
 4141SOL    HW113322   5.569   6.945   0.969
 4141SOL    HW213323   5.727   6.912   0.995
 4142SOL     OW13324   6.457   3.788   1.416
 4142SOL    HW113325   6.400   3.707   1.425
 4142SOL    HW213326   6.408   3.859   1.366
 4143SOL     OW13327   5.896   2.893   0.191
 4143SOL    HW113328   5.881   2.804   0.148
 4143SOL    HW213329   5.950   2.881   0.273
 4144SOL     OW13330   4.790   1.516   0.192
 4144SOL    HW113331   4.856   1.589   0.175
 4144SOL    HW213332   4.833   1.444   0.246
 4145SOL     OW13333   1.202   6.266   0.656
 4145SOL    HW113334   1.269   6.316   0.601
 4145SOL    HW213335   1.186   6.176   0.615
 4146SOL     OW13336   6.572   0.526   3.353
 4146SOL    HW113337   6.569   0.539   3.452
 4146SOL    HW213338   6.490   0.565   3.312
 4147SOL     OW13339   4.167   4.621   5.991
 4147SOL    HW113340   4.229   4.628   6.070
 4147SOL    HW213341   4.217   4.581   5.914
 4148SOL     OW13342   2.712   0.257   5.203
 4148SOL    HW113343   2.779   0.204   5.256
 4148SOL    HW213344   2.663   0.319   5.264
 4149SOL     OW13345   0.313   4.035   1.145
 4149SOL    HW113346   0.316   4.075   1.053
 4149SOL    HW213347   0.220   4.041   1.182
 4150SOL     OW13348   0.325   0.846   5.275
 4150SOL    HW113349   0.417   0.808   5.287
 4150SOL    HW213350   0.273   0.787   5.214
 4151SOL     OW13351   2.873   5.964   5.853
 4151SOL    HW113352   2.901   5.891   5.916
 4151SOL    HW213353   2.840   5.924   5.768
 4152SOL     OW13354   3.977   5.515   0.619
 4152SOL    HW113355   4.040   5.469   0.556
 4152SOL    HW213356   3.890   5.530   0.573
 4153SOL     OW13357   5.903   5.266   1.760
 4153SOL    HW113358   5.891   5.255   1.662
 4153SOL    HW213359   5.813   5.276   1.803
 4154SOL     OW13360   6.958   6.082   4.331
 4154SOL    HW113361   0.031   6.084   4.367
 4154SOL    HW213362   6.893   6.070   4.406
 4155SOL     OW13363   0.264   0.960   0.765
 4155SOL    HW113364   0.172   0.939   0.730
 4155SOL    HW213365   0.260   1.039   0.826
 4156SOL     OW13366   5.916   5.244   5.349
 4156SOL    HW113367   5.894   5.202   5.437
 4156SOL    HW213368   6.012   5.229   5.327
 4157SOL     OW13369   5.148   6.052   3.471
 4157SOL    HW113370   5.189   6.025   3.384
 4157SOL    HW213371   5.192   6.135   3.505
 4158SOL     OW13372   0.368   2.724   2.417
 4158SOL    HW113373   0.270   2.738   2.424
 4158SOL    HW213374   0.415   2.785   2.480
 4159SOL     OW13375   1.586   2.981   3.193
 4159SOL    HW113376   1.581   2.888   3.155
 4159SOL    HW213377   1.583   3.047   3.118
 4160SOL     OW13378   5.579   0.152   6.973
 4160SOL    HW113379   5.495   0.141   0.007
 4160SOL    HW213380   5.656   0.114   0.004
 4161SOL     OW13381   1.314   2.519   1.106
 4161SOL    HW113382   1.268   2.504   1.019
 4161SOL    HW213383   1.253   2.570   1.168
 4162SOL     OW13384   5.925   5.856   1.079
 4162SOL    HW113385   5.954   5.859   0.983
 4162SOL    HW213386   5.845   5.796   1.087
 4163SOL     OW13387   5.423   1.149   3.242
 4163SOL    HW113388   5.406   1.070   3.183
 4163SOL    HW213389   5.357   1.150   3.317
 4164SOL     OW13390   1.183   0.237   4.506
 4164SOL    HW113391   1.256   0.176   4.475
 4164SOL    HW213392   1.147   0.204   4.593
 4165SOL     OW13393   4.558   0.891   5.303
 4165SOL    HW113394   4.628   0.963   5.306
 4165SOL    HW213395   4.573   0.834   5.222
 4166SOL     OW13396   5.075   0.979   0.773
 4166SOL    HW113397   5.035   1.057   0.823
 4166SOL    HW213398   5.125   1.012   0.694
 4167SOL     OW13399   3.177   4.647   6.667
 4167SOL    HW113400   3.210   4.556   6.689
 4167SOL    HW213401   3.255   4.707   6.648
 4168SOL     OW13402   0.463   4.097   0.571
 4168SOL    HW113403   0.541   4.148   0.536
 4168SOL    HW213404   0.396   4.085   0.498
 4169SOL     OW13405   6.223   4.965   4.426
 4169SOL    HW113406   6.252   4.938   4.334
 4169SOL    HW213407   6.135   4.923   4.447
 4170SOL     OW13408   4.999   3.181   5.654
 4170SOL    HW113409   5.073   3.240   5.625
 4170SOL    HW213410   5.016   3.149   5.748
 4171SOL     OW13411   6.655   5.373   0.652
 4171SOL    HW113412   6.572   5.322   0.674
 4171SOL    HW213413   6.655   5.460   0.703
 4172SOL     OW13414   1.953   2.036   0.288
 4172SOL    HW113415   1.990   2.015   0.379
 4172SOL    HW213416   2.025   2.025   0.220
 4173SOL     OW13417   5.359   3.860   4.646
 4173SOL    HW113418   5.259   3.858   4.651
 4173SOL    HW213419   5.387   3.863   4.551
 4174SOL     OW13420   4.336   1.854   2.550
 4174SOL    HW113421   4.338   1.802   2.636
 4174SOL    HW213422   4.424   1.844   2.503
 4175SOL     OW13423   1.755   4.806   4.291
 4175SOL    HW113424   1.848   4.773   4.306
 4175SOL    HW213425   1.700   4.790   4.373
 4176SOL     OW13426   4.191   6.694   1.614
 4176SOL    HW113427   4.102   6.652   1.626
 4176SOL    HW213428   4.246   6.681   1.697
 4177SOL     OW13429   5.762   5.004   5.803
 4177SOL    HW113430   5.822   4.926   5.786
 4177SOL    HW213431   5.666   4.976   5.790
 4178SOL     OW13432   4.121   0.253   3.891
 4178SOL    HW113433   4.191   0.190   3.925
 4178SOL    HW213434   4.159   0.345   3.884
 4179SOL     OW13435   5.492   3.490   3.284
 4179SOL    HW113436   5.505   3.491   3.185
 4179SOL    HW213437   5.573   3.452   3.328
 4180SOL     OW13438   4.799   2.653   0.680
 4180SOL    HW113439   4.835   2.587   0.613
 4180SOL    HW213440   4.736   2.715   0.634
 4181SOL     OW13441   4.015   1.139   6.745
 4181SOL    HW113442   3.942   1.202   6.772
 4181SOL    HW213443   4.041   1.158   6.650
 4182SOL     OW13444   0.183   5.806   3.412
 4182SOL    HW113445   0.178   5.776   3.508
 4182SOL    HW213446   0.090   5.823   3.379
 4183SOL     OW13447   2.412   1.849   0.102
 4183SOL    HW113448   2.349   1.926   0.110
 4183SOL    HW213449   2.503   1.882   0.078
 4184SOL     OW13450   2.994   6.587   2.673
 4184SOL    HW113451   2.921   6.598   2.606
 4184SOL    HW213452   3.002   6.491   2.699
 4185SOL     OW13453   0.558   4.484   2.855
 4185SOL    HW113454   0.523   4.491   2.948
 4185SOL    HW213455   0.483   4.460   2.793
 4186SOL     OW13456   2.412   5.021   6.371
 4186SOL    HW113457   2.411   5.028   6.471
 4186SOL    HW213458   2.448   4.931   6.345
 4187SOL     OW13459   3.183   3.189   5.488
 4187SOL    HW113460   3.246   3.143   5.549
 4187SOL    HW213461   3.131   3.121   5.436
 4188SOL     OW13462   5.084   0.857   5.135
 4188SOL    HW113463   5.003   0.818   5.179
 4188SOL    HW213464   5.138   0.907   5.203
 4189SOL     OW13465   3.038   5.343   4.489
 4189SOL    HW113466   2.986   5.298   4.561
 4189SOL    HW213467   3.016   5.301   4.401
 4190SOL     OW13468   0.582   0.145   1.158
 4190SOL    HW113469   0.515   0.087   1.111
 4190SOL    HW213470   0.665   0.152   1.103
 4191SOL     OW13471   4.803   4.425   3.770
 4191SOL    HW113472   4.792   4.329   3.745
 4191SOL    HW213473   4.717   4.459   3.809
 4192SOL     OW13474   0.565   1.747   3.152
 4192SOL    HW113475   0.563   1.732   3.053
 4192SOL    HW213476   0.571   1.659   3.199
 4193SOL     OW13477   6.669   0.247   0.786
 4193SOL    HW113478   6.570   0.258   0.783
 4193SOL    HW213479   6.703   0.279   0.875
 4194SOL     OW13480   4.522   0.479   4.788
 4194SOL    HW113481   4.614   0.441   4.803
 4194SOL    HW213482   4.499   0.474   4.691
 4195SOL     OW13483   3.766   5.936   1.141
 4195SOL    HW113484   3.860   5.925   1.108
 4195SOL    HW213485   3.766   5.938   1.241
 4196SOL     OW13486   6.277   2.757   2.875
 4196SOL    HW113487   6.293   2.658   2.884
 4196SOL    HW213488   6.359   2.801   2.839
 4197SOL     OW13489   5.208   5.982   5.949
 4197SOL    HW113490   5.219   5.922   5.870
 4197SOL    HW213491   5.113   5.979   5.980
 4198SOL     OW13492   6.386   1.886   0.556
 4198SOL    HW113493   6.308   1.933   0.597
 4198SOL    HW213494   6.439   1.840   0.627
 4199SOL     OW13495   1.526   2.644   6.368
 4199SOL    HW113496   1.551   2.637   6.272
 4199SOL    HW213497   1.601   2.688   6.418
 4200SOL     OW13498   2.815   6.895   6.338
 4200SOL    HW113499   2.871   6.812   6.346
 4200SOL    HW213500   2.876   6.974   6.330
 4201SOL     OW13501   5.914   6.702   3.398
 4201SOL    HW113502   5.973   6.772   3.359
 4201SOL    HW213503   5.819   6.723   3.378
 4202SOL     OW13504   3.417   5.723   5.916
 4202SOL    HW113505   3.445   5.714   6.012
 4202SOL    HW213506   3.340   5.661   5.898
 4203SOL     OW13507   4.156   4.136   6.959
 4203SOL    HW113508   4.084   4.197   6.992
 4203SOL    HW213509   4.121   4.043   6.954
 4204SOL     OW13510   4.150   3.536   3.930
 4204SOL    HW113511   4.112   3.450   3.896
 4204SOL    HW213512   4.147   3.605   3.858
 4205SOL     OW13513   4.750   6.355   3.908
 4205SOL    HW113514   4.653   6.334   3.910
 4205SOL    HW213515   4.791   6.329   3.996
 4206SOL     OW13516   6.410   0.682   5.418
 4206SOL    HW113517   6.491   0.732   5.448
 4206SOL    HW213518   6.348   0.744   5.370
 4207SOL     OW13519   1.970   2.160   2.032
 4207SOL    HW113520   2.011   2.208   2.109
 4207SOL    HW213521   2.033   2.160   1.954
 4208SOL     OW13522   0.306   3.569   5.176
 4208SOL    HW113523   0.268   3.563   5.084
 4208SOL    HW213524   0.287   3.659   5.214
 4209SOL     OW13525   6.924   0.203   3.660
 4209SOL    HW113526   6.991   0.129   3.670
 4209SOL    HW213527   6.834   0.163   3.645
 4210SOL     OW13528   4.144   3.679   2.014
 4210SOL    HW113529   4.156   3.763   1.962
 4210SOL    HW213530   4.049   3.648   2.006
 4211SOL     OW13531   3.974   0.047   6.287
 4211SOL    HW113532   3.934   6.978   6.309
 4211SOL    HW213533   4.056   0.033   6.231
 4212SOL     OW13534   6.464   1.995   2.588
 4212SOL    HW113535   6.399   2.032   2.521
 4212SOL    HW213536   6.549   1.971   2.541
 4213SOL     OW13537   2.048   0.518   1.912
 4213SOL    HW113538   2.123   0.478   1.860
 4213SOL    HW213539   2.064   0.616   1.926
 4214SOL     OW13540   0.841   5.633   4.913
 4214SOL    HW113541   0.821   5.650   5.010
 4214SOL    HW213542   0.939   5.620   4.902
 4215SOL     OW13543   4.538   0.244   6.287
 4215SOL    HW113544   4.505   0.209   6.199
 4215SOL    HW213545   4.637   0.252   6.284
 4216SOL     OW13546   1.212   1.345   2.886
 4216SOL    HW113547   1.238   1.410   2.815
 4216SOL    HW213548   1.278   1.270   2.889
 4217SOL     OW13549   1.064   0.775   2.779
 4217SOL    HW113550   1.010   0.698   2.745
 4217SOL    HW213551   1.148   0.741   2.821
 4218SOL     OW13552   4.230   1.146   1.756
 4218SOL    HW113553   4.270   1.132   1.665
 4218SOL    HW213554   4.214   1.057   1.799
 4219SOL     OW13555   3.979   5.948   3.665
 4219SOL    HW113556   4.035   6.023   3.700
 4219SOL    HW213557   3.993   5.867   3.722
 4220SOL     OW13558   6.832   3.574   3.549
 4220SOL    HW113559   6.798   3.639   3.482
 4220SOL    HW213560   6.824   3.481   3.512
 4221SOL     OW13561   6.070   5.380   6.272
 4221SOL    HW113562   6.029   5.347   6.187
 4221SOL    HW213563   6.128   5.460   6.252
 4222SOL     OW13564   0.291   1.823   2.088
 4222SOL    HW113565   0.306   1.761   2.010
 4222SOL    HW213566   0.274   1.915   2.055
 4223SOL     OW13567   3.252   3.100   0.274
 4223SOL    HW113568   3.258   3.141   0.183
 4223SOL    HW213569   3.341   3.107   0.319
 4224SOL     OW13570   5.075   4.560   4.047
 4224SOL    HW113571   5.073   4.537   3.950
 4224SOL    HW213572   5.157   4.616   4.066
 4225SOL     OW13573   3.150   2.414   5.535
 4225SOL    HW113574   3.074   2.406   5.599
 4225SOL    HW213575   3.158   2.329   5.483
 4226SOL     OW13576   1.006   0.117   3.087
 4226SOL    HW113577   1.104   0.117   3.109
 4226SOL    HW213578   0.989   0.051   3.013
 4227SOL     OW13579   3.779   5.014   1.478
 4227SOL    HW113580   3.687   4.982   1.501
 4227SOL    HW213581   3.846   4.942   1.500
 4228SOL     OW13582   0.896   5.246   5.099
 4228SOL    HW113583   0.863   5.251   5.004
 4228SOL    HW213584   0.943   5.159   5.113
 4229SOL     OW13585   5.227   6.592   6.033
 4229SOL    HW113586   5.198   6.656   5.961
 4229SOL    HW213587   5.232   6.640   6.120
 4230SOL     OW13588   0.689   5.902   2.387
 4230SOL    HW113589   0.757   5.847   2.436
 4230SOL    HW213590   0.678   5.990   2.434
 4231SOL     OW13591   5.997   6.693   5.702
 4231SOL    HW113592   5.981   6.682   5.800
 4231SOL    HW213593   5.928   6.755   5.664
 4232SOL     OW13594   6.944   4.774   3.180
 4232SOL    HW113595   6.924   4.703   3.112
 4232SOL    HW213596   0.023   4.777   3.196
 4233SOL     OW13597   6.679   0.118   5.927
 4233SOL    HW113598   6.710   0.213   5.923
 4233SOL    HW213599   6.743   0.060   5.877
 4234SOL     OW13600   2.622   6.296   4.828
 4234SOL    HW113601   2.534   6.339   4.846
 4234SOL    HW213602   2.627   6.268   4.732
 4235SOL     OW13603   5.638   4.233   5.548
 4235SOL    HW113604   5.704   4.279   5.608
 4235SOL    HW213605   5.586   4.302   5.497
 4236SOL     OW13606   6.420   3.413   2.108
 4236SOL    HW113607   6.460   3.499   2.141
 4236SOL    HW213608   6.392   3.423   2.013
 4237SOL     OW13609   5.593   5.836   3.366
 4237SOL    HW113610   5.673   5.778   3.380
 4237SOL    HW213611   5.554   5.861   3.454
 4238SOL     OW13612   2.543   6.036   2.690
 4238SOL    HW113613   2.472   6.069   2.627
 4238SOL    HW213614   2.618   6.102   2.693
 4239SOL     OW13615   5.846   1.635   2.352
 4239SOL    HW113616   5.869   1.539   2.369
 4239SOL    HW213617   5.827   1.647   2.254
 4240SOL     OW13618   2.287   5.762   0.420
 4240SOL    HW113619   2.322   5.685   0.473
 4240SOL    HW213620   2.234   5.728   0.342
 4241SOL     OW13621   6.301   1.139   0.266
 4241SOL    HW113622   6.297   1.187   0.178
 4241SOL    HW213623   6.235   1.180   0.329
 4242SOL     OW13624   3.241   1.126   4.207
 4242SOL    HW113625   3.214   1.215   4.172
 4242SOL    HW213626   3.223   1.056   4.138
 4243SOL     OW13627   6.316   2.996   3.109
 4243SOL    HW113628   6.230   2.986   3.059
 4243SOL    HW213629   6.369   3.071   3.070
 4244SOL     OW13630   4.469   4.391   1.616
 4244SOL    HW113631   4.445   4.357   1.707
 4244SOL    HW213632   4.390   4.381   1.555
 4245SOL     OW13633   6.990   1.521   6.497
 4245SOL    HW113634   6.966   1.433   6.537
 4245SOL    HW213635   0.057   1.515   6.450
 4246SOL     OW13636   0.232   4.270   3.756
 4246SOL    HW113637   0.135   4.247   3.761
 4246SOL    HW213638   0.286   4.195   3.794
 4247SOL     OW13639   2.753   5.765   3.866
 4247SOL    HW113640   2.851   5.758   3.850
 4247SOL    HW213641   2.705   5.697   3.810
 4248SOL     OW13642   3.323   1.460   2.810
 4248SOL    HW113643   3.350   1.553   2.833
 4248SOL    HW213644   3.358   1.436   2.719
 4249SOL     OW13645   5.857   2.137   3.532
 4249SOL    HW113646   5.833   2.226   3.493
 4249SOL    HW213647   5.876   2.072   3.458
 4250SOL     OW13648   6.520   4.429   2.985
 4250SOL    HW113649   6.478   4.353   2.935
 4250SOL    HW213650   6.453   4.502   2.995
 4251SOL     OW13651   4.979   4.843   1.872
 4251SOL    HW113652   4.894   4.791   1.866
 4251SOL    HW213653   5.026   4.840   1.784
 4252SOL     OW13654   5.460   6.326   6.319
 4252SOL    HW113655   5.490   6.230   6.322
 4252SOL    HW213656   5.461   6.358   6.225
 4253SOL     OW13657   3.590   6.862   1.027
 4253SOL    HW113658   3.577   6.950   0.980
 4253SOL    HW213659   3.601   6.790   0.959
 4254SOL     OW13660   0.657   3.019   1.825
 4254SOL    HW113661   0.624   3.111   1.846
 4254SOL    HW213662   0.705   2.982   1.904
 4255SOL     OW13663   6.997   4.451   3.627
 4255SOL    HW113664   6.924   4.481   3.565
 4255SOL    HW213665   0.010   4.530   3.679
 4256SOL     OW13666   2.339   6.546   0.272
 4256SOL    HW113667   2.392   6.506   0.346
 4256SOL    HW213668   2.301   6.634   0.301
 4257SOL     OW13669   2.892   0.678   4.685
 4257SOL    HW113670   2.932   0.711   4.770
 4257SOL    HW213671   2.958   0.688   4.611
 4258SOL     OW13672   4.998   6.387   1.133
 4258SOL    HW113673   5.007   6.419   1.227
 4258SOL    HW213674   4.904   6.359   1.116
 4259SOL     OW13675   2.709   0.608   0.847
 4259SOL    HW113676   2.671   0.688   0.801
 4259SOL    HW213677   2.805   0.624   0.869
 4260SOL     OW13678   5.454   0.216   1.415
 4260SOL    HW113679   5.493   0.246   1.502
 4260SOL    HW213680   5.510   0.141   1.378
 4261SOL     OW13681   1.942   6.784   2.401
 4261SOL    HW113682   2.038   6.756   2.403
 4261SOL    HW213683   1.926   6.841   2.320
 4262SOL     OW13684   0.834   5.219   6.036
 4262SOL    HW113685   0.843   5.316   6.016
 4262SOL    HW213686   0.920   5.184   6.072
 4263SOL     OW13687   2.944   6.380   3.056
 4263SOL    HW113688   2.965   6.363   2.960
 4263SOL    HW213689   3.011   6.334   3.113
 4264SOL     OW13690   0.081   2.409   2.416
 4264SOL    HW113691   0.105   2.476   2.486
 4264SOL    HW213692   7.007   2.426   2.384
 4265SOL     OW13693   5.288   1.827   1.219
 4265SOL    HW113694   5.271   1.925   1.220
 4265SOL    HW213695   5.201   1.778   1.215
 4266SOL     OW13696   1.774   5.669   0.236
 4266SOL    HW113697   1.822   5.756   0.244
 4266SOL    HW213698   1.689   5.682   0.186
 4267SOL     OW13699   2.034   3.058   4.466
 4267SOL    HW113700   2.011   3.120   4.391
 4267SOL    HW213701   1.981   3.083   4.547
 4268SOL     OW13702   0.954   5.870   6.578
 4268SOL    HW113703   1.045   5.830   6.590
 4268SOL    HW213704   0.959   5.969   6.589
 4269SOL     OW13705   2.428   0.694   1.431
 4269SOL    HW113706   2.466   0.681   1.522
 4269SOL    HW213707   2.454   0.617   1.373
 4270SOL     OW13708   4.111   3.396   3.542
 4270SOL    HW113709   4.068   3.329   3.602
 4270SOL    HW213710   4.069   3.486   3.557
 4271SOL     OW13711   6.593   1.129   0.030
 4271SOL    HW113712   6.618   1.034   0.048
 4271SOL    HW213713   6.668   1.176   7.004
 4272SOL     OW13714   6.854   2.676   4.429
 4272SOL    HW113715   6.912   2.596   4.447
 4272SOL    HW213716   6.846   2.690   4.330
 4273SOL     OW13717   4.685   6.908   4.602
 4273SOL    HW113718   4.602   6.854   4.588
 4273SOL    HW213719   4.702   6.965   4.522
 4274SOL     OW13720   0.717   6.165   1.956
 4274SOL    HW113721   0.795   6.139   1.899
 4274SOL    HW213722   0.642   6.100   1.940
 4275SOL     OW13723   6.655   1.371   3.976
 4275SOL    HW113724   6.601   1.322   4.045
 4275SOL    HW213725   6.736   1.411   4.019
 4276SOL     OW13726   1.826   4.804   3.622
 4276SOL    HW113727   1.731   4.818   3.650
 4276SOL    HW213728   1.835   4.823   3.524
 4277SOL     OW13729   6.412   4.555   3.765
 4277SOL    HW113730   6.443   4.484   3.702
 4277SOL    HW213731   6.332   4.600   3.726
 4278SOL     OW13732   6.950   0.387   4.358
 4278SOL    HW113733   6.975   0.292   4.375
 4278SOL    HW213734   7.015   0.427   4.294
 4279SOL     OW13735   3.253   0.553   4.320
 4279SOL    HW113736   3.322   0.545   4.248
 4279SOL    HW213737   3.255   0.471   4.378
 4280SOL     OW13738   4.370   0.381   5.872
 4280SOL    HW113739   4.432   0.458   5.887
 4280SOL    HW213740   4.299   0.408   5.807
 4281SOL     OW13741   0.215   4.728   3.576
 4281SOL    HW113742   0.165   4.732   3.663
 4281SOL    HW213743   0.266   4.642   3.571
 4282SOL     OW13744   3.086   4.450   5.798
 4282SOL    HW113745   3.117   4.466   5.704
 4282SOL    HW213746   3.003   4.394   5.796
 4283SOL     OW13747   1.047   0.628   3.202
 4283SOL    HW113748   0.989   0.650   3.124
 4283SOL    HW213749   1.131   0.683   3.197
 4284SOL     OW13750   3.934   4.791   1.517
 4284SOL    HW113751   3.942   4.760   1.612
 4284SOL    HW213752   4.010   4.755   1.463
 4285SOL     OW13753   1.112   0.685   6.082
 4285SOL    HW113754   1.161   0.599   6.096
 4285SOL    HW213755   1.016   0.666   6.061
 4286SOL     OW13756   4.768   6.646   6.163
 4286SOL    HW113757   4.745   6.717   6.229
 4286SOL    HW213758   4.856   6.604   6.187
 4287SOL     OW13759   5.816   2.163   6.016
 4287SOL    HW113760   5.727   2.191   6.052
 4287SOL    HW213761   5.828   2.065   6.030
 4288SOL     OW13762   0.199   6.099   4.079
 4288SOL    HW113763   0.132   6.053   4.021
 4288SOL    HW213764   0.215   6.045   4.162
 4289SOL     OW13765   6.585   2.859   6.681
 4289SOL    HW113766   6.601   2.768   6.641
 4289SOL    HW213767   6.673   2.907   6.689
 4290SOL     OW13768   1.364   6.420   2.655
 4290SOL    HW113769   1.287   6.359   2.676
 4290SOL    HW213770   1.355   6.503   2.709
 4291SOL     OW13771   4.497   3.337   1.423
 4291SOL    HW113772   4.506   3.411   1.356
 4291SOL    HW213773   4.587   3.302   1.446
 4292SOL     OW13774   5.791   3.524   0.050
 4292SOL    HW113775   5.743   3.461   0.111
 4292SOL    HW213776   5.785   3.490   6.976
 4293SOL     OW13777   2.394   3.347   0.392
 4293SOL    HW113778   2.400   3.326   0.489
 4293SOL    HW213779   2.406   3.445   0.378
 4294SOL     OW13780   2.321   2.878   6.881
 4294SOL    HW113781   2.392   2.944   6.905
 4294SOL    HW213782   2.319   2.806   6.951
 4295SOL     OW13783   4.109   5.910   4.424
 4295SOL    HW113784   4.108   5.870   4.332
 4295SOL    HW213785   4.085   6.007   4.418
 4296SOL     OW13786   3.583   6.968   0.391
 4296SOL    HW113787   3.549   0.042   0.383
 4296SOL    HW213788   3.682   6.969   0.401
 4297SOL     OW13789   4.859   0.927   6.756
 4297SOL    HW113790   4.781   0.988   6.769
 4297SOL    HW213791   4.844   0.869   6.676
 4298SOL     OW13792   3.673   5.333   0.484
 4298SOL    HW113793   3.677   5.432   0.498
 4298SOL    HW213794   3.726   5.309   0.402
 4299SOL     OW13795   0.977   3.224   6.185
 4299SOL    HW113796   0.926   3.167   6.121
 4299SOL    HW213797   1.044   3.167   6.234
 4300SOL     OW13798   3.530   0.511   6.880
 4300SOL    HW113799   3.612   0.568   6.882
 4300SOL    HW213800   3.540   0.439   6.812
 4301SOL     OW13801   4.291   1.117   1.466
 4301SOL    HW113802   4.323   1.121   1.372
 4301SOL    HW213803   4.204   1.167   1.474
 4302SOL     OW13804   1.320   6.368   6.253
 4302SOL    HW113805   1.365   6.457   6.241
 4302SOL    HW213806   1.221   6.381   6.258
 4303SOL     OW13807   0.201   5.085   4.282
 4303SOL    HW113808   0.106   5.052   4.287
 4303SOL    HW213809   0.262   5.006   4.279
 4304SOL     OW13810   3.022   3.792   3.335
 4304SOL    HW113811   2.998   3.797   3.238
 4304SOL    HW213812   3.120   3.776   3.345
 4305SOL     OW13813   6.679   0.289   5.276
 4305SOL    HW113814   6.731   0.212   5.240
 4305SOL    HW213815   6.581   0.270   5.267
 4306SOL     OW13816   5.517   4.163   6.006
 4306SOL    HW113817   5.551   4.133   6.096
 4306SOL    HW213818   5.594   4.170   5.942
 4307SOL     OW13819   4.313   4.221   5.727
 4307SOL    HW113820   4.279   4.230   5.821
 4307SOL    HW213821   4.395   4.164   5.727
 4308SOL     OW13822   6.345   5.076   0.225
 4308SOL    HW113823   6.260   5.046   0.267
 4308SOL    HW213824   6.370   5.014   0.151
 4309SOL     OW13825   1.275   1.249   0.213
 4309SOL    HW113826   1.290   1.151   0.231
 4309SOL    HW213827   1.178   1.270   0.227
 4310SOL     OW13828   1.137   2.637   2.492
 4310SOL    HW113829   1.229   2.623   2.458
 4310SOL    HW213830   1.136   2.713   2.557
 4311SOL     OW13831   2.017   5.426   2.878
 4311SOL    HW113832   1.924   5.460   2.866
 4311SOL    HW213833   2.067   5.486   2.941
 4312SOL     OW13834   1.552   4.850   1.200
 4312SOL    HW113835   1.530   4.928   1.141
 4312SOL    HW213836   1.596   4.779   1.145
 4313SOL     OW13837   5.279   1.904   1.853
 4313SOL    HW113838   5.257   1.995   1.889
 4313SOL    HW213839   5.271   1.837   1.926
 4314SOL     OW13840   6.112   1.099   4.609
 4314SOL    HW113841   6.204   1.114   4.643
 4314SOL    HW213842   6.097   1.001   4.594
 4315SOL     OW13843   2.303   6.725   1.954
 4315SOL    HW113844   2.394   6.765   1.947
 4315SOL    HW213845   2.243   6.766   1.885
 4316SOL     OW13846   5.126   0.345   1.983
 4316SOL    HW113847   5.156   0.261   2.028
 4316SOL    HW213848   5.042   0.377   2.026
 4317SOL     OW13849   4.727   1.919   4.564
 4317SOL    HW113850   4.786   1.844   4.533
 4317SOL    HW213851   4.775   1.973   4.633
 4318SOL     OW13852   0.872   3.535   5.163
 4318SOL    HW113853   0.857   3.440   5.189
 4318SOL    HW213854   0.921   3.582   5.238
 4319SOL     OW13855   2.253   2.589   0.946
 4319SOL    HW113856   2.159   2.561   0.965
 4319SOL    HW213857   2.264   2.686   0.970
 4320SOL     OW13858   6.140   5.183   1.246
 4320SOL    HW113859   6.193   5.123   1.187
 4320SOL    HW213860   6.063   5.132   1.286
 4321SOL     OW13861   7.016   6.751   5.294
 4321SOL    HW113862   0.028   6.712   5.380
 4321SOL    HW213863   0.067   6.809   5.254
 4322SOL     OW13864   6.580   2.701   6.423
 4322SOL    HW113865   6.628   2.768   6.366
 4322SOL    HW213866   6.514   2.748   6.482
 4323SOL     OW13867   4.194   3.768   0.816
 4323SOL    HW113868   4.134   3.766   0.735
 4323SOL    HW213869   4.288   3.783   0.787
 4324SOL     OW13870   5.558   4.607   0.436
 4324SOL    HW113871   5.564   4.535   0.367
 4324SOL    HW213872   5.575   4.695   0.394
 4325SOL     OW13873   2.185   1.233   1.430
 4325SOL    HW113874   2.247   1.309   1.451
 4325SOL    HW213875   2.232   1.146   1.449
 4326SOL     OW13876   4.865   4.644   4.651
 4326SOL    HW113877   4.775   4.637   4.692
 4326SOL    HW213878   4.871   4.726   4.595
 4327SOL     OW13879   5.865   6.675   1.840
 4327SOL    HW113880   5.786   6.680   1.780
 4327SOL    HW213881   5.948   6.692   1.787
 4328SOL     OW13882   4.619   3.928   5.263
 4328SOL    HW113883   4.552   3.855   5.252
 4328SOL    HW213884   4.709   3.896   5.234
 4329SOL     OW13885   4.422   1.691   5.927
 4329SOL    HW113886   4.518   1.712   5.942
 4329SOL    HW213887   4.369   1.718   6.008
 4330SOL     OW13888   2.844   6.867   4.767
 4330SOL    HW113889   2.767   6.914   4.810
 4330SOL    HW213890   2.822   6.770   4.758
 4331SOL     OW13891   5.370   1.930   1.551
 4331SOL    HW113892   5.386   1.842   1.506
 4331SOL    HW213893   5.323   1.915   1.637
 4332SOL     OW13894   5.388   3.964   2.505
 4332SOL    HW113895   5.386   3.996   2.599
 4332SOL    HW213896   5.294   3.953   2.471
 4333SOL     OW13897   3.690   0.385   4.920
 4333SOL    HW113898   3.704   0.452   4.993
 4333SOL    HW213899   3.593   0.361   4.916
 4334SOL     OW13900   1.414   2.594   2.437
 4334SOL    HW113901   1.451   2.556   2.522
 4334SOL    HW213902   1.473   2.667   2.405
 4335SOL     OW13903   3.535   3.830   2.665
 4335SOL    HW113904   3.559   3.770   2.589
 4335SOL    HW213905   3.617   3.876   2.699
 4336SOL     OW13906   2.376   6.324   6.934
 4336SOL    HW113907   2.459   6.340   6.988
 4336SOL    HW213908   2.305   6.287   6.993
 4337SOL     OW13909   0.189   4.278   0.675
 4337SOL    HW113910   0.267   4.328   0.712
 4337SOL    HW213911   0.160   4.208   0.741
 4338SOL     OW13912   5.743   5.899   5.072
 4338SOL    HW113913   5.767   5.971   5.137
 4338SOL    HW213914   5.771   5.810   5.109
 4339SOL     OW13915   5.514   3.691   5.006
 4339SOL    HW113916   5.430   3.676   4.954
 4339SOL    HW213917   5.592   3.663   4.950
 4340SOL     OW13918   6.540   3.265   0.861
 4340SOL    HW113919   6.599   3.329   0.910
 4340SOL    HW213920   6.505   3.197   0.925
 4341SOL     OW13921   0.371   5.574   1.977
 4341SOL    HW113922   0.289   5.631   1.986
 4341SOL    HW213923   0.448   5.632   1.952
 4342SOL     OW13924   6.251   4.121   4.261
 4342SOL    HW113925   6.157   4.154   4.261
 4342SOL    HW213926   6.272   4.083   4.171
 4343SOL     OW13927   2.455   5.761   4.875
 4343SOL    HW113928   2.397   5.829   4.919
 4343SOL    HW213929   2.514   5.805   4.807
 4344SOL     OW13930   0.686   4.438   2.119
 4344SOL    HW113931   0.765   4.420   2.177
 4344SOL    HW213932   0.646   4.351   2.090
 4345SOL     OW13933   2.948   3.686   5.256
 4345SOL    HW113934   3.004   3.688   5.339
 4345SOL    HW213935   2.983   3.617   5.193
 4346SOL     OW13936   1.347   3.259   2.236
 4346SOL    HW113937   1.360   3.226   2.330
 4346SOL    HW213938   1.422   3.321   2.212
 4347SOL     OW13939   6.850   6.614   3.249
 4347SOL    HW113940   6.942   6.577   3.261
 4347SOL    HW213941   6.845   6.705   3.290
 4348SOL     OW13942   6.853   4.586   2.981
 4348SOL    HW113943   6.768   4.639   2.980
 4348SOL    HW213944   6.838   4.501   3.031
 4349SOL     OW13945   0.086   1.930   2.462
 4349SOL    HW113946   0.015   1.947   2.394
 4349SOL    HW213947   0.056   1.967   2.551
 4350SOL     OW13948   4.258   1.397   4.013
 4350SOL    HW113949   4.344   1.433   4.051
 4350SOL    HW213950   4.184   1.460   4.037
 4351SOL     OW13951   1.715   5.116   0.448
 4351SOL    HW113952   1.792   5.178   0.433
 4351SOL    HW213953   1.719   5.041   0.382
 4352SOL     OW13954   6.804   3.175   2.137
 4352SOL    HW113955   6.745   3.191   2.216
 4352SOL    HW213956   6.899   3.165   2.167
 4353SOL     OW13957   3.723   3.288   6.531
 4353SOL    HW113958   3.657   3.356   6.564
 4353SOL    HW213959   3.675   3.217   6.481
 4354SOL     OW13960   2.254   6.505   5.376
 4354SOL    HW113961   2.172   6.526   5.322
 4354SOL    HW213962   2.272   6.407   5.374
 4355SOL     OW13963   1.996   0.356   2.339
 4355SOL    HW113964   2.066   0.425   2.357
 4355SOL    HW213965   2.040   0.269   2.317
 4356SOL     OW13966   5.051   3.772   1.311
 4356SOL    HW113967   5.006   3.725   1.236
 4356SOL    HW213968   4.983   3.794   1.382
 4357SOL     OW13969   6.806   1.035   0.917
 4357SOL    HW113970   6.852   1.113   0.958
 4357SOL    HW213971   6.862   0.953   0.927
 4358SOL     OW13972   0.481   6.723   0.184
 4358SOL    HW113973   0.511   6.797   0.124
 4358SOL    HW213974   0.520   6.736   0.275
 4359SOL     OW13975   2.039   1.654   6.632
 4359SOL    HW113976   2.068   1.746   6.606
 4359SOL    HW213977   2.119   1.594   6.637
 4360SOL     OW13978   1.514   2.436   3.307
 4360SOL    HW113979   1.475   2.487   3.383
 4360SOL    HW213980   1.612   2.456   3.300
 4361SOL     OW13981   2.216   3.298   1.476
 4361SOL    HW113982   2.214   3.293   1.576
 4361SOL    HW213983   2.301   3.256   1.443
 4362SOL     OW13984   6.072   5.787   3.027
 4362SOL    HW113985   6.078   5.856   2.955
 4362SOL    HW213986   6.113   5.822   3.111
 4363SOL     OW13987   5.449   2.796   0.761
 4363SOL    HW113988   5.419   2.890   0.746
 4363SOL    HW213989   5.400   2.757   0.838
 4364SOL     OW13990   2.953   3.229   4.716
 4364SOL    HW113991   2.923   3.160   4.783
 4364SOL    HW213992   3.017   3.187   4.652
 4365SOL     OW13993   2.161   1.295   2.140
 4365SOL    HW113994   2.110   1.375   2.172
 4365SOL    HW213995   2.204   1.250   2.218
 4366SOL     OW13996   5.962   0.112   6.988
 4366SOL    HW113997   6.019   0.138   0.045
 4366SOL    HW213998   5.885   0.057   7.020
 4367SOL     OW13999   1.844   4.094   4.352
 4367SOL    HW114000   1.893   4.130   4.432
 4367SOL    HW214001   1.910   4.073   4.280
 4368SOL     OW14002   3.926   4.024   0.689
 4368SOL    HW114003   3.968   3.999   0.776
 4368SOL    HW214004   3.989   4.082   0.637
 4369SOL     OW14005   4.298   5.300   2.803
 4369SOL    HW114006   4.317   5.222   2.743
 4369SOL    HW214007   4.384   5.339   2.835
 4370SOL     OW14008   4.204   5.218   2.196
 4370SOL    HW114009   4.178   5.128   2.231
 4370SOL    HW214010   4.215   5.214   2.097
 4371SOL     OW14011   1.347   2.231   1.848
 4371SOL    HW114012   1.360   2.153   1.910
 4371SOL    HW214013   1.435   2.259   1.811
 4372SOL     OW14014   3.595   1.250   2.492
 4372SOL    HW114015   3.517   1.231   2.552
 4372SOL    HW214016   3.643   1.332   2.524
 4373SOL     OW14017   6.212   2.181   6.283
 4373SOL    HW114018   6.260   2.212   6.201
 4373SOL    HW214019   6.269   2.199   6.363
 4374SOL     OW14020   1.382   2.526   1.452
 4374SOL    HW114021   1.312   2.585   1.492
 4374SOL    HW214022   1.346   2.433   1.442
 4375SOL     OW14023   4.528   6.843   3.433
 4375SOL    HW114024   4.594   6.792   3.489
 4375SOL    HW214025   4.448   6.866   3.489
 4376SOL     OW14026   0.383   6.583   1.284
 4376SOL    HW114027   0.332   6.648   1.340
 4376SOL    HW214028   0.320   6.535   1.223
 4377SOL     OW14029   5.257   4.596   0.829
 4377SOL    HW114030   5.322   4.521   0.819
 4377SOL    HW214031   5.297   4.681   0.794
 4378SOL     OW14032   2.256   2.431   3.079
 4378SOL    HW114033   2.238   2.359   3.012
 4378SOL    HW214034   2.340   2.480   3.054
 4379SOL     OW14035   1.922   1.380   2.852
 4379SOL    HW114036   1.922   1.423   2.762
 4379SOL    HW214037   1.829   1.354   2.877
 4380SOL     OW14038   1.007   6.875   2.561
 4380SOL    HW114039   0.984   6.808   2.631
 4380SOL    HW214040   1.057   6.830   2.487
 4381SOL     OW14041   1.265   5.301   5.363
 4381SOL    HW114042   1.192   5.245   5.401
 4381SOL    HW214043   1.273   5.386   5.415
 4382SOL     OW14044   6.540   3.284   5.407
 4382SOL    HW114045   6.541   3.184   5.412
 4382SOL    HW214046   6.610   3.314   5.343
 4383SOL     OW14047   0.301   3.112   5.996
 4383SOL    HW114048   0.315   3.153   5.905
 4383SOL    HW214049   0.371   3.145   6.058
 4384SOL     OW14050   5.460   1.203   4.609
 4384SOL    HW114051   5.466   1.202   4.509
 4384SOL    HW214052   5.497   1.118   4.647
 4385SOL     OW14053   5.839   2.564   4.652
 4385SOL    HW114054   5.862   2.573   4.555
 4385SOL    HW214055   5.921   2.579   4.707
 4386SOL     OW14056   2.006   3.657   5.963
 4386SOL    HW114057   2.084   3.613   5.920
 4386SOL    HW214058   2.019   3.756   5.963
 4387SOL     OW14059   6.845   1.610   0.802
 4387SOL    HW114060   6.843   1.710   0.807
 4387SOL    HW214061   6.880   1.574   0.889
 4388SOL     OW14062   4.652   2.541   6.391
 4388SOL    HW114063   4.751   2.551   6.390
 4388SOL    HW214064   4.610   2.627   6.362
 4389SOL     OW14065   6.660   2.969   0.553
 4389SOL    HW114066   6.585   3.029   0.524
 4389SOL    HW214067   6.690   2.994   0.645
 4390SOL     OW14068   3.745   0.197   1.706
 4390SOL    HW114069   3.817   0.226   1.768
 4390SOL    HW214070   3.665   0.256   1.717
 4391SOL     OW14071   2.724   5.418   6.855
 4391SOL    HW114072   2.816   5.422   6.895
 4391SOL    HW214073   2.682   5.509   6.859
 4392SOL     OW14074   6.689   3.330   4.727
 4392SOL    HW114075   6.677   3.354   4.631
 4392SOL    HW214076   6.734   3.405   4.775
 4393SOL     OW14077   5.752   0.966   2.931
 4393SOL    HW114078   5.829   0.915   2.971
 4393SOL    HW214079   5.770   0.984   2.835
 4394SOL     OW14080   6.675   5.333   2.435
 4394SOL    HW114081   6.746   5.262   2.432
 4394SOL    HW214082   6.652   5.361   2.342
 4395SOL     OW14083   1.563   6.471   2.501
 4395SOL    HW114084   1.612   6.554   2.527
 4395SOL    HW214085   1.483   6.460   2.561
 4396SOL     OW14086   2.709   2.028   3.706
 4396SOL    HW114087   2.707   1.951   3.642
 4396SOL    HW214088   2.715   1.992   3.800
 4397SOL     OW14089   1.230   1.964   4.453
 4397SOL    HW114090   1.171   2.021   4.395
 4397SOL    HW214091   1.198   1.967   4.547
 4398SOL     OW14092   0.632   3.841   5.996
 4398SOL    HW114093   0.541   3.858   6.033
 4398SOL    HW214094   0.625   3.820   5.898
 4399SOL     OW14095   2.391   0.093   2.671
 4399SOL    HW114096   2.386   0.146   2.755
 4399SOL    HW214097   2.301   0.052   2.652
 4400SOL     OW14098   3.102   6.498   5.229
 4400SOL    HW114099   3.138   6.591   5.233
 4400SOL    HW214100   3.041   6.489   5.150
 4401SOL     OW14101   3.083   6.760   6.013
 4401SOL    HW114102   3.177   6.789   5.996
 4401SOL    HW214103   3.043   6.724   5.928
 4402SOL     OW14104   2.012   0.763   2.186
 4402SOL    HW114105   2.050   0.822   2.257
 4402SOL    HW214106   1.950   0.696   2.228
 4403SOL     OW14107   1.149   0.459   1.152
 4403SOL    HW114108   1.173   0.472   1.248
 4403SOL    HW214109   1.049   0.463   1.142
 4404SOL     OW14110   1.348   5.363   5.676
 4404SOL    HW114111   1.275   5.428   5.653
 4404SOL    HW214112   1.314   5.270   5.667
 4405SOL     OW14113   1.604   4.278   1.659
 4405SOL    HW114114   1.576   4.182   1.660
 4405SOL    HW214115   1.538   4.333   1.710
 4406SOL     OW14116   0.461   3.105   1.061
 4406SOL    HW114117   0.473   3.006   1.062
 4406SOL    HW214118   0.517   3.145   1.134
 4407SOL     OW14119   6.134   5.384   0.758
 4407SOL    HW114120   6.097   5.451   0.823
 4407SOL    HW214121   6.227   5.360   0.785
 4408SOL     OW14122   2.961   0.601   0.987
 4408SOL    HW114123   2.967   0.631   1.082
 4408SOL    HW214124   2.988   0.505   0.980
 4409SOL     OW14125   4.539   1.594   2.278
 4409SOL    HW114126   4.479   1.610   2.200
 4409SOL    HW214127   4.528   1.668   2.344
 4410SOL     OW14128   1.412   4.975   0.007
 4410SOL    HW114129   1.445   4.906   6.962
 4410SOL    HW214130   1.425   5.066   6.989
 4411SOL     OW14131   3.816   3.756   4.937
 4411SOL    HW114132   3.777   3.811   4.862
 4411SOL    HW214133   3.803   3.659   4.917
 4412SOL     OW14134   4.673   6.045   4.070
 4412SOL    HW114135   4.761   6.013   4.105
 4412SOL    HW214136   4.639   6.119   4.127
 4413SOL     OW14137   5.844   5.368   4.464
 4413SOL    HW114138   5.868   5.351   4.559
 4413SOL    HW214139   5.911   5.431   4.424
 4414SOL     OW14140   3.402   5.290   0.975
 4414SOL    HW114141   3.477   5.289   0.909
 4414SOL    HW214142   3.437   5.265   1.065
 4415SOL     OW14143   5.096   2.794   0.809
 4415SOL    HW114144   5.032   2.756   0.742
 4415SOL    HW214145   5.154   2.862   0.765
 4416SOL     OW14146   3.830   1.345   4.409
 4416SOL    HW114147   3.810   1.306   4.319
 4416SOL    HW214148   3.812   1.443   4.407
 4417SOL     OW14149   5.405   4.511   3.494
 4417SOL    HW114150   5.458   4.490   3.576
 4417SOL    HW214151   5.350   4.431   3.469
 4418SOL     OW14152   6.099   2.032   2.266
 4418SOL    HW114153   6.049   1.967   2.324
 4418SOL    HW214154   6.051   2.041   2.178
 4419SOL     OW14155   5.727   6.645   6.168
 4419SOL    HW114156   5.705   6.594   6.085
 4419SOL    HW214157   5.759   6.582   6.238
 4420SOL     OW14158   4.750   1.025   1.724
 4420SOL    HW114159   4.769   1.060   1.632
 4420SOL    HW214160   4.660   1.056   1.753
 4421SOL     OW14161   2.074   1.200   5.344
 4421SOL    HW114162   2.098   1.118   5.292
 4421SOL    HW214163   2.069   1.278   5.282
 4422SOL     OW14164   1.876   4.296   6.914
 4422SOL    HW114165   1.807   4.242   6.865
 4422SOL    HW214166   1.880   4.267   7.009
 4423SOL     OW14167   6.851   3.689   5.301
 4423SOL    HW114168   6.909   3.608   5.291
 4423SOL    HW214169   6.757   3.666   5.277
 4424SOL     OW14170   5.526   1.117   4.231
 4424SOL    HW114171   5.476   1.056   4.170
 4424SOL    HW214172   5.494   1.211   4.217
 4425SOL     OW14173   2.785   4.346   6.999
 4425SOL    HW114174   2.795   4.424   6.936
 4425SOL    HW214175   2.688   4.322   7.008
 4426SOL     OW14176   0.739   1.297   4.261
 4426SOL    HW114177   0.754   1.258   4.170
 4426SOL    HW214178   0.676   1.374   4.254
 4427SOL     OW14179   0.303   6.041   2.311
 4427SOL    HW114180   0.229   5.975   2.328
 4427SOL    HW214181   0.380   5.994   2.267
 4428SOL     OW14182   3.127   0.751   3.726
 4428SOL    HW114183   3.100   0.831   3.671
 4428SOL    HW214184   3.211   0.772   3.776
 4429SOL     OW14185   3.007   6.894   2.763
 4429SOL    HW114186   3.069   6.843   2.704
 4429SOL    HW214187   2.980   6.837   2.841
 4430SOL     OW14188   4.834   3.864   4.635
 4430SOL    HW114189   4.804   3.787   4.578
 4430SOL    HW214190   4.829   3.838   4.731
 4431SOL     OW14191   2.932   1.272   2.671
 4431SOL    HW114192   2.920   1.243   2.577
 4431SOL    HW214193   2.887   1.208   2.733
 4432SOL     OW14194   2.536   3.373   6.195
 4432SOL    HW114195   2.506   3.468   6.201
 4432SOL    HW214196   2.522   3.339   6.103
 4433SOL     OW14197   5.505   1.968   4.559
 4433SOL    HW114198   5.457   2.035   4.615
 4433SOL    HW214199   5.506   1.998   4.464
 4434SOL     OW14200   5.490   1.185   2.869
 4434SOL    HW114201   5.526   1.270   2.906
 4434SOL    HW214202   5.410   1.204   2.812
 4435SOL     OW14203   5.417   3.235   1.153
 4435SOL    HW114204   5.324   3.232   1.189
 4435SOL    HW214205   5.458   3.324   1.175
 4436SOL     OW14206   4.519   0.714   1.346
 4436SOL    HW114207   4.498   0.623   1.382
 4436SOL    HW214208   4.495   0.718   1.249
 4437SOL     OW14209   0.389   2.396   2.912
 4437SOL    HW114210   0.341   2.309   2.916
 4437SOL    HW214211   0.403   2.422   2.817
 4438SOL     OW14212   5.205   6.933   6.460
 4438SOL    HW114213   5.187   6.955   6.364
 4438SOL    HW214214   5.122   6.950   6.514
 4439SOL     OW14215   0.257   4.067   1.596
 4439SOL    HW114216   0.291   3.981   1.633
 4439SOL    HW214217   0.222   4.124   1.671
 4440SOL     OW14218   3.021   4.830   0.413
 4440SOL    HW114219   3.119   4.831   0.390
 4440SOL    HW214220   2.982   4.741   0.386
 4441SOL     OW14221   0.482   1.923   1.845
 4441SOL    HW114222   0.565   1.965   1.884
 4441SOL    HW214223   0.462   1.965   1.757
 4442SOL     OW14224   1.898   5.434   4.421
 4442SOL    HW114225   1.995   5.435   4.442
 4442SOL    HW214226   1.870   5.340   4.398
 4443SOL     OW14227   1.279   3.640   6.250
 4443SOL    HW114228   1.366   3.652   6.202
 4443SOL    HW214229   1.276   3.549   6.291
 4444SOL     OW14230   3.409   4.067   5.232
 4444SOL    HW114231   3.468   4.109   5.163
 4444SOL    HW214232   3.340   4.010   5.186
 4445SOL     OW14233   1.410   6.153   0.024
 4445SOL    HW114234   1.412   6.098   0.107
 4445SOL    HW214235   1.358   6.104   6.973
 4446SOL     OW14236   5.415   1.024   1.274
 4446SOL    HW114237   5.444   1.027   1.178
 4446SOL    HW214238   5.455   1.102   1.323
 4447SOL     OW14239   4.924   4.771   5.957
 4447SOL    HW114240   4.995   4.766   5.887
 4447SOL    HW214241   4.846   4.823   5.922
 4448SOL     OW14242   2.567   4.252   1.689
 4448SOL    HW114243   2.587   4.271   1.593
 4448SOL    HW214244   2.568   4.337   1.741
 4449SOL     OW14245   5.111   0.865   6.268
 4449SOL    HW114246   5.043   0.938   6.262
 4449SOL    HW214247   5.202   0.902   6.247
 4450SOL     OW14248   3.900   3.172   5.940
 4450SOL    HW114249   3.942   3.137   5.856
 4450SOL    HW214250   3.817   3.120   5.960
 4451SOL     OW14251   6.039   4.660   3.124
 4451SOL    HW114252   6.018   4.641   3.220
 4451SOL    HW214253   6.063   4.757   3.114
 4452SOL     OW14254   5.396   5.849   4.445
 4452SOL    HW114255   5.364   5.763   4.484
 4452SOL    HW214256   5.411   5.915   4.518
 4453SOL     OW14257   0.956   2.955   1.213
 4453SOL    HW114258   0.902   2.943   1.295
 4453SOL    HW214259   0.911   2.910   1.136
 4454SOL     OW14260   1.441   1.688   6.869
 4454SOL    HW114261   1.395   1.665   6.783
 4454SOL    HW214262   1.373   1.698   6.942
 4455SOL     OW14263   4.770   6.353   6.049
 4455SOL    HW114264   4.864   6.361   6.084
 4455SOL    HW214265   4.715   6.429   6.083
 4456SOL     OW14266   2.773   5.746   2.108
 4456SOL    HW114267   2.730   5.835   2.125
 4456SOL    HW214268   2.714   5.673   2.140
 4457SOL     OW14269   3.834   1.008   2.668
 4457SOL    HW114270   3.863   1.099   2.640
 4457SOL    HW214271   3.786   0.963   2.593
 4458SOL     OW14272   1.858   2.889   0.454
 4458SOL    HW114273   1.926   2.931   0.394
 4458SOL    HW214274   1.892   2.890   0.548
 4459SOL     OW14275   3.492   1.620   4.670
 4459SOL    HW114276   3.506   1.616   4.572
 4459SOL    HW214277   3.494   1.527   4.708
 4460SOL     OW14278   1.712   2.771   6.512
 4460SOL    HW114279   1.740   2.721   6.594
 4460SOL    HW214280   1.726   2.869   6.526
 4461SOL     OW14281   1.732   0.365   0.501
 4461SOL    HW114282   1.758   0.393   0.593
 4461SOL    HW214283   1.798   0.400   0.435
 4462SOL     OW14284   5.966   5.145   2.031
 4462SOL    HW114285   5.993   5.190   1.946
 4462SOL    HW214286   5.901   5.072   2.011
 4463SOL     OW14287   4.613   1.274   0.569
 4463SOL    HW114288   4.669   1.245   0.491
 4463SOL    HW214289   4.576   1.193   0.615
 4464SOL     OW14290   6.950   4.972   0.340
 4464SOL    HW114291   6.864   5.018   0.322
 4464SOL    HW214292   6.972   4.978   0.438
 4465SOL     OW14293   3.441   5.126   1.226
 4465SOL    HW114294   3.384   5.106   1.306
 4465SOL    HW214295   3.425   5.058   1.155
 4466SOL     OW14296   0.682   1.993   3.224
 4466SOL    HW114297   0.635   1.912   3.188
 4466SOL    HW214298   0.772   1.966   3.260
 4467SOL     OW14299   1.738   5.848   2.399
 4467SOL    HW114300   1.710   5.833   2.494
 4467SOL    HW214301   1.675   5.801   2.337
 4468SOL     OW14302   2.099   3.978   0.413
 4468SOL    HW114303   2.106   3.915   0.336
 4468SOL    HW214304   2.179   3.969   0.472
 4469SOL     OW14305   3.157   0.163   2.143
 4469SOL    HW114306   3.246   0.127   2.115
 4469SOL    HW214307   3.144   0.255   2.104
 4470SOL     OW14308   0.381   2.187   1.674
 4470SOL    HW114309   0.437   2.242   1.736
 4470SOL    HW214310   0.301   2.153   1.724
 4471SOL     OW14311   1.080   2.080   6.103
 4471SOL    HW114312   1.085   2.179   6.115
 4471SOL    HW214313   1.040   2.058   6.014
 4472SOL     OW14314   0.449   3.160   2.105
 4472SOL    HW114315   0.430   3.231   2.037
 4472SOL    HW214316   0.547   3.159   2.124
 4473SOL     OW14317   5.970   2.868   3.920
 4473SOL    HW114318   6.039   2.938   3.940
 4473SOL    HW214319   5.978   2.840   3.824
 4474SOL     OW14320   2.329   0.595   2.105
 4474SOL    HW114321   2.238   0.594   2.147
 4474SOL    HW214322   2.351   0.688   2.076
 4475SOL     OW14323   1.133   4.058   2.361
 4475SOL    HW114324   1.095   3.984   2.305
 4475SOL    HW214325   1.112   4.041   2.457
 4476SOL     OW14326   5.597   0.653   3.241
 4476SOL    HW114327   5.619   0.563   3.204
 4476SOL    HW214328   5.561   0.711   3.168
 4477SOL     OW14329   2.157   6.838   5.709
 4477SOL    HW114330   2.225   6.892   5.660
 4477SOL    HW214331   2.200   6.793   5.787
 4478SOL     OW14332   3.228   6.593   2.828
 4478SOL    HW114333   3.145   6.599   2.773
 4478SOL    HW214334   3.268   6.502   2.818
 4479SOL     OW14335   0.302   2.177   0.746
 4479SOL    HW114336   0.258   2.095   0.709
 4479SOL    HW214337   0.235   2.252   0.750
 4480SOL     OW14338   0.518   4.451   5.117
 4480SOL    HW114339   0.511   4.535   5.063
 4480SOL    HW214340   0.614   4.431   5.135
 4481SOL     OW14341   3.695   5.950   4.616
 4481SOL    HW114342   3.639   6.020   4.660
 4481SOL    HW214343   3.679   5.862   4.660
 4482SOL     OW14344   1.546   3.180   5.235
 4482SOL    HW114345   1.572   3.276   5.233
 4482SOL    HW214346   1.490   3.159   5.155
 4483SOL     OW14347   5.983   2.678   2.119
 4483SOL    HW114348   5.894   2.691   2.164
 4483SOL    HW214349   5.969   2.679   2.019
 4484SOL     OW14350   3.174   2.303   6.636
 4484SOL    HW114351   3.165   2.205   6.655
 4484SOL    HW214352   3.177   2.354   6.722
 4485SOL     OW14353   5.853   2.197   3.898
 4485SOL    HW114354   5.843   2.191   3.799
 4485SOL    HW214355   5.762   2.191   3.941
 4486SOL     OW14356   6.153   5.579   5.260
 4486SOL    HW114357   6.148   5.677   5.277
 4486SOL    HW214358   6.188   5.532   5.341
 4487SOL     OW14359   2.821   2.836   6.041
 4487SOL    HW114360   2.819   2.772   5.963
 4487SOL    HW214361   2.915   2.843   6.075
 4488SOL     OW14362   0.438   3.478   5.668
 4488SOL    HW114363   0.383   3.557   5.642
 4488SOL    HW214364   0.378   3.408   5.708
 4489SOL     OW14365   4.977   5.539   5.167
 4489SOL    HW114366   5.046   5.600   5.128
 4489SOL    HW214367   5.017   5.489   5.244
 4490SOL     OW14368   5.445   2.329   2.265
 4490SOL    HW114369   5.347   2.341   2.281
 4490SOL    HW214370   5.496   2.390   2.326
 4491SOL     OW14371   0.137   3.095   3.951
 4491SOL    HW114372   0.176   3.186   3.943
 4491SOL    HW214373   0.165   3.040   3.871
 4492SOL     OW14374   6.240   4.718   1.994
 4492SOL    HW114375   6.330   4.699   2.031
 4492SOL    HW214376   6.198   4.633   1.962
 4493SOL     OW14377   5.009   5.056   4.690
 4493SOL    HW114378   4.975   4.999   4.615
 4493SOL    HW214379   4.940   5.059   4.763
 4494SOL     OW14380   0.429   0.854   6.727
 4494SOL    HW114381   0.368   0.783   6.762
 4494SOL    HW214382   0.388   0.944   6.744
 4495SOL     OW14383   4.298   6.946   4.202
 4495SOL    HW114384   4.247   6.967   4.118
 4495SOL    HW214385   4.396   6.942   4.182
 4496SOL     OW14386   5.954   6.640   1.124
 4496SOL    HW114387   5.971   6.578   1.048
 4496SOL    HW214388   5.856   6.656   1.133
 4497SOL     OW14389   4.853   2.294   6.535
 4497SOL    HW114390   4.795   2.274   6.456
 4497SOL    HW214391   4.879   2.208   6.580
 4498SOL     OW14392   0.362   2.866   0.238
 4498SOL    HW114393   0.269   2.873   0.274
 4498SOL    HW214394   0.426   2.850   0.314
 4499SOL     OW14395   5.964   3.897   3.996
 4499SOL    HW114396   5.880   3.898   4.051
 4499SOL    HW214397   5.996   3.803   3.987
 4500SOL     OW14398   3.119   3.106   4.533
 4500SOL    HW114399   3.200   3.060   4.568
 4500SOL    HW214400   3.116   3.099   4.433
 4501SOL     OW14401   6.868   3.457   2.612
 4501SOL    HW114402   6.791   3.420   2.559
 4501SOL    HW214403   6.851   3.443   2.709
 4502SOL     OW14404   0.838   3.077   6.958
 4502SOL    HW114405   0.855   2.997   7.016
 4502SOL    HW214406   0.763   3.130   6.997
 4503SOL     OW14407   3.617   6.642   1.988
 4503SOL    HW114408   3.628   6.733   1.949
 4503SOL    HW214409   3.701   6.614   2.034
 4504SOL     OW14410   6.836   0.928   4.761
 4504SOL    HW114411   6.923   0.889   4.789
 4504SOL    HW214412   6.799   0.878   4.683
 4505SOL     OW14413   6.454   5.335   2.028
 4505SOL    HW114414   6.382   5.394   2.066
 4505SOL    HW214415   6.543   5.371   2.055
 4506SOL     OW14416   4.876   3.194   3.622
 4506SOL    HW114417   4.879   3.209   3.721
 4506SOL    HW214418   4.914   3.273   3.575
 4507SOL     OW14419   6.199   4.456   3.425
 4507SOL    HW114420   6.147   4.534   3.388
 4507SOL    HW214421   6.297   4.475   3.418
 4508SOL     OW14422   1.443   5.228   6.992
 4508SOL    HW114423   1.438   5.312   0.026
 4508SOL    HW214424   1.488   5.247   6.905
 4509SOL     OW14425   4.768   2.796   2.850
 4509SOL    HW114426   4.782   2.882   2.801
 4509SOL    HW214427   4.846   2.778   2.910
 4510SOL     OW14428   4.370   2.009   4.077
 4510SOL    HW114429   4.445   1.987   4.139
 4510SOL    HW214430   4.407   2.055   3.996
 4511SOL     OW14431   5.777   4.036   6.302
 4511SOL    HW114432   5.759   3.977   6.380
 4511SOL    HW214433   5.818   3.982   6.228
 4512SOL     OW14434   2.605   1.202   5.726
 4512SOL    HW114435   2.644   1.191   5.817
 4512SOL    HW214436   2.512   1.239   5.733
 4513SOL     OW14437   0.335   4.868   6.547
 4513SOL    HW114438   0.415   4.881   6.488
 4513SOL    HW214439   0.262   4.826   6.494
 4514SOL     OW14440   3.727   2.107   5.959
 4514SOL    HW114441   3.630   2.126   5.947
 4514SOL    HW214442   3.770   2.183   6.008
 4515SOL     OW14443   6.172   2.201   5.053
 4515SOL    HW114444   6.222   2.116   5.039
 4515SOL    HW214445   6.074   2.184   5.043
 4516SOL     OW14446   2.092   6.789   0.074
 4516SOL    HW114447   2.095   6.697   0.035
 4516SOL    HW214448   2.179   6.835   0.057
 4517SOL     OW14449   4.792   6.987   6.917
 4517SOL    HW114450   4.710   7.008   6.970
 4517SOL    HW214451   4.769   6.975   6.821
 4518SOL     OW14452   6.883   6.892   2.299
 4518SOL    HW114453   6.835   6.979   2.297
 4518SOL    HW214454   6.906   6.865   2.205
 4519SOL     OW14455   6.620   0.358   1.221
 4519SOL    HW114456   6.644   0.282   1.281
 4519SOL    HW214457   6.542   0.408   1.259
 4520SOL     OW14458   4.925   6.338   5.803
 4520SOL    HW114459   4.851   6.356   5.868
 4520SOL    HW214460   4.916   6.245   5.767
 4521SOL     OW14461   5.614   2.064   4.847
 4521SOL    HW114462   5.681   2.017   4.904
 4521SOL    HW214463   5.610   2.020   4.757
 4522SOL     OW14464   5.442   5.159   3.807
 4522SOL    HW114465   5.385   5.090   3.762
 4522SOL    HW214466   5.428   5.248   3.763
 4523SOL     OW14467   1.314   4.788   6.805
 4523SOL    HW114468   1.412   4.773   6.790
 4523SOL    HW214469   1.285   4.739   6.888
 4524SOL     OW14470   6.371   2.930   1.677
 4524SOL    HW114471   6.419   2.873   1.745
 4524SOL    HW214472   6.293   2.975   1.720
 4525SOL     OW14473   5.040   2.322   4.960
 4525SOL    HW114474   4.968   2.320   4.890
 4525SOL    HW214475   5.069   2.417   4.975
 4526SOL     OW14476   6.897   0.538   6.638
 4526SOL    HW114477   6.820   0.519   6.698
 4526SOL    HW214478   6.876   0.504   6.546
 4527SOL     OW14479   6.408   1.241   3.068
 4527SOL    HW114480   6.443   1.316   3.012
 4527SOL    HW214481   6.310   1.229   3.051
 4528SOL     OW14482   4.512   0.414   6.732
 4528SOL    HW114483   4.482   0.340   6.793
 4528SOL    HW214484   4.520   0.499   6.785
 4529SOL     OW14485   2.115   0.057   4.999
 4529SOL    HW114486   2.139   0.154   5.004
 4529SOL    HW214487   2.097   0.033   4.903
 4530SOL     OW14488   1.431   5.583   4.245
 4530SOL    HW114489   1.401   5.510   4.184
 4530SOL    HW214490   1.497   5.546   4.310
 4531SOL     OW14491   0.405   2.547   5.105
 4531SOL    HW114492   0.344   2.551   5.025
 4531SOL    HW214493   0.429   2.451   5.124
 4532SOL     OW14494   6.542   0.915   2.131
 4532SOL    HW114495   6.588   1.004   2.139
 4532SOL    HW214496   6.459   0.916   2.186
 4533SOL     OW14497   1.515   1.973   1.938
 4533SOL    HW114498   1.481   1.989   2.030
 4533SOL    HW214499   1.615   1.971   1.939
 4534SOL     OW14500   5.399   4.167   4.680
 4534SOL    HW114501   5.329   4.199   4.744
 4534SOL    HW214502   5.402   4.067   4.680
 4535SOL     OW14503   3.853   0.749   2.069
 4535SOL    HW114504   3.790   0.810   2.020
 4535SOL    HW214505   3.860   0.778   2.164
 4536SOL     OW14506   4.704   1.644   4.329
 4536SOL    HW114507   4.605   1.661   4.331
 4536SOL    HW214508   4.723   1.567   4.268
 4537SOL     OW14509   4.134   3.507   0.509
 4537SOL    HW114510   4.168   3.441   0.442
 4537SOL    HW214511   4.115   3.460   0.596
 4538SOL     OW14512   1.937   0.610   2.615
 4538SOL    HW114513   2.015   0.555   2.645
 4538SOL    HW214514   1.936   0.697   2.665
 4539SOL     OW14515   3.424   5.986   4.780
 4539SOL    HW114516   3.338   5.991   4.831
 4539SOL    HW214517   3.407   5.950   4.688
 4540SOL     OW14518   2.208   2.471   6.750
 4540SOL    HW114519   2.192   2.379   6.713
 4540SOL    HW214520   2.181   2.539   6.682
 4541SOL     OW14521   5.886   1.723   6.317
 4541SOL    HW114522   5.830   1.665   6.375
 4541SOL    HW214523   5.978   1.684   6.309
 4542SOL     OW14524   0.171   1.904   1.573
 4542SOL    HW114525   0.176   1.928   1.476
 4542SOL    HW214526   0.125   1.977   1.623
 4543SOL     OW14527   4.359   2.508   1.091
 4543SOL    HW114528   4.330   2.594   1.048
 4543SOL    HW214529   4.282   2.467   1.139
 4544SOL     OW14530   3.510   5.767   6.680
 4544SOL    HW114531   3.439   5.727   6.623
 4544SOL    HW214532   3.599   5.730   6.654
 4545SOL     OW14533   5.516   3.196   4.261
 4545SOL    HW114534   5.601   3.175   4.308
 4545SOL    HW214535   5.479   3.113   4.218
 4546SOL     OW14536   2.260   0.604   4.153
 4546SOL    HW114537   2.258   0.504   4.155
 4546SOL    HW214538   2.301   0.635   4.068
 4547SOL     OW14539   6.185   2.019   0.645
 4547SOL    HW114540   6.155   2.069   0.726
 4547SOL    HW214541   6.177   2.078   0.565
 4548SOL     OW14542   1.757   2.932   4.102
 4548SOL    HW114543   1.710   3.007   4.148
 4548SOL    HW214544   1.690   2.868   4.065
 4549SOL     OW14545   5.753   3.999   2.400
 4549SOL    HW114546   5.706   3.924   2.355
 4549SOL    HW214547   5.686   4.064   2.437
 4550SOL     OW14548   1.298   5.782   3.243
 4550SOL    HW114549   1.372   5.766   3.308
 4550SOL    HW214550   1.253   5.695   3.222
 4551SOL     OW14551   0.470   3.529   4.900
 4551SOL    HW114552   0.541   3.532   4.971
 4551SOL    HW214553   0.482   3.446   4.845
 4552SOL     OW14554   6.167   2.185   0.890
 4552SOL    HW114555   6.105   2.151   0.960
 4552SOL    HW214556   6.261   2.159   0.914
 4553SOL     OW14557   4.375   4.512   0.117
 4553SOL    HW114558   4.282   4.529   0.150
 4553SOL    HW214559   4.424   4.455   0.183
 4554SOL     OW14560   6.577   6.781   1.519
 4554SOL    HW114561   6.513   6.852   1.490
 4554SOL    HW214562   6.608   6.800   1.612
 4555SOL     OW14563   2.207   2.013   5.159
 4555SOL    HW114564   2.170   1.978   5.073
 4555SOL    HW214565   2.215   2.113   5.153
 4556SOL     OW14566   5.538   3.600   4.427
 4556SOL    HW114567   5.570   3.592   4.521
 4556SOL    HW214568   5.538   3.697   4.400
 4557SOL     OW14569   5.166   5.508   4.799
 4557SOL    HW114570   5.174   5.426   4.743
 4557SOL    HW214571   5.226   5.501   4.879
 4558SOL     OW14572   0.114   4.388   4.764
 4558SOL    HW114573   0.061   4.389   4.679
 4558SOL    HW214574   0.052   4.373   4.841
 4559SOL     OW14575   0.030   3.381   2.398
 4559SOL    HW114576   7.000   3.390   2.484
 4559SOL    HW214577   7.002   3.432   2.327
 4560SOL     OW14578   5.151   4.473   1.328
 4560SOL    HW114579   5.214   4.398   1.313
 4560SOL    HW214580   5.060   4.437   1.347
 4561SOL     OW14581   3.159   1.675   3.010
 4561SOL    HW114582   3.123   1.583   3.024
 4561SOL    HW214583   3.150   1.701   2.914
 4562SOL     OW14584   2.297   6.708   6.390
 4562SOL    HW114585   2.303   6.741   6.484
 4562SOL    HW214586   2.211   6.658   6.378
 4563SOL     OW14587   0.448   2.426   1.339
 4563SOL    HW114588   0.490   2.445   1.428
 4563SOL    HW214589   0.454   2.328   1.320
 4564SOL     OW14590   6.936   5.876   1.937
 4564SOL    HW114591   6.880   5.874   1.854
 4564SOL    HW214592   6.929   5.967   1.979
 4565SOL     OW14593   0.537   0.763   4.388
 4565SOL    HW114594   0.541   0.664   4.395
 4565SOL    HW214595   0.442   0.792   4.374
 4566SOL     OW14596   0.104   2.825   0.357
 4566SOL    HW114597   0.023   2.837   0.414
 4566SOL    HW214598   0.102   2.736   0.313
 4567SOL     OW14599   6.245   0.869   6.498
 4567SOL    HW114600   6.159   0.911   6.468
 4567SOL    HW214601   6.275   0.912   6.583
 4568SOL     OW14602   1.720   3.197   5.941
 4568SOL    HW114603   1.687   3.147   5.861
 4568SOL    HW214604   1.811   3.162   5.966
 4569SOL     OW14605   2.151   0.819   3.180
 4569SOL    HW114606   2.071   0.879   3.182
 4569SOL    HW214607   2.166   0.780   3.271
 4570SOL     OW14608   6.851   6.496   2.349
 4570SOL    HW114609   6.914   6.538   2.284
 4570SOL    HW214610   6.866   6.397   2.351
 4571SOL     OW14611   4.630   4.121   6.153
 4571SOL    HW114612   4.668   4.205   6.114
 4571SOL    HW214613   4.691   4.087   6.225
 4572SOL     OW14614   1.959   0.488   6.483
 4572SOL    HW114615   1.916   0.576   6.504
 4572SOL    HW214616   1.939   0.464   6.388
 4573SOL     OW14617   6.827   0.446   0.162
 4573SOL    HW114618   6.738   0.462   0.204
 4573SOL    HW214619   6.890   0.409   0.230
 4574SOL     OW14620   5.888   4.162   0.417
 4574SOL    HW114621   5.947   4.110   0.479
 4574SOL    HW214622   5.907   4.134   0.322
 4575SOL     OW14623   5.401   0.457   5.801
 4575SOL    HW114624   5.363   0.401   5.727
 4575SOL    HW214625   5.352   0.544   5.806
 4576SOL     OW14626   3.789   5.922   5.676
 4576SOL    HW114627   3.712   5.920   5.611
 4576SOL    HW214628   3.753   5.930   5.769
 4577SOL     OW14629   1.027   1.734   4.359
 4577SOL    HW114630   1.110   1.755   4.409
 4577SOL    HW214631   0.975   1.664   4.408
 4578SOL     OW14632   0.924   2.527   5.168
 4578SOL    HW114633   0.946   2.607   5.223
 4578SOL    HW214634   0.885   2.455   5.227
 4579SOL     OW14635   3.795   0.340   3.285
 4579SOL    HW114636   3.870   0.345   3.351
 4579SOL    HW214637   3.808   0.410   3.215
 4580SOL     OW14638   5.098   4.392   0.953
 4580SOL    HW114639   5.098   4.478   0.902
 4580SOL    HW214640   5.183   4.384   1.006
 4581SOL     OW14641   2.054   5.863   2.148
 4581SOL    HW114642   1.964   5.820   2.141
 4581SOL    HW214643   2.102   5.852   2.061
 4582SOL     OW14644   4.290   1.101   4.830
 4582SOL    HW114645   4.200   1.137   4.855
 4582SOL    HW214646   4.279   1.018   4.775
 4583SOL     OW14647   3.075   2.052   6.733
 4583SOL    HW114648   3.095   1.954   6.739
 4583SOL    HW214649   2.980   2.065   6.705
 4584SOL     OW14650   0.730   4.996   5.189
 4584SOL    HW114651   0.823   4.982   5.223
 4584SOL    HW214652   0.668   5.008   5.266
 4585SOL     OW14653   1.749   5.444   3.260
 4585SOL    HW114654   1.650   5.445   3.274
 4585SOL    HW214655   1.772   5.500   3.180
 4586SOL     OW14656   3.908   4.518   0.960
 4586SOL    HW114657   3.922   4.525   1.058
 4586SOL    HW214658   3.838   4.449   0.940
 4587SOL     OW14659   3.533   4.151   3.814
 4587SOL    HW114660   3.616   4.175   3.864
 4587SOL    HW214661   3.455   4.147   3.878
 4588SOL     OW14662   2.482   3.526   5.515
 4588SOL    HW114663   2.457   3.588   5.441
 4588SOL    HW214664   2.569   3.481   5.494
 4589SOL     OW14665   6.196   0.873   2.277
 4589SOL    HW114666   6.181   0.955   2.333
 4589SOL    HW214667   6.113   0.851   2.227
 4590SOL     OW14668   4.406   5.090   1.356
 4590SOL    HW114669   4.414   5.181   1.397
 4590SOL    HW214670   4.425   5.021   1.426
 4591SOL     OW14671   2.051   0.459   4.882
 4591SOL    HW114672   2.081   0.484   4.790
 4591SOL    HW214673   1.955   0.483   4.893
 4592SOL     OW14674   2.645   1.450   3.736
 4592SOL    HW114675   2.716   1.492   3.679
 4592SOL    HW214676   2.634   1.354   3.711
 4593SOL     OW14677   5.161   6.098   2.207
 4593SOL    HW114678   5.189   6.011   2.166
 4593SOL    HW214679   5.113   6.153   2.138
 4594SOL     OW14680   2.555   1.154   3.203
 4594SOL    HW114681   2.636   1.115   3.247
 4594SOL    HW214682   2.581   1.235   3.151
 4595SOL     OW14683   4.770   2.974   5.611
 4595SOL    HW114684   4.854   3.028   5.602
 4595SOL    HW214685   4.735   2.952   5.520
 4596SOL     OW14686   6.126   1.107   2.428
 4596SOL    HW114687   6.131   1.182   2.494
 4596SOL    HW214688   6.106   1.143   2.337
 4597SOL     OW14689   3.969   5.508   6.958
 4597SOL    HW114690   3.873   5.530   6.945
 4597SOL    HW214691   4.013   5.493   6.870
 4598SOL     OW14692   1.212   5.983   0.697
 4598SOL    HW114693   1.294   5.958   0.647
 4598SOL    HW214694   1.165   5.900   0.727
 4599SOL     OW14695   1.682   5.034   0.170
 4599SOL    HW114696   1.699   5.052   0.073
 4599SOL    HW214697   1.584   5.044   0.189
 4600SOL     OW14698   0.785   6.059   5.349
 4600SOL    HW114699   0.773   6.156   5.327
 4600SOL    HW214700   0.883   6.038   5.353
 4601SOL     OW14701   1.480   1.208   5.569
 4601SOL    HW114702   1.500   1.147   5.645
 4601SOL    HW214703   1.507   1.301   5.592
 4602SOL     OW14704   3.136   6.422   0.283
 4602SOL    HW114705   3.185   6.417   0.370
 4602SOL    HW214706   3.091   6.335   0.265
 4603SOL     OW14707   3.771   6.409   1.021
 4603SOL    HW114708   3.792   6.343   1.093
 4603SOL    HW214709   3.839   6.483   1.024
 4604SOL     OW14710   4.354   0.234   6.890
 4604SOL    HW114711   4.273   0.217   6.834
 4604SOL    HW214712   4.327   0.248   6.985
 4605SOL     OW14713   1.425   6.036   2.370
 4605SOL    HW114714   1.466   6.058   2.282
 4605SOL    HW214715   1.484   6.071   2.444
 4606SOL     OW14716   0.673   6.881   2.248
 4606SOL    HW114717   0.760   6.873   2.199
 4606SOL    HW214718   0.688   6.926   2.336
 4607SOL     OW14719   2.064   3.034   2.594
 4607SOL    HW114720   2.071   2.963   2.665
 4607SOL    HW214721   2.020   3.115   2.632
 4608SOL     OW14722   0.448   5.779   3.891
 4608SOL    HW114723   0.389   5.701   3.873
 4608SOL    HW214724   0.514   5.756   3.962
 4609SOL     OW14725   4.979   5.033   6.764
 4609SOL    HW114726   5.013   5.125   6.741
 4609SOL    HW214727   4.890   5.020   6.722
 4610SOL     OW14728   5.005   1.753   0.150
 4610SOL    HW114729   5.099   1.782   0.169
 4610SOL    HW214730   4.989   1.757   0.051
 4611SOL     OW14731   1.214   6.557   5.877
 4611SOL    HW114732   1.203   6.651   5.911
 4611SOL    HW214733   1.147   6.498   5.922
 4612SOL     OW14734   1.832   6.558   0.755
 4612SOL    HW114735   1.850   6.529   0.849
 4612SOL    HW214736   1.814   6.478   0.698
 4613SOL     OW14737   1.546   5.741   2.267
 4613SOL    HW114738   1.488   5.810   2.225
 4613SOL    HW214739   1.490   5.666   2.301
 4614SOL     OW14740   6.048   3.425   3.462
 4614SOL    HW114741   6.016   3.511   3.501
 4614SOL    HW214742   6.118   3.444   3.393
 4615SOL     OW14743   1.567   0.937   0.172
 4615SOL    HW114744   1.646   0.896   0.217
 4615SOL    HW214745   1.591   1.029   0.140
 4616SOL     OW14746   6.345   1.304   4.399
 4616SOL    HW114747   6.329   1.282   4.495
 4616SOL    HW214748   6.363   1.220   4.348
 4617SOL     OW14749   1.456   2.594   2.089
 4617SOL    HW114750   1.379   2.581   2.028
 4617SOL    HW214751   1.480   2.691   2.092
 4618SOL     OW14752   2.283   3.087   5.360
 4618SOL    HW114753   2.313   3.174   5.398
 4618SOL    HW214754   2.357   3.049   5.304
 4619SOL     OW14755   3.176   6.095   3.723
 4619SOL    HW114756   3.178   6.127   3.628
 4619SOL    HW214757   3.230   6.157   3.780
 4620SOL     OW14758   1.831   5.021   0.818
 4620SOL    HW114759   1.735   4.999   0.837
 4620SOL    HW214760   1.874   5.058   0.900
 4621SOL     OW14761   4.809   0.444   2.688
 4621SOL    HW114762   4.776   0.528   2.646
 4621SOL    HW214763   4.818   0.456   2.786
 4622SOL     OW14764   3.911   4.853   0.712
 4622SOL    HW114765   3.862   4.777   0.756
 4622SOL    HW214766   3.923   4.832   0.615
 4623SOL     OW14767   5.033   5.652   2.022
 4623SOL    HW114768   5.065   5.701   1.941
 4623SOL    HW214769   4.945   5.690   2.051
 4624SOL     OW14770   3.632   0.119   2.805
 4624SOL    HW114771   3.636   0.211   2.844
 4624SOL    HW214772   3.725   0.085   2.790
 4625SOL     OW14773   1.596   4.465   1.397
 4625SOL    HW114774   1.644   4.525   1.461
 4625SOL    HW214775   1.497   4.479   1.407
 4626SOL     OW14776   4.970   3.959   2.244
 4626SOL    HW114777   4.902   4.031   2.231
 4626SOL    HW214778   5.043   3.993   2.304
 4627SOL     OW14779   1.279   4.698   5.172
 4627SOL    HW114780   1.211   4.651   5.228
 4627SOL    HW214781   1.344   4.632   5.135
 4628SOL     OW14782   4.714   4.199   4.369
 4628SOL    HW114783   4.711   4.175   4.466
 4628SOL    HW214784   4.719   4.299   4.360
 4629SOL     OW14785   2.976   5.617   5.552
 4629SOL    HW114786   3.057   5.593   5.498
 4629SOL    HW214787   2.907   5.545   5.543
 4630SOL     OW14788   2.258   6.230   1.946
 4630SOL    HW114789   2.337   6.268   1.897
 4630SOL    HW214790   2.289   6.165   2.015
 4631SOL     OW14791   1.119   5.975   3.174
 4631SOL    HW114792   1.024   5.944   3.166
 4631SOL    HW214793   1.176   5.898   3.204
 4632SOL     OW14794   2.588   4.620   2.816
 4632SOL    HW114795   2.685   4.628   2.793
 4632SOL    HW214796   2.559   4.701   2.868
 4633SOL     OW14797   6.126   0.826   4.569
 4633SOL    HW114798   6.115   0.783   4.659
 4633SOL    HW214799   6.081   0.770   4.499
 4634SOL     OW14800   2.438   3.742   5.307
 4634SOL    HW114801   2.538   3.739   5.301
 4634SOL    HW214802   2.404   3.826   5.264
 4635SOL     OW14803   4.788   3.852   1.814
 4635SOL    HW114804   4.751   3.945   1.816
 4635SOL    HW214805   4.712   3.786   1.812
 4636SOL     OW14806   2.568   4.569   0.161
 4636SOL    HW114807   2.563   4.490   0.100
 4636SOL    HW214808   2.577   4.652   0.106
 4637SOL     OW14809   0.695   6.725   0.674
 4637SOL    HW114810   0.783   6.714   0.722
 4637SOL    HW214811   0.650   6.808   0.706
 4638SOL     OW14812   4.185   4.813   0.052
 4638SOL    HW114813   4.278   4.819   0.015
 4638SOL    HW214814   4.151   4.905   0.073
 4639SOL     OW14815   3.332   3.555   6.267
 4639SOL    HW114816   3.393   3.615   6.319
 4639SOL    HW214817   3.304   3.600   6.183
 4640SOL     OW14818   4.769   4.025   4.195
 4640SOL    HW114819   4.820   3.956   4.246
 4640SOL    HW214820   4.743   4.100   4.256
 4641SOL     OW14821   2.776   0.477   5.061
 4641SOL    HW114822   2.740   0.406   5.122
 4641SOL    HW214823   2.869   0.453   5.033
 4642SOL     OW14824   1.180   6.966   3.634
 4642SOL    HW114825   1.134   7.007   3.554
 4642SOL    HW214826   1.211   0.019   3.695
 4643SOL     OW14827   6.870   2.277   0.694
 4643SOL    HW114828   6.777   2.268   0.728
 4643SOL    HW214829   6.870   2.334   0.611
 4644SOL     OW14830   0.426   6.134   5.124
 4644SOL    HW114831   0.442   6.213   5.183
 4644SOL    HW214832   0.491   6.135   5.048
 4645SOL     OW14833   0.692   0.323   3.778
 4645SOL    HW114834   0.601   0.310   3.739
 4645SOL    HW214835   0.716   0.420   3.777
 4646SOL     OW14836   2.187   5.329   3.207
 4646SOL    HW114837   2.274   5.284   3.189
 4646SOL    HW214838   2.173   5.337   3.306
 4647SOL     OW14839   1.763   0.259   2.695
 4647SOL    HW114840   1.759   0.311   2.609
 4647SOL    HW214841   1.843   0.287   2.747
 4648SOL     OW14842   3.261   0.462   2.588
 4648SOL    HW114843   3.239   0.377   2.539
 4648SOL    HW214844   3.288   0.440   2.682
 4649SOL     OW14845   5.058   1.147   0.093
 4649SOL    HW114846   5.036   1.233   0.047
 4649SOL    HW214847   5.131   1.100   0.043
 4650SOL     OW14848   4.772   5.578   2.276
 4650SOL    HW114849   4.868   5.597   2.296
 4650SOL    HW214850   4.721   5.572   2.362
 4651SOL     OW14851   6.174   4.011   6.290
 4651SOL    HW114852   6.133   4.041   6.204
 4651SOL    HW214853   6.133   3.924   6.318
 4652SOL     OW14854   5.642   6.522   4.801
 4652SOL    HW114855   5.671   6.426   4.795
 4652SOL    HW214856   5.670   6.571   4.719
 4653SOL     OW14857   5.232   5.632   1.477
 4653SOL    HW114858   5.177   5.561   1.523
 4653SOL    HW214859   5.217   5.720   1.523
 4654SOL     OW14860   0.698   6.091   6.368
 4654SOL    HW114861   0.754   6.102   6.451
 4654SOL    HW214862   0.622   6.156   6.372
 4655SOL     OW14863   5.903   3.662   1.128
 4655SOL    HW114864   5.878   3.626   1.038
 4655SOL    HW214865   5.821   3.678   1.182
 4656SOL     OW14866   1.568   0.821   2.001
 4656SOL    HW114867   1.474   0.790   1.992
 4656SOL    HW214868   1.630   0.749   1.969
 4657SOL     OW14869   4.591   5.505   1.673
 4657SOL    HW114870   4.505   5.463   1.645
 4657SOL    HW214871   4.607   5.588   1.619
 4658SOL     OW14872   3.419   0.257   4.211
 4658SOL    HW114873   3.457   0.255   4.119
 4658SOL    HW214874   3.322   0.232   4.208
 4659SOL     OW14875   2.656   3.989   5.628
 4659SOL    HW114876   2.733   3.932   5.658
 4659SOL    HW214877   2.632   3.965   5.534
 4660SOL     OW14878   0.415   5.653   4.987
 4660SOL    HW114879   0.492   5.692   4.935
 4660SOL    HW214880   0.364   5.726   5.031
 4661SOL     OW14881   3.226   4.390   6.327
 4661SOL    HW114882   3.199   4.381   6.231
 4661SOL    HW214883   3.145   4.381   6.385
 4662SOL     OW14884   2.823   0.384   5.596
 4662SOL    HW114885   2.913   0.340   5.590
 4662SOL    HW214886   2.822   0.466   5.538
 4663SOL     OW14887   0.170   1.205   1.304
 4663SOL    HW114888   0.179   1.305   1.311
 4663SOL    HW214889   0.235   1.162   1.366
 4664SOL     OW14890   1.379   1.034   0.572
 4664SOL    HW114891   1.373   0.988   0.660
 4664SOL    HW214892   1.475   1.043   0.545
 4665SOL     OW14893   4.361   6.794   6.223
 4665SOL    HW114894   4.372   6.801   6.124
 4665SOL    HW214895   4.294   6.861   6.254
 4666SOL     OW14896   2.511   2.553   6.867
 4666SOL    HW114897   2.436   2.506   6.820
 4666SOL    HW214898   2.509   2.530   6.964
 4667SOL     OW14899   6.167   3.915   1.779
 4667SOL    HW114900   6.109   3.905   1.860
 4667SOL    HW214901   6.145   3.844   1.713
 4668SOL     OW14902   4.780   2.000   3.399
 4668SOL    HW114903   4.789   2.015   3.498
 4668SOL    HW214904   4.688   1.964   3.380
 4669SOL     OW14905   5.161   6.216   0.992
 4669SOL    HW114906   5.123   6.125   0.979
 4669SOL    HW214907   5.100   6.270   1.050
 4670SOL     OW14908   1.731   2.287   6.289
 4670SOL    HW114909   1.811   2.324   6.337
 4670SOL    HW214910   1.682   2.225   6.349
 4671SOL     OW14911   1.060   3.332   6.641
 4671SOL    HW114912   1.117   3.375   6.712
 4671SOL    HW214913   0.965   3.359   6.654
 4672SOL     OW14914   2.689   5.178   5.661
 4672SOL    HW114915   2.758   5.214   5.598
 4672SOL    HW214916   2.732   5.154   5.748
 4673SOL     OW14917   4.923   6.911   1.855
 4673SOL    HW114918   4.853   6.860   1.905
 4673SOL    HW214919   4.914   7.009   1.874
 4674SOL     OW14920   4.953   1.390   0.013
 4674SOL    HW114921   4.900   1.452   0.071
 4674SOL    HW214922   4.902   1.373   6.948
 4675SOL     OW14923   2.297   1.209   0.207
 4675SOL    HW114924   2.318   1.213   0.109
 4675SOL    HW214925   2.264   1.298   0.238
 4676SOL     OW14926   6.241   6.298   3.758
 4676SOL    HW114927   6.294   6.247   3.691
 4676SOL    HW214928   6.144   6.277   3.746
 4677SOL     OW14929   2.720   0.896   6.884
 4677SOL    HW114930   2.738   0.828   6.813
 4677SOL    HW214931   2.623   0.918   6.885
 4678SOL     OW14932   1.795   4.552   2.753
 4678SOL    HW114933   1.760   4.645   2.740
 4678SOL    HW214934   1.724   4.495   2.794
 4679SOL     OW14935   3.292   1.671   0.031
 4679SOL    HW114936   3.210   1.708   7.008
 4679SOL    HW214937   3.369   1.674   6.987
 4680SOL     OW14938   2.034   1.218   1.211
 4680SOL    HW114939   2.093   1.201   1.290
 4680SOL    HW214940   2.090   1.246   1.133
 4681SOL     OW14941   5.813   6.239   5.841
 4681SOL    HW114942   5.794   6.301   5.766
 4681SOL    HW214943   5.877   6.169   5.811
 4682SOL     OW14944   4.026   4.846   5.954
 4682SOL    HW114945   4.081   4.765   5.976
 4682SOL    HW214946   3.945   4.818   5.902
 4683SOL     OW14947   4.462   4.581   2.860
 4683SOL    HW114948   4.426   4.562   2.951
 4683SOL    HW214949   4.513   4.502   2.826
 4684SOL     OW14950   0.037   1.946   4.897
 4684SOL    HW114951   0.059   1.863   4.845
 4684SOL    HW214952   0.089   2.023   4.860
 4685SOL     OW14953   0.536   6.419   5.095
 4685SOL    HW114954   0.448   6.410   5.049
 4685SOL    HW214955   0.538   6.505   5.147
 4686SOL     OW14956   5.415   5.587   0.807
 4686SOL    HW114957   5.401   5.497   0.848
 4686SOL    HW214958   5.508   5.618   0.827
 4687SOL     OW14959   6.377   4.631   5.198
 4687SOL    HW114960   6.375   4.616   5.099
 4687SOL    HW214961   6.371   4.544   5.245
 4688SOL     OW14962   6.292   4.126   5.357
 4688SOL    HW114963   6.392   4.131   5.351
 4688SOL    HW214964   6.255   4.091   5.271
 4689SOL     OW14965   6.287   0.777   0.227
 4689SOL    HW114966   6.374   0.812   0.264
 4689SOL    HW214967   6.226   0.853   0.208
 4690SOL     OW14968   1.238   0.656   0.362
 4690SOL    HW114969   1.281   0.685   0.276
 4690SOL    HW214970   1.292   0.690   0.439
 4691SOL     OW14971   2.857   4.716   2.431
 4691SOL    HW114972   2.780   4.696   2.492
 4691SOL    HW214973   2.854   4.654   2.352
 4692SOL     OW14974   6.260   5.517   2.185
 4692SOL    HW114975   6.184   5.458   2.214
 4692SOL    HW214976   6.283   5.581   2.258
 4693SOL     OW14977   0.804   0.625   3.352
 4693SOL    HW114978   0.891   0.645   3.308
 4693SOL    HW214979   0.808   0.534   3.394
 4694SOL     OW14980   2.660   0.369   0.446
 4694SOL    HW114981   2.645   0.295   0.511
 4694SOL    HW214982   2.736   0.346   0.386
 4695SOL     OW14983   2.590   3.534   1.668
 4695SOL    HW114984   2.525   3.488   1.728
 4695SOL    HW214985   2.557   3.626   1.646
 4696SOL     OW14986   0.283   4.277   6.182
 4696SOL    HW114987   0.220   4.210   6.221
 4696SOL    HW214988   0.285   4.267   6.082
 4697SOL     OW14989   2.517   3.146   0.864
 4697SOL    HW114990   2.574   3.067   0.840
 4697SOL    HW214991   2.572   3.213   0.914
 4698SOL     OW14992   4.468   6.119   2.674
 4698SOL    HW114993   4.449   6.086   2.582
 4698SOL    HW214994   4.491   6.041   2.733
 4699SOL     OW14995   0.964   6.549   1.430
 4699SOL    HW114996   1.031   6.504   1.370
 4699SOL    HW214997   1.012   6.605   1.497
 4700SOL     OW14998   6.681   1.887   2.426
 4700SOL    HW114999   6.717   1.832   2.501
 4700SOL    HW215000   6.757   1.932   2.378
 4701SOL     OW15001   2.374   2.382   0.850
 4701SOL    HW115002   2.323   2.463   0.882
 4701SOL    HW215003   2.317   2.301   0.860
 4702SOL     OW15004   5.628   4.872   6.744
 4702SOL    HW115005   5.574   4.811   6.687
 4702SOL    HW215006   5.706   4.907   6.692
 4703SOL     OW15007   1.223   2.571   1.926
 4703SOL    HW115008   1.155   2.638   1.897
 4703SOL    HW215009   1.185   2.479   1.919
 4704SOL     OW15010   1.252   6.359   6.621
 4704SOL    HW115011   1.182   6.412   6.669
 4704SOL    HW215012   1.314   6.421   6.574
 4705SOL     OW15013   3.353   3.478   2.776
 4705SOL    HW115014   3.296   3.455   2.697
 4705SOL    HW215015   3.293   3.499   2.854
 4706SOL     OW15016   3.847   6.546   6.404
 4706SOL    HW115017   3.917   6.476   6.418
 4706SOL    HW215018   3.760   6.514   6.443
 4707SOL     OW15019   2.772   5.819   0.963
 4707SOL    HW115020   2.765   5.745   1.030
 4707SOL    HW215021   2.725   5.793   0.879
 4708SOL     OW15022   1.480   2.100   6.309
 4708SOL    HW115023   1.397   2.043   6.311
 4708SOL    HW215024   1.459   2.191   6.344
 4709SOL     OW15025   4.673   5.895   6.095
 4709SOL    HW115026   4.645   5.832   6.168
 4709SOL    HW215027   4.728   5.846   6.028
 4710SOL     OW15028   4.314   1.124   5.694
 4710SOL    HW115029   4.304   1.098   5.598
 4710SOL    HW215030   4.336   1.044   5.749
 4711SOL     OW15031   5.459   1.354   2.010
 4711SOL    HW115032   5.442   1.348   1.912
 4711SOL    HW215033   5.381   1.316   2.060
 4712SOL     OW15034   3.564   4.222   6.978
 4712SOL    HW115035   3.480   4.190   0.002
 4712SOL    HW215036   3.641   4.167   7.009
 4713SOL     OW15037   3.428   3.220   1.201
 4713SOL    HW115038   3.508   3.274   1.226
 4713SOL    HW215039   3.381   3.264   1.124
 4714SOL     OW15040   1.558   2.438   0.051
 4714SOL    HW115041   1.575   2.514   0.114
 4714SOL    HW215042   1.547   2.473   6.978
 4715SOL     OW15043   6.791   3.130   1.446
 4715SOL    HW115044   6.872   3.071   1.444
 4715SOL    HW215045   6.731   3.102   1.521
 4716SOL     OW15046   4.761   6.303   6.377
 4716SOL    HW115047   4.703   6.222   6.374
 4716SOL    HW215048   4.840   6.290   6.317
 4717SOL     OW15049   0.044   6.218   3.250
 4717SOL    HW115050   0.077   6.153   3.181
 4717SOL    HW215051   0.026   6.306   3.207
 4718SOL     OW15052   5.588   2.498   0.459
 4718SOL    HW115053   5.511   2.528   0.515
 4718SOL    HW215054   5.562   2.417   0.406
 4719SOL     OW15055   5.409   3.209   2.346
 4719SOL    HW115056   5.343   3.188   2.274
 4719SOL    HW215057   5.501   3.213   2.307
 4720SOL     OW15058   1.798   5.713   5.345
 4720SOL    HW115059   1.778   5.801   5.388
 4720SOL    HW215060   1.765   5.639   5.404
 4721SOL     OW15061   6.594   2.619   1.266
 4721SOL    HW115062   6.631   2.591   1.354
 4721SOL    HW215063   6.662   2.672   1.216
 4722SOL     OW15064   0.569   5.902   6.797
 4722SOL    HW115065   0.501   5.974   6.809
 4722SOL    HW215066   0.658   5.942   6.775
 4723SOL     OW15067   1.653   4.346   6.215
 4723SOL    HW115068   1.636   4.444   6.207
 4723SOL    HW215069   1.612   4.311   6.299
 4724SOL     OW15070   5.243   5.979   3.225
 4724SOL    HW115071   5.338   6.010   3.232
 4724SOL    HW215072   5.193   6.038   3.162
 4725SOL     OW15073   6.291   6.634   2.662
 4725SOL    HW115074   6.286   6.535   2.668
 4725SOL    HW215075   6.385   6.661   2.640
 4726SOL     OW15076   1.465   3.014   6.181
 4726SOL    HW115077   1.479   2.957   6.100
 4726SOL    HW215078   1.392   3.079   6.164
 4727SOL     OW15079   1.051   6.337   0.023
 4727SOL    HW115080   1.096   6.387   0.097
 4727SOL    HW215081   0.985   6.398   6.998
 4728SOL     OW15082   5.243   0.316   1.032
 4728SOL    HW115083   5.211   0.410   1.017
 4728SOL    HW215084   5.338   0.318   1.062
 4729SOL     OW15085   2.192   1.512   1.913
 4729SOL    HW115086   2.291   1.503   1.907
 4729SOL    HW215087   2.152   1.427   1.947
 4730SOL     OW15088   3.012   5.957   4.577
 4730SOL    HW115089   3.081   6.020   4.541
 4730SOL    HW215090   3.043   5.862   4.565
 4731SOL     OW15091   4.236   0.038   6.231
 4731SOL    HW115092   4.241   0.119   6.172
 4731SOL    HW215093   4.272   0.061   6.322
 4732SOL     OW15094   0.695   3.586   5.469
 4732SOL    HW115095   0.723   3.496   5.504
 4732SOL    HW215096   0.777   3.643   5.456
 4733SOL     OW15097   1.628   4.192   3.375
 4733SOL    HW115098   1.596   4.101   3.400
 4733SOL    HW215099   1.685   4.229   3.449
 4734SOL     OW15100   5.339   2.886   6.671
 4734SOL    HW115101   5.417   2.865   6.730
 4734SOL    HW215102   5.270   2.936   6.723
 4735SOL     OW15103   0.164   6.118   4.476
 4735SOL    HW115104   0.168   6.201   4.531
 4735SOL    HW215105   0.242   6.115   4.414
 4736SOL     OW15106   6.989   2.243   6.440
 4736SOL    HW115107   6.941   2.157   6.454
 4736SOL    HW215108   0.052   2.226   6.386
 4737SOL     OW15109   2.187   4.694   1.982
 4737SOL    HW115110   2.094   4.662   1.966
 4737SOL    HW215111   2.186   4.773   2.043
 4738SOL     OW15112   6.940   6.185   2.840
 4738SOL    HW115113   6.900   6.277   2.840
 4738SOL    HW215114   0.018   6.191   2.857
 4739SOL     OW15115   4.495   6.573   3.351
 4739SOL    HW115116   4.503   6.669   3.377
 4739SOL    HW215117   4.570   6.521   3.393
 4740SOL     OW15118   1.157   1.938   0.818
 4740SOL    HW115119   1.171   2.013   0.883
 4740SOL    HW215120   1.101   1.970   0.741
 4741SOL     OW15121   3.471   2.942   1.954
 4741SOL    HW115122   3.457   2.843   1.948
 4741SOL    HW215123   3.530   2.972   1.879
 4742SOL     OW15124   2.567   6.559   5.741
 4742SOL    HW115125   2.530   6.619   5.669
 4742SOL    HW215126   2.644   6.605   5.785
 4743SOL     OW15127   1.936   3.867   3.055
 4743SOL    HW115128   1.911   3.785   3.003
 4743SOL    HW215129   1.852   3.916   3.080
 4744SOL     OW15130   2.488   4.777   0.846
 4744SOL    HW115131   2.570   4.746   0.799
 4744SOL    HW215132   2.407   4.742   0.799
 4745SOL     OW15133   2.981   3.569   6.038
 4745SOL    HW115134   2.927   3.635   6.090
 4745SOL    HW215135   2.985   3.483   6.088
 4746SOL     OW15136   5.097   6.325   3.273
 4746SOL    HW115137   5.138   6.293   3.358
 4746SOL    HW215138   5.006   6.363   3.292
 4747SOL     OW15139   1.370   4.377   0.105
 4747SOL    HW115140   1.447   4.424   0.062
 4747SOL    HW215141   1.390   4.361   0.202
 4748SOL     OW15142   2.360   5.438   1.363
 4748SOL    HW115143   2.326   5.363   1.419
 4748SOL    HW215144   2.389   5.513   1.421
 4749SOL     OW15145   2.151   6.492   6.336
 4749SOL    HW115146   2.094   6.433   6.278
 4749SOL    HW215147   2.199   6.435   6.403
 4750SOL     OW15148   0.009   3.765   5.089
 4750SOL    HW115149   6.962   3.747   5.160
 4750SOL    HW215150   0.094   3.797   5.131
 4751SOL     OW15151   4.138   2.012   2.965
 4751SOL    HW115152   4.173   2.040   3.055
 4751SOL    HW215153   4.056   2.063   2.943
 4752SOL     OW15154   4.475   1.235   0.021
 4752SOL    HW115155   4.397   1.239   6.979
 4752SOL    HW215156   4.497   1.327   0.054
 4753SOL     OW15157   0.222   0.476   4.451
 4753SOL    HW115158   0.189   0.493   4.358
 4753SOL    HW215159   0.216   0.561   4.504
 4754SOL     OW15160   5.398   4.188   4.265
 4754SOL    HW115161   5.330   4.134   4.315
 4754SOL    HW215162   5.353   4.238   4.191
 4755SOL     OW15163   2.774   1.159   0.492
 4755SOL    HW115164   2.684   1.189   0.459
 4755SOL    HW215165   2.769   1.063   0.521
 4756SOL     OW15166   5.462   3.842   5.756
 4756SOL    HW115167   5.560   3.846   5.774
 4756SOL    HW215168   5.442   3.887   5.669
 4757SOL     OW15169   2.394   2.155   1.262
 4757SOL    HW115170   2.374   2.168   1.359
 4757SOL    HW215171   2.397   2.244   1.217
 4758SOL     OW15172   1.414   6.637   3.146
 4758SOL    HW115173   1.483   6.707   3.126
 4758SOL    HW215174   1.324   6.680   3.149
 4759SOL     OW15175   0.533   4.870   6.334
 4759SOL    HW115176   0.471   4.835   6.264
 4759SOL    HW215177   0.596   4.936   6.293
 4760SOL     OW15178   1.937   2.180   0.673
 4760SOL    HW115179   2.027   2.157   0.636
 4760SOL    HW215180   1.924   2.132   0.761
 4761SOL     OW15181   1.041   6.691   0.136
 4761SOL    HW115182   1.126   6.699   0.188
 4761SOL    HW215183   0.963   6.717   0.194
 4762SOL     OW15184   1.267   5.325   1.989
 4762SOL    HW115185   1.302   5.282   2.072
 4762SOL    HW215186   1.293   5.270   1.909
 4763SOL     OW15187   5.551   0.780   2.656
 4763SOL    HW115188   5.534   0.876   2.634
 4763SOL    HW215189   5.522   0.723   2.579
 4764SOL     OW15190   4.074   4.121   5.390
 4764SOL    HW115191   4.115   4.053   5.330
 4764SOL    HW215192   4.063   4.207   5.339
 4765SOL     OW15193   3.761   0.743   5.912
 4765SOL    HW115194   3.803   0.789   5.833
 4765SOL    HW215195   3.665   0.724   5.893
 4766SOL     OW15196   5.888   5.210   3.608
 4766SOL    HW115197   5.975   5.172   3.639
 4766SOL    HW215198   5.829   5.227   3.686
 4767SOL     OW15199   3.315   4.981   5.030
 4767SOL    HW115200   3.287   4.887   5.011
 4767SOL    HW215201   3.286   5.007   5.122
 4768SOL     OW15202   4.159   2.462   6.568
 4768SOL    HW115203   4.178   2.490   6.662
 4768SOL    HW215204   4.225   2.506   6.506
 4769SOL     OW15205   4.709   5.990   0.268
 4769SOL    HW115206   4.735   6.076   0.311
 4769SOL    HW215207   4.789   5.946   0.227
 4770SOL     OW15208   0.386   2.031   4.785
 4770SOL    HW115209   0.328   2.102   4.823
 4770SOL    HW215210   0.392   2.042   4.685
 4771SOL     OW15211   2.887   6.406   5.963
 4771SOL    HW115212   2.804   6.459   5.984
 4771SOL    HW215213   2.929   6.376   6.049
 4772SOL     OW15214   3.668   4.962   7.005
 4772SOL    HW115215   3.703   4.919   6.922
 4772SOL    HW215216   3.713   4.922   0.065
 4773SOL     OW15217   6.883   4.957   5.648
 4773SOL    HW115218   6.816   4.960   5.723
 4773SOL    HW215219   6.975   4.950   5.686
 4774SOL     OW15220   1.867   4.048   0.764
 4774SOL    HW115221   1.906   4.082   0.850
 4774SOL    HW215222   1.771   4.024   0.779
 4775SOL     OW15223   5.355   6.236   3.404
 4775SOL    HW115224   5.360   6.335   3.388
 4775SOL    HW215225   5.404   6.189   3.331
 4776SOL     OW15226   0.747   0.343   5.101
 4776SOL    HW115227   0.693   0.278   5.048
 4776SOL    HW215228   0.738   0.434   5.062
 4777SOL     OW15229   1.575   4.902   0.817
 4777SOL    HW115230   1.556   4.806   0.794
 4777SOL    HW215231   1.490   4.954   0.817
 4778SOL     OW15232   6.779   2.938   4.529
 4778SOL    HW115233   6.781   2.844   4.495
 4778SOL    HW215234   6.859   2.988   4.495
 4779SOL     OW15235   5.374   0.540   3.328
 4779SOL    HW115236   5.465   0.578   3.310
 4779SOL    HW215237   5.321   0.538   3.243
 4780SOL     OW15238   6.307   3.037   6.614
 4780SOL    HW115239   6.391   3.022   6.667
 4780SOL    HW215240   6.323   3.111   6.548
 4781SOL     OW15241   2.418   4.961   2.357
 4781SOL    HW115242   2.360   5.023   2.409
 4781SOL    HW215243   2.480   4.913   2.418
 4782SOL     OW15244   6.225   5.148   6.854
 4782SOL    HW115245   6.258   5.184   6.767
 4782SOL    HW215246   6.221   5.223   6.921
 4783SOL     OW15247   4.954   3.487   6.787
 4783SOL    HW115248   5.000   3.435   6.715
 4783SOL    HW215249   4.855   3.481   6.773
 4784SOL     OW15250   6.340   1.850   6.312
 4784SOL    HW115251   6.371   1.803   6.230
 4784SOL    HW215252   6.324   1.947   6.291
 4785SOL     OW15253   0.453   6.012   3.086
 4785SOL    HW115254   0.530   6.038   3.027
 4785SOL    HW215255   0.448   6.076   3.163
 4786SOL     OW15256   2.131   7.017   0.262
 4786SOL    HW115257   2.117   6.921   0.238
 4786SOL    HW215258   2.177   0.003   0.350
 4787SOL     OW15259   3.835   1.283   2.950
 4787SOL    HW115260   3.759   1.228   2.916
 4787SOL    HW215261   3.868   1.344   2.878
 4788SOL     OW15262   6.679   6.636   0.259
 4788SOL    HW115263   6.779   6.648   0.254
 4788SOL    HW215264   6.645   6.674   0.345
 4789SOL     OW15265   5.368   1.598   1.762
 4789SOL    HW115266   5.459   1.582   1.725
 4789SOL    HW215267   5.301   1.601   1.688
 4790SOL     OW15268   6.091   1.469   5.544
 4790SOL    HW115269   5.997   1.492   5.517
 4790SOL    HW215270   6.127   1.541   5.603
 4791SOL     OW15271   0.132   2.805   1.275
 4791SOL    HW115272   0.117   2.828   1.371
 4791SOL    HW215273   0.137   2.888   1.220
 4792SOL     OW15274   2.389   4.409   4.064
 4792SOL    HW115275   2.327   4.417   4.142
 4792SOL    HW215276   2.431   4.318   4.064
 4793SOL     OW15277   1.617   2.383   5.577
 4793SOL    HW115278   1.602   2.391   5.675
 4793SOL    HW215279   1.682   2.452   5.547
 4794SOL     OW15280   4.729   0.063   4.359
 4794SOL    HW115281   4.701   0.089   4.266
 4794SOL    HW215282   4.779   0.138   4.401
 4795SOL     OW15283   6.542   1.846   4.455
 4795SOL    HW115284   6.513   1.777   4.521
 4795SOL    HW215285   6.569   1.801   4.370
 4796SOL     OW15286   4.077   0.985   5.434
 4796SOL    HW115287   3.998   1.034   5.473
 4796SOL    HW215288   4.149   1.051   5.411
 4797SOL     OW15289   0.371   7.007   4.853
 4797SOL    HW115290   0.302   0.030   4.912
 4797SOL    HW215291   0.350   0.007   4.757
 4798SOL     OW15292   0.449   4.556   5.791
 4798SOL    HW115293   0.398   4.522   5.869
 4798SOL    HW215294   0.487   4.479   5.739
 4799SOL     OW15295   4.246   1.930   0.423
 4799SOL    HW115296   4.261   2.011   0.481
 4799SOL    HW215297   4.304   1.936   0.342
 4800SOL     OW15298   1.988   3.256   6.516
 4800SOL    HW115299   2.067   3.315   6.500
 4800SOL    HW215300   1.912   3.310   6.552
 4801SOL     OW15301   2.966   2.336   0.222
 4801SOL    HW115302   3.002   2.275   0.292
 4801SOL    HW215303   2.935   2.282   0.144
 4802SOL     OW15304   0.618   6.644   1.986
 4802SOL    HW115305   0.616   6.575   1.914
 4802SOL    HW215306   0.648   6.732   1.948
 4803SOL     OW15307   0.528   4.585   0.538
 4803SOL    HW115308   0.504   4.603   0.634
 4803SOL    HW215309   0.609   4.527   0.535
 4804SOL     OW15310   6.515   6.185   1.513
 4804SOL    HW115311   6.443   6.230   1.459
 4804SOL    HW215312   6.570   6.127   1.452
 4805SOL     OW15313   6.151   0.913   2.618
 4805SOL    HW115314   6.131   0.983   2.550
 4805SOL    HW215315   6.177   0.957   2.704
 4806SOL     OW15316   0.957   4.261   2.640
 4806SOL    HW115317   1.008   4.346   2.628
 4806SOL    HW215318   0.872   4.279   2.690
 4807SOL     OW15319   0.455   4.949   6.761
 4807SOL    HW115320   0.473   4.872   6.822
 4807SOL    HW215321   0.424   4.915   6.672
 4808SOL     OW15322   4.182   5.795   0.392
 4808SOL    HW115323   4.188   5.891   0.419
 4808SOL    HW215324   4.191   5.788   0.293
 4809SOL     OW15325   3.399   4.511   0.688
 4809SOL    HW115326   3.467   4.496   0.616
 4809SOL    HW215327   3.446   4.543   0.771
 4810SOL     OW15328   1.171   3.996   3.386
 4810SOL    HW115329   1.263   3.958   3.399
 4810SOL    HW215330   1.167   4.088   3.425
 4811SOL     OW15331   3.800   3.823   2.563
 4811SOL    HW115332   3.780   3.856   2.471
 4811SOL    HW215333   3.897   3.837   2.583
 4812SOL     OW15334   0.694   0.237   2.372
 4812SOL    HW115335   0.701   0.143   2.406
 4812SOL    HW215336   0.768   0.292   2.410
 4813SOL     OW15337   5.973   1.400   6.722
 4813SOL    HW115338   5.970   1.300   6.722
 4813SOL    HW215339   6.064   1.431   6.697
 4814SOL     OW15340   6.833   3.104   1.102
 4814SOL    HW115341   6.768   3.072   1.171
 4814SOL    HW215342   6.921   3.058   1.115
 4815SOL     OW15343   5.361   4.100   3.201
 4815SOL    HW115344   5.394   4.194   3.194
 4815SOL    HW215345   5.262   4.098   3.191
 4816SOL     OW15346   2.392   5.210   1.088
 4816SOL    HW115347   2.472   5.231   1.144
 4816SOL    HW215348   2.421   5.175   0.999
 4817SOL     OW15349   2.505   1.417   0.874
 4817SOL    HW115350   2.521   1.498   0.818
 4817SOL    HW215351   2.528   1.438   0.969
 4818SOL     OW15352   0.919   1.105   4.298
 4818SOL    HW115353   0.888   1.034   4.362
 4818SOL    HW215354   0.851   1.178   4.295
 4819SOL     OW15355   2.449   2.313   1.515
 4819SOL    HW115356   2.516   2.298   1.443
 4819SOL    HW215357   2.494   2.349   1.597
 4820SOL     OW15358   6.575   1.677   1.120
 4820SOL    HW115359   6.476   1.669   1.106
 4820SOL    HW215360   6.606   1.767   1.092
 4821SOL     OW15361   0.508   0.154   1.895
 4821SOL    HW115362   0.515   0.142   1.795
 4821SOL    HW215363   0.411   0.150   1.922
 4822SOL     OW15364   1.906   2.826   3.863
 4822SOL    HW115365   1.995   2.865   3.842
 4822SOL    HW215366   1.866   2.876   3.941
 4823SOL     OW15367   1.130   1.253   4.064
 4823SOL    HW115368   1.168   1.163   4.082
 4823SOL    HW215369   1.186   1.300   3.996
 4824SOL     OW15370   5.674   1.697   3.982
 4824SOL    HW115371   5.711   1.744   3.901
 4824SOL    HW215372   5.718   1.607   3.991
 4825SOL     OW15373   1.946   2.472   4.851
 4825SOL    HW115374   1.846   2.475   4.858
 4825SOL    HW215375   1.984   2.428   4.932
 4826SOL     OW15376   0.391   0.651   6.285
 4826SOL    HW115377   0.343   0.679   6.202
 4826SOL    HW215378   0.326   0.611   6.349
 4827SOL     OW15379   6.049   2.496   1.800
 4827SOL    HW115380   5.949   2.499   1.803
 4827SOL    HW215381   6.079   2.404   1.776
 4828SOL     OW15382   5.546   3.105   0.963
 4828SOL    HW115383   5.491   3.148   1.035
 4828SOL    HW215384   5.585   3.020   0.997
 4829SOL     OW15385   3.861   6.340   6.951
 4829SOL    HW115386   3.893   6.402   6.879
 4829SOL    HW215387   3.813   6.263   6.910
 4830SOL     OW15388   5.068   6.344   3.593
 4830SOL    HW115389   5.134   6.332   3.667
 4830SOL    HW215390   4.983   6.297   3.616
 4831SOL     OW15391   6.963   4.694   6.867
 4831SOL    HW115392   6.934   4.789   6.876
 4831SOL    HW215393   6.996   4.678   6.774
 4832SOL     OW15394   2.896   2.412   5.657
 4832SOL    HW115395   2.829   2.482   5.634
 4832SOL    HW215396   2.937   2.433   5.746
 4833SOL     OW15397   4.880   1.229   2.666
 4833SOL    HW115398   4.945   1.194   2.600
 4833SOL    HW215399   4.843   1.154   2.720
 4834SOL     OW15400   3.844   0.000   1.058
 4834SOL    HW115401   3.764   6.965   1.080
 4834SOL    HW215402   3.891   6.981   0.979
 4835SOL     OW15403   0.625   2.097   6.228
 4835SOL    HW115404   0.685   2.024   6.194
 4835SOL    HW215405   0.552   2.114   6.161
 4836SOL     OW15406   4.918   3.003   4.047
 4836SOL    HW115407   4.878   2.919   4.012
 4836SOL    HW215408   4.954   2.987   4.139
 4837SOL     OW15409   4.957   3.778   2.040
 4837SOL    HW115410   4.899   3.820   1.970
 4837SOL    HW215411   4.948   3.829   2.125
 4838SOL     OW15412   1.073   4.701   1.548
 4838SOL    HW115413   1.031   4.645   1.477
 4838SOL    HW215414   1.096   4.644   1.626
 4839SOL     OW15415   1.299   3.222   6.072
 4839SOL    HW115416   1.246   3.216   6.157
 4839SOL    HW215417   1.276   3.307   6.025
 4840SOL     OW15418   0.664   5.692   5.880
 4840SOL    HW115419   0.694   5.677   5.786
 4840SOL    HW215420   0.666   5.790   5.901
 4841SOL     OW15421   2.885   6.298   1.696
 4841SOL    HW115422   2.955   6.245   1.647
 4841SOL    HW215423   2.836   6.238   1.760
 4842SOL     OW15424   3.055   4.836   2.277
 4842SOL    HW115425   3.015   4.816   2.188
 4842SOL    HW215426   2.995   4.802   2.349
 4843SOL     OW15427   6.041   3.425   0.244
 4843SOL    HW115428   6.037   3.342   0.188
 4843SOL    HW215429   5.965   3.425   0.309
 4844SOL     OW15430   6.725   4.184   5.545
 4844SOL    HW115431   6.797   4.252   5.531
 4844SOL    HW215432   6.723   4.156   5.641
 4845SOL     OW15433   5.890   5.657   5.084
 4845SOL    HW115434   5.878   5.609   5.172
 4845SOL    HW215435   5.942   5.599   5.022
 4846SOL     OW15436   6.489   3.221   3.061
 4846SOL    HW115437   6.570   3.168   3.033
 4846SOL    HW215438   6.519   3.301   3.113
 4847SOL     OW15439   2.937   1.266   5.855
 4847SOL    HW115440   2.870   1.193   5.869
 4847SOL    HW215441   2.890   1.351   5.833
 4848SOL     OW15442   1.537   0.956   4.191
 4848SOL    HW115443   1.553   0.862   4.221
 4848SOL    HW215444   1.563   0.966   4.095
 4849SOL     OW15445   1.413   6.562   6.536
 4849SOL    HW115446   1.482   6.572   6.608
 4849SOL    HW215447   1.458   6.554   6.448
 4850SOL     OW15448   3.930   1.524   2.801
 4850SOL    HW115449   3.965   1.608   2.843
 4850SOL    HW215450   3.979   1.507   2.715
 4851SOL     OW15451   4.195   6.209   5.732
 4851SOL    HW115452   4.136   6.160   5.667
 4851SOL    HW215453   4.207   6.155   5.815
 4852SOL     OW15454   1.181   0.139   5.021
 4852SOL    HW115455   1.239   0.115   5.098
 4852SOL    HW215456   1.238   0.163   4.942
 4853SOL     OW15457   2.745   0.993   3.273
 4853SOL    HW115458   2.703   0.905   3.248
 4853SOL    HW215459   2.808   0.978   3.350
 4854SOL     OW15460   4.764   6.738   1.986
 4854SOL    HW115461   4.720   6.712   2.072
 4854SOL    HW215462   4.859   6.708   1.986
 4855SOL     OW15463   6.570   3.116   2.340
 4855SOL    HW115464   6.518   3.090   2.259
 4855SOL    HW215465   6.648   3.054   2.350
 4856SOL     OW15466   1.703   3.762   2.416
 4856SOL    HW115467   1.641   3.686   2.435
 4856SOL    HW215468   1.684   3.797   2.324
 4857SOL     OW15469   1.582   2.260   5.180
 4857SOL    HW115470   1.604   2.185   5.117
 4857SOL    HW215471   1.528   2.329   5.132
 4858SOL     OW15472   1.109   0.918   4.579
 4858SOL    HW115473   1.088   0.821   4.591
 4858SOL    HW215474   1.171   0.929   4.501
 4859SOL     OW15475   0.863   0.644   4.550
 4859SOL    HW115476   0.962   0.652   4.560
 4859SOL    HW215477   0.841   0.596   4.465
 4860SOL     OW15478   3.860   4.180   1.267
 4860SOL    HW115479   3.766   4.162   1.239
 4860SOL    HW215480   3.864   4.267   1.316
 4861SOL     OW15481   5.015   4.744   6.790
 4861SOL    HW115482   5.114   4.757   6.793
 4861SOL    HW215483   4.970   4.834   6.783
 4862SOL     OW15484   2.747   4.800   4.564
 4862SOL    HW115485   2.806   4.844   4.496
 4862SOL    HW215486   2.796   4.792   4.650
 4863SOL     OW15487   5.962   3.639   1.717
 4863SOL    HW115488   5.946   3.566   1.650
 4863SOL    HW215489   5.879   3.694   1.725
 4864SOL     OW15490   3.515   1.133   3.200
 4864SOL    HW115491   3.492   1.203   3.268
 4864SOL    HW215492   3.494   1.167   3.108
 4865SOL     OW15493   2.115   0.479   5.283
 4865SOL    HW115494   2.137   0.438   5.371
 4865SOL    HW215495   2.130   0.412   5.210
 4866SOL     OW15496   6.349   1.958   1.179
 4866SOL    HW115497   6.297   1.939   1.096
 4866SOL    HW215498   6.447   1.954   1.158
 4867SOL     OW15499   3.331   5.367   2.035
 4867SOL    HW115500   3.261   5.405   1.974
 4867SOL    HW215501   3.402   5.436   2.052
 4868SOL     OW15502   6.459   5.406   2.608
 4868SOL    HW115503   6.490   5.457   2.689
 4868SOL    HW215504   6.534   5.397   2.543
 4869SOL     OW15505   1.385   1.805   1.786
 4869SOL    HW115506   1.337   1.873   1.731
 4869SOL    HW215507   1.428   1.849   1.864
 4870SOL     OW15508   0.246   6.213   1.880
 4870SOL    HW115509   0.262   6.231   1.977
 4870SOL    HW215510   0.286   6.125   1.855
 4871SOL     OW15511   1.288   0.761   3.889
 4871SOL    HW115512   1.262   0.710   3.807
 4871SOL    HW215513   1.230   0.733   3.966
 4872SOL     OW15514   6.285   0.107   3.838
 4872SOL    HW115515   6.248   0.119   3.930
 4872SOL    HW215516   6.210   0.096   3.773
 4873SOL     OW15517   6.219   5.399   3.436
 4873SOL    HW115518   6.228   5.321   3.375
 4873SOL    HW215519   6.258   5.480   3.393
 4874SOL     OW15520   6.570   3.108   2.603
 4874SOL    HW115521   6.589   3.100   2.505
 4874SOL    HW215522   6.483   3.154   2.616
 4875SOL     OW15523   5.723   2.250   0.832
 4875SOL    HW115524   5.785   2.273   0.907
 4875SOL    HW215525   5.676   2.164   0.851
 4876SOL     OW15526   5.969   2.396   3.163
 4876SOL    HW115527   6.066   2.419   3.177
 4876SOL    HW215528   5.962   2.323   3.095
 4877SOL     OW15529   1.339   1.773   6.492
 4877SOL    HW115530   1.332   1.832   6.412
 4877SOL    HW215531   1.431   1.735   6.497
 4878SOL     OW15532   6.169   1.357   1.931
 4878SOL    HW115533   6.155   1.321   2.023
 4878SOL    HW215534   6.263   1.337   1.902
 4879SOL     OW15535   4.465   0.870   2.838
 4879SOL    HW115536   4.432   0.854   2.931
 4879SOL    HW215537   4.487   0.782   2.795
 4880SOL     OW15538   5.226   3.765   0.033
 4880SOL    HW115539   5.234   3.669   0.062
 4880SOL    HW215540   5.147   3.775   6.993
 4881SOL     OW15541   1.371   0.735   0.590
 4881SOL    HW115542   1.365   0.800   0.666
 4881SOL    HW215543   1.462   0.739   0.550
 4882SOL     OW15544   4.720   0.935   4.574
 4882SOL    HW115545   4.768   0.987   4.502
 4882SOL    HW215546   4.640   0.891   4.535
 4883SOL     OW15547   4.799   5.133   1.778
 4883SOL    HW115548   4.848   5.045   1.776
 4883SOL    HW215549   4.860   5.204   1.812
 4884SOL     OW15550   2.659   6.814   0.962
 4884SOL    HW115551   2.579   6.824   0.902
 4884SOL    HW215552   2.727   6.756   0.918
 4885SOL     OW15553   2.339   5.584   2.020
 4885SOL    HW115554   2.433   5.572   2.050
 4885SOL    HW215555   2.326   5.676   1.982
 4886SOL     OW15556   1.153   6.026   1.479
 4886SOL    HW115557   1.091   6.037   1.401
 4886SOL    HW215558   1.238   5.985   1.448
 4887SOL     OW15559   0.184   0.523   2.109
 4887SOL    HW115560   0.236   0.550   2.191
 4887SOL    HW215561   0.094   0.490   2.137
 4888SOL     OW15562   2.526   0.277   4.230
 4888SOL    HW115563   2.598   0.332   4.274
 4888SOL    HW215564   2.551   0.181   4.233
 4889SOL     OW15565   6.964   1.945   5.141
 4889SOL    HW115566   6.977   1.973   5.046
 4889SOL    HW215567   6.866   1.940   5.162
 4890SOL     OW15568   0.208   1.251   6.539
 4890SOL    HW115569   0.258   1.198   6.470
 4890SOL    HW215570   0.269   1.318   6.581
 4891SOL     OW15571   2.381   4.550   6.816
 4891SOL    HW115572   2.450   4.513   6.754
 4891SOL    HW215573   2.293   4.506   6.797
 4892SOL     OW15574   3.424   6.149   1.900
 4892SOL    HW115575   3.324   6.145   1.895
 4892SOL    HW215576   3.454   6.244   1.902
 4893SOL     OW15577   6.640   2.959   1.217
 4893SOL    HW115578   6.693   2.875   1.208
 4893SOL    HW215579   6.566   2.945   1.283
 4894SOL     OW15580   2.737   0.642   3.471
 4894SOL    HW115581   2.663   0.633   3.404
 4894SOL    HW215582   2.787   0.556   3.476
 4895SOL     OW15583   0.808   4.749   4.328
 4895SOL    HW115584   0.859   4.699   4.398
 4895SOL    HW215585   0.715   4.712   4.321
 4896SOL     OW15586   1.751   4.821   2.121
 4896SOL    HW115587   1.676   4.771   2.076
 4896SOL    HW215588   1.822   4.841   2.053
 4897SOL     OW15589   1.977   4.085   5.731
 4897SOL    HW115590   2.026   4.160   5.687
 4897SOL    HW215591   2.035   4.044   5.802
 4898SOL     OW15592   4.079   0.748   4.264
 4898SOL    HW115593   4.108   0.801   4.343
 4898SOL    HW215594   4.018   0.803   4.206
 4899SOL     OW15595   5.282   5.422   3.418
 4899SOL    HW115596   5.281   5.514   3.380
 4899SOL    HW215597   5.321   5.359   3.351
 4900SOL     OW15598   3.528   6.251   4.746
 4900SOL    HW115599   3.509   6.156   4.769
 4900SOL    HW215600   3.450   6.291   4.699
 4901SOL     OW15601   2.999   1.053   5.156
 4901SOL    HW115602   2.987   1.108   5.239
 4901SOL    HW215603   3.081   0.998   5.164
 4902SOL     OW15604   1.987   1.438   4.917
 4902SOL    HW115605   2.052   1.407   4.847
 4902SOL    HW215606   1.945   1.524   4.889
 4903SOL     OW15607   4.081   5.912   6.897
 4903SOL    HW115608   4.047   5.982   6.834
 4903SOL    HW215609   4.112   5.833   6.845
 4904SOL     OW15610   2.463   0.018   4.830
 4904SOL    HW115611   2.496   0.111   4.840
 4904SOL    HW215612   2.517   6.977   4.889
 4905SOL     OW15613   3.285   0.322   2.821
 4905SOL    HW115614   3.350   0.305   2.896
 4905SOL    HW215615   3.247   0.234   2.791
 4906SOL     OW15616   5.387   1.836   6.378
 4906SOL    HW115617   5.378   1.738   6.394
 4906SOL    HW215618   5.455   1.852   6.307
 4907SOL     OW15619   4.346   6.154   2.317
 4907SOL    HW115620   4.376   6.147   2.412
 4907SOL    HW215621   4.402   6.095   2.259
 4908SOL     OW15622   5.612   5.815   0.815
 4908SOL    HW115623   5.650   5.746   0.753
 4908SOL    HW215624   5.665   5.899   0.807
 4909SOL     OW15625   0.500   0.130   3.994
 4909SOL    HW115626   0.454   0.076   3.922
 4909SOL    HW215627   0.599   0.117   3.987
 4910SOL     OW15628   5.329   0.941   4.962
 4910SOL    HW115629   5.233   0.933   4.935
 4910SOL    HW215630   5.338   1.007   5.036
 4911SOL     OW15631   1.429   4.347   3.828
 4911SOL    HW115632   1.525   4.375   3.838
 4911SOL    HW215633   1.376   4.422   3.788
 4912SOL     OW15634   5.739   1.553   6.487
 4912SOL    HW115635   5.732   1.519   6.581
 4912SOL    HW215636   5.659   1.608   6.465
 4913SOL     OW15637   4.066   3.026   5.284
 4913SOL    HW115638   3.971   3.004   5.306
 4913SOL    HW215639   4.074   3.124   5.263
 4914SOL     OW15640   2.992   0.338   4.646
 4914SOL    HW115641   3.067   0.387   4.602
 4914SOL    HW215642   3.028   0.288   4.725
 4915SOL     OW15643   3.530   6.483   5.591
 4915SOL    HW115644   3.514   6.385   5.599
 4915SOL    HW215645   3.537   6.508   5.495
 4916SOL     OW15646   0.940   0.499   3.968
 4916SOL    HW115647   0.881   0.423   3.997
 4916SOL    HW215648   1.035   0.475   3.983
 4917SOL     OW15649   2.497   5.688   1.439
 4917SOL    HW115650   2.567   5.755   1.416
 4917SOL    HW215651   2.407   5.728   1.425
 4918SOL     OW15652   4.932   5.688   3.451
 4918SOL    HW115653   4.873   5.759   3.489
 4918SOL    HW215654   4.880   5.631   3.387
 4919SOL     OW15655   3.251   2.438   0.658
 4919SOL    HW115656   3.170   2.401   0.612
 4919SOL    HW215657   3.308   2.484   0.590
 4920SOL     OW15658   5.398   0.668   4.347
 4920SOL    HW115659   5.448   0.624   4.421
 4920SOL    HW215660   5.353   0.598   4.291
 4921SOL     OW15661   1.167   5.194   0.849
 4921SOL    HW115662   1.224   5.262   0.803
 4921SOL    HW215663   1.205   5.175   0.940
 4922SOL     OW15664   2.645   2.591   5.241
 4922SOL    HW115665   2.587   2.511   5.227
 4922SOL    HW215666   2.589   2.668   5.271
 4923SOL     OW15667   3.671   1.797   2.836
 4923SOL    HW115668   3.770   1.779   2.837
 4923SOL    HW215669   3.642   1.828   2.926
 4924SOL     OW15670   3.856   1.060   5.011
 4924SOL    HW115671   3.827   1.122   5.084
 4924SOL    HW215672   3.785   0.991   4.997
 4925SOL     OW15673   6.341   6.839   2.410
 4925SOL    HW115674   6.350   6.931   2.448
 4925SOL    HW215675   6.432   6.796   2.406
 4926SOL     OW15676   4.640   1.125   0.325
 4926SOL    HW115677   4.685   1.169   0.247
 4926SOL    HW215678   4.543   1.110   0.304
 4927SOL     OW15679   3.456   3.892   4.549
 4927SOL    HW115680   3.396   3.890   4.629
 4927SOL    HW215681   3.411   3.846   4.472
 4928SOL     OW15682   2.238   6.532   6.809
 4928SOL    HW115683   2.299   6.457   6.833
 4928SOL    HW215684   2.182   6.556   6.889
 4929SOL     OW15685   6.807   6.823   4.179
 4929SOL    HW115686   6.751   6.900   4.151
 4929SOL    HW215687   6.749   6.744   4.199
 4930SOL     OW15688   5.365   0.995   3.010
 4930SOL    HW115689   5.280   0.982   2.958
 4930SOL    HW215690   5.409   1.079   2.980
 4931SOL     OW15691   0.010   6.668   0.829
 4931SOL    HW115692   6.930   6.666   0.826
 4931SOL    HW215693   0.046   6.689   0.739
 4932SOL     OW15694   3.073   2.982   2.084
 4932SOL    HW115695   3.022   2.903   2.117
 4932SOL    HW215696   3.010   3.057   2.063
 4933SOL     OW15697   2.403   6.825   2.844
 4933SOL    HW115698   2.322   6.766   2.854
 4933SOL    HW215699   2.425   6.866   2.932
 4934SOL     OW15700   3.152   5.713   3.242
 4934SOL    HW115701   3.190   5.691   3.152
 4934SOL    HW215702   3.117   5.629   3.285
 4935SOL     OW15703   2.145   1.902   6.511
 4935SOL    HW115704   2.138   2.001   6.509
 4935SOL    HW215705   2.215   1.872   6.446
 4936SOL     OW15706   2.568   4.677   1.520
 4936SOL    HW115707   2.555   4.769   1.485
 4936SOL    HW215708   2.534   4.611   1.453
 4937SOL     OW15709   6.003   3.189   5.594
 4937SOL    HW115710   6.043   3.280   5.581
 4937SOL    HW215711   5.931   3.174   5.526
 4938SOL     OW15712   2.313   5.124   5.635
 4938SOL    HW115713   2.225   5.091   5.668
 4938SOL    HW215714   2.321   5.107   5.537
 4939SOL     OW15715   6.169   2.149   4.669
 4939SOL    HW115716   6.159   2.242   4.705
 4939SOL    HW215717   6.080   2.104   4.667
 4940SOL     OW15718   0.114   1.385   4.716
 4940SOL    HW115719   0.152   1.469   4.754
 4940SOL    HW215720   0.057   1.340   4.785
 4941SOL     OW15721   5.293   2.197   5.424
 4941SOL    HW115722   5.351   2.166   5.349
 4941SOL    HW215723   5.206   2.231   5.387
 4942SOL     OW15724   5.088   2.248   6.343
 4942SOL    HW115725   5.056   2.304   6.266
 4942SOL    HW215726   5.030   2.265   6.422
 4943SOL     OW15727   4.827   3.209   6.830
 4943SOL    HW115728   4.894   3.219   6.903
 4943SOL    HW215729   4.754   3.275   6.842
 4944SOL     OW15730   1.848   4.293   1.459
 4944SOL    HW115731   1.811   4.374   1.415
 4944SOL    HW215732   1.792   4.269   1.538
 4945SOL     OW15733   1.124   0.632   4.594
 4945SOL    HW115734   1.223   0.632   4.586
 4945SOL    HW215735   1.096   0.554   4.650
 4946SOL     OW15736   1.246   4.056   0.201
 4946SOL    HW115737   1.295   4.134   0.240
 4946SOL    HW215738   1.211   3.998   0.275
 4947SOL     OW15739   2.261   1.006   1.108
 4947SOL    HW115740   2.297   0.913   1.107
 4947SOL    HW215741   2.336   1.071   1.110
 4948SOL     OW15742   1.104   2.394   2.163
 4948SOL    HW115743   1.183   2.337   2.185
 4948SOL    HW215744   1.073   2.375   2.070
 4949SOL     OW15745   4.673   6.939   6.360
 4949SOL    HW115746   4.726   6.874   6.414
 4949SOL    HW215747   4.620   6.998   6.422
 4950SOL     OW15748   2.175   5.384   4.473
 4950SOL    HW115749   2.259   5.345   4.434
 4950SOL    HW215750   2.197   5.470   4.519
 4951SOL     OW15751   5.320   1.492   4.015
 4951SOL    HW115752   5.373   1.576   4.029
 4951SOL    HW215753   5.351   1.422   4.080
 4952SOL     OW15754   0.108   0.800   5.700
 4952SOL    HW115755   0.094   0.875   5.764
 4952SOL    HW215756   0.176   0.736   5.737
 4953SOL     OW15757   2.064   6.330   2.136
 4953SOL    HW115758   2.116   6.293   2.059
 4953SOL    HW215759   2.052   6.428   2.123
 4954SOL     OW15760   4.220   3.488   0.089
 4954SOL    HW115761   4.251   3.427   0.162
 4954SOL    HW215762   4.227   3.583   0.119
 4955SOL     OW15763   3.053   6.016   6.751
 4955SOL    HW115764   3.103   6.011   6.837
 4955SOL    HW215765   2.968   5.964   6.759
 4956SOL     OW15766   2.553   6.568   4.763
 4956SOL    HW115767   2.509   6.647   4.721
 4956SOL    HW215768   2.484   6.499   4.785
 4957SOL     OW15769   6.804   1.921   2.022
 4957SOL    HW115770   6.880   1.936   1.959
 4957SOL    HW215771   6.721   1.898   1.971
 4958SOL     OW15772   6.499   5.156   5.281
 4958SOL    HW115773   6.502   5.065   5.322
 4958SOL    HW215774   6.557   5.158   5.200
 4959SOL     OW15775   6.492   1.159   6.509
 4959SOL    HW115776   6.482   1.258   6.496
 4959SOL    HW215777   6.418   1.125   6.567
 4960SOL     OW15778   3.563   5.602   3.218
 4960SOL    HW115779   3.515   5.680   3.256
 4960SOL    HW215780   3.513   5.568   3.138
 4961SOL     OW15781   4.894   1.691   5.847
 4961SOL    HW115782   4.967   1.732   5.902
 4961SOL    HW215783   4.888   1.593   5.868
 4962SOL     OW15784   6.417   2.161   0.114
 4962SOL    HW115785   6.334   2.196   0.071
 4962SOL    HW215786   6.398   2.071   0.154
 4963SOL     OW15787   5.923   5.554   6.990
 4963SOL    HW115788   6.015   5.588   7.009
 4963SOL    HW215789   5.909   5.468   0.019
 4964SOL     OW15790   3.417   6.768   3.591
 4964SOL    HW115791   3.365   6.695   3.635
 4964SOL    HW215792   3.476   6.729   3.520
 4965SOL     OW15793   0.321   0.390   3.453
 4965SOL    HW115794   0.367   0.352   3.533
 4965SOL    HW215795   0.236   0.433   3.480
 4966SOL     OW15796   2.522   0.464   4.940
 4966SOL    HW115797   2.614   0.453   4.978
 4966SOL    HW215798   2.503   0.390   4.876
 4967SOL     OW15799   3.781   4.152   6.270
 4967SOL    HW115800   3.753   4.202   6.189
 4967SOL    HW215801   3.842   4.077   6.244
 4968SOL     OW15802   6.216   2.470   3.281
 4968SOL    HW115803   6.205   2.541   3.352
 4968SOL    HW215804   6.285   2.498   3.215
 4969SOL     OW15805   2.585   0.598   2.238
 4969SOL    HW115806   2.577   0.515   2.184
 4969SOL    HW215807   2.494   0.635   2.257
 4970SOL     OW15808   1.718   1.880   3.745
 4970SOL    HW115809   1.734   1.882   3.844
 4970SOL    HW215810   1.699   1.973   3.713
 4971SOL     OW15811   6.400   6.701   3.862
 4971SOL    HW115812   6.303   6.713   3.886
 4971SOL    HW215813   6.451   6.784   3.886
 4972SOL     OW15814   2.433   2.818   0.109
 4972SOL    HW115815   2.339   2.841   0.134
 4972SOL    HW215816   2.454   2.725   0.140
 4973SOL     OW15817   0.910   0.414   2.493
 4973SOL    HW115818   0.898   0.478   2.569
 4973SOL    HW215819   1.007   0.409   2.468
 4974SOL     OW15820   5.843   4.929   1.858
 4974SOL    HW115821   5.892   4.873   1.791
 4974SOL    HW215822   5.746   4.934   1.833
 4975SOL     OW15823   5.412   5.060   5.922
 4975SOL    HW115824   5.329   5.117   5.917
 4975SOL    HW215825   5.423   5.011   5.836
 4976SOL     OW15826   2.757   6.810   4.220
 4976SOL    HW115827   2.845   6.805   4.268
 4976SOL    HW215828   2.772   6.794   4.122
 4977SOL     OW15829   4.196   4.129   0.591
 4977SOL    HW115830   4.143   4.185   0.527
 4977SOL    HW215831   4.259   4.187   0.642
 4978SOL     OW15832   6.929   4.344   5.613
 4978SOL    HW115833   6.944   4.442   5.618
 4978SOL    HW215834   7.013   4.298   5.583
 4979SOL     OW15835   0.203   0.302   5.441
 4979SOL    HW115836   0.281   0.343   5.394
 4979SOL    HW215837   0.176   0.361   5.517
 4980SOL     OW15838   4.699   6.374   3.456
 4980SOL    HW115839   4.624   6.319   3.419
 4980SOL    HW215840   4.742   6.324   3.531
 4981SOL     OW15841   5.283   5.983   6.323
 4981SOL    HW115842   5.210   6.046   6.347
 4981SOL    HW215843   5.337   6.022   6.248
 4982SOL     OW15844   2.489   1.570   6.306
 4982SOL    HW115845   2.389   1.564   6.315
 4982SOL    HW215846   2.532   1.554   6.395
 4983SOL     OW15847   5.323   2.265   4.326
 4983SOL    HW115848   5.417   2.297   4.338
 4983SOL    HW215849   5.261   2.322   4.381
 4984SOL     OW15850   5.984   4.595   4.271
 4984SOL    HW115851   6.056   4.542   4.315
 4984SOL    HW215852   6.022   4.649   4.196
 4985SOL     OW15853   6.259   6.627   3.184
 4985SOL    HW115854   6.247   6.529   3.170
 4985SOL    HW215855   6.311   6.665   3.107
 4986SOL     OW15856   5.883   4.047   2.833
 4986SOL    HW115857   5.902   4.109   2.757
 4986SOL    HW215858   5.894   3.952   2.802
 4987SOL     OW15859   1.169   1.544   1.094
 4987SOL    HW115860   1.175   1.596   1.009
 4987SOL    HW215861   1.260   1.535   1.135
 4988SOL     OW15862   6.169   1.337   3.349
 4988SOL    HW115863   6.188   1.435   3.356
 4988SOL    HW215864   6.072   1.320   3.363
 4989SOL     OW15865   5.496   0.526   1.029
 4989SOL    HW115866   5.494   0.596   0.958
 4989SOL    HW215867   5.591   0.510   1.057
 4990SOL     OW15868   1.841   1.511   5.751
 4990SOL    HW115869   1.849   1.429   5.807
 4990SOL    HW215870   1.800   1.488   5.663
 4991SOL     OW15871   0.194   3.832   4.637
 4991SOL    HW115872   0.210   3.748   4.688
 4991SOL    HW215873   0.138   3.811   4.557
 4992SOL     OW15874   4.606   1.007   5.028
 4992SOL    HW115875   4.682   0.947   5.004
 4992SOL    HW215876   4.596   1.078   4.958
 4993SOL     OW15877   3.622   5.137   3.974
 4993SOL    HW115878   3.685   5.072   3.931
 4993SOL    HW215879   3.541   5.147   3.915
 4994SOL     OW15880   1.278   6.949   2.325
 4994SOL    HW115881   1.317   7.007   2.254
 4994SOL    HW215882   1.228   7.005   2.391
 4995SOL     OW15883   6.712   3.013   5.738
 4995SOL    HW115884   6.706   3.001   5.837
 4995SOL    HW215885   6.691   3.108   5.715
 4996SOL     OW15886   1.382   1.483   2.479
 4996SOL    HW115887   1.295   1.434   2.485
 4996SOL    HW215888   1.433   1.452   2.399
 4997SOL     OW15889   6.346   1.913   3.288
 4997SOL    HW115890   6.375   1.875   3.376
 4997SOL    HW215891   6.266   1.863   3.255
 4998SOL     OW15892   2.187   3.654   5.342
 4998SOL    HW115893   2.280   3.683   5.317
 4998SOL    HW215894   2.157   3.704   5.423
 4999SOL     OW15895   5.732   4.897   1.402
 4999SOL    HW115896   5.635   4.891   1.424
 4999SOL    HW215897   5.783   4.830   1.457
 5000SOL     OW15898   2.039   6.025   3.909
 5000SOL    HW115899   2.086   6.113   3.905
 5000SOL    HW215900   1.961   6.026   3.846
 5001SOL     OW15901   1.627   4.282   0.589
 5001SOL    HW115902   1.651   4.274   0.686
 5001SOL    HW215903   1.623   4.378   0.563
 5002SOL     OW15904   1.432   3.059   3.386
 5002SOL    HW115905   1.466   3.153   3.385
 5002SOL    HW215906   1.484   3.004   3.321
 5003SOL     OW15907   2.188   6.460   2.922
 5003SOL    HW115908   2.279   6.430   2.894
 5003SOL    HW215909   2.143   6.388   2.975
 5004SOL     OW15910   3.179   4.964   5.419
 5004SOL    HW115911   3.277   4.981   5.430
 5004SOL    HW215912   3.164   4.911   5.336
 5005SOL     OW15913   3.577   2.210   1.054
 5005SOL    HW115914   3.551   2.200   0.959
 5005SOL    HW215915   3.626   2.297   1.067
 5006SOL     OW15916   4.933   6.476   6.840
 5006SOL    HW115917   4.873   6.401   6.812
 5006SOL    HW215918   4.879   6.548   6.882
 5007SOL     OW15919   1.599   0.306   6.706
 5007SOL    HW115920   1.588   0.335   6.801
 5007SOL    HW215921   1.509   0.284   6.668
 5008SOL     OW15922   6.352   0.654   3.207
 5008SOL    HW115923   6.337   0.583   3.137
 5008SOL    HW215924   6.283   0.726   3.196
 5009SOL     OW15925   1.740   6.286   1.431
 5009SOL    HW115926   1.722   6.282   1.529
 5009SOL    HW215927   1.657   6.263   1.381
 5010SOL     OW15928   3.769   2.887   2.718
 5010SOL    HW115929   3.754   2.896   2.620
 5010SOL    HW215930   3.859   2.847   2.734
 5011SOL     OW15931   1.826   3.509   2.707
 5011SOL    HW115932   1.731   3.488   2.683
 5011SOL    HW215933   1.879   3.523   2.623
 5012SOL     OW15934   4.914   3.532   6.260
 5012SOL    HW115935   4.841   3.465   6.248
 5012SOL    HW215936   4.966   3.541   6.175
 5013SOL     OW15937   5.099   1.578   0.367
 5013SOL    HW115938   5.180   1.584   0.426
 5013SOL    HW215939   5.042   1.659   0.381
 5014SOL     OW15940   5.012   4.190   0.783
 5014SOL    HW115941   5.041   4.271   0.833
 5014SOL    HW215942   4.968   4.219   0.697
 5015SOL     OW15943   4.525   2.260   3.649
 5015SOL    HW115944   4.571   2.292   3.566
 5015SOL    HW215945   4.426   2.264   3.636
 5016SOL     OW15946   2.830   1.707   0.996
 5016SOL    HW115947   2.800   1.763   0.919
 5016SOL    HW215948   2.838   1.611   0.967
 5017SOL     OW15949   1.799   2.737   7.016
 5017SOL    HW115950   1.889   2.745   0.040
 5017SOL    HW215951   1.731   2.709   0.064
 5018SOL     OW15952   0.911   4.037   1.470
 5018SOL    HW115953   0.820   4.008   1.441
 5018SOL    HW215954   0.904   4.126   1.516
 5019SOL     OW15955   2.075   4.875   6.862
 5019SOL    HW115956   2.174   4.863   6.872
 5019SOL    HW215957   2.057   4.941   6.789
 5020SOL     OW15958   4.841   6.969   6.095
 5020SOL    HW115959   4.768   7.007   6.151
 5020SOL    HW215960   4.807   6.890   6.043
 5021SOL     OW15961   1.486   1.836   5.695
 5021SOL    HW115962   1.501   1.782   5.778
 5021SOL    HW215963   1.443   1.923   5.719
 5022SOL     OW15964   1.837   0.255   0.108
 5022SOL    HW115965   1.743   0.237   0.079
 5022SOL    HW215966   1.901   0.204   0.050
 5023SOL     OW15967   6.200   2.565   0.897
 5023SOL    HW115968   6.261   2.621   0.953
 5023SOL    HW215969   6.107   2.601   0.902
 5024SOL     OW15970   6.450   5.441   2.917
 5024SOL    HW115971   6.465   5.540   2.924
 5024SOL    HW215972   6.518   5.393   2.972
 5025SOL     OW15973   3.950   2.121   2.080
 5025SOL    HW115974   3.864   2.140   2.033
 5025SOL    HW215975   3.995   2.042   2.038
 5026SOL     OW15976   5.552   6.223   6.702
 5026SOL    HW115977   5.597   6.312   6.703
 5026SOL    HW215978   5.620   6.152   6.680
 5027SOL     OW15979   0.468   6.773   2.564
 5027SOL    HW115980   0.441   6.722   2.482
 5027SOL    HW215981   0.515   6.712   2.627
 5028SOL     OW15982   0.478   6.241   3.241
 5028SOL    HW115983   0.397   6.300   3.248
 5028SOL    HW215984   0.555   6.295   3.207
 5029SOL     OW15985   6.912   3.770   3.743
 5029SOL    HW115986   6.873   3.734   3.658
 5029SOL    HW215987   7.008   3.793   3.729
 5030SOL     OW15988   6.815   0.835   6.296
 5030SOL    HW115989   6.755   0.756   6.280
 5030SOL    HW215990   6.893   0.807   6.353
 5031SOL     OW15991   5.387   0.546   4.782
 5031SOL    HW115992   5.438   0.582   4.704
 5031SOL    HW215993   5.446   0.483   4.833
 5032SOL     OW15994   1.726   4.009   1.164
 5032SOL    HW115995   1.654   4.052   1.219
 5032SOL    HW215996   1.764   4.076   1.100
 5033SOL     OW15997   1.913   5.143   6.418
 5033SOL    HW115998   1.847   5.214   6.393
 5033SOL    HW215999   1.889   5.057   6.372
 5034SOL     OW16000   6.619   2.226   2.679
 5034SOL    HW116001   6.533   2.179   2.695
 5034SOL    HW216002   6.616   2.274   2.591
 5035SOL     OW16003   6.213   4.547   0.566
 5035SOL    HW116004   6.277   4.476   0.597
 5035SOL    HW216005   6.136   4.504   0.519
 5036SOL     OW16006   6.943   4.518   0.064
 5036SOL    HW116007   6.909   4.433   0.024
 5036SOL    HW216008   6.975   4.579   7.011
 5037SOL     OW16009   5.280   2.144   2.738
 5037SOL    HW116010   5.268   2.201   2.656
 5037SOL    HW216011   5.248   2.051   2.718
 5038SOL     OW16012   2.071   4.524   5.492
 5038SOL    HW116013   2.159   4.504   5.449
 5038SOL    HW216014   2.003   4.457   5.463
 5039SOL     OW16015   2.223   3.485   5.903
 5039SOL    HW116016   2.192   3.392   5.925
 5039SOL    HW216017   2.308   3.480   5.851
 5040SOL     OW16018   1.747   4.848   6.657
 5040SOL    HW116019   1.825   4.786   6.655
 5040SOL    HW216020   1.779   4.942   6.659
 5041SOL     OW16021   1.797   2.794   1.334
 5041SOL    HW116022   1.789   2.850   1.417
 5041SOL    HW216023   1.710   2.749   1.316
 5042SOL     OW16024   6.768   3.107   0.164
 5042SOL    HW116025   6.714   3.165   0.102
 5042SOL    HW216026   6.747   3.131   0.258
 5043SOL     OW16027   2.588   1.633   6.065
 5043SOL    HW116028   2.573   1.732   6.064
 5043SOL    HW216029   2.546   1.594   6.147
 5044SOL     OW16030   5.919   6.471   2.433
 5044SOL    HW116031   5.997   6.477   2.370
 5044SOL    HW216032   5.834   6.465   2.380
 5045SOL     OW16033   5.722   3.041   6.917
 5045SOL    HW116034   5.724   3.057   7.016
 5045SOL    HW216035   5.741   3.127   6.869
 5046SOL     OW16036   3.341   4.138   4.856
 5046SOL    HW116037   3.294   4.226   4.854
 5046SOL    HW216038   3.379   4.123   4.947
 5047SOL     OW16039   0.414   2.595   1.931
 5047SOL    HW116040   0.460   2.622   1.846
 5047SOL    HW216041   0.325   2.640   1.935
 5048SOL     OW16042   7.004   1.130   1.120
 5048SOL    HW116043   0.037   1.130   1.205
 5048SOL    HW216044   0.005   1.213   1.068
 5049SOL     OW16045   6.488   1.546   4.427
 5049SOL    HW116046   6.552   1.564   4.352
 5049SOL    HW216047   6.451   1.454   4.418
 5050SOL     OW16048   1.123   1.114   1.867
 5050SOL    HW116049   1.186   1.179   1.911
 5050SOL    HW216050   1.084   1.053   1.936
 5051SOL     OW16051   4.409   3.133   0.406
 5051SOL    HW116052   4.494   3.182   0.424
 5051SOL    HW216053   4.368   3.105   0.492
 5052SOL     OW16054   2.727   5.134   5.933
 5052SOL    HW116055   2.736   5.050   5.987
 5052SOL    HW216056   2.736   5.214   5.994
 5053SOL     OW16057   1.453   3.972   3.523
 5053SOL    HW116058   1.546   3.945   3.545
 5053SOL    HW216059   1.402   3.988   3.607
 5054SOL     OW16060   3.479   5.507   5.414
 5054SOL    HW116061   3.459   5.409   5.415
 5054SOL    HW216062   3.425   5.552   5.485
 5055SOL     OW16063   0.808   0.625   5.441
 5055SOL    HW116064   0.887   0.661   5.392
 5055SOL    HW216065   0.785   0.685   5.517
 5056SOL     OW16066   6.256   3.372   0.514
 5056SOL    HW116067   6.159   3.392   0.528
 5056SOL    HW216068   6.273   3.357   0.416
 5057SOL     OW16069   0.771   5.648   4.158
 5057SOL    HW116070   0.852   5.661   4.216
 5057SOL    HW216071   0.798   5.604   4.072
 5058SOL     OW16072   2.474   3.774   5.946
 5058SOL    HW116073   2.410   3.803   5.874
 5058SOL    HW216074   2.547   3.719   5.905
 5059SOL     OW16075   5.964   3.287   3.868
 5059SOL    HW116076   5.903   3.365   3.881
 5059SOL    HW216077   5.945   3.244   3.779
 5060SOL     OW16078   0.505   3.013   5.296
 5060SOL    HW116079   0.454   3.097   5.281
 5060SOL    HW216080   0.450   2.935   5.265
 5061SOL     OW16081   3.449   3.226   3.785
 5061SOL    HW116082   3.503   3.141   3.790
 5061SOL    HW216083   3.499   3.294   3.733
 5062SOL     OW16084   5.498   1.493   2.654
 5062SOL    HW116085   5.456   1.504   2.744
 5062SOL    HW216086   5.427   1.475   2.586
 5063SOL     OW16087   0.838   6.430   1.644
 5063SOL    HW116088   0.890   6.428   1.729
 5063SOL    HW216089   0.891   6.479   1.574
 5064SOL     OW16090   4.681   4.460   1.808
 5064SOL    HW116091   4.649   4.406   1.885
 5064SOL    HW216092   4.634   4.432   1.725
 5065SOL     OW16093   1.240   1.758   3.056
 5065SOL    HW116094   1.322   1.815   3.044
 5065SOL    HW216095   1.185   1.761   2.973
 5066SOL     OW16096   3.454   4.142   1.425
 5066SOL    HW116097   3.377   4.084   1.455
 5066SOL    HW216098   3.515   4.158   1.502
 5067SOL     OW16099   3.153   0.682   2.701
 5067SOL    HW116100   3.192   0.701   2.791
 5067SOL    HW216101   3.188   0.594   2.668
 5068SOL     OW16102   3.778   4.787   0.197
 5068SOL    HW116103   3.849   4.716   0.195
 5068SOL    HW216104   3.714   4.768   0.271
 5069SOL     OW16105   1.547   2.381   6.128
 5069SOL    HW116106   1.623   2.367   6.192
 5069SOL    HW216107   1.465   2.407   6.180
 5070SOL     OW16108   5.411   4.988   4.898
 5070SOL    HW116109   5.452   4.905   4.936
 5070SOL    HW216110   5.351   4.964   4.822
 5071SOL     OW16111   3.778   1.617   3.583
 5071SOL    HW116112   3.715   1.565   3.641
 5071SOL    HW216113   3.769   1.714   3.603
 5072SOL     OW16114   1.815   1.532   1.022
 5072SOL    HW116115   1.814   1.493   0.930
 5072SOL    HW216116   1.819   1.459   1.089
 5073SOL     OW16117   1.786   4.829   0.568
 5073SOL    HW116118   1.784   4.903   0.636
 5073SOL    HW216119   1.770   4.867   0.477
 5074SOL     OW16120   3.669   2.120   2.374
 5074SOL    HW116121   3.609   2.110   2.294
 5074SOL    HW216122   3.761   2.144   2.344
 5075SOL     OW16123   1.293   2.069   6.750
 5075SOL    HW116124   1.377   2.016   6.740
 5075SOL    HW216125   1.216   2.018   6.712
 5076SOL     OW16126   5.521   0.020   0.736
 5076SOL    HW116127   5.556   0.114   0.734
 5076SOL    HW216128   5.452   0.012   0.808
 5077SOL     OW16129   1.023   4.142   5.832
 5077SOL    HW116130   1.019   4.194   5.747
 5077SOL    HW216131   0.983   4.196   5.906
 5078SOL     OW16132   0.493   0.973   3.784
 5078SOL    HW116133   0.528   1.060   3.751
 5078SOL    HW216134   0.427   0.935   3.718
 5079SOL     OW16135   2.407   2.767   5.159
 5079SOL    HW116136   2.406   2.859   5.118
 5079SOL    HW216137   2.336   2.711   5.117
 5080SOL     OW16138   6.350   5.992   5.271
 5080SOL    HW116139   6.316   6.079   5.306
 5080SOL    HW216140   6.439   6.005   5.229
 5081SOL     OW16141   2.691   3.935   6.085
 5081SOL    HW116142   2.749   3.935   6.004
 5081SOL    HW216143   2.603   3.891   6.063
 5082SOL     OW16144   5.099   6.968   0.894
 5082SOL    HW116145   5.051   6.919   0.967
 5082SOL    HW216146   5.076   0.045   0.897
 5083SOL     OW16147   2.834   0.009   2.617
 5083SOL    HW116148   2.774   0.079   2.655
 5083SOL    HW216149   2.901   7.002   2.686
 5084SOL     OW16150   0.862   5.445   3.535
 5084SOL    HW116151   0.798   5.521   3.539
 5084SOL    HW216152   0.815   5.360   3.562
 5085SOL     OW16153   6.810   2.705   5.509
 5085SOL    HW116154   6.733   2.766   5.530
 5085SOL    HW216155   6.881   2.757   5.462
 5086SOL     OW16156   1.208   4.580   2.870
 5086SOL    HW116157   1.284   4.529   2.910
 5086SOL    HW216158   1.133   4.585   2.936
 5087SOL     OW16159   0.711   5.052   1.640
 5087SOL    HW116160   0.710   5.015   1.548
 5087SOL    HW216161   0.783   5.121   1.648
 5088SOL     OW16162   5.365   6.838   3.648
 5088SOL    HW116163   5.313   6.922   3.667
 5088SOL    HW216164   5.326   6.762   3.701
 5089SOL     OW16165   6.266   4.757   4.133
 5089SOL    HW116166   6.355   4.751   4.088
 5089SOL    HW216167   6.193   4.751   4.065
 5090SOL     OW16168   1.900   2.291   2.866
 5090SOL    HW116169   1.928   2.347   2.787
 5090SOL    HW216170   1.860   2.206   2.834
 5091SOL     OW16171   6.639   1.086   1.762
 5091SOL    HW116172   6.664   1.039   1.846
 5091SOL    HW216173   6.664   1.030   1.683
 5092SOL     OW16174   3.686   3.307   3.562
 5092SOL    HW116175   3.748   3.291   3.639
 5092SOL    HW216176   3.692   3.230   3.498
 5093SOL     OW16177   3.368   1.421   0.466
 5093SOL    HW116178   3.346   1.505   0.415
 5093SOL    HW216179   3.293   1.356   0.456
 5094SOL     OW16180   2.073   5.860   6.010
 5094SOL    HW116181   1.993   5.853   5.950
 5094SOL    HW216182   2.113   5.769   6.023
 5095SOL     OW16183   0.080   2.748   2.846
 5095SOL    HW116184   7.006   2.752   2.882
 5095SOL    HW216185   0.134   2.684   2.901
 5096SOL     OW16186   4.777   4.901   6.624
 5096SOL    HW116187   4.811   4.852   6.544
 5096SOL    HW216188   4.686   4.866   6.648
 5097SOL     OW16189   1.022   6.937   6.551
 5097SOL    HW116190   0.955   6.898   6.487
 5097SOL    HW216191   1.091   6.868   6.572
 5098SOL     OW16192   2.596   0.692   1.875
 5098SOL    HW116193   2.647   0.756   1.932
 5098SOL    HW216194   2.575   0.610   1.927
 5099SOL     OW16195   0.553   6.848   1.361
 5099SOL    HW116196   0.502   6.770   1.326
 5099SOL    HW216197   0.613   6.819   1.435
 5100SOL     OW16198   3.238   5.515   4.719
 5100SOL    HW116199   3.197   5.569   4.646
 5100SOL    HW216200   3.168   5.461   4.765
 5101SOL     OW16201   4.229   6.998   5.920
 5101SOL    HW116202   4.194   0.004   5.830
 5101SOL    HW216203   4.182   0.032   5.991
 5102SOL     OW16204   4.891   6.546   4.464
 5102SOL    HW116205   4.984   6.572   4.438
 5102SOL    HW216206   4.893   6.456   4.508
 5103SOL     OW16207   0.175   1.235   4.050
 5103SOL    HW116208   0.208   1.146   4.083
 5103SOL    HW216209   0.204   1.306   4.114
 5104SOL     OW16210   1.593   6.683   1.936
 5104SOL    HW116211   1.677   6.629   1.925
 5104SOL    HW216212   1.603   6.743   2.016
 5105SOL     OW16213   3.074   2.594   0.342
 5105SOL    HW116214   3.044   2.511   0.294
 5105SOL    HW216215   3.088   2.667   0.275
 5106SOL     OW16216   4.501   1.519   1.073
 5106SOL    HW116217   4.419   1.538   1.128
 5106SOL    HW216218   4.509   1.421   1.058
 5107SOL     OW16219   4.402   2.572   1.406
 5107SOL    HW116220   4.354   2.486   1.385
 5107SOL    HW216221   4.393   2.635   1.329
 5108SOL     OW16222   3.999   3.922   5.235
 5108SOL    HW116223   3.916   3.969   5.206
 5108SOL    HW216224   4.026   3.856   5.165
 5109SOL     OW16225   0.921   2.088   6.895
 5109SOL    HW116226   0.933   1.995   6.859
 5109SOL    HW216227   0.948   2.090   6.991
 5110SOL     OW16228   0.536   0.438   6.184
 5110SOL    HW116229   0.457   0.387   6.150
 5110SOL    HW216230   0.505   0.522   6.228
 5111SOL     OW16231   1.428   0.898   4.661
 5111SOL    HW116232   1.429   0.981   4.717
 5111SOL    HW216233   1.404   0.920   4.567
 5112SOL     OW16234   1.203   0.356   2.948
 5112SOL    HW116235   1.130   0.322   3.007
 5112SOL    HW216236   1.200   0.456   2.946
 5113SOL     OW16237   2.245   5.719   1.037
 5113SOL    HW116238   2.277   5.787   1.103
 5113SOL    HW216239   2.170   5.667   1.076
 5114SOL     OW16240   4.099   0.417   6.616
 5114SOL    HW116241   4.188   0.412   6.571
 5114SOL    HW216242   4.051   0.330   6.605
 5115SOL     OW16243   1.517   5.711   3.453
 5115SOL    HW116244   1.612   5.732   3.431
 5115SOL    HW216245   1.513   5.671   3.545
 5116SOL     OW16246   0.811   6.708   0.254
 5116SOL    HW116247   0.748   6.776   0.290
 5116SOL    HW216248   0.789   6.618   0.292
 5117SOL     OW16249   1.806   3.738   3.906
 5117SOL    HW116250   1.831   3.730   3.810
 5117SOL    HW216251   1.888   3.754   3.961
 5118SOL     OW16252   5.212   0.924   7.013
 5118SOL    HW116253   5.202   0.894   0.088
 5118SOL    HW216254   5.153   0.869   6.954
 5119SOL     OW16255   4.766   0.891   2.443
 5119SOL    HW116256   4.689   0.950   2.469
 5119SOL    HW216257   4.850   0.946   2.439
 5120SOL     OW16258   4.237   0.085   4.871
 5120SOL    HW116259   4.302   0.064   4.944
 5120SOL    HW216260   4.176   0.158   4.900
 5121SOL     OW16261   3.572   2.963   0.198
 5121SOL    HW116262   3.521   2.921   0.273
 5121SOL    HW216263   3.537   3.055   0.181
 5122SOL     OW16264   3.455   6.009   3.240
 5122SOL    HW116265   3.434   6.042   3.148
 5122SOL    HW216266   3.554   5.995   3.249
 5123SOL     OW16267   4.567   2.656   4.413
 5123SOL    HW116268   4.512   2.576   4.439
 5123SOL    HW216269   4.577   2.716   4.492
 5124SOL     OW16270   1.830   5.958   5.028
 5124SOL    HW116271   1.787   5.894   5.091
 5124SOL    HW216272   1.867   5.909   4.950
 5125SOL     OW16273   6.685   3.853   3.880
 5125SOL    HW116274   6.635   3.773   3.911
 5125SOL    HW216275   6.765   3.824   3.827
 5126SOL     OW16276   6.189   5.426   6.534
 5126SOL    HW116277   6.126   5.402   6.459
 5126SOL    HW216278   6.143   5.490   6.596
 5127SOL     OW16279   0.049   3.902   0.164
 5127SOL    HW116280   0.000   3.856   0.090
 5127SOL    HW216281   0.062   3.839   0.241
 5128SOL     OW16282   0.228   0.261   6.432
 5128SOL    HW116283   0.292   0.207   6.377
 5128SOL    HW216284   0.166   0.199   6.481
 5129SOL     OW16285   6.419   0.082   2.496
 5129SOL    HW116286   6.344   0.122   2.549
 5129SOL    HW216287   6.472   0.154   2.452
 5130SOL     OW16288   0.140   5.370   3.336
 5130SOL    HW116289   0.148   5.342   3.240
 5130SOL    HW216290   0.192   5.454   3.351
 5131SOL     OW16291   2.194   4.514   4.274
 5131SOL    HW116292   2.095   4.521   4.282
 5131SOL    HW216293   2.231   4.600   4.241
 5132SOL     OW16294   3.772   2.998   6.847
 5132SOL    HW116295   3.798   3.094   6.841
 5132SOL    HW216296   3.673   2.989   6.833
 5133SOL     OW16297   2.299   5.411   6.974
 5133SOL    HW116298   2.378   5.470   6.987
 5133SOL    HW216299   2.327   5.315   6.983
 5134SOL     OW16300   0.397   3.365   2.311
 5134SOL    HW116301   0.380   3.284   2.256
 5134SOL    HW216302   0.410   3.339   2.407
 5135SOL     OW16303   6.020   2.883   4.388
 5135SOL    HW116304   6.013   2.872   4.487
 5135SOL    HW216305   6.113   2.862   4.358
 5136SOL     OW16306   3.795   0.786   6.191
 5136SOL    HW116307   3.767   0.781   6.095
 5136SOL    HW216308   3.823   0.695   6.222
 5137SOL     OW16309   5.466   3.460   5.795
 5137SOL    HW116310   5.509   3.394   5.857
 5137SOL    HW216311   5.369   3.439   5.786
 5138SOL     OW16312   3.277   2.687   5.620
 5138SOL    HW116313   3.337   2.614   5.653
 5138SOL    HW216314   3.249   2.666   5.526
 5139SOL     OW16315   1.917   0.559   2.990
 5139SOL    HW116316   1.856   0.637   3.005
 5139SOL    HW216317   1.924   0.506   3.074
 5140SOL     OW16318   4.109   2.370   0.495
 5140SOL    HW116319   4.157   2.413   0.418
 5140SOL    HW216320   4.032   2.426   0.523
 5141SOL     OW16321   6.475   3.698   0.061
 5141SOL    HW116322   6.530   3.687   6.998
 5141SOL    HW216323   6.531   3.742   0.132
 5142SOL     OW16324   5.903   0.070   3.937
 5142SOL    HW116325   5.942   0.030   3.854
 5142SOL    HW216326   5.884   0.167   3.922
 5143SOL     OW16327   6.596   4.230   4.185
 5143SOL    HW116328   6.621   4.254   4.091
 5143SOL    HW216329   6.524   4.161   4.183
 5144SOL     OW16330   0.731   4.703   6.353
 5144SOL    HW116331   0.788   4.724   6.274
 5144SOL    HW216332   0.647   4.757   6.350
 5145SOL     OW16333   2.583   4.955   5.529
 5145SOL    HW116334   2.600   4.958   5.430
 5145SOL    HW216335   2.621   5.037   5.572
 5146SOL     OW16336   3.758   3.967   5.096
 5146SOL    HW116337   3.697   4.016   5.033
 5146SOL    HW216338   3.792   3.884   5.051
 5147SOL     OW16339   6.853   5.089   2.759
 5147SOL    HW116340   6.914   5.157   2.718
 5147SOL    HW216341   6.887   4.997   2.739
 5148SOL     OW16342   6.932   6.490   1.697
 5148SOL    HW116343   7.017   6.504   1.747
 5148SOL    HW216344   6.946   6.508   1.600
 5149SOL     OW16345   6.651   6.007   3.405
 5149SOL    HW116346   6.712   6.075   3.364
 5149SOL    HW216347   6.686   5.915   3.385
 5150SOL     OW16348   2.318   5.270   2.735
 5150SOL    HW116349   2.237   5.225   2.773
 5150SOL    HW216350   2.310   5.275   2.636
 5151SOL     OW16351   5.771   2.628   0.718
 5151SOL    HW116352   5.736   2.580   0.799
 5151SOL    HW216353   5.755   2.571   0.637
 5152SOL     OW16354   2.448   5.119   0.237
 5152SOL    HW116355   2.434   5.140   0.334
 5152SOL    HW216356   2.519   5.049   0.228
 5153SOL     OW16357   2.100   0.207   6.763
 5153SOL    HW116358   2.167   0.263   6.812
 5153SOL    HW216359   2.022   0.263   6.736
 5154SOL     OW16360   1.129   3.800   6.398
 5154SOL    HW116361   1.149   3.719   6.342
 5154SOL    HW216362   1.099   3.875   6.339
 5155SOL     OW16363   4.045   6.408   2.283
 5155SOL    HW116364   4.114   6.433   2.214
 5155SOL    HW216365   4.071   6.321   2.324
 5156SOL     OW16366   5.730   3.874   5.762
 5156SOL    HW116367   5.800   3.812   5.798
 5156SOL    HW216368   5.733   3.960   5.813
 5157SOL     OW16369   4.147   1.939   3.722
 5157SOL    HW116370   4.111   2.009   3.660
 5157SOL    HW216371   4.241   1.916   3.696
 5158SOL     OW16372   3.664   1.394   1.868
 5158SOL    HW116373   3.623   1.472   1.821
 5158SOL    HW216374   3.598   1.354   1.931
 5159SOL     OW16375   6.905   3.499   3.865
 5159SOL    HW116376   6.921   3.518   3.962
 5159SOL    HW216377   6.946   3.571   3.809
 5160SOL     OW16378   0.190   4.775   3.283
 5160SOL    HW116379   0.176   4.785   3.382
 5160SOL    HW216380   0.220   4.682   3.263
 5161SOL     OW16381   1.369   3.959   5.563
 5161SOL    HW116382   1.446   4.011   5.600
 5161SOL    HW216383   1.343   3.887   5.627
 5162SOL     OW16384   1.169   5.110   3.332
 5162SOL    HW116385   1.173   5.097   3.233
 5162SOL    HW216386   1.076   5.135   3.359
 5163SOL     OW16387   3.616   6.443   0.644
 5163SOL    HW116388   3.660   6.491   0.568
 5163SOL    HW216389   3.518   6.463   0.643
 5164SOL     OW16390   4.508   2.567   0.057
 5164SOL    HW116391   4.462   2.609   6.999
 5164SOL    HW216392   4.534   2.474   0.034
 5165SOL     OW16393   5.781   4.536   5.924
 5165SOL    HW116394   5.762   4.589   6.007
 5165SOL    HW216395   5.857   4.473   5.941
 5166SOL     OW16396   0.698   5.264   3.250
 5166SOL    HW116397   0.737   5.294   3.163
 5166SOL    HW216398   0.608   5.304   3.262
 5167SOL     OW16399   6.305   6.339   5.680
 5167SOL    HW116400   6.350   6.253   5.656
 5167SOL    HW216401   6.313   6.403   5.603
 5168SOL     OW16402   4.893   3.925   3.023
 5168SOL    HW116403   4.848   3.963   2.943
 5168SOL    HW216404   4.921   3.831   3.005
 5169SOL     OW16405   4.171   1.962   4.966
 5169SOL    HW116406   4.143   1.955   4.870
 5169SOL    HW216407   4.217   1.877   4.993
 5170SOL     OW16408   0.560   4.401   5.589
 5170SOL    HW116409   0.658   4.383   5.585
 5170SOL    HW216410   0.524   4.415   5.497
 5171SOL     OW16411   1.273   5.871   4.511
 5171SOL    HW116412   1.364   5.867   4.552
 5171SOL    HW216413   1.257   5.789   4.456
 5172SOL     OW16414   0.645   2.146   1.932
 5172SOL    HW116415   0.662   2.167   2.029
 5172SOL    HW216416   0.558   2.185   1.905
 5173SOL     OW16417   5.315   4.626   6.021
 5173SOL    HW116418   5.344   4.639   6.116
 5173SOL    HW216419   5.383   4.572   5.972
 5174SOL     OW16420   2.066   4.281   2.848
 5174SOL    HW116421   2.032   4.334   2.770
 5174SOL    HW216422   2.076   4.340   2.927
 5175SOL     OW16423   2.375   3.729   0.061
 5175SOL    HW116424   2.412   3.787   0.134
 5175SOL    HW216425   2.325   3.787   7.016
 5176SOL     OW16426   4.883   3.107   6.435
 5176SOL    HW116427   4.904   3.054   6.517
 5176SOL    HW216428   4.790   3.086   6.405
 5177SOL     OW16429   4.974   0.179   0.048
 5177SOL    HW116430   5.040   0.205   6.998
 5177SOL    HW216431   4.932   0.091   0.024
 5178SOL     OW16432   1.486   3.692   1.462
 5178SOL    HW116433   1.517   3.629   1.392
 5178SOL    HW216434   1.397   3.729   1.437
 5179SOL     OW16435   3.892   6.266   3.959
 5179SOL    HW116436   3.888   6.346   4.019
 5179SOL    HW216437   3.876   6.183   4.012
 5180SOL     OW16438   2.941   2.903   0.498
 5180SOL    HW116439   2.853   2.886   0.452
 5180SOL    HW216440   2.954   2.837   0.572
 5181SOL     OW16441   5.529   2.052   2.224
 5181SOL    HW116442   5.627   2.060   2.243
 5181SOL    HW216443   5.487   2.143   2.224
 5182SOL     OW16444   3.884   4.466   1.577
 5182SOL    HW116445   3.968   4.517   1.591
 5182SOL    HW216446   3.846   4.489   1.487
 5183SOL     OW16447   4.112   1.569   2.595
 5183SOL    HW116448   4.063   1.656   2.594
 5183SOL    HW216449   4.158   1.556   2.507
 5184SOL     OW16450   0.333   2.405   4.529
 5184SOL    HW116451   0.354   2.478   4.594
 5184SOL    HW216452   0.383   2.420   4.444
 5185SOL     OW16453   5.362   1.176   2.483
 5185SOL    HW116454   5.320   1.207   2.568
 5185SOL    HW216455   5.350   1.077   2.474
 5186SOL     OW16456   6.213   3.122   0.301
 5186SOL    HW116457   6.150   3.161   0.235
 5186SOL    HW216458   6.307   3.149   0.278
 5187SOL     OW16459   0.214   0.302   3.835
 5187SOL    HW116460   0.272   0.329   3.911
 5187SOL    HW216461   0.141   0.369   3.823
 5188SOL     OW16462   0.541   6.139   0.352
 5188SOL    HW116463   0.635   6.124   0.321
 5188SOL    HW216464   0.541   6.160   0.450
 5189SOL     OW16465   4.772   4.924   0.659
 5189SOL    HW116466   4.679   4.903   0.628
 5189SOL    HW216467   4.799   4.858   0.729
 5190SOL     OW16468   0.092   2.836   4.059
 5190SOL    HW116469   0.165   2.810   4.122
 5190SOL    HW216470   0.119   2.919   4.010
 5191SOL     OW16471   3.938   0.499   1.622
 5191SOL    HW116472   4.035   0.505   1.646
 5191SOL    HW216473   3.918   0.564   1.548
 5192SOL     OW16474   2.751   5.274   2.941
 5192SOL    HW116475   2.745   5.220   3.025
 5192SOL    HW216476   2.676   5.250   2.880
 5193SOL     OW16477   5.134   4.371   4.346
 5193SOL    HW116478   5.192   4.452   4.337
 5193SOL    HW216479   5.083   4.375   4.431
 5194SOL     OW16480   3.542   1.207   0.509
 5194SOL    HW116481   3.617   1.200   0.443
 5194SOL    HW216482   3.481   1.281   0.482
 5195SOL     OW16483   5.939   5.956   4.440
 5195SOL    HW116484   5.988   5.899   4.505
 5195SOL    HW216485   5.852   5.986   4.481
 5196SOL     OW16486   2.559   4.403   0.866
 5196SOL    HW116487   2.459   4.402   0.864
 5196SOL    HW216488   2.594   4.323   0.818
 5197SOL     OW16489   2.223   5.625   5.077
 5197SOL    HW116490   2.263   5.711   5.045
 5197SOL    HW216491   2.195   5.635   5.172
 5198SOL     OW16492   4.202   6.641   3.381
 5198SOL    HW116493   4.166   6.724   3.424
 5198SOL    HW216494   4.272   6.601   3.441
 5199SOL     OW16495   1.192   6.359   0.270
 5199SOL    HW116496   1.285   6.325   0.258
 5199SOL    HW216497   1.193   6.445   0.320
 5200SOL     OW16498   1.360   1.693   5.230
 5200SOL    HW116499   1.443   1.685   5.285
 5200SOL    HW216500   1.317   1.782   5.248
 5201SOL     OW16501   6.142   6.303   4.549
 5201SOL    HW116502   6.217   6.361   4.517
 5201SOL    HW216503   6.084   6.276   4.472
 5202SOL     OW16504   5.829   4.371   5.694
 5202SOL    HW116505   5.910   4.395   5.642
 5202SOL    HW216506   5.794   4.452   5.741
 5203SOL     OW16507   2.172   0.826   0.081
 5203SOL    HW116508   2.127   0.915   0.088
 5203SOL    HW216509   2.220   0.807   0.166
 5204SOL     OW16510   4.448   6.756   6.857
 5204SOL    HW116511   4.433   6.675   6.914
 5204SOL    HW216512   4.411   6.837   6.904
 5205SOL     OW16513   6.853   5.889   0.311
 5205SOL    HW116514   6.853   5.830   0.230
 5205SOL    HW216515   6.863   5.834   0.393
 5206SOL     OW16516   0.350   4.567   0.151
 5206SOL    HW116517   0.442   4.529   0.143
 5206SOL    HW216518   0.352   4.664   0.127
 5207SOL     OW16519   1.260   6.854   3.938
 5207SOL    HW116520   1.269   6.940   3.887
 5207SOL    HW216521   1.230   6.874   4.031
 5208SOL     OW16522   5.217   2.154   0.113
 5208SOL    HW116523   5.245   2.194   0.026
 5208SOL    HW216524   5.235   2.220   0.187
 5209SOL     OW16525   5.749   0.453   1.430
 5209SOL    HW116526   5.679   0.419   1.493
 5209SOL    HW216527   5.761   0.551   1.444
 5210SOL     OW16528   4.655   3.224   0.480
 5210SOL    HW116529   4.623   3.201   0.572
 5210SOL    HW216530   4.750   3.252   0.483
 5211SOL     OW16531   4.215   1.917   5.401
 5211SOL    HW116532   4.155   1.978   5.454
 5211SOL    HW216533   4.244   1.963   5.317
 5212SOL     OW16534   1.032   3.615   0.741
 5212SOL    HW116535   1.117   3.563   0.746
 5212SOL    HW216536   0.968   3.569   0.681
 5213SOL     OW16537   4.309   3.319   0.969
 5213SOL    HW116538   4.316   3.390   1.039
 5213SOL    HW216539   4.225   3.267   0.981
 5214SOL     OW16540   5.317   2.745   6.104
 5214SOL    HW116541   5.381   2.817   6.132
 5214SOL    HW216542   5.363   2.657   6.104
 5215SOL     OW16543   0.867   4.919   4.110
 5215SOL    HW116544   0.848   5.012   4.143
 5215SOL    HW216545   0.840   4.853   4.179
 5216SOL     OW16546   4.221   4.402   1.509
 5216SOL    HW116547   4.160   4.341   1.560
 5216SOL    HW216548   4.209   4.386   1.411
 5217SOL     OW16549   3.723   5.650   4.550
 5217SOL    HW116550   3.777   5.566   4.545
 5217SOL    HW216551   3.626   5.627   4.552
 5218SOL     OW16552   0.615   1.246   1.418
 5218SOL    HW116553   0.595   1.311   1.345
 5218SOL    HW216554   0.668   1.170   1.381
 5219SOL     OW16555   3.559   1.581   5.057
 5219SOL    HW116556   3.576   1.679   5.042
 5219SOL    HW216557   3.605   1.552   5.141
 5220SOL     OW16558   1.225   6.016   2.732
 5220SOL    HW116559   1.245   5.975   2.643
 5220SOL    HW216560   1.276   5.966   2.803
 5221SOL     OW16561   6.243   1.550   3.016
 5221SOL    HW116562   6.249   1.551   3.116
 5221SOL    HW216563   6.325   1.507   2.978
 5222SOL     OW16564   3.567   6.489   2.325
 5222SOL    HW116565   3.650   6.455   2.371
 5222SOL    HW216566   3.505   6.412   2.308
 5223SOL     OW16567   6.776   2.607   6.976
 5223SOL    HW116568   6.830   2.555   0.022
 5223SOL    HW216569   6.794   2.705   6.988
 5224SOL     OW16570   6.546   3.470   4.434
 5224SOL    HW116571   6.600   3.487   4.352
 5224SOL    HW216572   6.449   3.469   4.411
 5225SOL     OW16573   6.878   1.060   3.913
 5225SOL    HW116574   6.878   1.095   4.007
 5225SOL    HW216575   6.871   1.137   3.850
 5226SOL     OW16576   6.858   6.985   4.598
 5226SOL    HW116577   6.765   7.019   4.605
 5226SOL    HW216578   6.867   6.900   4.649
 5227SOL     OW16579   0.499   4.078   5.348
 5227SOL    HW116580   0.483   4.000   5.286
 5227SOL    HW216581   0.587   4.065   5.395
 5228SOL     OW16582   0.370   2.391   6.893
 5228SOL    HW116583   0.451   2.385   6.836
 5228SOL    HW216584   0.398   2.403   6.989
 5229SOL     OW16585   2.793   6.714   0.472
 5229SOL    HW116586   2.821   6.775   0.547
 5229SOL    HW216587   2.793   6.620   0.504
 5230SOL     OW16588   6.873   6.147   1.970
 5230SOL    HW116589   6.879   6.168   1.873
 5230SOL    HW216590   6.936   6.206   2.021
 5231SOL     OW16591   4.275   2.343   3.832
 5231SOL    HW116592   4.184   2.317   3.863
 5231SOL    HW216593   4.275   2.351   3.732
 5232SOL     OW16594   1.095   3.720   6.023
 5232SOL    HW116595   1.149   3.703   6.106
 5232SOL    HW216596   1.115   3.812   5.988
 5233SOL     OW16597   3.915   1.230   2.542
 5233SOL    HW116598   3.918   1.218   2.443
 5233SOL    HW216599   4.008   1.230   2.578
 5234SOL     OW16600   2.938   2.464   6.009
 5234SOL    HW116601   2.938   2.498   6.103
 5234SOL    HW216602   2.893   2.531   5.949
 5235SOL     OW16603   1.861   2.697   0.884
 5235SOL    HW116604   1.909   2.712   0.971
 5235SOL    HW216605   1.867   2.601   0.858
 5236SOL     OW16606   4.044   5.888   2.229
 5236SOL    HW116607   4.049   5.945   2.147
 5236SOL    HW216608   4.048   5.792   2.203
 5237SOL     OW16609   0.760   0.935   4.832
 5237SOL    HW116610   0.667   0.968   4.812
 5237SOL    HW216611   0.823   1.012   4.831
 5238SOL     OW16612   1.007   4.903   0.647
 5238SOL    HW116613   0.962   4.901   0.736
 5238SOL    HW216614   0.966   4.974   0.590
 5239SOL     OW16615   3.656   2.528   6.171
 5239SOL    HW116616   3.749   2.547   6.138
 5239SOL    HW216617   3.608   2.473   6.103
 5240SOL     OW16618   3.410   2.132   5.148
 5240SOL    HW116619   3.381   2.065   5.080
 5240SOL    HW216620   3.340   2.203   5.157
 5241SOL     OW16621   0.203   5.746   4.432
 5241SOL    HW116622   0.233   5.840   4.449
 5241SOL    HW216623   0.262   5.683   4.482
 5242SOL     OW16624   6.487   0.182   1.064
 5242SOL    HW116625   6.450   0.235   0.987
 5242SOL    HW216626   6.525   0.245   1.132
 5243SOL     OW16627   1.846   5.924   1.698
 5243SOL    HW116628   1.906   6.002   1.714
 5243SOL    HW216629   1.759   5.939   1.745
 5244SOL     OW16630   3.436   4.621   6.372
 5244SOL    HW116631   3.413   4.524   6.379
 5244SOL    HW216632   3.371   4.666   6.310
 5245SOL     OW16633   4.046   4.277   0.415
 5245SOL    HW116634   3.968   4.282   0.354
 5245SOL    HW216635   4.107   4.355   0.400
 5246SOL     OW16636   6.057   2.612   1.234
 5246SOL    HW116637   5.962   2.599   1.263
 5246SOL    HW216638   6.059   2.646   1.140
 5247SOL     OW16639   2.789   0.422   6.478
 5247SOL    HW116640   2.753   0.442   6.569
 5247SOL    HW216641   2.888   0.436   6.478
 5248SOL     OW16642   6.287   1.869   2.753
 5248SOL    HW116643   6.336   1.934   2.694
 5248SOL    HW216644   6.352   1.825   2.815
 5249SOL     OW16645   0.596   5.334   6.360
 5249SOL    HW116646   0.650   5.256   6.393
 5249SOL    HW216647   0.559   5.313   6.270
 5250SOL     OW16648   2.084   6.207   6.845
 5250SOL    HW116649   2.016   6.140   6.874
 5250SOL    HW216650   2.038   6.291   6.818
 5251SOL     OW16651   0.720   3.720   7.004
 5251SOL    HW116652   0.647   3.667   0.029
 5251SOL    HW216653   0.707   3.717   6.905
 5252SOL     OW16654   2.587   5.960   0.559
 5252SOL    HW116655   2.626   6.040   0.515
 5252SOL    HW216656   2.523   5.988   0.631
 5253SOL     OW16657   6.983   3.811   4.821
 5253SOL    HW116658   6.944   3.903   4.811
 5253SOL    HW216659   0.007   3.803   4.910
 5254SOL     OW16660   5.228   1.169   2.738
 5254SOL    HW116661   5.170   1.093   2.707
 5254SOL    HW216662   5.179   1.223   2.806
 5255SOL     OW16663   5.784   2.269   4.623
 5255SOL    HW116664   5.813   2.357   4.661
 5255SOL    HW216665   5.785   2.274   4.523
 5256SOL     OW16666   5.049   1.708   3.808
 5256SOL    HW116667   5.037   1.773   3.733
 5256SOL    HW216668   5.043   1.756   3.896
 5257SOL     OW16669   5.477   6.865   2.042
 5257SOL    HW116670   5.481   6.953   2.088
 5257SOL    HW216671   5.417   6.870   1.963
 5258SOL     OW16672   5.795   2.903   1.609
 5258SOL    HW116673   5.705   2.945   1.600
 5258SOL    HW216674   5.865   2.966   1.573
 5259SOL     OW16675   5.002   6.496   2.174
 5259SOL    HW116676   4.992   6.593   2.196
 5259SOL    HW216677   4.914   6.450   2.182
 5260SOL     OW16678   5.297   3.535   1.027
 5260SOL    HW116679   5.266   3.630   1.021
 5260SOL    HW216680   5.219   3.474   1.027
 5261SOL     OW16681   0.340   3.843   5.789
 5261SOL    HW116682   0.427   3.884   5.817
 5261SOL    HW216683   0.342   3.823   5.691
 5262SOL     OW16684   2.342   1.182   4.086
 5262SOL    HW116685   2.375   1.262   4.038
 5262SOL    HW216686   2.290   1.210   4.167
 5263SOL     OW16687   1.742   1.061   3.276
 5263SOL    HW116688   1.734   1.146   3.224
 5263SOL    HW216689   1.666   1.054   3.341
 5264SOL     OW16690   0.132   2.091   1.749
 5264SOL    HW116691   0.180   2.106   1.836
 5264SOL    HW216692   0.046   2.143   1.750
 5265SOL     OW16693   6.253   4.037   4.003
 5265SOL    HW116694   6.195   3.980   3.945
 5265SOL    HW216695   6.273   4.123   3.956
 5266SOL     OW16696   3.465   5.037   6.813
 5266SOL    HW116697   3.423   4.986   6.738
 5266SOL    HW216698   3.527   4.976   6.863
 5267SOL     OW16699   5.278   2.753   5.245
 5267SOL    HW116700   5.256   2.787   5.153
 5267SOL    HW216701   5.203   2.774   5.307
 5268SOL     OW16702   5.377   1.535   0.442
 5268SOL    HW116703   5.390   1.513   0.539
 5268SOL    HW216704   5.425   1.468   0.386
 5269SOL     OW16705   0.666   6.099   2.937
 5269SOL    HW116706   0.680   6.022   2.876
 5269SOL    HW216707   0.752   6.122   2.983
 5270SOL     OW16708   5.849   1.140   1.322
 5270SOL    HW116709   5.921   1.072   1.305
 5270SOL    HW216710   5.789   1.106   1.395
 5271SOL     OW16711   6.533   5.417   5.988
 5271SOL    HW116712   6.501   5.353   5.918
 5271SOL    HW216713   6.623   5.453   5.962
 5272SOL     OW16714   3.015   6.023   2.010
 5272SOL    HW116715   3.014   6.080   2.092
 5272SOL    HW216716   2.940   6.049   1.949
 5273SOL     OW16717   0.138   3.011   3.705
 5273SOL    HW116718   0.150   2.929   3.650
 5273SOL    HW216719   0.069   3.070   3.663
 5274SOL     OW16720   5.818   0.102   2.498
 5274SOL    HW116721   5.739   0.070   2.550
 5274SOL    HW216722   5.869   0.024   2.462
 5275SOL     OW16723   3.807   1.697   0.890
 5275SOL    HW116724   3.846   1.607   0.872
 5275SOL    HW216725   3.818   1.719   0.987
 5276SOL     OW16726   1.748   6.973   0.981
 5276SOL    HW116727   1.683   0.021   0.947
 5276SOL    HW216728   1.794   6.929   0.904
 5277SOL     OW16729   2.538   1.106   2.199
 5277SOL    HW116730   2.579   1.077   2.286
 5277SOL    HW216731   2.608   1.146   2.141
 5278SOL     OW16732   5.722   6.688   3.648
 5278SOL    HW116733   5.715   6.665   3.551
 5278SOL    HW216734   5.810   6.656   3.684
 5279SOL     OW16735   2.491   5.244   6.224
 5279SOL    HW116736   2.488   5.153   6.265
 5279SOL    HW216737   2.573   5.252   6.167
 5280SOL     OW16738   2.852   5.566   4.812
 5280SOL    HW116739   2.929   5.503   4.808
 5280SOL    HW216740   2.784   5.532   4.877
 5281SOL     OW16741   0.606   2.077   2.435
 5281SOL    HW116742   0.607   2.146   2.508
 5281SOL    HW216743   0.637   1.989   2.473
 5282SOL     OW16744   3.116   1.358   4.008
 5282SOL    HW116745   3.064   1.273   3.999
 5282SOL    HW216746   3.069   1.419   4.073
 5283SOL     OW16747   4.457   6.460   1.133
 5283SOL    HW116748   4.364   6.451   1.167
 5283SOL    HW216749   4.514   6.503   1.203
 5284SOL     OW16750   4.730   4.180   3.359
 5284SOL    HW116751   4.677   4.255   3.398
 5284SOL    HW216752   4.737   4.192   3.260
 5285SOL     OW16753   2.196   4.612   3.964
 5285SOL    HW116754   2.256   4.533   3.979
 5285SOL    HW216755   2.245   4.696   3.988
 5286SOL     OW16756   1.891   4.920   0.315
 5286SOL    HW116757   1.834   4.957   0.241
 5286SOL    HW216758   1.946   4.845   0.279
 5287SOL     OW16759   3.287   0.099   0.140
 5287SOL    HW116760   3.246   0.191   0.145
 5287SOL    HW216761   3.214   0.030   0.144
 5288SOL     OW16762   3.066   6.970   2.002
 5288SOL    HW116763   3.010   6.902   2.050
 5288SOL    HW216764   3.086   0.026   2.064
 5289SOL     OW16765   2.235   5.297   6.682
 5289SOL    HW116766   2.310   5.242   6.720
 5289SOL    HW216767   2.195   5.354   6.754
 5290SOL     OW16768   2.348   6.069   4.713
 5290SOL    HW116769   2.344   6.168   4.730
 5290SOL    HW216770   2.293   6.021   4.781
 5291SOL     OW16771   2.580   5.712   5.884
 5291SOL    HW116772   2.579   5.678   5.979
 5291SOL    HW216773   2.594   5.635   5.822
 5292SOL     OW16774   6.343   3.282   6.470
 5292SOL    HW116775   6.270   3.261   6.404
 5292SOL    HW216776   6.432   3.264   6.428
 5293SOL     OW16777   0.324   0.890   4.925
 5293SOL    HW116778   0.246   0.948   4.947
 5293SOL    HW216779   0.377   0.932   4.851
 5294SOL     OW16780   4.399   3.534   5.714
 5294SOL    HW116781   4.335   3.604   5.685
 5294SOL    HW216782   4.452   3.568   5.792
 5295SOL     OW16783   6.347   0.730   2.602
 5295SOL    HW116784   6.385   0.715   2.511
 5295SOL    HW216785   6.281   0.804   2.599
 5296SOL     OW16786   2.174   5.662   6.800
 5296SOL    HW116787   2.101   5.705   6.748
 5296SOL    HW216788   2.140   5.580   6.844
 5297SOL     OW16789   1.971   2.100   1.341
 5297SOL    HW116790   1.909   2.060   1.409
 5297SOL    HW216791   2.062   2.110   1.381
 5298SOL     OW16792   0.159   5.878   1.389
 5298SOL    HW116793   0.126   5.785   1.405
 5298SOL    HW216794   0.242   5.894   1.443
 5299SOL     OW16795   2.943   1.802   0.266
 5299SOL    HW116796   2.978   1.869   0.200
 5299SOL    HW216797   3.018   1.744   0.297
 5300SOL     OW16798   0.118   5.627   2.719
 5300SOL    HW116799   0.211   5.637   2.686
 5300SOL    HW216800   0.070   5.557   2.665
 5301SOL     OW16801   4.474   1.535   0.453
 5301SOL    HW116802   4.557   1.578   0.418
 5301SOL    HW216803   4.490   1.500   0.545
 5302SOL     OW16804   5.441   5.207   3.256
 5302SOL    HW116805   5.409   5.133   3.316
 5302SOL    HW216806   5.395   5.199   3.167
 5303SOL     OW16807   0.204   6.654   4.079
 5303SOL    HW116808   0.237   6.720   4.012
 5303SOL    HW216809   0.250   6.566   4.065
 5304SOL     OW16810   6.405   2.409   5.831
 5304SOL    HW116811   6.465   2.418   5.751
 5304SOL    HW216812   6.310   2.424   5.804
 5305SOL     OW16813   1.438   6.744   4.237
 5305SOL    HW116814   1.525   6.707   4.206
 5305SOL    HW216815   1.437   6.748   4.337
 5306SOL     OW16816   1.591   6.224   4.607
 5306SOL    HW116817   1.523   6.187   4.544
 5306SOL    HW216818   1.640   6.149   4.651
 5307SOL     OW16819   4.195   6.519   6.817
 5307SOL    HW116820   4.249   6.548   6.896
 5307SOL    HW216821   4.104   6.561   6.822
 5308SOL     OW16822   0.608   0.303   4.582
 5308SOL    HW116823   0.628   0.210   4.611
 5308SOL    HW216824   0.684   0.363   4.607
 5309SOL     OW16825   3.358   4.053   3.186
 5309SOL    HW116826   3.314   4.132   3.144
 5309SOL    HW216827   3.436   4.025   3.129
 5310SOL     OW16828   5.172   2.775   2.271
 5310SOL    HW116829   5.132   2.735   2.188
 5310SOL    HW216830   5.132   2.865   2.287
 5311SOL     OW16831   0.347   5.963   0.418
 5311SOL    HW116832   0.289   5.939   0.340
 5311SOL    HW216833   0.413   6.032   0.390
 5312SOL     OW16834   6.866   4.512   2.082
 5312SOL    HW116835   6.866   4.529   1.984
 5312SOL    HW216836   6.958   4.486   2.112
 5313SOL     OW16837   1.021   5.245   7.018
 5313SOL    HW116838   1.075   5.329   0.007
 5313SOL    HW216839   0.960   5.253   6.940
 5314SOL     OW16840   4.746   4.954   1.175
 5314SOL    HW116841   4.667   4.916   1.126
 5314SOL    HW216842   4.732   4.943   1.274
 5315SOL     OW16843   4.362   4.553   1.920
 5315SOL    HW116844   4.396   4.460   1.930
 5315SOL    HW216845   4.304   4.560   1.839
 5316SOL     OW16846   6.186   5.158   4.612
 5316SOL    HW116847   6.193   5.094   4.535
 5316SOL    HW216848   6.225   5.246   4.586
 5317SOL     OW16849   5.992   1.333   4.652
 5317SOL    HW116850   5.907   1.302   4.694
 5317SOL    HW216851   6.032   1.257   4.599
 5318SOL     OW16852   6.992   1.832   5.396
 5318SOL    HW116853   7.014   1.905   5.331
 5318SOL    HW216854   0.048   1.767   5.401
 5319SOL     OW16855   4.866   6.690   7.008
 5319SOL    HW116856   4.864   6.783   6.971
 5319SOL    HW216857   4.926   6.687   0.068
 5320SOL     OW16858   5.682   5.213   6.587
 5320SOL    HW116859   5.720   5.144   6.525
 5320SOL    HW216860   5.717   5.198   6.679
 5321SOL     OW16861   0.895   5.246   2.670
 5321SOL    HW116862   0.834   5.280   2.742
 5321SOL    HW216863   0.841   5.219   2.591
 5322SOL     OW16864   3.666   0.019   6.125
 5322SOL    HW116865   3.757   7.000   6.141
 5322SOL    HW216866   3.610   6.973   6.075
 5323SOL     OW16867   3.836   3.185   1.159
 5323SOL    HW116868   3.753   3.134   1.135
 5323SOL    HW216869   3.915   3.124   1.151
 5324SOL     OW16870   3.753   2.383   1.538
 5324SOL    HW116871   3.685   2.315   1.509
 5324SOL    HW216872   3.707   2.456   1.589
 5325SOL     OW16873   5.524   6.816   3.408
 5325SOL    HW116874   5.495   6.911   3.391
 5325SOL    HW216875   5.474   6.780   3.487
 5326SOL     OW16876   6.181   5.395   2.905
 5326SOL    HW116877   6.279   5.405   2.921
 5326SOL    HW216878   6.155   5.442   2.821
 5327SOL     OW16879   0.585   6.025   5.888
 5327SOL    HW116880   0.584   6.118   5.850
 5327SOL    HW216881   0.514   5.971   5.843
 5328SOL     OW16882   3.691   2.070   5.672
 5328SOL    HW116883   3.724   2.071   5.766
 5328SOL    HW216884   3.591   2.072   5.672
 5329SOL     OW16885   0.266   3.639   0.015
 5329SOL    HW116886   0.174   3.614   7.004
 5329SOL    HW216887   0.307   3.703   6.970
 5330SOL     OW16888   3.175   3.916   6.489
 5330SOL    HW116889   3.251   3.960   6.442
 5330SOL    HW216890   3.129   3.852   6.427
 5331SOL     OW16891   5.372   1.393   1.316
 5331SOL    HW116892   5.438   1.319   1.332
 5331SOL    HW216893   5.399   1.473   1.369
 5332SOL     OW16894   6.220   4.147   0.060
 5332SOL    HW116895   6.300   4.090   0.042
 5332SOL    HW216896   6.248   4.231   0.105
 5333SOL     OW16897   1.230   0.683   3.517
 5333SOL    HW116898   1.145   0.731   3.537
 5333SOL    HW216899   1.213   0.584   3.513
 5334SOL     OW16900   4.446   5.039   5.036
 5334SOL    HW116901   4.442   5.086   4.948
 5334SOL    HW216902   4.480   4.946   5.022
 5335SOL     OW16903   0.120   4.490   1.968
 5335SOL    HW116904   0.169   4.458   2.049
 5335SOL    HW216905   0.184   4.529   1.903
 5336SOL     OW16906   2.667   1.812   3.568
 5336SOL    HW116907   2.735   1.740   3.576
 5336SOL    HW216908   2.587   1.777   3.518
 5337SOL     OW16909   5.903   4.981   2.358
 5337SOL    HW116910   5.912   4.882   2.357
 5337SOL    HW216911   5.991   5.023   2.382
 5338SOL     OW16912   5.775   2.336   6.735
 5338SOL    HW116913   5.712   2.401   6.693
 5338SOL    HW216914   5.852   2.320   6.673
 5339SOL     OW16915   5.551   1.964   1.844
 5339SOL    HW116916   5.616   1.923   1.780
 5339SOL    HW216917   5.458   1.940   1.816
 5340SOL     OW16918   5.445   3.574   1.434
 5340SOL    HW116919   5.442   3.608   1.528
 5340SOL    HW216920   5.374   3.504   1.422
 5341SOL     OW16921   3.968   4.868   4.626
 5341SOL    HW116922   3.921   4.923   4.695
 5341SOL    HW216923   3.992   4.779   4.665
 5342SOL     OW16924   4.689   6.286   4.891
 5342SOL    HW116925   4.727   6.195   4.906
 5342SOL    HW216926   4.720   6.347   4.964
 5343SOL     OW16927   3.708   3.492   5.021
 5343SOL    HW116928   3.646   3.477   5.098
 5343SOL    HW216929   3.657   3.527   4.943
 5344SOL     OW16930   0.564   1.521   0.005
 5344SOL    HW116931   0.531   1.576   6.949
 5344SOL    HW216932   0.591   1.431   6.992
 5345SOL     OW16933   5.055   0.773   6.848
 5345SOL    HW116934   4.988   0.836   6.808
 5345SOL    HW216935   5.020   0.680   6.844
 5346SOL     OW16936   2.920   4.932   4.376
 5346SOL    HW116937   2.895   4.861   4.310
 5346SOL    HW216938   2.977   5.001   4.331
 5347SOL     OW16939   0.085   3.488   3.636
 5347SOL    HW116940   0.160   3.516   3.577
 5347SOL    HW216941   7.019   3.522   3.599
 5348SOL     OW16942   0.239   1.378   5.742
 5348SOL    HW116943   0.168   1.447   5.759
 5348SOL    HW216944   0.225   1.339   5.651
 5349SOL     OW16945   2.559   3.243   1.663
 5349SOL    HW116946   2.569   3.330   1.616
 5349SOL    HW216947   2.614   3.243   1.747
 5350SOL     OW16948   2.305   6.415   5.726
 5350SOL    HW116949   2.385   6.474   5.711
 5350SOL    HW216950   2.234   6.438   5.660
 5351SOL     OW16951   0.176   4.774   1.547
 5351SOL    HW116952   0.224   4.720   1.617
 5351SOL    HW216953   0.176   4.870   1.574
 5352SOL     OW16954   2.020   4.101   3.181
 5352SOL    HW116955   2.001   4.009   3.147
 5352SOL    HW216956   2.099   4.139   3.134
 5353SOL     OW16957   3.623   5.139   3.373
 5353SOL    HW116958   3.608   5.172   3.466
 5353SOL    HW216959   3.698   5.073   3.374
 5354SOL     OW16960   2.995   3.997   6.698
 5354SOL    HW116961   2.905   4.016   6.738
 5354SOL    HW216962   2.998   3.903   6.664
 5355SOL     OW16963   5.096   4.681   4.802
 5355SOL    HW116964   5.162   4.734   4.750
 5355SOL    HW216965   5.012   4.668   4.748
 5356SOL     OW16966   6.845   3.648   1.941
 5356SOL    HW116967   6.871   3.558   1.907
 5356SOL    HW216968   6.769   3.683   1.887
 5357SOL     OW16969   4.155   4.690   1.374
 5357SOL    HW116970   4.212   4.738   1.308
 5357SOL    HW216971   4.213   4.651   1.445
 5358SOL     OW16972   4.494   1.976   0.950
 5358SOL    HW116973   4.584   1.934   0.937
 5358SOL    HW216974   4.432   1.946   0.878
 5359SOL     OW16975   2.108   1.899   6.816
 5359SOL    HW116976   2.017   1.858   6.809
 5359SOL    HW216977   2.122   1.935   6.909
 5360SOL     OW16978   5.369   5.674   3.358
 5360SOL    HW116979   5.447   5.731   3.333
 5360SOL    HW216980   5.309   5.725   3.420
 5361SOL     OW16981   2.057   6.583   3.599
 5361SOL    HW116982   2.015   6.655   3.654
 5361SOL    HW216983   1.992   6.507   3.589
 5362SOL     OW16984   6.218   6.915   2.799
 5362SOL    HW116985   6.256   6.877   2.714
 5362SOL    HW216986   6.119   6.899   2.801
 5363SOL     OW16987   5.287   6.386   5.024
 5363SOL    HW116988   5.242   6.476   5.026
 5363SOL    HW216989   5.240   6.324   5.087
 5364SOL     OW16990   5.842   0.503   2.480
 5364SOL    HW116991   5.837   0.446   2.398
 5364SOL    HW216992   5.767   0.480   2.542
 5365SOL     OW16993   3.102   3.454   2.360
 5365SOL    HW116994   3.016   3.462   2.310
 5365SOL    HW216995   3.083   3.420   2.453
 5366SOL     OW16996   6.856   0.643   2.247
 5366SOL    HW116997   6.900   0.553   2.241
 5366SOL    HW216998   6.910   0.710   2.197
 5367SOL     OW16999   6.777   0.352   1.008
 5367SOL    HW117000   6.858   0.405   1.034
 5367SOL    HW217001   6.710   0.355   1.082
 5368SOL     OW17002   6.703   6.056   2.152
 5368SOL    HW117003   6.612   6.045   2.112
 5368SOL    HW217004   6.763   6.104   2.088
 5369SOL     OW17005   2.846   5.737   1.762
 5369SOL    HW117006   2.892   5.660   1.806
 5369SOL    HW217007   2.880   5.747   1.669
 5370SOL     OW17008   4.457   3.505   1.613
 5370SOL    HW117009   4.409   3.577   1.564
 5370SOL    HW217010   4.468   3.425   1.554
 5371SOL     OW17011   6.957   5.346   5.483
 5371SOL    HW117012   0.006   5.274   5.471
 5371SOL    HW217013   7.002   5.435   5.482
 5372SOL     OW17014   1.385   6.624   2.819
 5372SOL    HW117015   1.345   6.716   2.815
 5372SOL    HW217016   1.448   6.618   2.897
 5373SOL     OW17017   3.686   0.094   5.762
 5373SOL    HW117018   3.629   0.018   5.794
 5373SOL    HW217019   3.694   0.162   5.835
 5374SOL     OW17020   2.343   4.386   1.172
 5374SOL    HW117021   2.408   4.313   1.194
 5374SOL    HW217022   2.346   4.404   1.074
 5375SOL     OW17023   0.753   5.655   5.590
 5375SOL    HW117024   0.701   5.570   5.600
 5375SOL    HW217025   0.715   5.708   5.514
 5376SOL     OW17026   1.170   2.310   1.503
 5376SOL    HW117027   1.176   2.400   1.545
 5376SOL    HW217028   1.100   2.311   1.431
 5377SOL     OW17029   1.338   1.084   3.059
 5377SOL    HW117030   1.280   1.081   2.978
 5377SOL    HW217031   1.297   1.030   3.132
 5378SOL     OW17032   6.719   0.491   1.593
 5378SOL    HW117033   6.714   0.550   1.673
 5378SOL    HW217034   6.811   0.498   1.552
 5379SOL     OW17035   1.287   3.494   5.415
 5379SOL    HW117036   1.276   3.396   5.432
 5379SOL    HW217037   1.354   3.532   5.479
 5380SOL     OW17038   3.389   6.879   1.325
 5380SOL    HW117039   3.375   6.921   1.414
 5380SOL    HW217040   3.487   6.868   1.309
 5381SOL     OW17041   6.144   5.942   2.788
 5381SOL    HW117042   6.177   5.978   2.700
 5381SOL    HW217043   6.106   6.016   2.842
 5382SOL     OW17044   3.137   2.114   2.529
 5382SOL    HW117045   3.086   2.173   2.467
 5382SOL    HW217046   3.079   2.035   2.554
 5383SOL     OW17047   1.559   3.258   4.779
 5383SOL    HW117048   1.552   3.165   4.742
 5383SOL    HW217049   1.619   3.257   4.859
 5384SOL     OW17050   4.767   5.523   4.635
 5384SOL    HW117051   4.846   5.472   4.604
 5384SOL    HW217052   4.686   5.463   4.635
 5385SOL     OW17053   6.131   2.931   4.665
 5385SOL    HW117054   6.187   2.937   4.747
 5385SOL    HW217055   6.156   3.006   4.603
 5386SOL     OW17056   6.187   1.535   3.858
 5386SOL    HW117057   6.233   1.458   3.904
 5386SOL    HW217058   6.096   1.547   3.896
 5387SOL     OW17059   2.968   6.436   3.639
 5387SOL    HW117060   2.937   6.415   3.732
 5387SOL    HW217061   2.998   6.351   3.595
 5388SOL     OW17062   1.673   6.433   3.137
 5388SOL    HW117063   1.591   6.490   3.139
 5388SOL    HW217064   1.751   6.488   3.106
 5389SOL     OW17065   4.280   2.252   4.477
 5389SOL    HW117066   4.239   2.256   4.568
 5389SOL    HW217067   4.208   2.253   4.407
 5390SOL     OW17068   5.119   4.032   4.123
 5390SOL    HW117069   5.138   4.070   4.214
 5390SOL    HW217070   5.187   3.963   4.100
 5391SOL     OW17071   3.098   1.940   0.076
 5391SOL    HW117072   3.061   2.031   0.057
 5391SOL    HW217073   3.196   1.947   0.096
 5392SOL     OW17074   4.908   3.321   2.613
 5392SOL    HW117075   5.000   3.357   2.630
 5392SOL    HW217076   4.885   3.331   2.517
 5393SOL     OW17077   4.664   0.844   5.781
 5393SOL    HW117078   4.590   0.825   5.717
 5393SOL    HW217079   4.717   0.761   5.796
 5394SOL     OW17080   0.629   6.131   0.884
 5394SOL    HW117081   0.549   6.086   0.924
 5394SOL    HW217082   0.710   6.112   0.939
 5395SOL     OW17083   4.791   1.285   1.063
 5395SOL    HW117084   4.885   1.255   1.051
 5395SOL    HW217085   4.770   1.296   1.160
 5396SOL     OW17086   5.234   5.499   2.124
 5396SOL    HW117087   5.322   5.546   2.128
 5396SOL    HW217088   5.171   5.553   2.067
 5397SOL     OW17089   6.871   2.141   1.745
 5397SOL    HW117090   6.861   2.069   1.676
 5397SOL    HW217091   6.782   2.165   1.782
 5398SOL     OW17092   3.777   2.072   3.710
 5398SOL    HW117093   3.704   2.051   3.645
 5398SOL    HW217094   3.745   2.053   3.803
 5399SOL     OW17095   2.651   6.661   6.036
 5399SOL    HW117096   2.621   6.702   6.122
 5399SOL    HW217097   2.670   6.733   5.970
 5400SOL     OW17098   3.221   3.523   1.178
 5400SOL    HW117099   3.191   3.563   1.264
 5400SOL    HW217100   3.257   3.595   1.119
 5401SOL     OW17101   5.429   4.238   2.842
 5401SOL    HW117102   5.335   4.222   2.873
 5401SOL    HW217103   5.465   4.154   2.801
 5402SOL     OW17104   3.211   6.316   0.959
 5402SOL    HW117105   3.112   6.328   0.958
 5402SOL    HW217106   3.236   6.238   0.900
 5403SOL     OW17107   5.013   3.337   6.442
 5403SOL    HW117108   4.969   3.412   6.392
 5403SOL    HW217109   4.957   3.254   6.433
 5404SOL     OW17110   0.869   0.349   0.897
 5404SOL    HW117111   0.918   0.335   0.811
 5404SOL    HW217112   0.903   0.432   0.941
 5405SOL     OW17113   6.004   4.965   0.082
 5405SOL    HW117114   6.083   4.949   0.022
 5405SOL    HW217115   6.018   5.050   0.132
 5406SOL     OW17116   1.836   0.838   5.177
 5406SOL    HW117117   1.774   0.911   5.208
 5406SOL    HW217118   1.854   0.776   5.253
 5407SOL     OW17119   2.938   1.435   0.936
 5407SOL    HW117120   2.917   1.376   0.858
 5407SOL    HW217121   3.036   1.457   0.935
 5408SOL     OW17122   3.178   1.639   4.650
 5408SOL    HW117123   3.214   1.696   4.724
 5408SOL    HW217124   3.095   1.593   4.681
 5409SOL     OW17125   6.512   1.701   2.285
 5409SOL    HW117126   6.559   1.623   2.242
 5409SOL    HW217127   6.580   1.771   2.308
 5410SOL     OW17128   0.600   3.193   0.020
 5410SOL    HW117129   0.593   3.242   0.107
 5410SOL    HW217130   0.574   3.098   0.033
 5411SOL     OW17131   5.268   4.344   6.882
 5411SOL    HW117132   5.313   4.429   6.910
 5411SOL    HW217133   5.278   4.275   6.954
 5412SOL     OW17134   2.105   1.363   6.449
 5412SOL    HW117135   2.182   1.302   6.469
 5412SOL    HW217136   2.020   1.317   6.472
 5413SOL     OW17137   6.924   6.907   6.004
 5413SOL    HW117138   6.991   6.950   6.065
 5413SOL    HW217139   6.863   6.848   6.057
 5414SOL     OW17140   6.176   4.593   5.621
 5414SOL    HW117141   6.182   4.642   5.534
 5414SOL    HW217142   6.124   4.509   5.608
 5415SOL     OW17143   2.875   5.687   0.457
 5415SOL    HW117144   2.934   5.616   0.418
 5415SOL    HW217145   2.880   5.684   0.556
 5416SOL     OW17146   2.944   5.298   5.087
 5416SOL    HW117147   2.965   5.233   5.160
 5416SOL    HW217148   2.855   5.276   5.046
 5417SOL     OW17149   3.862   6.878   4.127
 5417SOL    HW117150   3.867   6.789   4.174
 5417SOL    HW217151   3.864   6.863   4.028
 5418SOL     OW17152   5.432   5.314   4.691
 5418SOL    HW117153   5.333   5.298   4.693
 5418SOL    HW217154   5.480   5.230   4.716
 5419SOL     OW17155   4.258   6.483   0.271
 5419SOL    HW117156   4.292   6.486   0.366
 5419SOL    HW217157   4.207   6.399   0.256
 5420SOL     OW17158   1.860   2.066   0.939
 5420SOL    HW117159   1.786   2.123   0.975
 5420SOL    HW217160   1.842   1.970   0.960
 5421SOL     OW17161   3.184   5.576   1.885
 5421SOL    HW117162   3.124   5.586   1.964
 5421SOL    HW217163   3.129   5.562   1.802
 5422SOL     OW17164   1.759   5.607   4.108
 5422SOL    HW117165   1.790   5.520   4.070
 5422SOL    HW217166   1.669   5.595   4.150
 5423SOL     OW17167   6.340   5.066   1.427
 5423SOL    HW117168   6.250   5.055   1.386
 5423SOL    HW217169   6.337   5.041   1.524
 5424SOL     OW17170   4.903   3.706   3.970
 5424SOL    HW117171   4.900   3.618   3.923
 5424SOL    HW217172   4.892   3.691   4.069
 5425SOL     OW17173   6.762   3.076   4.762
 5425SOL    HW117174   6.762   3.044   4.667
 5425SOL    HW217175   6.731   3.171   4.765
 5426SOL     OW17176   4.317   5.555   2.331
 5426SOL    HW117177   4.247   5.486   2.352
 5426SOL    HW217178   4.304   5.635   2.390
 5427SOL     OW17179   4.818   2.743   6.886
 5427SOL    HW117180   4.832   2.662   6.942
 5427SOL    HW217181   4.807   2.823   6.945
 5428SOL     OW17182   5.099   6.392   2.633
 5428SOL    HW117183   5.049   6.457   2.577
 5428SOL    HW217184   5.127   6.314   2.577
 5429SOL     OW17185   2.564   6.755   5.184
 5429SOL    HW117186   2.525   6.798   5.102
 5429SOL    HW217187   2.492   6.739   5.251
 5430SOL     OW17188   1.819   2.835   5.797
 5430SOL    HW117189   1.848   2.740   5.780
 5430SOL    HW217190   1.751   2.861   5.728
 5431SOL     OW17191   3.589   4.831   6.479
 5431SOL    HW117192   3.651   4.881   6.417
 5431SOL    HW217193   3.550   4.753   6.430
 5432SOL     OW17194   5.620   5.421   0.346
 5432SOL    HW117195   5.627   5.333   0.299
 5432SOL    HW217196   5.548   5.415   0.416
 5433SOL     OW17197   1.226   7.000   1.114
 5433SOL    HW117198   1.309   6.948   1.133
 5433SOL    HW217199   1.220   7.018   1.016
 5434SOL     OW17200   4.858   1.202   5.057
 5434SOL    HW117201   4.889   1.253   4.977
 5434SOL    HW217202   4.849   1.105   5.035
 5435SOL     OW17203   6.216   3.661   1.057
 5435SOL    HW117204   6.148   3.731   1.039
 5435SOL    HW217205   6.173   3.585   1.106
 5436SOL     OW17206   0.194   5.469   4.256
 5436SOL    HW117207   0.235   5.503   4.340
 5436SOL    HW217208   0.109   5.421   4.278
 5437SOL     OW17209   3.563   4.557   5.799
 5437SOL    HW117210   3.506   4.630   5.838
 5437SOL    HW217211   3.519   4.469   5.813
 5438SOL     OW17212   5.464   4.999   2.328
 5438SOL    HW117213   5.411   5.028   2.407
 5438SOL    HW217214   5.403   4.958   2.260
 5439SOL     OW17215   1.500   4.004   0.098
 5439SOL    HW117216   1.408   4.035   0.122
 5439SOL    HW217217   1.510   4.004   7.019
 5440SOL     OW17218   5.617   6.827   3.160
 5440SOL    HW117219   5.534   6.857   3.112
 5440SOL    HW217220   5.604   6.837   3.259
 5441SOL     OW17221   5.288   3.443   3.472
 5441SOL    HW117222   5.324   3.378   3.539
 5441SOL    HW217223   5.351   3.451   3.395
 5442SOL     OW17224   3.537   0.290   3.210
 5442SOL    HW117225   3.627   0.310   3.248
 5442SOL    HW217226   3.466   0.332   3.266
 5443SOL     OW17227   4.509   6.720   3.875
 5443SOL    HW117228   4.604   6.688   3.876
 5443SOL    HW217229   4.462   6.686   3.956
 5444SOL     OW17230   0.023   1.985   3.940
 5444SOL    HW117231   6.949   1.970   3.971
 5444SOL    HW217232   0.082   2.003   4.018
 5445SOL     OW17233   4.935   4.293   4.125
 5445SOL    HW117234   4.876   4.374   4.121
 5445SOL    HW217235   5.008   4.308   4.192
 5446SOL     OW17236   6.364   4.639   4.638
 5446SOL    HW117237   6.374   4.738   4.638
 5446SOL    HW217238   6.371   4.605   4.544
 5447SOL     OW17239   2.588   1.673   0.719
 5447SOL    HW117240   2.608   1.631   0.631
 5447SOL    HW217241   2.492   1.702   0.722
 5448SOL     OW17242   4.715   5.395   3.883
 5448SOL    HW117243   4.747   5.452   3.958
 5448SOL    HW217244   4.719   5.446   3.797
 5449SOL     OW17245   2.405   1.299   1.900
 5449SOL    HW117246   2.475   1.287   1.829
 5449SOL    HW217247   2.357   1.213   1.915
 5450SOL     OW17248   3.842   6.157   0.900
 5450SOL    HW117249   3.787   6.234   0.933
 5450SOL    HW217250   3.856   6.092   0.975
 5451SOL     OW17251   1.632   6.384   3.545
 5451SOL    HW117252   1.607   6.288   3.532
 5451SOL    HW217253   1.574   6.442   3.488
 5452SOL     OW17254   2.306   4.343   0.840
 5452SOL    HW117255   2.284   4.249   0.865
 5452SOL    HW217256   2.226   4.387   0.800
 5453SOL     OW17257   5.213   4.212   1.902
 5453SOL    HW117258   5.127   4.259   1.920
 5453SOL    HW217259   5.257   4.251   1.821
 5454SOL     OW17260   5.514   6.474   1.804
 5454SOL    HW117261   5.510   6.483   1.903
 5454SOL    HW217262   5.559   6.554   1.764
 5455SOL     OW17263   0.446   1.488   3.279
 5455SOL    HW117264   0.399   1.502   3.366
 5455SOL    HW217265   0.383   1.506   3.203
 5456SOL     OW17266   4.250   1.203   6.880
 5456SOL    HW117267   4.204   1.137   6.820
 5456SOL    HW217268   4.195   1.216   6.963
 5457SOL     OW17269   6.344   1.641   0.385
 5457SOL    HW117270   6.370   1.556   0.431
 5457SOL    HW217271   6.340   1.716   0.451
 5458SOL     OW17272   0.144   5.083   1.345
 5458SOL    HW117273   0.167   5.076   1.442
 5458SOL    HW217274   0.107   4.996   1.313
 5459SOL     OW17275   1.810   4.495   4.935
 5459SOL    HW117276   1.751   4.415   4.925
 5459SOL    HW217277   1.889   4.486   4.875
 5460SOL     OW17278   2.520   0.599   1.649
 5460SOL    HW117279   2.568   0.633   1.729
 5460SOL    HW217280   2.427   0.572   1.675
 5461SOL     OW17281   1.199   1.278   5.252
 5461SOL    HW117282   1.191   1.375   5.229
 5461SOL    HW217283   1.205   1.268   5.351
 5462SOL     OW17284   5.191   6.224   6.886
 5462SOL    HW117285   5.216   6.208   6.790
 5462SOL    HW217286   5.269   6.262   6.935
 5463SOL     OW17287   6.609   1.838   6.616
 5463SOL    HW117288   6.523   1.807   6.576
 5463SOL    HW217289   6.590   1.887   6.701
 5464SOL     OW17290   6.635   5.521   5.397
 5464SOL    HW117291   6.565   5.545   5.465
 5464SOL    HW217292   6.711   5.586   5.405
 5465SOL     OW17293   6.949   6.998   2.856
 5465SOL    HW117294   6.935   6.919   2.796
 5465SOL    HW217295   0.006   0.032   2.824
 5466SOL     OW17296   6.177   2.778   5.563
 5466SOL    HW117297   6.078   2.761   5.565
 5466SOL    HW217298   6.222   2.703   5.515
 5467SOL     OW17299   5.636   4.103   3.646
 5467SOL    HW117300   5.720   4.106   3.593
 5467SOL    HW217301   5.559   4.082   3.586
 5468SOL     OW17302   6.905   2.485   4.109
 5468SOL    HW117303   6.967   2.543   4.161
 5468SOL    HW217304   6.955   2.407   4.071
 5469SOL     OW17305   2.995   6.296   6.203
 5469SOL    HW117306   3.016   6.229   6.273
 5469SOL    HW217307   3.075   6.354   6.187
 5470SOL     OW17308   3.985   5.536   3.409
 5470SOL    HW117309   3.890   5.567   3.404
 5470SOL    HW217310   3.996   5.476   3.488
 5471SOL     OW17311   5.546   0.057   2.177
 5471SOL    HW117312   5.645   0.071   2.188
 5471SOL    HW217313   5.498   0.138   2.209
 5472SOL     OW17314   3.414   3.299   6.485
 5472SOL    HW117315   3.405   3.374   6.419
 5472SOL    HW217316   3.326   3.254   6.495
 5473SOL     OW17317   2.211   4.432   0.424
 5473SOL    HW117318   2.255   4.497   0.485
 5473SOL    HW217319   2.278   4.398   0.358
 5474SOL     OW17320   0.458   6.074   4.010
 5474SOL    HW117321   0.468   5.976   3.991
 5474SOL    HW217322   0.362   6.101   3.997
 5475SOL     OW17323   1.575   2.075   0.734
 5475SOL    HW117324   1.608   2.164   0.704
 5475SOL    HW217325   1.554   2.078   0.832
 5476SOL     OW17326   2.645   5.070   5.269
 5476SOL    HW117327   2.582   5.125   5.215
 5476SOL    HW217328   2.738   5.104   5.256
 5477SOL     OW17329   1.473   3.503   3.072
 5477SOL    HW117330   1.433   3.582   3.026
 5477SOL    HW217331   1.493   3.432   3.004
 5478SOL     OW17332   5.177   6.264   5.527
 5478SOL    HW117333   5.084   6.287   5.500
 5478SOL    HW217334   5.189   6.165   5.528
 5479SOL     OW17335   4.804   1.597   4.773
 5479SOL    HW117336   4.834   1.624   4.682
 5479SOL    HW217337   4.876   1.617   4.840
 5480SOL     OW17338   5.910   4.675   5.223
 5480SOL    HW117339   5.842   4.748   5.217
 5480SOL    HW217340   5.945   4.655   5.132
 5481SOL     OW17341   4.939   1.252   4.464
 5481SOL    HW117342   5.009   1.182   4.480
 5481SOL    HW217343   4.887   1.268   4.548
 5482SOL     OW17344   2.945   3.712   3.043
 5482SOL    HW117345   2.931   3.705   2.944
 5482SOL    HW217346   3.041   3.733   3.062
 5483SOL     OW17347   6.378   2.398   5.015
 5483SOL    HW117348   6.444   2.421   5.087
 5483SOL    HW217349   6.316   2.327   5.049
 5484SOL     OW17350   6.291   0.585   3.506
 5484SOL    HW117351   6.211   0.594   3.565
 5484SOL    HW217352   6.261   0.576   3.411
 5485SOL     OW17353   3.325   6.361   4.604
 5485SOL    HW117354   3.284   6.362   4.695
 5485SOL    HW217355   3.257   6.391   4.537
 5486SOL     OW17356   1.891   6.755   3.769
 5486SOL    HW117357   1.850   6.679   3.819
 5486SOL    HW217358   1.845   6.840   3.793
 5487SOL     OW17359   5.375   3.563   6.098
 5487SOL    HW117360   5.338   3.574   6.190
 5487SOL    HW217361   5.331   3.485   6.054
 5488SOL     OW17362   5.430   1.694   1.387
 5488SOL    HW117363   5.376   1.749   1.323
 5488SOL    HW217364   5.521   1.679   1.349
 5489SOL     OW17365   1.180   3.892   1.541
 5489SOL    HW117366   1.189   3.876   1.443
 5489SOL    HW217367   1.114   3.966   1.556
 5490SOL     OW17368   3.502   0.075   0.886
 5490SOL    HW117369   3.417   0.059   0.836
 5490SOL    HW217370   3.524   0.173   0.884
 5491SOL     OW17371   1.359   4.002   6.330
 5491SOL    HW117372   1.303   3.920   6.347
 5491SOL    HW217373   1.419   3.985   6.252
 5492SOL     OW17374   1.219   2.005   6.328
 5492SOL    HW117375   1.159   2.030   6.252
 5492SOL    HW217376   1.174   2.025   6.414
 5493SOL     OW17377   4.014   3.729   4.434
 5493SOL    HW117378   4.018   3.708   4.336
 5493SOL    HW217379   4.042   3.648   4.486
 5494SOL     OW17380   6.146   3.125   6.819
 5494SOL    HW117381   6.080   3.191   6.784
 5494SOL    HW217382   6.211   3.101   6.747
 5495SOL     OW17383   3.068   2.526   1.463
 5495SOL    HW117384   3.025   2.454   1.408
 5495SOL    HW217385   2.997   2.577   1.512
 5496SOL     OW17386   2.785   6.627   3.593
 5496SOL    HW117387   2.770   6.651   3.498
 5496SOL    HW217388   2.859   6.560   3.600
 5497SOL     OW17389   0.236   1.836   3.391
 5497SOL    HW117390   0.178   1.805   3.466
 5497SOL    HW217391   0.274   1.926   3.414
 5498SOL     OW17392   5.211   0.364   1.451
 5498SOL    HW117393   5.295   0.317   1.425
 5498SOL    HW217394   5.207   0.374   1.550
 5499SOL     OW17395   1.011   0.806   3.648
 5499SOL    HW117396   0.995   0.897   3.609
 5499SOL    HW217397   0.946   0.789   3.722
 5500SOL     OW17398   1.674   6.219   6.966
 5500SOL    HW117399   1.685   6.229   0.045
 5500SOL    HW217400   1.582   6.184   6.947
 5501SOL     OW17401   3.497   0.337   0.926
 5501SOL    HW117402   3.502   0.435   0.904
 5501SOL    HW217403   3.443   0.324   1.009
 5502SOL     OW17404   5.197   4.192   6.595
 5502SOL    HW117405   5.201   4.098   6.561
 5502SOL    HW217406   5.289   4.228   6.605
 5503SOL     OW17407   0.239   5.017   2.881
 5503SOL    HW117408   0.184   5.010   2.964
 5503SOL    HW217409   0.279   5.108   2.874
 5504SOL     OW17410   4.106   1.359   5.981
 5504SOL    HW117411   4.028   1.318   5.934
 5504SOL    HW217412   4.094   1.459   5.983
 5505SOL     OW17413   2.401   5.263   4.322
 5505SOL    HW117414   2.394   5.294   4.227
 5505SOL    HW217415   2.491   5.287   4.358
 5506SOL     OW17416   0.271   0.822   6.105
 5506SOL    HW117417   0.242   0.911   6.141
 5506SOL    HW217418   0.192   0.775   6.065
 5507SOL     OW17419   2.157   6.716   2.928
 5507SOL    HW117420   2.197   6.624   2.928
 5507SOL    HW217421   2.181   6.762   3.014
 5508SOL     OW17422   1.939   1.331   0.125
 5508SOL    HW117423   1.913   1.351   0.220
 5508SOL    HW217424   1.960   1.416   0.077
 5509SOL     OW17425   1.190   6.576   0.468
 5509SOL    HW117426   1.209   6.673   0.481
 5509SOL    HW217427   1.124   6.545   0.536
 5510SOL     OW17428   5.448   6.242   0.950
 5510SOL    HW117429   5.370   6.199   0.995
 5510SOL    HW217430   5.429   6.250   0.851
 5511SOL     OW17431   2.451   0.086   4.508
 5511SOL    HW117432   2.542   0.046   4.500
 5511SOL    HW217433   2.456   0.184   4.489
 5512SOL     OW17434   5.890   2.191   1.397
 5512SOL    HW117435   5.874   2.178   1.495
 5512SOL    HW217436   5.828   2.261   1.362
 5513SOL     OW17437   3.328   4.088   6.048
 5513SOL    HW117438   3.277   4.006   6.022
 5513SOL    HW217439   3.384   4.118   5.970
 5514SOL     OW17440   4.386   5.656   2.084
 5514SOL    HW117441   4.296   5.689   2.055
 5514SOL    HW217442   4.383   5.629   2.180
 5515SOL     OW17443   0.495   4.571   1.245
 5515SOL    HW117444   0.472   4.667   1.256
 5515SOL    HW217445   0.416   4.522   1.208
 5516SOL     OW17446   1.492   3.659   6.826
 5516SOL    HW117447   1.457   3.601   6.752
 5516SOL    HW217448   1.442   3.746   6.826
 5517SOL     OW17449   2.218   2.693   2.153
 5517SOL    HW117450   2.260   2.734   2.072
 5517SOL    HW217451   2.121   2.675   2.134
 5518SOL     OW17452   6.429   6.928   6.380
 5518SOL    HW117453   6.375   6.936   6.464
 5518SOL    HW217454   6.480   7.013   6.366
 5519SOL     OW17455   5.036   3.051   2.944
 5519SOL    HW117456   5.076   3.142   2.940
 5519SOL    HW217457   4.957   3.047   2.883
 5520SOL     OW17458   6.933   5.472   2.528
 5520SOL    HW117459   6.866   5.416   2.478
 5520SOL    HW217460   7.011   5.491   2.468
 5521SOL     OW17461   4.113   6.864   2.413
 5521SOL    HW117462   4.169   6.782   2.405
 5521SOL    HW217463   4.017   6.839   2.416
 5522SOL     OW17464   0.645   4.970   0.682
 5522SOL    HW117465   0.564   5.028   0.683
 5522SOL    HW217466   0.726   5.028   0.672
 5523SOL     OW17467   2.877   6.808   3.022
 5523SOL    HW117468   2.968   6.772   3.044
 5523SOL    HW217469   2.808   6.737   3.040
 5524SOL     OW17470   5.801   5.099   4.411
 5524SOL    HW117471   5.795   5.194   4.441
 5524SOL    HW217472   5.754   5.040   4.476
 5525SOL     OW17473   6.651   3.253   6.992
 5525SOL    HW117474   6.579   3.205   6.941
 5525SOL    HW217475   6.701   3.313   6.930
 5526SOL     OW17476   5.292   4.595   4.575
 5526SOL    HW117477   5.339   4.623   4.659
 5526SOL    HW217478   5.272   4.497   4.580
 5527SOL     OW17479   0.529   3.563   4.356
 5527SOL    HW117480   0.592   3.515   4.295
 5527SOL    HW217481   0.519   3.658   4.325
 5528SOL     OW17482   1.089   1.992   6.589
 5528SOL    HW117483   1.060   2.085   6.610
 5528SOL    HW217484   1.025   1.927   6.632
 5529SOL     OW17485   2.116   0.370   4.606
 5529SOL    HW117486   2.087   0.275   4.595
 5529SOL    HW217487   2.198   0.386   4.552
 5530SOL     OW17488   0.414   2.212   2.192
 5530SOL    HW117489   0.401   2.287   2.257
 5530SOL    HW217490   0.492   2.157   2.221
 5531SOL     OW17491   3.623   4.058   2.427
 5531SOL    HW117492   3.702   4.083   2.371
 5531SOL    HW217493   3.642   4.078   2.523
 5532SOL     OW17494   1.674   1.448   0.788
 5532SOL    HW117495   1.628   1.462   0.701
 5532SOL    HW217496   1.608   1.414   0.856
 5533SOL     OW17497   2.972   0.699   3.151
 5533SOL    HW117498   2.949   0.767   3.221
 5533SOL    HW217499   3.064   0.718   3.114
 5534SOL     OW17500   0.605   2.482   5.506
 5534SOL    HW117501   0.688   2.513   5.551
 5534SOL    HW217502   0.550   2.560   5.479
 5535SOL     OW17503   0.713   3.178   4.272
 5535SOL    HW117504   0.743   3.177   4.368
 5535SOL    HW217505   0.738   3.266   4.231
 5536SOL     OW17506   3.209   0.817   4.254
 5536SOL    HW117507   3.275   0.872   4.304
 5536SOL    HW217508   3.236   0.721   4.258
 5537SOL     OW17509   3.028   0.948   4.614
 5537SOL    HW117510   3.034   1.038   4.571
 5537SOL    HW217511   3.030   0.958   4.713
 5538SOL     OW17512   3.272   6.947   4.902
 5538SOL    HW117513   3.216   6.906   4.974
 5538SOL    HW217514   3.221   6.948   4.816
 5539SOL     OW17515   1.374   2.938   0.249
 5539SOL    HW117516   1.348   3.034   0.249
 5539SOL    HW217517   1.449   2.923   0.314
 5540SOL     OW17518   6.420   3.704   3.183
 5540SOL    HW117519   6.369   3.635   3.131
 5540SOL    HW217520   6.365   3.735   3.261
 5541SOL     OW17521   5.719   1.509   6.765
 5541SOL    HW117522   5.701   1.604   6.794
 5541SOL    HW217523   5.813   1.485   6.788
 5542SOL     OW17524   5.816   6.559   6.417
 5542SOL    HW117525   5.912   6.579   6.396
 5542SOL    HW217526   5.772   6.643   6.449
 5543SOL     OW17527   2.730   5.354   6.099
 5543SOL    HW117528   2.822   5.364   6.139
 5543SOL    HW217529   2.683   5.442   6.104
 5544SOL     OW17530   5.501   5.818   6.304
 5544SOL    HW117531   5.423   5.858   6.352
 5544SOL    HW217532   5.473   5.785   6.214
 5545SOL     OW17533   4.584   1.590   3.651
 5545SOL    HW117534   4.619   1.674   3.695
 5545SOL    HW217535   4.485   1.597   3.640
 5546SOL     OW17536   1.679   6.625   4.183
 5546SOL    HW117537   1.730   6.608   4.267
 5546SOL    HW217538   1.726   6.581   4.106
 5547SOL     OW17539   3.813   0.486   4.704
 5547SOL    HW117540   3.913   0.490   4.714
 5547SOL    HW217541   3.772   0.453   4.789
 5548SOL     OW17542   5.460   3.312   4.751
 5548SOL    HW117543   5.507   3.329   4.664
 5548SOL    HW217544   5.528   3.299   4.823
 5549SOL     OW17545   4.054   4.750   0.940
 5549SOL    HW117546   4.015   4.660   0.961
 5549SOL    HW217547   3.983   4.808   0.900
 5550SOL     OW17548   2.275   4.204   2.290
 5550SOL    HW117549   2.259   4.274   2.221
 5550SOL    HW217550   2.317   4.245   2.371
 5551SOL     OW17551   1.577   6.140   3.477
 5551SOL    HW117552   1.521   6.066   3.515
 5551SOL    HW217553   1.668   6.105   3.455
 5552SOL     OW17554   6.942   7.003   0.003
 5552SOL    HW117555   6.879   6.951   0.061
 5552SOL    HW217556   6.950   6.959   6.934
 5553SOL     OW17557   5.038   6.375   0.340
 5553SOL    HW117558   5.079   6.458   0.379
 5553SOL    HW217559   5.043   6.379   0.241
 5554SOL     OW17560   4.852   1.848   6.427
 5554SOL    HW117561   4.827   1.942   6.450
 5554SOL    HW217562   4.842   1.790   6.509
 5555SOL     OW17563   0.754   3.709   3.370
 5555SOL    HW117564   0.813   3.790   3.380
 5555SOL    HW217565   0.666   3.737   3.332
 5556SOL     OW17566   7.009   1.748   3.534
 5556SOL    HW117567   6.954   1.822   3.494
 5556SOL    HW217568   7.013   1.671   3.471
 5557SOL     OW17569   3.214   0.060   2.759
 5557SOL    HW117570   3.297   0.015   2.791
 5557SOL    HW217571   3.139   7.014   2.756
 5558SOL     OW17572   3.709   3.306   5.688
 5558SOL    HW117573   3.799   3.322   5.728
 5558SOL    HW217574   3.652   3.256   5.753
 5559SOL     OW17575   1.152   0.918   1.225
 5559SOL    HW117576   1.149   0.826   1.262
 5559SOL    HW217577   1.180   0.983   1.296
 5560SOL     OW17578   0.543   5.568   2.355
 5560SOL    HW117579   0.608   5.595   2.427
 5560SOL    HW217580   0.581   5.489   2.305
 5561SOL     OW17581   1.745   1.450   4.053
 5561SOL    HW117582   1.827   1.476   4.002
 5561SOL    HW217583   1.671   1.514   4.032
 5562SOL     OW17584   4.017   2.597   6.338
 5562SOL    HW117585   4.109   2.564   6.316
 5562SOL    HW217586   3.987   2.557   6.425
 5563SOL     OW17587   4.032   5.303   1.920
 5563SOL    HW117588   3.998   5.392   1.948
 5563SOL    HW217589   4.132   5.305   1.915
 5564SOL     OW17590   4.884   0.520   1.251
 5564SOL    HW117591   4.854   0.440   1.200
 5564SOL    HW217592   4.951   0.571   1.198
 5565SOL     OW17593   4.681   1.792   5.970
 5565SOL    HW117594   4.763   1.757   5.925
 5565SOL    HW217595   4.693   1.787   6.069
 5566SOL     OW17596   1.560   4.793   6.460
 5566SOL    HW117597   1.620   4.828   6.531
 5566SOL    HW217598   1.614   4.760   6.383
 5567SOL     OW17599   0.058   1.846   0.939
 5567SOL    HW117600   0.101   1.906   1.007
 5567SOL    HW217601   0.046   1.896   0.853
 5568SOL     OW17602   4.401   1.792   3.928
 5568SOL    HW117603   4.428   1.838   3.843
 5568SOL    HW217604   4.395   1.859   4.002
 5569SOL     OW17605   1.460   2.094   2.209
 5569SOL    HW117606   1.417   2.173   2.253
 5569SOL    HW217607   1.542   2.124   2.160
 5570SOL     OW17608   5.994   4.578   4.978
 5570SOL    HW117609   6.048   4.647   4.929
 5570SOL    HW217610   5.930   4.534   4.916
 5571SOL     OW17611   0.223   6.011   0.658
 5571SOL    HW117612   0.269   6.011   0.569
 5571SOL    HW217613   0.126   6.032   0.645
 5572SOL     OW17614   1.327   2.217   5.355
 5572SOL    HW117615   1.302   2.300   5.306
 5572SOL    HW217616   1.426   2.216   5.372
 5573SOL     OW17617   2.348   4.593   4.500
 5573SOL    HW117618   2.298   4.593   4.413
 5573SOL    HW217619   2.320   4.514   4.554
 5574SOL     OW17620   0.543   1.960   2.176
 5574SOL    HW117621   0.547   1.964   2.276
 5574SOL    HW217622   0.470   1.897   2.148
 5575SOL     OW17623   6.947   0.830   1.270
 5575SOL    HW117624   6.861   0.881   1.276
 5575SOL    HW217625   7.020   0.884   1.312
 5576SOL     OW17626   0.951   5.213   1.632
 5576SOL    HW117627   0.968   5.283   1.564
 5576SOL    HW217628   1.012   5.135   1.617
 5577SOL     OW17629   3.322   3.443   5.411
 5577SOL    HW117630   3.301   3.471   5.505
 5577SOL    HW217631   3.275   3.357   5.391
 5578SOL     OW17632   3.707   3.821   0.567
 5578SOL    HW117633   3.688   3.915   0.596
 5578SOL    HW217634   3.717   3.818   0.468
 5579SOL     OW17635   0.668   3.643   6.751
 5579SOL    HW117636   0.675   3.617   6.655
 5579SOL    HW217637   0.572   3.646   6.778
 5580SOL     OW17638   5.470   2.837   5.446
 5580SOL    HW117639   5.542   2.773   5.421
 5580SOL    HW217640   5.384   2.809   5.402
 5581SOL     OW17641   1.505   6.981   1.642
 5581SOL    HW117642   1.491   0.060   1.634
 5581SOL    HW217643   1.602   6.963   1.659
 5582SOL     OW17644   3.040   3.857   5.057
 5582SOL    HW117645   2.999   3.877   4.968
 5582SOL    HW217646   2.979   3.797   5.109
 5583SOL     OW17647   5.003   0.346   2.537
 5583SOL    HW117648   5.079   0.390   2.585
 5583SOL    HW217649   4.917   0.367   2.583
 5584SOL     OW17650   5.852   4.413   3.831
 5584SOL    HW117651   5.859   4.318   3.862
 5584SOL    HW217652   5.818   4.470   3.905
 5585SOL     OW17653   5.190   6.244   4.143
 5585SOL    HW117654   5.132   6.209   4.070
 5585SOL    HW217655   5.258   6.175   4.169
 5586SOL     OW17656   0.101   2.417   6.804
 5586SOL    HW117657   0.194   2.409   6.841
 5586SOL    HW217658   0.088   2.508   6.766
 5587SOL     OW17659   3.917   6.393   1.750
 5587SOL    HW117660   3.908   6.468   1.815
 5587SOL    HW217661   3.973   6.422   1.673
 5588SOL     OW17662   1.614   5.767   2.911
 5588SOL    HW117663   1.514   5.779   2.918
 5588SOL    HW217664   1.659   5.842   2.959
 5589SOL     OW17665   6.208   3.803   5.334
 5589SOL    HW117666   6.303   3.827   5.357
 5589SOL    HW217667   6.197   3.800   5.235
 5590SOL     OW17668   6.516   5.685   4.070
 5590SOL    HW117669   6.481   5.772   4.104
 5590SOL    HW217670   6.612   5.696   4.042
 5591SOL     OW17671   5.342   1.784   0.431
 5591SOL    HW117672   5.414   1.844   0.397
 5591SOL    HW217673   5.369   1.688   0.420
 5592SOL     OW17674   0.051   4.623   2.810
 5592SOL    HW117675   0.102   4.687   2.867
 5592SOL    HW217676   6.993   4.588   2.862
 5593SOL     OW17677   0.483   3.185   6.431
 5593SOL    HW117678   0.581   3.206   6.430
 5593SOL    HW217679   0.435   3.254   6.484
 5594SOL     OW17680   3.865   1.495   6.675
 5594SOL    HW117681   3.935   1.562   6.697
 5594SOL    HW217682   3.864   1.423   6.745
 5595SOL     OW17683   6.413   0.498   5.192
 5595SOL    HW117684   6.464   0.553   5.125
 5595SOL    HW217685   6.420   0.540   5.282
 5596SOL     OW17686   4.817   0.701   3.391
 5596SOL    HW117687   4.825   0.602   3.404
 5596SOL    HW217688   4.755   0.719   3.314
 5597SOL     OW17689   5.500   2.876   5.024
 5597SOL    HW117690   5.402   2.859   5.034
 5597SOL    HW217691   5.514   2.952   4.960
 5598SOL     OW17692   6.267   3.941   3.728
 5598SOL    HW117693   6.285   3.844   3.739
 5598SOL    HW217694   6.353   3.992   3.736
 5599SOL     OW17695   0.594   2.729   1.353
 5599SOL    HW117696   0.674   2.689   1.398
 5599SOL    HW217697   0.532   2.767   1.422
 5600SOL     OW17698   2.473   0.264   1.823
 5600SOL    HW117699   2.551   0.300   1.771
 5600SOL    HW217700   2.396   0.249   1.761
 5601SOL     OW17701   2.930   0.913   6.621
 5601SOL    HW117702   3.008   0.867   6.579
 5601SOL    HW217703   2.848   0.858   6.608
 5602SOL     OW17704   0.079   0.945   1.479
 5602SOL    HW117705   0.027   1.028   1.499
 5602SOL    HW217706   0.177   0.964   1.485
 5603SOL     OW17707   5.804   2.639   0.124
 5603SOL    HW117708   5.814   2.586   0.208
 5603SOL    HW217709   5.846   2.589   0.048
 5604SOL     OW17710   6.337   2.071   4.480
 5604SOL    HW117711   6.402   2.001   4.510
 5604SOL    HW217712   6.279   2.098   4.556
 5605SOL     OW17713   6.773   1.161   5.243
 5605SOL    HW117714   6.842   1.091   5.227
 5605SOL    HW217715   6.682   1.122   5.229
 5606SOL     OW17716   4.961   6.967   0.669
 5606SOL    HW117717   5.025   6.966   0.746
 5606SOL    HW217718   4.872   6.999   0.700
 5607SOL     OW17719   6.124   1.158   3.061
 5607SOL    HW117720   6.030   1.158   3.027
 5607SOL    HW217721   6.128   1.206   3.149
 5608SOL     OW17722   6.103   0.579   3.716
 5608SOL    HW117723   6.162   0.567   3.796
 5608SOL    HW217724   6.067   0.490   3.687
 5609SOL     OW17725   4.179   6.246   1.508
 5609SOL    HW117726   4.177   6.169   1.572
 5609SOL    HW217727   4.171   6.211   1.415
 5610SOL     OW17728   4.402   5.363   1.273
 5610SOL    HW117729   4.393   5.460   1.249
 5610SOL    HW217730   4.399   5.307   1.190
 5611SOL     OW17731   0.848   5.357   3.038
 5611SOL    HW117732   0.785   5.313   2.974
 5611SOL    HW217733   0.939   5.363   2.997
 5612SOL     OW17734   4.376   2.766   6.046
 5612SOL    HW117735   4.319   2.841   6.013
 5612SOL    HW217736   4.472   2.793   6.042
 5613SOL     OW17737   6.097   5.893   4.993
 5613SOL    HW117738   6.048   5.807   5.009
 5613SOL    HW217739   6.193   5.881   5.015
 5614SOL     OW17740   4.674   2.590   4.891
 5614SOL    HW117741   4.772   2.592   4.909
 5614SOL    HW217742   4.652   2.509   4.837
 5615SOL     OW17743   6.591   1.674   3.938
 5615SOL    HW117744   6.640   1.587   3.950
 5615SOL    HW217745   6.535   1.669   3.856
 5616SOL     OW17746   2.706   2.228   5.507
 5616SOL    HW117747   2.750   2.142   5.482
 5616SOL    HW217748   2.775   2.300   5.515
 5617SOL     OW17749   2.327   5.603   5.664
 5617SOL    HW117750   2.384   5.657   5.602
 5617SOL    HW217751   2.367   5.513   5.677
 5618SOL     OW17752   6.767   4.616   4.439
 5618SOL    HW117753   6.748   4.518   4.429
 5618SOL    HW217754   6.696   4.669   4.392
 5619SOL     OW17755   3.824   4.143   4.613
 5619SOL    HW117756   3.809   4.179   4.521
 5619SOL    HW217757   3.881   4.062   4.609
 5620SOL     OW17758   4.489   3.614   0.832
 5620SOL    HW117759   4.474   3.561   0.749
 5620SOL    HW217760   4.515   3.708   0.808
 5621SOL     OW17761   2.413   2.559   0.125
 5621SOL    HW117762   2.317   2.560   0.096
 5621SOL    HW217763   2.425   2.492   0.198
 5622SOL     OW17764   4.481   0.617   5.960
 5622SOL    HW117765   4.442   0.688   5.902
 5622SOL    HW217766   4.528   0.659   6.038
 5623SOL     OW17767   4.683   6.159   5.503
 5623SOL    HW117768   4.635   6.112   5.577
 5623SOL    HW217769   4.684   6.102   5.421
 5624SOL     OW17770   0.509   4.168   3.483
 5624SOL    HW117771   0.525   4.265   3.499
 5624SOL    HW217772   0.546   4.115   3.560
 5625SOL     OW17773   6.586   6.901   5.276
 5625SOL    HW117774   6.601   6.874   5.371
 5625SOL    HW217775   6.488   6.915   5.259
 5626SOL     OW17776   2.166   5.428   4.063
 5626SOL    HW117777   2.144   5.518   4.023
 5626SOL    HW217778   2.188   5.439   4.159
 5627SOL     OW17779   0.941   4.687   6.739
 5627SOL    HW117780   0.977   4.755   6.675
 5627SOL    HW217781   0.948   4.721   6.833
 5628SOL     OW17782   1.941   2.327   2.471
 5628SOL    HW117783   1.938   2.405   2.534
 5628SOL    HW217784   2.026   2.276   2.486
 5629SOL     OW17785   3.880   3.589   1.972
 5629SOL    HW117786   3.868   3.490   1.976
 5629SOL    HW217787   3.825   3.626   1.898
 5630SOL     OW17788   1.674   3.871   6.173
 5630SOL    HW117789   1.597   3.845   6.114
 5630SOL    HW217790   1.724   3.789   6.200
 5631SOL     OW17791   4.438   1.842   2.022
 5631SOL    HW117792   4.505   1.787   1.974
 5631SOL    HW217793   4.401   1.912   1.961
 5632SOL     OW17794   3.204   2.379   5.926
 5632SOL    HW117795   3.108   2.362   5.947
 5632SOL    HW217796   3.246   2.430   6.000
 5633SOL     OW17797   5.917   5.150   4.170
 5633SOL    HW117798   5.857   5.098   4.109
 5633SOL    HW217799   5.899   5.124   4.265
 5634SOL     OW17800   1.862   4.962   4.111
 5634SOL    HW117801   1.878   4.909   4.027
 5634SOL    HW217802   1.816   4.905   4.179
 5635SOL     OW17803   1.763   5.451   6.615
 5635SOL    HW117804   1.787   5.544   6.641
 5635SOL    HW217805   1.786   5.437   6.518
 5636SOL     OW17806   4.597   0.140   4.755
 5636SOL    HW117807   4.673   0.173   4.811
 5636SOL    HW217808   4.622   0.054   4.711
 5637SOL     OW17809   5.085   6.684   3.221
 5637SOL    HW117810   5.012   6.619   3.241
 5637SOL    HW217811   5.144   6.647   3.149
 5638SOL     OW17812   6.661   3.862   0.947
 5638SOL    HW117813   6.752   3.820   0.941
 5638SOL    HW217814   6.592   3.795   0.921
 5639SOL     OW17815   1.497   0.423   2.561
 5639SOL    HW117816   1.566   0.443   2.491
 5639SOL    HW217817   1.483   0.324   2.567
 5640SOL     OW17818   3.152   0.495   3.599
 5640SOL    HW117819   3.206   0.488   3.515
 5640SOL    HW217820   3.134   0.591   3.619
 5641SOL     OW17821   0.550   5.237   5.106
 5641SOL    HW117822   0.467   5.182   5.115
 5641SOL    HW217823   0.627   5.189   5.149
 5642SOL     OW17824   1.554   6.427   4.424
 5642SOL    HW117825   1.624   6.499   4.419
 5642SOL    HW217826   1.586   6.355   4.485
 5643SOL     OW17827   4.427   1.618   4.309
 5643SOL    HW117828   4.377   1.676   4.373
 5643SOL    HW217829   4.366   1.589   4.236
 5644SOL     OW17830   3.152   6.846   5.155
 5644SOL    HW117831   3.248   6.860   5.183
 5644SOL    HW217832   3.096   6.832   5.236
 5645SOL     OW17833   6.299   4.793   3.230
 5645SOL    HW117834   6.386   4.761   3.268
 5645SOL    HW217835   6.303   4.788   3.130
 5646SOL     OW17836   1.137   5.806   3.748
 5646SOL    HW117837   1.130   5.711   3.777
 5646SOL    HW217838   1.069   5.861   3.797
 5647SOL     OW17839   4.706   6.051   0.579
 5647SOL    HW117840   4.620   6.000   0.593
 5647SOL    HW217841   4.783   5.994   0.606
 5648SOL     OW17842   1.464   0.052   3.206
 5648SOL    HW117843   1.385   0.034   3.148
 5648SOL    HW217844   1.541   0.081   3.149
 5649SOL     OW17845   0.786   0.884   4.412
 5649SOL    HW117846   0.690   0.856   4.413
 5649SOL    HW217847   0.839   0.822   4.470
 5650SOL     OW17848   0.492   5.722   0.530
 5650SOL    HW117849   0.466   5.805   0.480
 5650SOL    HW217850   0.580   5.689   0.497
 5651SOL     OW17851   1.686   1.484   1.325
 5651SOL    HW117852   1.775   1.442   1.344
 5651SOL    HW217853   1.622   1.461   1.398
 5652SOL     OW17854   6.010   0.192   2.036
 5652SOL    HW117855   5.981   0.109   2.085
 5652SOL    HW217856   5.961   0.198   1.949
 5653SOL     OW17857   6.538   6.255   6.915
 5653SOL    HW117858   6.461   6.251   6.979
 5653SOL    HW217859   6.538   6.174   6.857
 5654SOL     OW17860   6.807   6.799   5.129
 5654SOL    HW117861   6.879   6.780   5.195
 5654SOL    HW217862   6.722   6.821   5.177
 5655SOL     OW17863   0.758   3.771   3.965
 5655SOL    HW117864   0.664   3.752   3.993
 5655SOL    HW217865   0.820   3.707   4.012
 5656SOL     OW17866   6.905   3.796   6.573
 5656SOL    HW117867   6.967   3.871   6.551
 5656SOL    HW217868   6.827   3.831   6.624
 5657SOL     OW17869   6.041   2.095   0.232
 5657SOL    HW117870   6.105   2.020   0.250
 5657SOL    HW217871   6.049   2.165   0.304
 5658SOL     OW17872   3.643   3.506   6.724
 5658SOL    HW117873   3.719   3.529   6.784
 5658SOL    HW217874   3.603   3.590   6.688
 5659SOL     OW17875   3.817   3.118   5.180
 5659SOL    HW117876   3.738   3.072   5.220
 5659SOL    HW217877   3.845   3.194   5.239
 5660SOL     OW17878   5.198   6.620   0.375
 5660SOL    HW117879   5.263   6.629   0.300
 5660SOL    HW217880   5.206   6.700   0.435
 5661SOL     OW17881   1.164   5.880   5.081
 5661SOL    HW117882   1.148   5.802   5.020
 5661SOL    HW217883   1.148   5.965   5.030
 5662SOL     OW17884   2.781   6.089   3.544
 5662SOL    HW117885   2.810   6.072   3.638
 5662SOL    HW217886   2.711   6.022   3.517
 5663SOL     OW17887   1.717   3.407   6.562
 5663SOL    HW117888   1.738   3.370   6.653
 5663SOL    HW217889   1.667   3.338   6.509
 5664SOL     OW17890   6.909   4.046   4.457
 5664SOL    HW117891   6.836   4.034   4.390
 5664SOL    HW217892   6.998   4.043   4.410
 5665SOL     OW17893   1.689   1.049   0.585
 5665SOL    HW117894   1.769   1.007   0.542
 5665SOL    HW217895   1.713   1.081   0.677
 5666SOL     OW17896   5.929   0.141   2.780
 5666SOL    HW117897   5.937   0.041   2.780
 5666SOL    HW217898   5.909   0.172   2.687
 5667SOL     OW17899   1.419   5.347   4.642
 5667SOL    HW117900   1.348   5.294   4.595
 5667SOL    HW217901   1.483   5.284   4.686
 5668SOL     OW17902   5.272   2.763   3.892
 5668SOL    HW117903   5.243   2.738   3.985
 5668SOL    HW217904   5.217   2.840   3.860
 5669SOL     OW17905   0.274   3.256   0.184
 5669SOL    HW117906   0.195   3.194   0.185
 5669SOL    HW217907   0.306   3.267   0.090
 5670SOL     OW17908   0.626   3.086   3.879
 5670SOL    HW117909   0.657   3.018   3.945
 5670SOL    HW217910   0.622   3.176   3.924
 5671SOL     OW17911   6.190   6.335   6.843
 5671SOL    HW117912   6.232   6.263   6.789
 5671SOL    HW217913   6.093   6.343   6.819
 5672SOL     OW17914   4.546   4.140   6.924
 5672SOL    HW117915   4.634   4.140   6.971
 5672SOL    HW217916   4.510   4.047   6.922
 5673SOL     OW17917   1.614   0.572   1.694
 5673SOL    HW117918   1.680   0.632   1.648
 5673SOL    HW217919   1.636   0.566   1.791
 5674SOL     OW17920   6.861   5.096   5.187
 5674SOL    HW117921   6.802   5.148   5.125
 5674SOL    HW217922   6.815   5.087   5.276
 5675SOL     OW17923   4.366   2.673   6.850
 5675SOL    HW117924   4.430   2.640   6.779
 5675SOL    HW217925   4.360   2.773   6.844
 5676SOL     OW17926   2.570   2.385   2.466
 5676SOL    HW117927   2.623   2.407   2.384
 5676SOL    HW217928   2.538   2.290   2.460
 5677SOL     OW17929   0.782   1.762   0.187
 5677SOL    HW117930   0.683   1.774   0.184
 5677SOL    HW217931   0.809   1.734   0.279
 5678SOL     OW17932   4.307   6.544   2.659
 5678SOL    HW117933   4.240   6.617   2.674
 5678SOL    HW217934   4.391   6.565   2.709
 5679SOL     OW17935   6.780   1.019   4.306
 5679SOL    HW117936   6.845   1.084   4.267
 5679SOL    HW217937   6.819   0.927   4.305
 5680SOL     OW17938   1.710   5.241   6.170
 5680SOL    HW117939   1.781   5.181   6.133
 5680SOL    HW217940   1.621   5.196   6.164
 5681SOL     OW17941   0.581   4.234   0.984
 5681SOL    HW117942   0.520   4.176   0.930
 5681SOL    HW217943   0.598   4.319   0.934
 5682SOL     OW17944   2.037   4.980   5.043
 5682SOL    HW117945   1.990   4.936   5.119
 5682SOL    HW217946   1.995   4.951   4.957
 5683SOL     OW17947   4.562   1.135   6.257
 5683SOL    HW117948   4.595   1.170   6.169
 5683SOL    HW217949   4.496   1.200   6.295
 5684SOL     OW17950   2.802   3.747   5.677
 5684SOL    HW117951   2.834   3.655   5.697
 5684SOL    HW217952   2.839   3.777   5.589
 5685SOL     OW17953   2.174   2.213   2.897
 5685SOL    HW117954   2.161   2.136   2.959
 5685SOL    HW217955   2.086   2.260   2.884
 5686SOL     OW17956   2.513   1.525   6.570
 5686SOL    HW117957   2.482   1.446   6.623
 5686SOL    HW217958   2.580   1.576   6.623
 5687SOL     OW17959   1.182   5.138   0.354
 5687SOL    HW117960   1.162   5.233   0.379
 5687SOL    HW217961   1.096   5.090   0.336
 5688SOL     OW17962   0.559   2.478   1.583
 5688SOL    HW117963   0.647   2.466   1.630
 5688SOL    HW217964   0.526   2.571   1.597
 5689SOL     OW17965   3.224   1.493   0.909
 5689SOL    HW117966   3.203   1.574   0.963
 5689SOL    HW217967   3.221   1.516   0.811
 5690SOL     OW17968   2.595   5.649   6.851
 5690SOL    HW117969   2.527   5.691   6.790
 5690SOL    HW217970   2.582   5.684   6.944
 5691SOL     OW17971   3.436   6.999   2.361
 5691SOL    HW117972   3.397   6.908   2.374
 5691SOL    HW217973   3.515   7.011   2.422
 5692SOL     OW17974   5.650   3.778   0.793
 5692SOL    HW117975   5.669   3.785   0.695
 5692SOL    HW217976   5.661   3.867   0.836
 5693SOL     OW17977   4.806   1.770   2.924
 5693SOL    HW117978   4.718   1.732   2.896
 5693SOL    HW217979   4.844   1.716   2.999
 5694SOL     OW17980   1.061   1.693   3.245
 5694SOL    HW117981   1.111   1.630   3.305
 5694SOL    HW217982   1.119   1.720   3.168
 5695SOL     OW17983   1.824   1.937   3.084
 5695SOL    HW117984   1.884   1.914   3.008
 5695SOL    HW217985   1.777   1.854   3.116
 5696SOL     OW17986   0.840   0.885   3.124
 5696SOL    HW117987   0.783   0.940   3.062
 5696SOL    HW217988   0.833   0.922   3.217
 5697SOL     OW17989   5.736   2.553   0.981
 5697SOL    HW117990   5.780   2.483   1.038
 5697SOL    HW217991   5.637   2.548   0.992
 5698SOL     OW17992   1.313   5.085   4.148
 5698SOL    HW117993   1.384   5.017   4.128
 5698SOL    HW217994   1.224   5.046   4.126
 5699SOL     OW17995   0.529   2.367   3.372
 5699SOL    HW117996   0.608   2.367   3.311
 5699SOL    HW217997   0.537   2.441   3.439
 5700SOL     OW17998   6.556   0.132   3.106
 5700SOL    HW117999   6.624   0.078   3.057
 5700SOL    HW218000   6.586   0.227   3.110
 5701SOL     OW18001   1.381   0.667   1.589
 5701SOL    HW118002   1.306   0.704   1.644
 5701SOL    HW218003   1.453   0.633   1.650
 5702SOL     OW18004   2.647   5.426   4.141
 5702SOL    HW118005   2.623   5.523   4.140
 5702SOL    HW218006   2.679   5.400   4.232
 5703SOL     OW18007   6.142   4.490   1.905
 5703SOL    HW118008   6.210   4.417   1.899
 5703SOL    HW218009   6.051   4.452   1.890
 5704SOL     OW18010   5.111   4.399   2.694
 5704SOL    HW118011   5.129   4.384   2.792
 5704SOL    HW218012   5.106   4.497   2.676
 5705SOL     OW18013   5.220   6.893   0.059
 5705SOL    HW118014   5.128   6.859   0.038
 5705SOL    HW218015   5.272   6.821   0.104
 5706SOL     OW18016   6.948   3.919   1.579
 5706SOL    HW118017   6.931   3.840   1.638
 5706SOL    HW218018   0.025   3.924   1.558
 5707SOL     OW18019   0.317   5.999   7.002
 5707SOL    HW118020   0.309   6.013   6.904
 5707SOL    HW218021   0.309   6.086   0.030
 5708SOL     OW18022   5.094   5.229   2.049
 5708SOL    HW118023   5.143   5.301   2.099
 5708SOL    HW218024   5.041   5.270   1.975
 5709SOL     OW18025   1.482   0.914   2.278
 5709SOL    HW118026   1.525   0.868   2.201
 5709SOL    HW218027   1.529   0.887   2.363
 5710SOL     OW18028   2.510   2.749   1.184
 5710SOL    HW118029   2.411   2.744   1.166
 5710SOL    HW218030   2.539   2.845   1.179
 5711SOL     OW18031   5.074   0.686   3.038
 5711SOL    HW118032   5.093   0.761   3.102
 5711SOL    HW218033   5.154   0.627   3.030
 5712SOL     OW18034   6.423   0.390   6.506
 5712SOL    HW118035   6.401   0.444   6.588
 5712SOL    HW218036   6.339   0.349   6.470
 5713SOL     OW18037   3.788   2.841   2.003
 5713SOL    HW118038   3.737   2.838   2.089
 5713SOL    HW218039   3.860   2.771   2.004
 5714SOL     OW18040   0.366   5.528   0.345
 5714SOL    HW118041   0.438   5.495   0.284
 5714SOL    HW218042   0.403   5.599   0.405
 5715SOL     OW18043   1.270   0.633   2.910
 5715SOL    HW118044   1.297   0.635   3.006
 5715SOL    HW218045   1.351   0.616   2.853
 5716SOL     OW18046   1.586   4.868   6.057
 5716SOL    HW118047   1.525   4.807   6.108
 5716SOL    HW218048   1.668   4.817   6.030
 5717SOL     OW18049   1.679   4.672   1.048
 5717SOL    HW118050   1.775   4.694   1.030
 5717SOL    HW218051   1.674   4.589   1.103
 5718SOL     OW18052   0.101   3.484   6.242
 5718SOL    HW118053   0.029   3.432   6.195
 5718SOL    HW218054   0.107   3.453   6.337
 5719SOL     OW18055   2.584   2.727   6.516
 5719SOL    HW118056   2.607   2.753   6.423
 5719SOL    HW218057   2.547   2.634   6.518
 5720SOL     OW18058   2.081   5.930   4.589
 5720SOL    HW118059   2.018   5.908   4.515
 5720SOL    HW218060   2.164   5.972   4.550
 5721SOL     OW18061   6.787   3.045   0.794
 5721SOL    HW118062   6.850   3.062   0.870
 5721SOL    HW218063   6.713   2.985   0.825
 5722SOL     OW18064   0.242   1.744   5.241
 5722SOL    HW118065   0.339   1.722   5.241
 5722SOL    HW218066   0.201   1.715   5.155
 5723SOL     OW18067   5.108   3.136   0.307
 5723SOL    HW118068   5.163   3.218   0.292
 5723SOL    HW218069   5.121   3.072   0.232
 5724SOL     OW18070   5.477   2.981   4.728
 5724SOL    HW118071   5.505   2.978   4.632
 5724SOL    HW218072   5.378   2.997   4.733
 5725SOL     OW18073   5.302   5.495   4.451
 5725SOL    HW118074   5.281   5.577   4.505
 5725SOL    HW218075   5.388   5.455   4.482
 5726SOL     OW18076   6.978   5.305   4.279
 5726SOL    HW118077   6.895   5.344   4.320
 5726SOL    HW218078   6.975   5.205   4.287
 5727SOL     OW18079   0.195   2.056   4.127
 5727SOL    HW118080   0.259   2.090   4.058
 5727SOL    HW218081   0.245   2.002   4.194
 5728SOL     OW18082   3.967   0.352   6.214
 5728SOL    HW118083   4.059   0.389   6.230
 5728SOL    HW218084   3.966   0.254   6.235
 5729SOL     OW18085   1.220   0.773   1.004
 5729SOL    HW118086   1.253   0.684   1.034
 5729SOL    HW218087   1.171   0.817   1.079
 5730SOL     OW18088   5.062   5.274   6.706
 5730SOL    HW118089   5.159   5.291   6.719
 5730SOL    HW218090   5.014   5.361   6.692
 5731SOL     OW18091   0.286   6.834   3.887
 5731SOL    HW118092   0.239   6.917   3.915
 5731SOL    HW218093   0.255   6.807   3.796
 5732SOL     OW18094   6.513   5.403   4.741
 5732SOL    HW118095   6.542   5.498   4.756
 5732SOL    HW218096   6.424   5.403   4.695
 5733SOL     OW18097   4.229   6.466   5.668
 5733SOL    HW118098   4.222   6.462   5.568
 5733SOL    HW218099   4.223   6.373   5.705
 5734SOL     OW18100   1.062   6.906   5.349
 5734SOL    HW118101   0.977   6.951   5.324
 5734SOL    HW218102   1.075   6.911   5.448
 5735SOL     OW18103   4.272   1.760   1.715
 5735SOL    HW118104   4.268   1.660   1.720
 5735SOL    HW218105   4.198   1.793   1.655
 5736SOL     OW18106   6.085   3.686   0.069
 5736SOL    HW118107   6.140   3.715   0.147
 5736SOL    HW218108   6.020   3.616   0.098
 5737SOL     OW18109   5.774   6.803   1.327
 5737SOL    HW118110   5.729   6.777   1.241
 5737SOL    HW218111   5.770   6.727   1.391
 5738SOL     OW18112   2.118   2.265   5.764
 5738SOL    HW118113   2.198   2.309   5.805
 5738SOL    HW218114   2.088   2.189   5.822
 5739SOL     OW18115   1.419   0.111   6.062
 5739SOL    HW118116   1.419   0.013   6.082
 5739SOL    HW218117   1.333   0.135   6.017
 5740SOL     OW18118   4.460   3.908   0.763
 5740SOL    HW118119   4.451   3.947   0.855
 5740SOL    HW218120   4.521   3.965   0.709
 5741SOL     OW18121   1.006   4.648   4.492
 5741SOL    HW118122   1.039   4.702   4.569
 5741SOL    HW218123   1.048   4.557   4.495
 5742SOL     OW18124   5.238   6.856   2.273
 5742SOL    HW118125   5.254   6.792   2.348
 5742SOL    HW218126   5.321   6.865   2.218
 5743SOL     OW18127   2.773   5.473   5.208
 5743SOL    HW118128   2.705   5.525   5.156
 5743SOL    HW218129   2.830   5.420   5.145
 5744SOL     OW18130   5.110   0.655   1.716
 5744SOL    HW118131   5.017   0.637   1.747
 5744SOL    HW218132   5.132   0.752   1.728
 5745SOL     OW18133   2.593   0.850   4.024
 5745SOL    HW118134   2.547   0.894   3.946
 5745SOL    HW218135   2.527   0.832   4.096
 5746SOL     OW18136   6.170   6.919   1.435
 5746SOL    HW118137   6.104   6.919   1.510
 5746SOL    HW218138   6.122   6.934   1.348
 5747SOL     OW18139   6.681   4.730   2.641
 5747SOL    HW118140   6.635   4.738   2.729
 5747SOL    HW218141   6.649   4.802   2.580
 5748SOL     OW18142   1.626   5.963   0.887
 5748SOL    HW118143   1.535   5.954   0.846
 5748SOL    HW218144   1.663   5.873   0.907
 5749SOL     OW18145   1.621   0.680   4.906
 5749SOL    HW118146   1.527   0.658   4.929
 5749SOL    HW218147   1.677   0.597   4.911
 5750SOL     OW18148   5.422   6.192   4.491
 5750SOL    HW118149   5.346   6.137   4.525
 5750SOL    HW218150   5.411   6.287   4.520
 5751SOL     OW18151   2.471   2.551   4.669
 5751SOL    HW118152   2.550   2.494   4.692
 5751SOL    HW218153   2.403   2.545   4.743
 5752SOL     OW18154   6.584   0.753   6.701
 5752SOL    HW118155   6.583   0.729   6.798
 5752SOL    HW218156   6.609   0.850   6.691
 5753SOL     OW18157   3.440   4.114   5.773
 5753SOL    HW118158   3.411   4.120   5.677
 5753SOL    HW218159   3.478   4.023   5.790
 5754SOL     OW18160   5.564   4.562   1.504
 5754SOL    HW118161   5.551   4.650   1.550
 5754SOL    HW218162   5.579   4.577   1.406
 5755SOL     OW18163   2.176   3.557   6.207
 5755SOL    HW118164   2.138   3.571   6.116
 5755SOL    HW218165   2.161   3.463   6.235
 5756SOL     OW18166   5.956   6.255   3.533
 5756SOL    HW118167   5.978   6.219   3.443
 5756SOL    HW218168   6.021   6.328   3.557
 5757SOL     OW18169   6.876   6.588   2.604
 5757SOL    HW118170   6.862   6.686   2.593
 5757SOL    HW218171   6.854   6.541   2.518
 5758SOL     OW18172   2.781   0.862   4.443
 5758SOL    HW118173   2.880   0.872   4.454
 5758SOL    HW218174   2.737   0.950   4.462
 5759SOL     OW18175   5.200   1.911   6.827
 5759SOL    HW118176   5.277   1.914   6.891
 5759SOL    HW218177   5.222   1.966   6.746
 5760SOL     OW18178   1.153   4.835   1.214
 5760SOL    HW118179   1.133   4.738   1.196
 5760SOL    HW218180   1.228   4.842   1.280
 5761SOL     OW18181   5.805   6.898   6.204
 5761SOL    HW118182   5.727   6.953   6.173
 5761SOL    HW218183   5.779   6.802   6.204
 5762SOL     OW18184   4.606   6.587   0.496
 5762SOL    HW118185   4.674   6.601   0.567
 5762SOL    HW218186   4.615   6.658   0.427
 5763SOL     OW18187   0.076   0.524   0.319
 5763SOL    HW118188   0.105   0.442   0.270
 5763SOL    HW218189   7.013   0.505   0.370
 5764SOL     OW18190   4.288   4.690   6.220
 5764SOL    HW118191   4.285   4.612   6.282
 5764SOL    HW218192   4.329   4.768   6.266
 5765SOL     OW18193   6.566   4.339   6.572
 5765SOL    HW118194   6.498   4.343   6.645
 5765SOL    HW218195   6.519   4.331   6.483
 5766SOL     OW18196   2.552   2.616   0.425
 5766SOL    HW118197   2.588   2.707   0.402
 5766SOL    HW218198   2.499   2.622   0.509
 5767SOL     OW18199   2.452   6.411   0.468
 5767SOL    HW118200   2.375   6.453   0.517
 5767SOL    HW218201   2.429   6.316   0.446
 5768SOL     OW18202   0.521   6.950   2.946
 5768SOL    HW118203   0.431   6.974   2.909
 5768SOL    HW218204   0.529   6.986   3.039
 5769SOL     OW18205   2.298   6.374   4.396
 5769SOL    HW118206   2.363   6.440   4.357
 5769SOL    HW218207   2.233   6.422   4.454
 5770SOL     OW18208   6.385   0.551   6.714
 5770SOL    HW118209   6.346   0.568   6.805
 5770SOL    HW218210   6.433   0.633   6.683
 5771SOL     OW18211   0.701   5.845   2.798
 5771SOL    HW118212   0.755   5.899   2.733
 5771SOL    HW218213   0.752   5.763   2.825
 5772SOL     OW18214   6.519   2.527   0.094
 5772SOL    HW118215   6.468   2.611   0.114
 5772SOL    HW218216   6.611   2.551   0.063
 5773SOL     OW18217   5.094   0.695   4.131
 5773SOL    HW118218   5.116   0.789   4.108
 5773SOL    HW218219   4.998   0.677   4.108
 5774SOL     OW18220   2.723   5.162   3.781
 5774SOL    HW118221   2.718   5.094   3.854
 5774SOL    HW218222   2.714   5.253   3.820
 5775SOL     OW18223   1.651   0.285   1.758
 5775SOL    HW118224   1.715   0.258   1.831
 5775SOL    HW218225   1.591   0.358   1.792
 5776SOL     OW18226   6.960   1.199   6.164
 5776SOL    HW118227   6.895   1.163   6.230
 5776SOL    HW218228   6.913   1.222   6.079
 5777SOL     OW18229   6.365   0.761   4.157
 5777SOL    HW118230   6.424   0.713   4.221
 5777SOL    HW218231   6.396   0.856   4.148
 5778SOL     OW18232   1.585   0.267   1.321
 5778SOL    HW118233   1.568   0.365   1.314
 5778SOL    HW218234   1.502   0.217   1.295
 5779SOL     OW18235   4.247   0.990   0.683
 5779SOL    HW118236   4.234   0.908   0.628
 5779SOL    HW218237   4.344   1.002   0.703
 5780SOL     OW18238   5.838   5.916   3.069
 5780SOL    HW118239   5.894   5.834   3.081
 5780SOL    HW218240   5.773   5.901   2.994
 5781SOL     OW18241   1.023   4.061   4.379
 5781SOL    HW118242   1.109   4.112   4.374
 5781SOL    HW218243   1.031   3.977   4.325
 5782SOL     OW18244   1.467   1.332   0.940
 5782SOL    HW118245   1.400   1.299   0.874
 5782SOL    HW218246   1.495   1.258   1.001
 5783SOL     OW18247   2.068   1.486   0.919
 5783SOL    HW118248   1.994   1.527   0.974
 5783SOL    HW218249   2.123   1.426   0.977
 5784SOL     OW18250   0.192   6.744   6.738
 5784SOL    HW118251   0.206   6.747   6.639
 5784SOL    HW218252   0.259   6.683   6.779
 5785SOL     OW18253   2.240   2.137   1.585
 5785SOL    HW118254   2.301   2.210   1.556
 5785SOL    HW218255   2.287   2.049   1.577
 5786SOL     OW18256   1.240   4.471   0.760
 5786SOL    HW118257   1.242   4.435   0.667
 5786SOL    HW218258   1.333   4.490   0.790
 5787SOL     OW18259   4.831   2.331   4.776
 5787SOL    HW118260   4.856   2.410   4.720
 5787SOL    HW218261   4.732   2.320   4.775
 5788SOL     OW18262   3.339   0.517   1.520
 5788SOL    HW118263   3.343   0.418   1.506
 5788SOL    HW218264   3.382   0.563   1.443
 5789SOL     OW18265   3.154   3.204   6.487
 5789SOL    HW118266   3.159   3.123   6.428
 5789SOL    HW218267   3.112   3.180   6.574
 5790SOL     OW18268   6.705   5.480   5.122
 5790SOL    HW118269   6.681   5.482   5.219
 5790SOL    HW218270   6.656   5.406   5.077
 5791SOL     OW18271   2.744   2.019   2.369
 5791SOL    HW118272   2.739   1.958   2.290
 5791SOL    HW218273   2.812   2.090   2.352
 5792SOL     OW18274   5.292   3.700   2.878
 5792SOL    HW118275   5.287   3.601   2.873
 5792SOL    HW218276   5.273   3.730   2.971
 5793SOL     OW18277   5.550   0.515   5.276
 5793SOL    HW118278   5.649   0.525   5.266
 5793SOL    HW218279   5.505   0.593   5.232
 5794SOL     OW18280   3.567   0.071   6.690
 5794SOL    HW118281   3.664   0.063   6.669
 5794SOL    HW218282   3.553   0.051   6.787
 5795SOL     OW18283   0.312   6.925   0.607
 5795SOL    HW118284   0.258   6.993   0.557
 5795SOL    HW218285   0.265   6.837   0.604
 5796SOL     OW18286   4.557   0.783   6.567
 5796SOL    HW118287   4.554   0.693   6.523
 5796SOL    HW218288   4.593   0.774   6.660
 5797SOL     OW18289   5.494   1.346   0.752
 5797SOL    HW118290   5.507   1.248   0.735
 5797SOL    HW218291   5.397   1.369   0.742
 5798SOL     OW18292   0.481   3.812   4.276
 5798SOL    HW118293   0.478   3.878   4.352
 5798SOL    HW218294   0.394   3.762   4.272
 5799SOL     OW18295   6.968   0.439   3.777
 5799SOL    HW118296   6.981   0.494   3.694
 5799SOL    HW218297   6.937   0.347   3.751
 5800SOL     OW18298   0.769   0.366   1.633
 5800SOL    HW118299   0.816   0.422   1.702
 5800SOL    HW218300   0.800   0.393   1.542
 5801SOL     OW18301   2.389   2.588   3.394
 5801SOL    HW118302   2.398   2.492   3.421
 5801SOL    HW218303   2.383   2.645   3.476
 5802SOL     OW18304   6.315   3.249   2.625
 5802SOL    HW118305   6.276   3.162   2.594
 5802SOL    HW218306   6.273   3.324   2.574
 5803SOL     OW18307   1.378   4.895   3.883
 5803SOL    HW118308   1.294   4.844   3.903
 5803SOL    HW218309   1.447   4.876   3.953
 5804SOL     OW18310   6.873   5.889   3.762
 5804SOL    HW118311   6.857   5.978   3.718
 5804SOL    HW218312   6.805   5.875   3.834
 5805SOL     OW18313   1.583   2.850   0.432
 5805SOL    HW118314   1.605   2.796   0.513
 5805SOL    HW218315   1.658   2.914   0.413
 5806SOL     OW18316   6.563   4.813   5.266
 5806SOL    HW118317   6.483   4.757   5.243
 5806SOL    HW218318   6.621   4.823   5.185
 5807SOL     OW18319   1.324   5.378   1.122
 5807SOL    HW118320   1.293   5.421   1.207
 5807SOL    HW218321   1.274   5.417   1.045
 5808SOL     OW18322   6.864   6.854   4.844
 5808SOL    HW118323   6.914   6.940   4.850
 5808SOL    HW218324   6.846   6.820   4.936
 5809SOL     OW18325   6.255   2.498   5.288
 5809SOL    HW118326   6.306   2.495   5.202
 5809SOL    HW218327   6.316   2.528   5.362
 5810SOL     OW18328   4.125   1.301   5.637
 5810SOL    HW118329   4.156   1.348   5.555
 5810SOL    HW218330   4.204   1.258   5.682
 5811SOL     OW18331   2.675   1.951   5.459
 5811SOL    HW118332   2.648   1.956   5.555
 5811SOL    HW218333   2.765   1.909   5.451
 5812SOL     OW18334   4.818   3.911   5.881
 5812SOL    HW118335   4.811   3.964   5.797
 5812SOL    HW218336   4.914   3.889   5.899
 5813SOL     OW18337   2.747   0.116   0.580
 5813SOL    HW118338   2.667   0.135   0.636
 5813SOL    HW218339   2.827   0.160   0.619
 5814SOL     OW18340   6.980   2.722   1.527
 5814SOL    HW118341   7.007   2.634   1.567
 5814SOL    HW218342   0.029   2.791   1.549
 5815SOL     OW18343   4.993   1.860   4.061
 5815SOL    HW118344   4.922   1.790   4.061
 5815SOL    HW218345   5.056   1.845   4.137
 5816SOL     OW18346   6.389   4.588   1.099
 5816SOL    HW118347   6.319   4.545   1.156
 5816SOL    HW218348   6.465   4.617   1.157
 5817SOL     OW18349   6.049   5.441   5.775
 5817SOL    HW118350   6.058   5.395   5.863
 5817SOL    HW218351   6.001   5.527   5.786
 5818SOL     OW18352   6.851   5.845   5.192
 5818SOL    HW118353   6.878   5.942   5.191
 5818SOL    HW218354   6.932   5.788   5.182
 5819SOL     OW18355   3.053   5.389   6.525
 5819SOL    HW118356   3.140   5.379   6.572
 5819SOL    HW218357   2.997   5.307   6.538
 5820SOL     OW18358   4.222   4.700   2.836
 5820SOL    HW118359   4.309   4.651   2.830
 5820SOL    HW218360   4.236   4.796   2.811
 5821SOL     OW18361   6.706   0.960   1.531
 5821SOL    HW118362   6.715   1.001   1.440
 5821SOL    HW218363   6.779   0.892   1.543
 5822SOL     OW18364   1.625   2.858   1.794
 5822SOL    HW118365   1.544   2.815   1.753
 5822SOL    HW218366   1.597   2.938   1.846
 5823SOL     OW18367   2.639   6.709   4.462
 5823SOL    HW118368   2.649   6.760   4.376
 5823SOL    HW218369   2.579   6.760   4.523
 5824SOL     OW18370   0.564   6.464   3.458
 5824SOL    HW118371   0.603   6.489   3.546
 5824SOL    HW218372   0.608   6.518   3.386
 5825SOL     OW18373   7.003   6.004   5.549
 5825SOL    HW118374   6.995   6.103   5.536
 5825SOL    HW218375   0.067   5.984   5.600
 5826SOL     OW18376   0.603   6.350   6.000
 5826SOL    HW118377   0.613   6.450   6.000
 5826SOL    HW218378   0.509   6.326   6.023
 5827SOL     OW18379   1.253   3.669   4.960
 5827SOL    HW118380   1.320   3.654   4.887
 5827SOL    HW218381   1.166   3.695   4.919
 5828SOL     OW18382   4.693   1.108   3.131
 5828SOL    HW118383   4.793   1.111   3.120
 5828SOL    HW218384   4.652   1.180   3.075
 5829SOL     OW18385   1.332   0.640   4.894
 5829SOL    HW118386   1.333   0.672   4.800
 5829SOL    HW218387   1.304   0.714   4.955
 5830SOL     OW18388   4.521   0.109   5.329
 5830SOL    HW118389   4.491   0.093   5.423
 5830SOL    HW218390   4.577   0.032   5.299
 5831SOL     OW18391   1.578   1.522   6.180
 5831SOL    HW118392   1.577   1.622   6.187
 5831SOL    HW218393   1.604   1.483   6.268
 5832SOL     OW18394   3.533   4.205   0.403
 5832SOL    HW118395   3.564   4.174   0.493
 5832SOL    HW218396   3.612   4.227   0.346
 5833SOL     OW18397   3.679   2.991   5.699
 5833SOL    HW118398   3.665   2.936   5.617
 5833SOL    HW218399   3.777   3.005   5.713
 5834SOL     OW18400   6.539   4.257   6.306
 5834SOL    HW118401   6.539   4.328   6.236
 5834SOL    HW218402   6.572   4.171   6.267
 5835SOL     OW18403   6.052   1.877   2.885
 5835SOL    HW118404   6.056   1.968   2.925
 5835SOL    HW218405   6.139   1.855   2.841
 5836SOL     OW18406   2.760   6.611   2.012
 5836SOL    HW118407   2.772   6.694   2.067
 5836SOL    HW218408   2.840   6.599   1.952
 5837SOL     OW18409   3.970   3.244   6.841
 5837SOL    HW118410   3.975   3.283   6.750
 5837SOL    HW218411   3.946   3.315   6.907
 5838SOL     OW18412   3.257   1.581   1.530
 5838SOL    HW118413   3.274   1.491   1.490
 5838SOL    HW218414   3.158   1.594   1.541
 5839SOL     OW18415   0.521   2.150   0.583
 5839SOL    HW118416   0.446   2.177   0.644
 5839SOL    HW218417   0.572   2.232   0.556
 5840SOL     OW18418   0.209   3.765   0.446
 5840SOL    HW118419   0.125   3.732   0.403
 5840SOL    HW218420   0.242   3.696   0.511
 5841SOL     OW18421   5.408   0.606   1.645
 5841SOL    HW118422   5.342   0.569   1.712
 5841SOL    HW218423   5.363   0.676   1.589
 5842SOL     OW18424   4.484   2.285   1.846
 5842SOL    HW118425   4.466   2.260   1.751
 5842SOL    HW218426   4.444   2.374   1.865
 5843SOL     OW18427   1.541   3.519   1.289
 5843SOL    HW118428   1.557   3.428   1.327
 5843SOL    HW218429   1.533   3.512   1.189
 5844SOL     OW18430   1.317   6.239   5.103
 5844SOL    HW118431   1.275   6.178   5.171
 5844SOL    HW218432   1.342   6.186   5.022
 5845SOL     OW18433   0.996   0.119   2.280
 5845SOL    HW118434   0.977   0.025   2.250
 5845SOL    HW218435   0.972   0.183   2.207
 5846SOL     OW18436   5.554   3.570   5.258
 5846SOL    HW118437   5.544   3.667   5.278
 5846SOL    HW218438   5.548   3.554   5.160
 5847SOL     OW18439   2.691   2.334   1.812
 5847SOL    HW118440   2.663   2.421   1.772
 5847SOL    HW218441   2.775   2.348   1.865
 5848SOL     OW18442   1.843   5.637   3.083
 5848SOL    HW118443   1.932   5.644   3.127
 5848SOL    HW218444   1.820   5.723   3.039
 5849SOL     OW18445   1.974   6.689   5.164
 5849SOL    HW118446   1.909   6.697   5.239
 5849SOL    HW218447   2.007   6.595   5.157
 5850SOL     OW18448   0.026   3.220   1.781
 5850SOL    HW118449   0.086   3.184   1.710
 5850SOL    HW218450   6.983   3.148   1.811
 5851SOL     OW18451   5.192   3.725   4.003
 5851SOL    HW118452   5.225   3.640   4.046
 5851SOL    HW218453   5.093   3.719   3.990
 5852SOL     OW18454   4.783   5.863   2.436
 5852SOL    HW118455   4.692   5.835   2.466
 5852SOL    HW218456   4.808   5.948   2.483
 5853SOL     OW18457   4.389   5.225   5.834
 5853SOL    HW118458   4.312   5.213   5.772
 5853SOL    HW218459   4.380   5.162   5.911
 5854SOL     OW18460   4.053   4.622   5.678
 5854SOL    HW118461   4.142   4.613   5.722
 5854SOL    HW218462   3.997   4.688   5.728
 5855SOL     OW18463   1.302   1.727   4.897
 5855SOL    HW118464   1.372   1.689   4.957
 5855SOL    HW218465   1.232   1.771   4.952
 5856SOL     OW18466   1.142   6.464   3.113
 5856SOL    HW118467   1.180   6.372   3.108
 5856SOL    HW218468   1.125   6.488   3.209
 5857SOL     OW18469   6.723   3.809   5.559
 5857SOL    HW118470   6.663   3.870   5.610
 5857SOL    HW218471   6.780   3.862   5.496
 5858SOL     OW18472   2.526   2.563   3.012
 5858SOL    HW118473   2.534   2.518   2.923
 5858SOL    HW218474   2.577   2.512   3.080
 5859SOL     OW18475   6.306   6.235   1.348
 5859SOL    HW118476   6.278   6.281   1.263
 5859SOL    HW218477   6.255   6.274   1.424
 5860SOL     OW18478   0.567   5.054   2.859
 5860SOL    HW118479   0.616   4.980   2.813
 5860SOL    HW218480   0.469   5.040   2.849
 5861SOL     OW18481   4.896   0.731   4.676
 5861SOL    HW118482   4.973   0.724   4.613
 5861SOL    HW218483   4.834   0.803   4.645
 5862SOL     OW18484   6.246   5.228   1.814
 5862SOL    HW118485   6.277   5.146   1.766
 5862SOL    HW218486   6.322   5.269   1.863
 5863SOL     OW18487   2.920   1.642   4.997
 5863SOL    HW118488   2.873   1.712   4.943
 5863SOL    HW218489   2.972   1.685   5.071
 5864SOL     OW18490   3.794   3.262   1.930
 5864SOL    HW118491   3.840   3.189   1.980
 5864SOL    HW218492   3.795   3.241   1.832
 5865SOL     OW18493   5.450   0.717   5.140
 5865SOL    HW118494   5.470   0.792   5.204
 5865SOL    HW218495   5.373   0.742   5.082
 5866SOL     OW18496   3.213   2.678   1.086
 5866SOL    HW118497   3.258   2.720   1.165
 5866SOL    HW218498   3.121   2.650   1.112
 5867SOL     OW18499   1.742   2.951   1.571
 5867SOL    HW118500   1.815   3.018   1.557
 5867SOL    HW218501   1.739   2.926   1.668
 5868SOL     OW18502   1.395   1.533   5.841
 5868SOL    HW118503   1.322   1.467   5.860
 5868SOL    HW218504   1.385   1.612   5.903
 5869SOL     OW18505   1.568   4.412   2.839
 5869SOL    HW118506   1.628   4.335   2.864
 5869SOL    HW218507   1.484   4.376   2.800
 5870SOL     OW18508   4.599   6.061   5.251
 5870SOL    HW118509   4.539   5.985   5.276
 5870SOL    HW218510   4.668   6.029   5.187
 5871SOL     OW18511   4.012   3.078   2.074
 5871SOL    HW118512   4.069   3.045   1.998
 5871SOL    HW218513   3.967   3.000   2.118
 5872SOL     OW18514   3.968   6.607   1.053
 5872SOL    HW118515   3.998   6.598   0.958
 5872SOL    HW218516   3.987   6.700   1.085
 5873SOL     OW18517   3.128   6.545   2.243
 5873SOL    HW118518   3.211   6.568   2.192
 5873SOL    HW218519   3.101   6.623   2.300
 5874SOL     OW18520   2.080   4.438   4.868
 5874SOL    HW118521   2.161   4.411   4.816
 5874SOL    HW218522   2.104   4.505   4.937
 5875SOL     OW18523   3.836   1.948   0.738
 5875SOL    HW118524   3.876   1.931   0.649
 5875SOL    HW218525   3.856   1.871   0.799
 5876SOL     OW18526   4.227   3.423   1.746
 5876SOL    HW118527   4.318   3.430   1.706
 5876SOL    HW218528   4.226   3.466   1.836
 5877SOL     OW18529   6.429   6.279   1.020
 5877SOL    HW118530   6.473   6.357   1.065
 5877SOL    HW218531   6.340   6.262   1.062
 5878SOL     OW18532   0.309   6.354   4.320
 5878SOL    HW118533   0.327   6.348   4.222
 5878SOL    HW218534   0.377   6.300   4.370
 5879SOL     OW18535   1.408   3.999   6.852
 5879SOL    HW118536   1.400   3.964   6.758
 5879SOL    HW218537   1.331   3.966   6.906
 5880SOL     OW18538   3.800   4.070   0.088
 5880SOL    HW118539   3.770   3.975   0.095
 5880SOL    HW218540   3.814   4.093   7.012
 5881SOL     OW18541   0.128   5.262   3.090
 5881SOL    HW118542   0.121   5.162   3.097
 5881SOL    HW218543   0.060   5.295   3.025
 5882SOL     OW18544   0.251   6.357   1.143
 5882SOL    HW118545   0.327   6.293   1.132
 5882SOL    HW218546   0.180   6.316   1.200
 5883SOL     OW18547   0.884   1.797   6.688
 5883SOL    HW118548   0.835   1.772   6.604
 5883SOL    HW218549   0.874   1.724   6.755
 5884SOL     OW18550   3.098   1.395   4.357
 5884SOL    HW118551   3.010   1.442   4.350
 5884SOL    HW218552   3.169   1.450   4.313
 5885SOL     OW18553   0.275   0.416   2.616
 5885SOL    HW118554   0.190   0.448   2.574
 5885SOL    HW218555   0.351   0.472   2.583
 5886SOL     OW18556   0.662   2.125   4.746
 5886SOL    HW118557   0.563   2.116   4.762
 5886SOL    HW218558   0.678   2.193   4.674
 5887SOL     OW18559   3.082   0.987   3.610
 5887SOL    HW118560   3.090   0.998   3.511
 5887SOL    HW218561   3.164   1.024   3.655
 5888SOL     OW18562   3.281   0.639   1.767
 5888SOL    HW118563   3.314   0.587   1.688
 5888SOL    HW218564   3.257   0.576   1.840
 5889SOL     OW18565   1.187   6.139   1.119
 5889SOL    HW118566   1.150   6.125   1.027
 5889SOL    HW218567   1.286   6.130   1.117
 5890SOL     OW18568   1.559   0.230   4.684
 5890SOL    HW118569   1.548   0.199   4.590
 5890SOL    HW218570   1.566   0.151   4.745
 5891SOL     OW18571   2.757   3.133   5.946
 5891SOL    HW118572   2.759   3.038   5.976
 5891SOL    HW218573   2.669   3.174   5.970
 5892SOL     OW18574   0.365   5.682   1.300
 5892SOL    HW118575   0.365   5.687   1.400
 5892SOL    HW218576   0.366   5.586   1.272
 5893SOL     OW18577   1.593   4.032   4.320
 5893SOL    HW118578   1.690   4.048   4.338
 5893SOL    HW218579   1.540   4.056   4.401
 5894SOL     OW18580   6.541   5.705   4.392
 5894SOL    HW118581   6.584   5.746   4.312
 5894SOL    HW218582   6.469   5.766   4.426
 5895SOL     OW18583   5.235   3.532   4.207
 5895SOL    HW118584   5.268   3.478   4.285
 5895SOL    HW218585   5.195   3.471   4.139
 5896SOL     OW18586   4.386   1.108   0.268
 5896SOL    HW118587   4.306   1.144   0.317
 5896SOL    HW218588   4.405   1.165   0.188
 5897SOL     OW18589   4.041   0.425   0.952
 5897SOL    HW118590   4.110   0.383   1.011
 5897SOL    HW218591   3.960   0.366   0.948
 5898SOL     OW18592   2.435   6.520   3.137
 5898SOL    HW118593   2.383   6.480   3.212
 5898SOL    HW218594   2.453   6.451   3.067
 5899SOL     OW18595   4.902   6.792   5.577
 5899SOL    HW118596   4.806   6.819   5.572
 5899SOL    HW218597   4.917   6.734   5.657
 5900SOL     OW18598   4.538   5.091   3.514
 5900SOL    HW118599   4.517   5.182   3.477
 5900SOL    HW218600   4.590   5.038   3.447
 5901SOL     OW18601   2.831   0.255   0.251
 5901SOL    HW118602   2.852   0.174   0.305
 5901SOL    HW218603   2.862   0.242   0.156
 5902SOL     OW18604   6.811   2.554   6.260
 5902SOL    HW118605   6.772   2.476   6.310
 5902SOL    HW218606   6.760   2.568   6.176
 5903SOL     OW18607   3.987   3.767   0.526
 5903SOL    HW118608   3.899   3.776   0.573
 5903SOL    HW218609   4.000   3.671   0.499
 5904SOL     OW18610   1.100   3.315   1.806
 5904SOL    HW118611   1.072   3.312   1.710
 5904SOL    HW218612   1.025   3.350   1.862
 5905SOL     OW18613   6.291   6.338   3.129
 5905SOL    HW118614   6.333   6.376   3.047
 5905SOL    HW218615   6.303   6.239   3.130
 5906SOL     OW18616   4.416   1.905   3.677
 5906SOL    HW118617   4.463   1.853   3.604
 5906SOL    HW218618   4.441   2.001   3.670
 5907SOL     OW18619   1.684   5.349   1.678
 5907SOL    HW118620   1.768   5.300   1.654
 5907SOL    HW218621   1.666   5.420   1.610
 5908SOL     OW18622   0.483   2.693   6.705
 5908SOL    HW118623   0.573   2.662   6.735
 5908SOL    HW218624   0.494   2.760   6.631
 5909SOL     OW18625   6.828   5.206   0.852
 5909SOL    HW118626   6.757   5.212   0.782
 5909SOL    HW218627   6.816   5.122   0.905
 5910SOL     OW18628   0.480   2.951   3.675
 5910SOL    HW118629   0.411   3.015   3.642
 5910SOL    HW218630   0.532   2.993   3.750
 5911SOL     OW18631   6.285   6.572   6.571
 5911SOL    HW118632   6.195   6.614   6.578
 5911SOL    HW218633   6.329   6.571   6.661
 5912SOL     OW18634   7.009   0.335   5.740
 5912SOL    HW118635   0.004   0.420   5.689
 5912SOL    HW218636   6.962   0.269   5.681
 5913SOL     OW18637   4.917   2.627   6.355
 5913SOL    HW118638   4.896   2.610   6.451
 5913SOL    HW218639   4.976   2.708   6.347
 5914SOL     OW18640   1.080   5.322   6.717
 5914SOL    HW118641   1.005   5.260   6.739
 5914SOL    HW218642   1.082   5.396   6.784
 5915SOL     OW18643   4.685   5.704   1.482
 5915SOL    HW118644   4.665   5.801   1.468
 5915SOL    HW218645   4.766   5.695   1.539
 5916SOL     OW18646   6.185   6.431   3.459
 5916SOL    HW118647   6.232   6.395   3.379
 5916SOL    HW218648   6.242   6.500   3.503
 5917SOL     OW18649   3.268   4.049   4.391
 5917SOL    HW118650   3.338   4.047   4.463
 5917SOL    HW218651   3.179   4.025   4.430
 5918SOL     OW18652   1.922   4.579   5.198
 5918SOL    HW118653   2.020   4.564   5.203
 5918SOL    HW218654   1.886   4.537   5.115
 5919SOL     OW18655   3.563   2.894   2.898
 5919SOL    HW118656   3.639   2.885   2.833
 5919SOL    HW218657   3.495   2.958   2.861
 5920SOL     OW18658   5.006   0.677   6.445
 5920SOL    HW118659   5.057   0.741   6.387
 5920SOL    HW218660   5.052   0.588   6.445
 5921SOL     OW18661   4.122   5.350   6.446
 5921SOL    HW118662   4.107   5.253   6.428
 5921SOL    HW218663   4.219   5.371   6.433
 5922SOL     OW18664   5.751   3.812   4.165
 5922SOL    HW118665   5.794   3.791   4.253
 5922SOL    HW218666   5.687   3.888   4.176
 5923SOL     OW18667   6.774   1.734   1.720
 5923SOL    HW118668   6.795   1.697   1.810
 5923SOL    HW218669   6.830   1.815   1.703
 5924SOL     OW18670   6.211   0.156   2.638
 5924SOL    HW118671   6.153   0.084   2.678
 5924SOL    HW218672   6.277   0.187   2.707
 5925SOL     OW18673   3.620   6.426   1.536
 5925SOL    HW118674   3.565   6.506   1.512
 5925SOL    HW218675   3.652   6.435   1.630
 5926SOL     OW18676   3.523   4.874   2.514
 5926SOL    HW118677   3.524   4.826   2.427
 5926SOL    HW218678   3.608   4.926   2.524
 5927SOL     OW18679   0.780   4.989   2.204
 5927SOL    HW118680   0.796   5.041   2.120
 5927SOL    HW218681   0.706   4.923   2.189
 5928SOL     OW18682   3.244   6.738   0.666
 5928SOL    HW118683   3.207   6.777   0.750
 5928SOL    HW218684   3.237   6.805   0.592
 5929SOL     OW18685   6.122   0.567   6.222
 5929SOL    HW118686   6.211   0.526   6.201
 5929SOL    HW218687   6.049   0.501   6.204
 5930SOL     OW18688   0.038   4.031   3.501
 5930SOL    HW118689   0.056   4.109   3.442
 5930SOL    HW218690   0.003   3.955   3.447
 5931SOL     OW18691   6.608   6.968   2.675
 5931SOL    HW118692   6.538   7.007   2.617
 5931SOL    HW218693   6.659   0.022   2.720
 5932SOL     OW18694   3.191   6.894   0.434
 5932SOL    HW118695   3.125   6.874   0.362
 5932SOL    HW218696   3.237   6.981   0.414
 5933SOL     OW18697   6.429   5.176   4.117
 5933SOL    HW118698   6.332   5.153   4.110
 5933SOL    HW218699   6.448   5.261   4.069
 5934SOL     OW18700   3.671   2.840   5.157
 5934SOL    HW118701   3.609   2.803   5.226
 5934SOL    HW218702   3.764   2.809   5.177
 5935SOL     OW18703   0.022   5.256   6.518
 5935SOL    HW118704   6.987   5.312   6.580
 5935SOL    HW218705   0.085   5.200   6.572
 5936SOL     OW18706   3.336   2.867   1.592
 5936SOL    HW118707   3.360   2.959   1.563
 5936SOL    HW218708   3.283   2.872   1.677
 5937SOL     OW18709   6.076   3.358   1.830
 5937SOL    HW118710   6.050   3.372   1.735
 5937SOL    HW218711   5.993   3.348   1.886
 5938SOL     OW18712   6.472   5.798   3.716
 5938SOL    HW118713   6.393   5.849   3.750
 5938SOL    HW218714   6.495   5.726   3.782
 5939SOL     OW18715   1.905   5.597   3.481
 5939SOL    HW118716   1.819   5.577   3.434
 5939SOL    HW218717   1.943   5.683   3.445
 5940SOL     OW18718   4.522   5.460   2.917
 5940SOL    HW118719   4.573   5.377   2.939
 5940SOL    HW218720   4.563   5.539   2.963
 5941SOL     OW18721   6.011   3.426   2.251
 5941SOL    HW118722   5.920   3.436   2.291
 5941SOL    HW218723   6.027   3.500   2.186
 5942SOL     OW18724   5.029   3.739   6.874
 5942SOL    HW118725   5.015   3.641   6.861
 5942SOL    HW218726   4.947   3.780   6.913
 5943SOL     OW18727   3.034   3.971   6.140
 5943SOL    HW118728   2.990   3.952   6.052
 5943SOL    HW218729   3.086   3.891   6.169
 5944SOL     OW18730   6.924   2.200   6.970
 5944SOL    HW118731   6.909   2.225   6.874
 5944SOL    HW218732   6.930   2.101   6.979
 5945SOL     OW18733   6.686   4.840   5.029
 5945SOL    HW118734   6.772   4.890   5.017
 5945SOL    HW218735   6.699   4.744   5.005
 5946SOL     OW18736   3.235   3.671   6.029
 5946SOL    HW118737   3.214   3.742   5.961
 5946SOL    HW218738   3.150   3.624   6.054
 5947SOL     OW18739   3.528   3.439   3.172
 5947SOL    HW118740   3.475   3.489   3.104
 5947SOL    HW218741   3.581   3.367   3.128
 5948SOL     OW18742   3.752   5.101   2.864
 5948SOL    HW118743   3.702   5.100   2.951
 5948SOL    HW218744   3.728   5.184   2.813
 5949SOL     OW18745   5.002   4.509   1.740
 5949SOL    HW118746   4.965   4.569   1.669
 5949SOL    HW218747   5.059   4.563   1.803
 5950SOL     OW18748   5.423   1.693   4.733
 5950SOL    HW118749   5.515   1.701   4.771
 5950SOL    HW218750   5.369   1.774   4.758
 5951SOL     OW18751   1.261   5.197   4.436
 5951SOL    HW118752   1.180   5.255   4.438
 5951SOL    HW218753   1.236   5.105   4.405
 5952SOL     OW18754   5.204   5.779   3.544
 5952SOL    HW118755   5.146   5.861   3.539
 5952SOL    HW218756   5.147   5.700   3.565
 5953SOL     OW18757   6.802   4.213   5.142
 5953SOL    HW118758   6.759   4.190   5.055
 5953SOL    HW218759   6.797   4.135   5.204
 5954SOL     OW18760   6.478   5.289   5.754
 5954SOL    HW118761   6.402   5.253   5.699
 5954SOL    HW218762   6.564   5.270   5.707
 5955SOL     OW18763   4.352   5.313   1.936
 5955SOL    HW118764   4.426   5.246   1.939
 5955SOL    HW218765   4.382   5.397   1.982
 5956SOL     OW18766   5.063   2.214   3.932
 5956SOL    HW118767   4.972   2.174   3.921
 5956SOL    HW218768   5.108   2.171   4.010
 5957SOL     OW18769   3.011   1.400   4.708
 5957SOL    HW118770   3.040   1.339   4.634
 5957SOL    HW218771   3.015   1.350   4.795
 5958SOL     OW18772   4.370   6.920   2.666
 5958SOL    HW118773   4.395   6.895   2.760
 5958SOL    HW218774   4.271   6.934   2.660
 5959SOL     OW18775   4.582   2.811   5.718
 5959SOL    HW118776   4.595   2.809   5.817
 5959SOL    HW218777   4.634   2.887   5.679
 5960SOL     OW18778   3.683   5.638   5.037
 5960SOL    HW118779   3.738   5.677   4.963
 5960SOL    HW218780   3.743   5.609   5.111
 5961SOL     OW18781   4.478   1.969   2.981
 5961SOL    HW118782   4.444   1.986   2.889
 5961SOL    HW218783   4.577   1.984   2.984
 5962SOL     OW18784   5.846   6.385   6.987
 5962SOL    HW118785   5.876   6.381   6.892
 5962SOL    HW218786   5.808   6.296   7.014
 5963SOL     OW18787   3.088   3.478   6.438
 5963SOL    HW118788   3.129   3.484   6.529
 5963SOL    HW218789   3.142   3.415   6.382
 5964SOL     OW18790   1.260   6.811   4.890
 5964SOL    HW118791   1.246   6.806   4.989
 5964SOL    HW218792   1.195   6.750   4.844
 5965SOL     OW18793   1.718   1.405   6.758
 5965SOL    HW118794   1.760   1.314   6.769
 5965SOL    HW218795   1.787   1.475   6.776
 5966SOL     OW18796   2.525   5.974   6.358
 5966SOL    HW118797   2.446   5.960   6.418
 5966SOL    HW218798   2.499   6.028   6.279
 5967SOL     OW18799   2.504   0.400   6.028
 5967SOL    HW118800   2.550   0.379   5.942
 5967SOL    HW218801   2.428   0.337   6.042
 5968SOL     OW18802   5.472   2.252   0.374
 5968SOL    HW118803   5.512   2.161   0.368
 5968SOL    HW218804   5.394   2.250   0.436
 5969SOL     OW18805   6.095   0.444   0.053
 5969SOL    HW118806   6.057   0.536   0.050
 5969SOL    HW218807   6.189   0.449   0.086
 5970SOL     OW18808   6.978   4.535   2.465
 5970SOL    HW118809   6.885   4.533   2.501
 5970SOL    HW218810   6.994   4.455   2.407
 5971SOL     OW18811   6.951   1.007   1.827
 5971SOL    HW118812   6.955   0.959   1.914
 5971SOL    HW218813   6.994   0.950   1.756
 5972SOL     OW18814   4.676   6.037   6.446
 5972SOL    HW118815   4.587   6.003   6.476
 5972SOL    HW218816   4.740   5.960   6.437
 5973SOL     OW18817   1.916   2.880   1.880
 5973SOL    HW118818   1.946   2.849   1.970
 5973SOL    HW218819   1.849   2.953   1.890
 5974SOL     OW18820   5.214   5.962   0.514
 5974SOL    HW118821   5.268   5.952   0.598
 5974SOL    HW218822   5.229   5.882   0.456
 5975SOL     OW18823   3.935   6.893   0.813
 5975SOL    HW118824   3.972   6.815   0.762
 5975SOL    HW218825   3.839   6.906   0.788
 5976SOL     OW18826   3.931   2.642   5.746
 5976SOL    HW118827   3.999   2.714   5.728
 5976SOL    HW218828   3.876   2.627   5.664
 5977SOL     OW18829   1.404   6.444   0.873
 5977SOL    HW118830   1.312   6.448   0.834
 5977SOL    HW218831   1.409   6.503   0.953
 5978SOL     OW18832   3.698   5.426   1.105
 5978SOL    HW118833   3.780   5.463   1.062
 5978SOL    HW218834   3.685   5.331   1.077
 5979SOL     OW18835   6.622   0.532   2.649
 5979SOL    HW118836   6.568   0.472   2.589
 5979SOL    HW218837   6.616   0.626   2.617
 5980SOL     OW18838   3.945   4.221   1.668
 5980SOL    HW118839   3.904   4.312   1.675
 5980SOL    HW218840   3.881   4.158   1.626
 5981SOL     OW18841   5.137   1.794   0.645
 5981SOL    HW118842   5.185   1.775   0.730
 5981SOL    HW218843   5.201   1.788   0.568
 5982SOL     OW18844   6.300   2.118   2.417
 5982SOL    HW118845   6.243   2.083   2.343
 5982SOL    HW218846   6.276   2.213   2.436
 5983SOL     OW18847   1.355   0.983   4.410
 5983SOL    HW118848   1.314   1.073   4.392
 5983SOL    HW218849   1.417   0.960   4.335
 5984SOL     OW18850   5.700   6.336   3.488
 5984SOL    HW118851   5.641   6.277   3.544
 5984SOL    HW218852   5.795   6.325   3.517
 5985SOL     OW18853   6.826   3.064   3.894
 5985SOL    HW118854   6.917   3.105   3.892
 5985SOL    HW218855   6.835   2.964   3.891
 5986SOL     OW18856   2.950   3.905   4.792
 5986SOL    HW118857   2.943   3.808   4.772
 5986SOL    HW218858   2.877   3.954   4.744
 5987SOL     OW18859   5.580   0.597   4.579
 5987SOL    HW118860   5.656   0.544   4.545
 5987SOL    HW218861   5.615   0.677   4.629
 5988SOL     OW18862   4.506   0.803   5.568
 5988SOL    HW118863   4.516   0.855   5.483
 5988SOL    HW218864   4.558   0.718   5.561
 5989SOL     OW18865   2.102   5.677   6.414
 5989SOL    HW118866   2.157   5.721   6.343
 5989SOL    HW218867   2.131   5.581   6.423
 5990SOL     OW18868   3.823   3.290   0.586
 5990SOL    HW118869   3.772   3.372   0.563
 5990SOL    HW218870   3.760   3.216   0.609
 5991SOL     OW18871   4.115   5.692   0.077
 5991SOL    HW118872   4.037   5.635   0.051
 5991SOL    HW218873   4.105   5.783   0.036
 5992SOL     OW18874   3.400   0.052   1.845
 5992SOL    HW118875   3.304   0.037   1.822
 5992SOL    HW218876   3.406   0.085   1.940
 5993SOL     OW18877   4.020   3.994   5.906
 5993SOL    HW118878   3.924   4.022   5.902
 5993SOL    HW218879   4.055   4.008   5.999
 5994SOL     OW18880   6.517   2.354   0.367
 5994SOL    HW118881   6.525   2.383   0.271
 5994SOL    HW218882   6.479   2.262   0.371
 5995SOL     OW18883   4.893   3.238   2.332
 5995SOL    HW118884   4.891   3.230   2.232
 5995SOL    HW218885   4.824   3.177   2.371
 5996SOL     OW18886   0.124   6.725   0.564
 5996SOL    HW118887   0.140   6.627   0.579
 5996SOL    HW218888   0.088   6.739   0.472
 5997SOL     OW18889   0.150   5.005   2.588
 5997SOL    HW118890   0.055   4.980   2.568
 5997SOL    HW218891   0.168   4.993   2.686
 5998SOL     OW18892   6.130   1.709   2.065
 5998SOL    HW118893   6.133   1.728   2.163
 5998SOL    HW218894   6.095   1.616   2.050
 5999SOL     OW18895   3.132   3.495   1.773
 5999SOL    HW118896   3.179   3.563   1.716
 5999SOL    HW218897   3.125   3.409   1.723
 6000SOL     OW18898   2.312   6.168   6.710
 6000SOL    HW118899   2.229   6.189   6.761
 6000SOL    HW218900   2.389   6.220   6.747
 6001SOL     OW18901   0.053   5.007   0.030
 6001SOL    HW118902   0.151   5.018   0.044
 6001SOL    HW218903   0.004   5.055   0.102
 6002SOL     OW18904   5.711   0.472   0.035
 6002SOL    HW118905   5.763   0.435   6.979
 6002SOL    HW218906   5.721   0.412   0.115
 6003SOL     OW18907   5.544   2.319   4.920
 6003SOL    HW118908   5.459   2.307   4.972
 6003SOL    HW218909   5.583   2.229   4.898
 6004SOL     OW18910   6.957   3.732   2.628
 6004SOL    HW118911   6.910   3.646   2.607
 6004SOL    HW218912   6.901   3.787   2.690
 6005SOL     OW18913   5.254   5.701   4.629
 6005SOL    HW118914   5.231   5.624   4.689
 6005SOL    HW218915   5.209   5.784   4.662
 6006SOL     OW18916   2.454   0.554   5.523
 6006SOL    HW118917   2.511   0.547   5.605
 6006SOL    HW218918   2.414   0.645   5.518
 6007SOL     OW18919   5.795   3.872   5.507
 6007SOL    HW118920   5.770   3.892   5.602
 6007SOL    HW218921   5.783   3.775   5.489
 6008SOL     OW18922   2.785   5.411   5.481
 6008SOL    HW118923   2.821   5.463   5.404
 6008SOL    HW218924   2.696   5.372   5.456
 6009SOL     OW18925   3.005   0.442   3.303
 6009SOL    HW118926   2.945   0.423   3.380
 6009SOL    HW218927   3.012   0.541   3.290
 6010SOL     OW18928   1.227   5.301   3.721
 6010SOL    HW118929   1.302   5.257   3.771
 6010SOL    HW218930   1.140   5.258   3.747
 6011SOL     OW18931   6.208   3.024   3.508
 6011SOL    HW118932   6.282   3.056   3.567
 6011SOL    HW218933   6.209   2.924   3.505
 6012SOL     OW18934   5.970   0.876   0.830
 6012SOL    HW118935   5.914   0.958   0.841
 6012SOL    HW218936   5.963   0.843   0.736
 6013SOL     OW18937   5.183   0.829   2.760
 6013SOL    HW118938   5.250   0.761   2.791
 6013SOL    HW218939   5.091   0.800   2.787
 6014SOL     OW18940   3.585   4.035   3.365
 6014SOL    HW118941   3.561   4.114   3.422
 6014SOL    HW218942   3.501   3.994   3.328
 6015SOL     OW18943   5.590   4.052   4.154
 6015SOL    HW118944   5.611   4.057   4.057
 6015SOL    HW218945   5.507   4.104   4.173
 6016SOL     OW18946   6.610   2.592   6.056
 6016SOL    HW118947   6.572   2.561   5.968
 6016SOL    HW218948   6.550   2.561   6.130
 6017SOL     OW18949   6.101   4.922   3.368
 6017SOL    HW118950   6.134   4.965   3.452
 6017SOL    HW218951   6.178   4.882   3.319
 6018SOL     OW18952   3.586   1.108   6.498
 6018SOL    HW118953   3.574   1.098   6.596
 6018SOL    HW218954   3.681   1.089   6.474
 6019SOL     OW18955   0.644   2.742   4.892
 6019SOL    HW118956   0.642   2.661   4.951
 6019SOL    HW218957   0.635   2.824   4.947
 6020SOL     OW18958   0.384   5.015   0.362
 6020SOL    HW118959   0.447   4.943   0.393
 6020SOL    HW218960   0.296   4.974   0.338
 6021SOL     OW18961   4.592   1.048   3.406
 6021SOL    HW118962   4.663   1.049   3.477
 6021SOL    HW218963   4.634   1.060   3.316
 6022SOL     OW18964   6.833   1.920   3.423
 6022SOL    HW118965   6.746   1.965   3.444
 6022SOL    HW218966   6.857   1.938   3.327
 6023SOL     OW18967   5.800   1.367   1.745
 6023SOL    HW118968   5.783   1.389   1.840
 6023SOL    HW218969   5.883   1.310   1.738
 6024SOL     OW18970   1.217   4.193   1.718
 6024SOL    HW118971   1.139   4.252   1.741
 6024SOL    HW218972   1.201   4.102   1.755
 6025SOL     OW18973   2.995   1.686   3.348
 6025SOL    HW118974   3.080   1.638   3.369
 6025SOL    HW218975   3.015   1.780   3.319
 6026SOL     OW18976   0.161   5.237   5.822
 6026SOL    HW118977   0.087   5.303   5.833
 6026SOL    HW218978   0.151   5.165   5.891
 6027SOL     OW18979   0.103   3.497   5.837
 6027SOL    HW118980   0.068   3.565   5.773
 6027SOL    HW218981   0.154   3.542   5.909
 6028SOL     OW18982   5.850   4.641   0.978
 6028SOL    HW118983   5.753   4.662   0.991
 6028SOL    HW218984   5.885   4.595   1.060
 6029SOL     OW18985   2.635   6.328   4.263
 6029SOL    HW118986   2.581   6.412   4.260
 6029SOL    HW218987   2.726   6.345   4.226
 6030SOL     OW18988   4.296   4.975   2.813
 6030SOL    HW118989   4.198   4.995   2.816
 6030SOL    HW218990   4.342   5.026   2.886
 6031SOL     OW18991   3.469   5.597   4.597
 6031SOL    HW118992   3.404   5.541   4.648
 6031SOL    HW218993   3.424   5.680   4.566
 6032SOL     OW18994   1.924   4.588   1.894
 6032SOL    HW118995   1.923   4.544   1.984
 6032SOL    HW218996   1.973   4.529   1.829
 6033SOL     OW18997   2.481   2.297   3.517
 6033SOL    HW118998   2.393   2.280   3.473
 6033SOL    HW218999   2.543   2.221   3.498
 6034SOL     OW19000   1.019   0.788   5.367
 6034SOL    HW119001   1.091   0.763   5.303
 6034SOL    HW219002   1.027   0.886   5.389
 6035SOL     OW19003   1.373   1.233   1.932
 6035SOL    HW119004   1.422   1.319   1.938
 6035SOL    HW219005   1.373   1.187   2.021
 6036SOL     OW19006   4.959   5.363   2.839
 6036SOL    HW119007   5.017   5.310   2.776
 6036SOL    HW219008   4.986   5.343   2.933
 6037SOL     OW19009   3.882   0.005   0.342
 6037SOL    HW119010   3.921   6.934   0.352
 6037SOL    HW219011   3.950   0.073   0.369
 6038SOL     OW19012   1.463   3.130   5.779
 6038SOL    HW119013   1.402   3.053   5.763
 6038SOL    HW219014   1.415   3.201   5.830
 6039SOL     OW19015   3.982   3.065   2.867
 6039SOL    HW119016   3.910   3.116   2.822
 6039SOL    HW219017   4.048   3.032   2.800
 6040SOL     OW19018   1.702   2.454   1.153
 6040SOL    HW119019   1.630   2.405   1.201
 6040SOL    HW219020   1.678   2.463   1.057
 6041SOL     OW19021   2.995   1.206   5.386
 6041SOL    HW119022   3.034   1.272   5.450
 6041SOL    HW219023   2.903   1.180   5.416
 6042SOL     OW19024   4.236   6.617   2.363
 6042SOL    HW119025   4.336   6.614   2.375
 6042SOL    HW219026   4.199   6.525   2.369
 6043SOL     OW19027   0.947   6.489   5.286
 6043SOL    HW119028   0.980   6.540   5.365
 6043SOL    HW219029   1.018   6.487   5.216
 6044SOL     OW19030   1.557   2.663   1.300
 6044SOL    HW119031   1.624   2.601   1.258
 6044SOL    HW219032   1.486   2.610   1.346
 6045SOL     OW19033   6.016   3.696   2.983
 6045SOL    HW119034   5.972   3.722   2.897
 6045SOL    HW219035   6.020   3.774   3.044
 6046SOL     OW19036   3.432   2.669   1.406
 6046SOL    HW119037   3.384   2.746   1.448
 6046SOL    HW219038   3.481   2.618   1.476
 6047SOL     OW19039   5.190   2.130   1.969
 6047SOL    HW119040   5.116   2.077   2.010
 6047SOL    HW219041   5.193   2.221   2.011
 6048SOL     OW19042   4.639   4.975   5.431
 6048SOL    HW119043   4.545   5.010   5.432
 6048SOL    HW219044   4.695   5.032   5.370
 6049SOL     OW19045   4.648   3.389   6.916
 6049SOL    HW119046   4.550   3.408   6.924
 6049SOL    HW219047   4.692   3.398   7.005
 6050SOL     OW19048   3.222   4.671   6.027
 6050SOL    HW119049   3.290   4.699   5.960
 6050SOL    HW219050   3.200   4.574   6.014
 6051SOL     OW19051   1.899   7.007   3.047
 6051SOL    HW119052   1.945   0.015   2.963
 6051SOL    HW219053   1.801   0.006   3.040
 6052SOL     OW19054   5.485   1.496   1.035
 6052SOL    HW119055   5.399   1.446   1.038
 6052SOL    HW219056   5.543   1.460   0.961
 6053SOL     OW19057   4.428   1.338   6.358
 6053SOL    HW119058   4.503   1.405   6.357
 6053SOL    HW219059   4.341   1.385   6.344
 6054SOL     OW19060   2.624   3.205   0.272
 6054SOL    HW119061   2.678   3.232   0.193
 6054SOL    HW219062   2.547   3.268   0.284
 6055SOL     OW19063   5.164   6.962   5.362
 6055SOL    HW119064   5.194   6.898   5.433
 6055SOL    HW219065   5.216   0.027   5.370
 6056SOL     OW19066   4.857   3.244   5.025
 6056SOL    HW119067   4.811   3.282   5.105
 6056SOL    HW219068   4.859   3.312   4.952
 6057SOL     OW19069   6.977   1.080   2.309
 6057SOL    HW119070   0.019   1.137   2.256
 6057SOL    HW219071   6.933   1.135   2.381
 6058SOL     OW19072   4.873   3.798   1.535
 6058SOL    HW119073   4.913   3.787   1.626
 6058SOL    HW219074   4.786   3.848   1.543
 6059SOL     OW19075   4.943   5.492   6.441
 6059SOL    HW119076   5.007   5.428   6.399
 6059SOL    HW219077   4.873   5.518   6.374
 6060SOL     OW19078   2.955   3.284   6.107
 6060SOL    HW119079   3.048   3.250   6.123
 6060SOL    HW219080   2.907   3.223   6.044
 6061SOL     OW19081   5.076   3.294   0.768
 6061SOL    HW119082   5.130   3.221   0.811
 6061SOL    HW219083   5.011   3.331   0.834
 6062SOL     OW19084   2.478   1.483   5.801
 6062SOL    HW119085   2.469   1.566   5.745
 6062SOL    HW219086   2.533   1.503   5.882
 6063SOL     OW19087   4.708   2.293   6.264
 6063SOL    HW119088   4.639   2.222   6.272
 6063SOL    HW219089   4.667   2.382   6.283
 6064SOL     OW19090   1.139   0.317   1.453
 6064SOL    HW119091   1.049   0.309   1.411
 6064SOL    HW219092   1.130   0.354   1.546
 6065SOL     OW19093   0.936   6.149   3.043
 6065SOL    HW119094   0.934   6.148   3.143
 6065SOL    HW219095   1.009   6.090   3.010
 6066SOL     OW19096   5.049   1.912   5.201
 6066SOL    HW119097   4.998   1.847   5.257
 6066SOL    HW219098   5.125   1.865   5.156
 6067SOL     OW19099   5.324   0.701   5.954
 6067SOL    HW119100   5.237   0.683   6.000
 6067SOL    HW219101   5.398   0.656   6.004
 6068SOL     OW19102   4.704   2.807   4.684
 6068SOL    HW119103   4.638   2.793   4.758
 6068SOL    HW219104   4.763   2.884   4.706
 6069SOL     OW19105   5.961   2.854   4.949
 6069SOL    HW119106   5.904   2.861   4.867
 6069SOL    HW219107   5.969   2.944   4.992
 6070SOL     OW19108   2.945   2.036   1.620
 6070SOL    HW119109   2.957   2.019   1.522
 6070SOL    HW219110   3.012   2.104   1.650
 6071SOL     OW19111   6.435   5.630   5.564
 6071SOL    HW119112   6.366   5.685   5.517
 6071SOL    HW219113   6.500   5.691   5.610
 6072SOL     OW19114   7.009   0.045   1.781
 6072SOL    HW119115   0.026   0.126   1.736
 6072SOL    HW219116   6.967   7.005   1.712
 6073SOL     OW19117   5.512   3.125   0.692
 6073SOL    HW119118   5.527   3.098   0.787
 6073SOL    HW219119   5.445   3.199   0.689
 6074SOL     OW19120   1.172   5.748   2.216
 6074SOL    HW119121   1.212   5.700   2.293
 6074SOL    HW219122   1.216   5.718   2.131
 6075SOL     OW19123   4.795   0.278   5.893
 6075SOL    HW119124   4.877   0.222   5.886
 6075SOL    HW219125   4.715   0.224   5.867
 6076SOL     OW19126   3.347   5.360   3.371
 6076SOL    HW119127   3.360   5.261   3.365
 6076SOL    HW219128   3.435   5.404   3.387
 6077SOL     OW19129   6.319   5.049   1.095
 6077SOL    HW119130   6.379   5.126   1.071
 6077SOL    HW219131   6.370   4.983   1.149
 6078SOL     OW19132   5.082   5.455   0.703
 6078SOL    HW119133   5.168   5.409   0.724
 6078SOL    HW219134   5.022   5.393   0.653
 6079SOL     OW19135   4.741   3.554   5.678
 6079SOL    HW119136   4.747   3.454   5.673
 6079SOL    HW219137   4.728   3.582   5.773
 6080SOL     OW19138   0.081   6.339   0.897
 6080SOL    HW119139   0.128   6.336   0.985
 6080SOL    HW219140   0.126   6.405   0.837
 6081SOL     OW19141   6.853   2.770   5.119
 6081SOL    HW119142   6.839   2.694   5.056
 6081SOL    HW219143   6.878   2.852   5.067
 6082SOL     OW19144   2.615   0.189   3.235
 6082SOL    HW119145   2.639   0.093   3.249
 6082SOL    HW219146   2.616   0.236   3.323
 6083SOL     OW19147   6.150   6.082   0.378
 6083SOL    HW119148   6.232   6.030   0.355
 6083SOL    HW219149   6.104   6.111   0.293
 6084SOL     OW19150   1.150   6.781   3.075
 6084SOL    HW119151   1.125   6.692   3.037
 6084SOL    HW219152   1.082   6.809   3.144
 6085SOL     OW19153   0.214   6.899   0.181
 6085SOL    HW119154   0.213   6.833   0.106
 6085SOL    HW219155   0.275   6.975   0.158
 6086SOL     OW19156   3.191   1.319   5.765
 6086SOL    HW119157   3.101   1.312   5.806
 6086SOL    HW219158   3.182   1.353   5.671
 6087SOL     OW19159   3.523   5.883   1.066
 6087SOL    HW119160   3.616   5.917   1.082
 6087SOL    HW219161   3.518   5.786   1.093
 6088SOL     OW19162   5.216   6.454   4.603
 6088SOL    HW119163   5.274   6.394   4.659
 6088SOL    HW219164   5.205   6.542   4.650
 6089SOL     OW19165   5.687   2.570   2.615
 6089SOL    HW119166   5.688   2.472   2.637
 6089SOL    HW219167   5.707   2.623   2.697
 6090SOL     OW19168   2.497   5.500   4.592
 6090SOL    HW119169   2.559   5.578   4.602
 6090SOL    HW219170   2.403   5.531   4.605
 6091SOL     OW19171   1.983   1.594   0.024
 6091SOL    HW119172   1.940   1.619   6.957
 6091SOL    HW219173   2.044   1.667   0.054
 6092SOL     OW19174   4.408   0.664   2.611
 6092SOL    HW119175   4.390   0.569   2.639
 6092SOL    HW219176   4.323   0.717   2.619
 6093SOL     OW19177   2.225   3.099   1.855
 6093SOL    HW119178   2.192   3.076   1.946
 6093SOL    HW219179   2.188   3.188   1.828
 6094SOL     OW19180   1.603   5.825   2.638
 6094SOL    HW119181   1.615   5.782   2.727
 6094SOL    HW219182   1.556   5.912   2.649
 6095SOL     OW19183   5.296   4.634   0.485
 6095SOL    HW119184   5.392   4.624   0.461
 6095SOL    HW219185   5.279   4.729   0.512
 6096SOL     OW19186   6.004   6.953   3.706
 6096SOL    HW119187   6.070   6.988   3.639
 6096SOL    HW219188   5.990   6.855   3.691
 6097SOL     OW19189   1.815   5.724   2.093
 6097SOL    HW119190   1.715   5.727   2.095
 6097SOL    HW219191   1.848   5.658   2.161
 6098SOL     OW19192   0.390   1.539   5.402
 6098SOL    HW119193   0.301   1.494   5.392
 6098SOL    HW219194   0.440   1.497   5.478
 6099SOL     OW19195   5.434   6.320   6.961
 6099SOL    HW119196   5.467   6.297   0.033
 6099SOL    HW219197   5.500   6.288   6.893
 6100SOL     OW19198   5.752   6.254   1.419
 6100SOL    HW119199   5.819   6.295   1.357
 6100SOL    HW219200   5.742   6.311   1.500
 6101SOL     OW19201   6.956   2.911   3.454
 6101SOL    HW119202   6.901   2.935   3.374
 6101SOL    HW219203   6.904   2.929   3.537
 6102SOL     OW19204   3.403   5.758   3.347
 6102SOL    HW119205   3.418   5.851   3.312
 6102SOL    HW219206   3.314   5.724   3.315
 6103SOL     OW19207   6.344   1.717   1.684
 6103SOL    HW119208   6.402   1.734   1.763
 6103SOL    HW219209   6.350   1.794   1.620
 6104SOL     OW19210   5.241   0.320   5.586
 6104SOL    HW119211   5.324   0.297   5.535
 6104SOL    HW219212   5.171   0.354   5.523
 6105SOL     OW19213   3.418   6.016   6.759
 6105SOL    HW119214   3.330   6.013   6.806
 6105SOL    HW219215   3.456   5.924   6.752
 6106SOL     OW19216   1.132   4.712   6.228
 6106SOL    HW119217   1.071   4.772   6.177
 6106SOL    HW219218   1.082   4.668   6.302
 6107SOL     OW19219   4.467   6.141   4.913
 6107SOL    HW119220   4.545   6.203   4.898
 6107SOL    HW219221   4.501   6.051   4.939
 6108SOL     OW19222   2.307   2.823   1.927
 6108SOL    HW119223   2.292   2.921   1.915
 6108SOL    HW219224   2.306   2.777   1.838
 6109SOL     OW19225   5.809   1.897   4.988
 6109SOL    HW119226   5.857   1.861   4.908
 6109SOL    HW219227   5.791   1.822   5.053
 6110SOL     OW19228   3.133   3.984   1.002
 6110SOL    HW119229   3.059   3.957   0.942
 6110SOL    HW219230   3.217   3.996   0.949
 6111SOL     OW19231   1.321   3.262   2.660
 6111SOL    HW119232   1.327   3.194   2.587
 6111SOL    HW219233   1.293   3.350   2.621
 6112SOL     OW19234   2.756   0.022   2.907
 6112SOL    HW119235   2.819   0.084   2.861
 6112SOL    HW219236   2.807   6.971   2.955
 6113SOL     OW19237   3.322   2.583   6.115
 6113SOL    HW119238   3.261   2.555   6.189
 6113SOL    HW219239   3.390   2.648   6.151
 6114SOL     OW19240   5.232   4.708   2.413
 6114SOL    HW119241   5.135   4.724   2.393
 6114SOL    HW219242   5.250   4.729   2.509
 6115SOL     OW19243   5.834   0.557   4.166
 6115SOL    HW119244   5.906   0.499   4.204
 6115SOL    HW219245   5.840   0.557   4.067
 6116SOL     OW19246   4.773   1.484   6.038
 6116SOL    HW119247   4.699   1.524   6.092
 6116SOL    HW219248   4.841   1.442   6.098
 6117SOL     OW19249   1.544   1.087   3.455
 6117SOL    HW119250   1.467   1.029   3.481
 6117SOL    HW219251   1.569   1.145   3.532
 6118SOL     OW19252   6.748   1.036   1.281
 6118SOL    HW119253   6.657   1.037   1.239
 6118SOL    HW219254   6.806   1.104   1.237
 6119SOL     OW19255   0.867   3.990   0.026
 6119SOL    HW119256   0.815   3.906   0.040
 6119SOL    HW219257   0.920   3.983   6.961
 6120SOL     OW19258   3.826   6.296   5.543
 6120SOL    HW119259   3.767   6.281   5.622
 6120SOL    HW219260   3.887   6.217   5.532
 6121SOL     OW19261   0.577   3.654   5.236
 6121SOL    HW119262   0.617   3.639   5.326
 6121SOL    HW219263   0.505   3.587   5.219
 6122SOL     OW19264   4.394   5.369   0.498
 6122SOL    HW119265   4.429   5.437   0.434
 6122SOL    HW219266   4.379   5.282   0.450
 6123SOL     OW19267   5.357   0.053   6.232
 6123SOL    HW119268   5.367   0.116   6.310
 6123SOL    HW219269   5.261   0.028   6.221
 6124SOL     OW19270   1.440   6.797   5.768
 6124SOL    HW119271   1.475   6.705   5.785
 6124SOL    HW219272   1.497   6.841   5.698
 6125SOL     OW19273   2.372   4.233   0.268
 6125SOL    HW119274   2.435   4.214   0.343
 6125SOL    HW219275   2.351   4.148   0.220
 6126SOL     OW19276   0.853   0.496   4.333
 6126SOL    HW119277   0.826   0.561   4.261
 6126SOL    HW219278   0.946   0.465   4.316
 6127SOL     OW19279   3.182   6.886   1.152
 6127SOL    HW119280   3.132   6.936   1.224
 6127SOL    HW219281   3.274   6.865   1.185
 6128SOL     OW19282   6.319   3.757   0.651
 6128SOL    HW119283   6.346   3.691   0.582
 6128SOL    HW219284   6.375   3.840   0.642
 6129SOL     OW19285   7.010   3.439   2.123
 6129SOL    HW119286   0.007   3.353   2.074
 6129SOL    HW219287   6.925   3.480   2.090
 6130SOL     OW19288   5.617   2.985   2.352
 6130SOL    HW119289   5.676   2.967   2.274
 6130SOL    HW219290   5.534   2.929   2.345
 6131SOL     OW19291   0.632   1.446   4.028
 6131SOL    HW119292   0.720   1.411   3.994
 6131SOL    HW219293   0.646   1.534   4.072
 6132SOL     OW19294   4.750   2.016   0.040
 6132SOL    HW119295   4.847   2.030   0.019
 6132SOL    HW219296   4.706   1.970   6.983
 6133SOL     OW19297   2.118   3.302   2.995
 6133SOL    HW119298   2.035   3.250   2.977
 6133SOL    HW219299   2.096   3.379   3.056
 6134SOL     OW19300   4.248   5.186   6.767
 6134SOL    HW119301   4.177   5.218   6.828
 6134SOL    HW219302   4.338   5.214   6.801
 6135SOL     OW19303   6.911   0.038   0.359
 6135SOL    HW119304   6.939   0.091   0.279
 6135SOL    HW219305   6.828   0.078   0.398
 6136SOL     OW19306   1.046   3.187   2.101
 6136SOL    HW119307   1.125   3.243   2.074
 6136SOL    HW219308   1.078   3.094   2.121
 6137SOL     OW19309   6.363   4.051   2.058
 6137SOL    HW119310   6.290   4.105   2.099
 6137SOL    HW219311   6.393   4.093   1.973
 6138SOL     OW19312   3.704   6.819   2.686
 6138SOL    HW119313   3.753   6.860   2.764
 6138SOL    HW219314   3.693   6.721   2.702
 6139SOL     OW19315   1.668   6.782   6.037
 6139SOL    HW119316   1.584   6.819   6.077
 6139SOL    HW219317   1.645   6.714   5.968
 6140SOL     OW19318   0.923   6.896   2.137
 6140SOL    HW119319   0.919   6.910   2.038
 6140SOL    HW219320   0.994   6.829   2.159
 6141SOL     OW19321   0.795   6.949   6.300
 6141SOL    HW119322   0.833   0.020   6.317
 6141SOL    HW219323   0.715   6.935   6.358
 6142SOL     OW19324   0.399   6.269   6.534
 6142SOL    HW119325   0.339   6.214   6.477
 6142SOL    HW219326   0.472   6.308   6.478
 6143SOL     OW19327   6.460   3.081   1.035
 6143SOL    HW119328   6.363   3.056   1.036
 6143SOL    HW219329   6.504   3.047   1.118
 6144SOL     OW19330   4.922   4.882   4.471
 6144SOL    HW119331   4.930   4.815   4.397
 6144SOL    HW219332   4.897   4.971   4.433
 6145SOL     OW19333   5.429   4.954   4.482
 6145SOL    HW119334   5.374   5.030   4.448
 6145SOL    HW219335   5.452   4.894   4.405
 6146SOL     OW19336   3.067   5.540   3.981
 6146SOL    HW119337   3.155   5.566   3.943
 6146SOL    HW219338   3.033   5.612   4.041
 6147SOL     OW19339   2.284   1.947   4.770
 6147SOL    HW119340   2.377   1.952   4.809
 6147SOL    HW219341   2.253   2.039   4.746
 6148SOL     OW19342   4.716   6.962   5.223
 6148SOL    HW119343   4.734   6.866   5.205
 6148SOL    HW219344   4.789   7.000   5.280
 6149SOL     OW19345   2.794   6.739   1.192
 6149SOL    HW119346   2.775   6.770   1.099
 6149SOL    HW219347   2.749   6.651   1.208
 6150SOL     OW19348   5.689   5.329   0.755
 6150SOL    HW119349   5.656   5.341   0.849
 6150SOL    HW219350   5.765   5.264   0.754
 6151SOL     OW19351   6.324   5.089   6.317
 6151SOL    HW119352   6.359   5.097   6.410
 6151SOL    HW219353   6.346   5.173   6.266
 6152SOL     OW19354   6.556   5.680   4.810
 6152SOL    HW119355   6.577   5.710   4.903
 6152SOL    HW219356   6.639   5.679   4.755
 6153SOL     OW19357   5.287   4.791   1.366
 6153SOL    HW119358   5.351   4.719   1.339
 6153SOL    HW219359   5.249   4.834   1.284
 6154SOL     OW19360   6.435   2.582   2.536
 6154SOL    HW119361   6.384   2.515   2.482
 6154SOL    HW219362   6.409   2.674   2.508
 6155SOL     OW19363   1.693   1.298   3.151
 6155SOL    HW119364   1.607   1.346   3.169
 6155SOL    HW219365   1.705   1.286   3.052
 6156SOL     OW19366   4.274   4.732   2.138
 6156SOL    HW119367   4.230   4.656   2.186
 6156SOL    HW219368   4.327   4.696   2.061
 6157SOL     OW19369   6.987   2.066   4.545
 6157SOL    HW119370   6.887   2.071   4.542
 6157SOL    HW219371   0.006   2.136   4.486
 6158SOL     OW19372   3.713   2.089   6.287
 6158SOL    HW119373   3.620   2.113   6.258
 6158SOL    HW219374   3.720   1.991   6.300
 6159SOL     OW19375   4.498   1.909   1.643
 6159SOL    HW119376   4.571   1.853   1.682
 6159SOL    HW219377   4.410   1.877   1.677
 6160SOL     OW19378   5.415   1.262   6.680
 6160SOL    HW119379   5.487   1.260   6.611
 6160SOL    HW219380   5.455   1.259   6.772
 6161SOL     OW19381   5.495   1.675   5.691
 6161SOL    HW119382   5.558   1.619   5.637
 6161SOL    HW219383   5.413   1.693   5.638
 6162SOL     OW19384   6.836   6.127   3.628
 6162SOL    HW119385   6.807   6.134   3.532
 6162SOL    HW219386   6.819   6.213   3.674
 6163SOL     OW19387   6.064   6.562   1.390
 6163SOL    HW119388   6.026   6.593   1.303
 6163SOL    HW219389   6.157   6.596   1.399
 6164SOL     OW19390   3.381   3.827   3.620
 6164SOL    HW119391   3.450   3.838   3.692
 6164SOL    HW219392   3.309   3.894   3.632
 6165SOL     OW19393   4.747   1.705   6.648
 6165SOL    HW119394   4.677   1.634   6.644
 6165SOL    HW219395   4.837   1.662   6.653
 6166SOL     OW19396   5.597   1.913   6.189
 6166SOL    HW119397   5.656   1.994   6.191
 6166SOL    HW219398   5.650   1.835   6.154
 6167SOL     OW19399   1.155   5.129   3.044
 6167SOL    HW119400   1.105   5.043   3.050
 6167SOL    HW219401   1.248   5.111   3.011
 6168SOL     OW19402   1.588   3.416   2.571
 6168SOL    HW119403   1.553   3.403   2.478
 6168SOL    HW219404   1.622   3.329   2.606
 6169SOL     OW19405   1.222   2.227   6.966
 6169SOL    HW119406   1.256   2.183   0.029
 6169SOL    HW219407   1.250   2.175   6.886
 6170SOL     OW19408   2.249   4.114   5.307
 6170SOL    HW119409   2.291   4.051   5.242
 6170SOL    HW219410   2.214   4.194   5.259
 6171SOL     OW19411   1.778   3.607   1.026
 6171SOL    HW119412   1.739   3.633   0.937
 6171SOL    HW219413   1.798   3.509   1.026
 6172SOL     OW19414   2.068   1.590   2.921
 6172SOL    HW119415   2.165   1.577   2.941
 6172SOL    HW219416   2.025   1.502   2.904
 6173SOL     OW19417   6.109   5.691   2.017
 6173SOL    HW119418   6.164   5.753   2.072
 6173SOL    HW219419   6.129   5.596   2.042
 6174SOL     OW19420   5.238   5.015   3.681
 6174SOL    HW119421   5.175   5.081   3.640
 6174SOL    HW219422   5.187   4.934   3.709
 6175SOL     OW19423   4.804   0.772   3.660
 6175SOL    HW119424   4.835   0.734   3.573
 6175SOL    HW219425   4.724   0.722   3.692
 6176SOL     OW19426   5.517   3.225   6.249
 6176SOL    HW119427   5.596   3.275   6.284
 6176SOL    HW219428   5.433   3.276   6.270
 6177SOL     OW19429   5.543   0.789   0.906
 6177SOL    HW119430   5.642   0.785   0.918
 6177SOL    HW219431   5.521   0.795   0.808
 6178SOL     OW19432   4.739   4.902   3.368
 6178SOL    HW119433   4.710   4.868   3.279
 6178SOL    HW219434   4.833   4.935   3.362
 6179SOL     OW19435   6.970   5.020   4.354
 6179SOL    HW119436   6.952   5.009   4.452
 6179SOL    HW219437   6.954   4.933   4.307
 6180SOL     OW19438   3.992   4.614   0.133
 6180SOL    HW119439   3.947   4.567   0.056
 6180SOL    HW219440   4.018   4.706   0.104
 6181SOL     OW19441   3.509   6.729   0.653
 6181SOL    HW119442   3.410   6.744   0.655
 6181SOL    HW219443   3.539   6.692   0.741
 6182SOL     OW19444   5.193   3.352   5.557
 6182SOL    HW119445   5.130   3.380   5.485
 6182SOL    HW219446   5.285   3.382   5.534
 6183SOL     OW19447   2.179   1.413   3.232
 6183SOL    HW119448   2.257   1.469   3.259
 6183SOL    HW219449   2.095   1.468   3.238
 6184SOL     OW19450   2.111   6.573   5.930
 6184SOL    HW119451   2.197   6.623   5.937
 6184SOL    HW219452   2.129   6.475   5.935
 6185SOL     OW19453   0.029   4.239   6.506
 6185SOL    HW119454   0.003   4.304   6.434
 6185SOL    HW219455   0.128   4.243   6.521
 6186SOL     OW19456   6.666   6.833   5.806
 6186SOL    HW119457   6.604   6.775   5.858
 6186SOL    HW219458   6.742   6.862   5.864
 6187SOL     OW19459   4.563   4.830   3.124
 6187SOL    HW119460   4.630   4.860   3.056
 6187SOL    HW219461   4.482   4.889   3.119
 6188SOL     OW19462   2.306   0.181   1.059
 6188SOL    HW119463   2.278   0.272   1.088
 6188SOL    HW219464   2.369   0.188   0.983
 6189SOL     OW19465   5.067   4.180   3.827
 6189SOL    HW119466   5.134   4.128   3.774
 6189SOL    HW219467   5.032   4.255   3.771
 6190SOL     OW19468   0.415   3.777   5.543
 6190SOL    HW119469   0.506   3.766   5.583
 6190SOL    HW219470   0.412   3.861   5.489
 6191SOL     OW19471   3.867   1.809   6.971
 6191SOL    HW119472   3.909   1.725   6.934
 6191SOL    HW219473   3.939   1.870   7.003
 6192SOL     OW19474   3.741   2.529   6.494
 6192SOL    HW119475   3.772   2.435   6.507
 6192SOL    HW219476   3.740   2.551   6.396
 6193SOL     OW19477   4.940   1.307   2.293
 6193SOL    HW119478   4.895   1.377   2.349
 6193SOL    HW219479   4.914   1.319   2.198
 6194SOL     OW19480   1.547   0.127   0.948
 6194SOL    HW119481   1.516   0.048   1.000
 6194SOL    HW219482   1.534   0.210   1.002
 6195SOL     OW19483   4.679   6.405   5.358
 6195SOL    HW119484   4.673   6.315   5.401
 6195SOL    HW219485   4.597   6.423   5.304
 6196SOL     OW19486   5.789   2.495   1.778
 6196SOL    HW119487   5.760   2.498   1.682
 6196SOL    HW219488   5.752   2.413   1.821
 6197SOL     OW19489   4.238   4.807   0.738
 6197SOL    HW119490   4.184   4.785   0.818
 6197SOL    HW219491   4.265   4.722   0.691
 6198SOL     OW19492   3.827   6.284   2.065
 6198SOL    HW119493   3.900   6.219   2.090
 6198SOL    HW219494   3.744   6.261   2.115
 6199SOL     OW19495   0.969   0.602   0.980
 6199SOL    HW119496   1.034   0.597   0.903
 6199SOL    HW219497   0.917   0.687   0.973
 6200SOL     OW19498   1.232   1.281   5.519
 6200SOL    HW119499   1.212   1.378   5.537
 6200SOL    HW219500   1.325   1.260   5.548
 6201SOL     OW19501   0.923   3.279   5.603
 6201SOL    HW119502   0.836   3.295   5.650
 6201SOL    HW219503   0.975   3.208   5.652
 6202SOL     OW19504   3.778   1.734   2.435
 6202SOL    HW119505   3.842   1.780   2.496
 6202SOL    HW219506   3.707   1.689   2.489
 6203SOL     OW19507   6.809   6.450   2.808
 6203SOL    HW119508   6.820   6.499   2.721
 6203SOL    HW219509   6.859   6.499   2.879
 6204SOL     OW19510   0.549   5.497   5.153
 6204SOL    HW119511   0.557   5.405   5.114
 6204SOL    HW219512   0.505   5.558   5.087
 6205SOL     OW19513   6.098   6.202   0.815
 6205SOL    HW119514   6.141   6.238   0.732
 6205SOL    HW219515   6.003   6.232   0.819
 6206SOL     OW19516   0.099   1.100   3.289
 6206SOL    HW119517   0.129   1.137   3.377
 6206SOL    HW219518   7.019   1.099   3.286
 6207SOL     OW19519   1.414   4.867   5.309
 6207SOL    HW119520   1.363   4.802   5.253
 6207SOL    HW219521   1.405   4.959   5.270
 6208SOL     OW19522   5.811   1.430   6.094
 6208SOL    HW119523   5.865   1.452   6.176
 6208SOL    HW219524   5.873   1.399   6.022
 6209SOL     OW19525   4.680   5.763   6.999
 6209SOL    HW119526   4.697   5.664   6.995
 6209SOL    HW219527   4.582   5.780   7.001
 6210SOL     OW19528   5.182   3.354   3.231
 6210SOL    HW119529   5.233   3.270   3.213
 6210SOL    HW219530   5.211   3.393   3.318
 6211SOL     OW19531   3.148   6.164   5.109
 6211SOL    HW119532   3.183   6.198   5.196
 6211SOL    HW219533   3.048   6.160   5.113
 6212SOL     OW19534   1.678   5.228   3.839
 6212SOL    HW119535   1.703   5.323   3.819
 6212SOL    HW219536   1.738   5.192   3.910
 6213SOL     OW19537   5.742   0.281   0.230
 6213SOL    HW119538   5.683   0.252   0.305
 6213SOL    HW219539   5.809   0.209   0.211
 6214SOL     OW19540   5.232   4.646   4.309
 6214SOL    HW119541   5.262   4.639   4.405
 6214SOL    HW219542   5.135   4.669   4.306
 6215SOL     OW19543   4.261   1.227   0.500
 6215SOL    HW119544   4.253   1.154   0.568
 6215SOL    HW219545   4.340   1.284   0.522
 6216SOL     OW19546   5.721   1.388   2.044
 6216SOL    HW119547   5.745   1.337   2.126
 6216SOL    HW219548   5.626   1.369   2.019
 6217SOL     OW19549   0.155   3.915   2.518
 6217SOL    HW119550   0.162   4.000   2.570
 6217SOL    HW219551   0.070   3.869   2.542
 6218SOL     OW19552   3.860   5.723   6.050
 6218SOL    HW119553   3.886   5.806   6.099
 6218SOL    HW219554   3.936   5.658   6.049
 6219SOL     OW19555   0.758   2.777   4.258
 6219SOL    HW119556   0.838   2.722   4.233
 6219SOL    HW219557   0.756   2.791   4.357
 6220SOL     OW19558   1.861   1.813   5.376
 6220SOL    HW119559   1.878   1.727   5.425
 6220SOL    HW219560   1.770   1.847   5.401
 6221SOL     OW19561   5.693   5.585   6.853
 6221SOL    HW119562   5.667   5.492   6.879
 6221SOL    HW219563   5.752   5.624   6.925
 6222SOL     OW19564   0.620   6.870   1.786
 6222SOL    HW119565   0.634   6.967   1.769
 6222SOL    HW219566   0.637   6.818   1.702
 6223SOL     OW19567   0.740   5.145   4.198
 6223SOL    HW119568   0.652   5.141   4.149
 6223SOL    HW219569   0.724   5.178   4.291
 6224SOL     OW19570   2.541   1.898   6.017
 6224SOL    HW119571   2.478   1.923   5.944
 6224SOL    HW219572   2.635   1.917   5.988
 6225SOL     OW19573   3.716   3.966   6.629
 6225SOL    HW119574   3.639   3.996   6.573
 6225SOL    HW219575   3.799   3.961   6.573
 6226SOL     OW19576   6.678   1.589   5.045
 6226SOL    HW119577   6.647   1.642   5.123
 6226SOL    HW219578   6.718   1.503   5.077
 6227SOL     OW19579   3.631   5.998   5.458
 6227SOL    HW119580   3.553   6.060   5.463
 6227SOL    HW219581   3.611   5.924   5.394
 6228SOL     OW19582   1.306   2.516   2.879
 6228SOL    HW119583   1.276   2.421   2.891
 6228SOL    HW219584   1.305   2.563   2.967
 6229SOL     OW19585   0.370   2.021   2.954
 6229SOL    HW119586   0.277   2.015   2.990
 6229SOL    HW219587   0.368   2.011   2.855
 6230SOL     OW19588   0.830   1.716   3.569
 6230SOL    HW119589   0.743   1.666   3.566
 6230SOL    HW219590   0.877   1.696   3.655
 6231SOL     OW19591   6.299   5.965   1.356
 6231SOL    HW119592   6.303   6.065   1.349
 6231SOL    HW219593   6.204   5.937   1.372
 6232SOL     OW19594   7.019   0.479   1.025
 6232SOL    HW119595   6.991   0.490   0.929
 6232SOL    HW219596   0.057   0.557   1.052
 6233SOL     OW19597   6.966   0.831   0.967
 6233SOL    HW119598   7.011   0.869   1.048
 6233SOL    HW219599   6.914   0.750   0.993
 6234SOL     OW19600   6.235   1.067   5.707
 6234SOL    HW119601   6.253   1.118   5.623
 6234SOL    HW219602   6.317   1.064   5.763
 6235SOL     OW19603   1.135   6.407   1.267
 6235SOL    HW119604   1.219   6.439   1.310
 6235SOL    HW219605   1.156   6.339   1.197
 6236SOL     OW19606   0.524   3.815   0.781
 6236SOL    HW119607   0.574   3.778   0.703
 6236SOL    HW219608   0.524   3.915   0.776
 6237SOL     OW19609   3.302   0.009   6.522
 6237SOL    HW119610   3.364   7.003   6.596
 6237SOL    HW219611   3.257   6.947   6.486
 6238SOL     OW19612   3.782   4.976   2.593
 6238SOL    HW119613   3.857   4.910   2.601
 6238SOL    HW219614   3.760   5.013   2.683
 6239SOL     OW19615   2.260   0.490   1.679
 6239SOL    HW119616   2.303   0.416   1.732
 6239SOL    HW219617   2.185   0.453   1.625
 6240SOL     OW19618   2.031   2.921   5.424
 6240SOL    HW119619   1.982   2.988   5.480
 6240SOL    HW219620   2.122   2.957   5.401
 6241SOL     OW19621   3.617   6.898   1.891
 6241SOL    HW119622   3.548   6.962   1.857
 6241SOL    HW219623   3.669   6.939   1.965
 6242SOL     OW19624   4.848   0.563   3.985
 6242SOL    HW119625   4.921   0.569   3.918
 6242SOL    HW219626   4.814   0.655   4.006
 6243SOL     OW19627   6.074   6.282   4.070
 6243SOL    HW119628   6.057   6.381   4.061
 6243SOL    HW219629   6.049   6.237   3.984
 6244SOL     OW19630   6.976   2.341   1.555
 6244SOL    HW119631   0.053   2.325   1.541
 6244SOL    HW219632   6.941   2.277   1.624
 6245SOL     OW19633   1.561   3.992   0.564
 6245SOL    HW119634   1.585   4.089   0.559
 6245SOL    HW219635   1.640   3.939   0.594
 6246SOL     OW19636   2.054   1.990   5.839
 6246SOL    HW119637   2.082   1.982   5.744
 6246SOL    HW219638   1.978   1.928   5.857
 6247SOL     OW19639   0.443   6.093   4.699
 6247SOL    HW119640   0.388   6.175   4.711
 6247SOL    HW219641   0.539   6.118   4.690
 6248SOL     OW19642   3.633   3.104   0.718
 6248SOL    HW119643   3.640   3.155   0.803
 6248SOL    HW219644   3.623   3.006   0.739
 6249SOL     OW19645   0.742   4.048   0.824
 6249SOL    HW119646   0.680   4.073   0.899
 6249SOL    HW219647   0.796   3.969   0.852
 6250SOL     OW19648   7.017   6.778   0.327
 6250SOL    HW119649   7.003   6.852   0.392
 6250SOL    HW219650   0.046   6.812   0.247
 6251SOL     OW19651   4.227   5.609   6.118
 6251SOL    HW119652   4.284   5.604   6.036
 6251SOL    HW219653   4.170   5.527   6.124
 6252SOL     OW19654   1.775   6.191   5.458
 6252SOL    HW119655   1.794   6.251   5.536
 6252SOL    HW219656   1.782   6.243   5.373
 6253SOL     OW19657   2.502   4.466   3.561
 6253SOL    HW119658   2.457   4.518   3.488
 6253SOL    HW219659   2.567   4.401   3.520
 6254SOL     OW19660   5.249   1.575   1.532
 6254SOL    HW119661   5.157   1.599   1.504
 6254SOL    HW219662   5.315   1.632   1.484
 6255SOL     OW19663   3.322   0.389   1.195
 6255SOL    HW119664   3.347   0.482   1.169
 6255SOL    HW219665   3.223   0.378   1.186
 6256SOL     OW19666   3.229   5.199   1.760
 6256SOL    HW119667   3.241   5.178   1.663
 6256SOL    HW219668   3.242   5.297   1.775
 6257SOL     OW19669   4.890   1.906   1.008
 6257SOL    HW119670   4.863   1.991   1.054
 6257SOL    HW219671   4.827   1.887   0.934
 6258SOL     OW19672   3.607   0.179   3.588
 6258SOL    HW119673   3.611   0.168   3.687
 6258SOL    HW219674   3.549   0.107   3.549
 6259SOL     OW19675   2.196   2.451   7.005
 6259SOL    HW119676   2.202   2.478   6.909
 6259SOL    HW219677   2.121   2.501   0.029
 6260SOL     OW19678   3.209   5.441   0.107
 6260SOL    HW119679   3.288   5.499   0.089
 6260SOL    HW219680   3.230   5.347   0.078
 6261SOL     OW19681   3.576   1.151   6.782
 6261SOL    HW119682   3.543   1.081   6.846
 6261SOL    HW219683   3.538   1.240   6.806
 6262SOL     OW19684   2.686   6.485   1.248
 6262SOL    HW119685   2.655   6.405   1.197
 6262SOL    HW219686   2.730   6.456   1.333
 6263SOL     OW19687   6.658   0.799   5.467
 6263SOL    HW119688   6.640   0.893   5.439
 6263SOL    HW219689   6.720   0.756   5.401
 6264SOL     OW19690   1.426   0.118   2.209
 6264SOL    HW119691   1.481   0.053   2.261
 6264SOL    HW219692   1.475   0.205   2.203
 6265SOL     OW19693   3.839   3.521   0.280
 6265SOL    HW119694   3.886   3.605   0.255
 6265SOL    HW219695   3.795   3.533   0.369
 6266SOL     OW19696   4.058   1.226   4.933
 6266SOL    HW119697   3.985   1.159   4.942
 6266SOL    HW219698   4.019   1.315   4.908
 6267SOL     OW19699   2.191   6.999   6.279
 6267SOL    HW119700   2.170   0.046   6.351
 6267SOL    HW219701   2.226   6.915   6.321
 6268SOL     OW19702   2.455   6.919   3.399
 6268SOL    HW119703   2.437   6.894   3.494
 6268SOL    HW219704   2.384   6.982   3.368
 6269SOL     OW19705   6.841   6.491   1.961
 6269SOL    HW119706   6.909   6.480   2.034
 6269SOL    HW219707   6.886   6.482   1.872
 6270SOL     OW19708   1.776   0.089   5.706
 6270SOL    HW119709   1.701   0.124   5.761
 6270SOL    HW219710   1.861   0.095   5.758
 6271SOL     OW19711   6.667   2.408   6.461
 6271SOL    HW119712   6.654   2.491   6.515
 6271SOL    HW219713   6.655   2.328   6.520
 6272SOL     OW19714   0.536   2.919   0.022
 6272SOL    HW119715   0.447   2.944   7.004
 6272SOL    HW219716   0.525   2.883   0.114
 6273SOL     OW19717   1.181   6.576   2.520
 6273SOL    HW119718   1.244   6.654   2.517
 6273SOL    HW219719   1.231   6.494   2.549
 6274SOL     OW19720   3.252   5.542   5.779
 6274SOL    HW119721   3.334   5.485   5.787
 6274SOL    HW219722   3.186   5.498   5.720
 6275SOL     OW19723   2.241   6.177   6.281
 6275SOL    HW119724   2.297   6.259   6.269
 6275SOL    HW219725   2.230   6.131   6.193
 6276SOL     OW19726   1.446   4.053   3.129
 6276SOL    HW119727   1.392   4.133   3.103
 6276SOL    HW219728   1.452   4.048   3.229
 6277SOL     OW19729   5.363   4.148   2.130
 6277SOL    HW119730   5.308   4.183   2.054
 6277SOL    HW219731   5.455   4.185   2.125
 6278SOL     OW19732   5.092   5.924   4.771
 6278SOL    HW119733   5.141   5.911   4.858
 6278SOL    HW219734   5.033   5.846   4.754
 6279SOL     OW19735   3.817   0.013   6.653
 6279SOL    HW119736   3.835   6.994   6.744
 6279SOL    HW219737   3.778   6.962   6.594
 6280SOL     OW19738   0.996   2.121   5.322
 6280SOL    HW119739   1.058   2.196   5.344
 6280SOL    HW219740   1.042   2.055   5.263
 6281SOL     OW19741   0.886   5.279   3.988
 6281SOL    HW119742   0.797   5.286   3.942
 6281SOL    HW219743   0.875   5.242   4.080
 6282SOL     OW19744   0.761   6.305   5.238
 6282SOL    HW119745   0.693   6.357   5.187
 6282SOL    HW219746   0.847   6.357   5.242
 6283SOL     OW19747   6.233   3.382   5.243
 6283SOL    HW119748   6.266   3.319   5.314
 6283SOL    HW219749   6.156   3.434   5.278
 6284SOL     OW19750   0.812   5.336   4.863
 6284SOL    HW119751   0.719   5.322   4.830
 6284SOL    HW219752   0.823   5.432   4.892
 6285SOL     OW19753   0.226   3.562   4.757
 6285SOL    HW119754   0.307   3.563   4.815
 6285SOL    HW219755   0.147   3.532   4.809
 6286SOL     OW19756   5.884   1.611   3.666
 6286SOL    HW119757   5.883   1.532   3.728
 6286SOL    HW219758   5.873   1.695   3.720
 6287SOL     OW19759   3.755   4.941   4.486
 6287SOL    HW119760   3.833   4.906   4.538
 6287SOL    HW219761   3.786   4.970   4.396
 6288SOL     OW19762   5.179   4.356   2.965
 6288SOL    HW119763   5.175   4.278   3.028
 6288SOL    HW219764   5.256   4.415   2.990
 6289SOL     OW19765   1.939   4.793   1.033
 6289SOL    HW119766   1.993   4.758   1.110
 6289SOL    HW219767   1.991   4.864   0.985
 6290SOL     OW19768   6.446   4.944   5.485
 6290SOL    HW119769   6.454   4.865   5.425
 6290SOL    HW219770   6.499   4.929   5.568
 6291SOL     OW19771   4.032   3.514   4.632
 6291SOL    HW119772   3.963   3.459   4.583
 6291SOL    HW219773   4.093   3.452   4.682
 6292SOL     OW19774   1.445   2.109   4.544
 6292SOL    HW119775   1.515   2.131   4.477
 6292SOL    HW219776   1.372   2.057   4.500
 6293SOL     OW19777   3.279   0.890   0.420
 6293SOL    HW119778   3.211   0.964   0.425
 6293SOL    HW219779   3.368   0.926   0.446
 6294SOL     OW19780   3.851   6.015   4.060
 6294SOL    HW119781   3.782   5.951   4.026
 6294SOL    HW219782   3.922   5.964   4.108
 6295SOL     OW19783   5.495   4.753   6.244
 6295SOL    HW119784   5.402   4.775   6.273
 6295SOL    HW219785   5.533   4.828   6.191
 6296SOL     OW19786   0.610   6.640   5.944
 6296SOL    HW119787   0.621   6.734   5.974
 6296SOL    HW219788   0.646   6.630   5.851
 6297SOL     OW19789   5.060   0.189   3.842
 6297SOL    HW119790   5.053   0.281   3.804
 6297SOL    HW219791   5.154   0.173   3.874
 6298SOL     OW19792   1.444   2.564   6.854
 6298SOL    HW119793   1.349   2.589   6.836
 6298SOL    HW219794   1.494   2.645   6.884
 6299SOL     OW19795   5.785   2.137   0.429
 6299SOL    HW119796   5.816   2.225   0.465
 6299SOL    HW219797   5.782   2.142   0.329
 6300SOL     OW19798   5.882   0.452   0.530
 6300SOL    HW119799   5.951   0.478   0.598
 6300SOL    HW219800   5.882   0.353   0.519
 6301SOL     OW19801   3.828   6.885   6.946
 6301SOL    HW119802   3.794   6.958   7.004
 6301SOL    HW219803   3.773   6.802   6.960
 6302SOL     OW19804   1.739   0.769   3.099
 6302SOL    HW119805   1.697   0.791   3.187
 6302SOL    HW219806   1.832   0.806   3.096
 6303SOL     OW19807   2.201   1.335   4.265
 6303SOL    HW119808   2.218   1.403   4.337
 6303SOL    HW219809   2.170   1.382   4.182
 6304SOL     OW19810   2.172   0.772   1.479
 6304SOL    HW119811   2.162   0.724   1.566
 6304SOL    HW219812   2.258   0.747   1.436
 6305SOL     OW19813   6.838   6.941   1.282
 6305SOL    HW119814   6.807   6.893   1.200
 6305SOL    HW219815   6.860   6.875   1.353
 6306SOL     OW19816   0.664   4.439   3.839
 6306SOL    HW119817   0.680   4.340   3.845
 6306SOL    HW219818   0.624   4.472   3.924
 6307SOL     OW19819   3.674   4.315   5.249
 6307SOL    HW119820   3.704   4.256   5.324
 6307SOL    HW219821   3.594   4.368   5.279
 6308SOL     OW19822   2.164   2.169   4.692
 6308SOL    HW119823   2.216   2.253   4.681
 6308SOL    HW219824   2.066   2.190   4.691
 6309SOL     OW19825   5.691   4.516   5.229
 6309SOL    HW119826   5.707   4.421   5.205
 6309SOL    HW219827   5.775   4.569   5.212
 6310SOL     OW19828   2.067   6.025   2.632
 6310SOL    HW119829   2.093   5.939   2.675
 6310SOL    HW219830   2.043   6.008   2.536
 6311SOL     OW19831   4.883   1.005   6.211
 6311SOL    HW119832   4.845   0.955   6.289
 6311SOL    HW219833   4.811   1.023   6.144
 6312SOL     OW19834   6.437   6.113   5.581
 6312SOL    HW119835   6.430   6.153   5.489
 6312SOL    HW219836   6.507   6.042   5.581
 6313SOL     OW19837   0.265   6.338   4.766
 6313SOL    HW119838   0.249   6.394   4.847
 6313SOL    HW219839   0.209   6.372   4.690
 6314SOL     OW19840   3.979   6.647   1.877
 6314SOL    HW119841   3.922   6.677   1.800
 6314SOL    HW219842   3.972   6.713   1.951
 6315SOL     OW19843   2.013   2.534   5.315
 6315SOL    HW119844   2.058   2.601   5.374
 6315SOL    HW219845   2.059   2.445   5.324
 6316SOL     OW19846   5.012   1.722   6.885
 6316SOL    HW119847   4.976   1.661   6.814
 6316SOL    HW219848   5.094   1.768   6.852
 6317SOL     OW19849   4.404   5.322   1.565
 6317SOL    HW119850   4.327   5.385   1.575
 6317SOL    HW219851   4.458   5.349   1.485
 6318SOL     OW19852   3.715   1.078   5.441
 6318SOL    HW119853   3.762   1.104   5.525
 6318SOL    HW219854   3.645   1.009   5.461
 6319SOL     OW19855   6.221   1.403   4.799
 6319SOL    HW119856   6.233   1.492   4.754
 6319SOL    HW219857   6.134   1.363   4.770
 6320SOL     OW19858   5.928   6.481   5.127
 6320SOL    HW119859   5.925   6.396   5.075
 6320SOL    HW219860   5.866   6.548   5.085
 6321SOL     OW19861   3.310   2.979   1.199
 6321SOL    HW119862   3.233   2.955   1.259
 6321SOL    HW219863   3.347   3.068   1.226
 6322SOL     OW19864   1.707   2.323   0.641
 6322SOL    HW119865   1.799   2.292   0.667
 6322SOL    HW219866   1.713   2.384   0.561
 6323SOL     OW19867   2.923   2.633   1.661
 6323SOL    HW119868   2.843   2.599   1.613
 6323SOL    HW219869   2.938   2.580   1.745
 6324SOL     OW19870   5.153   0.301   6.899
 6324SOL    HW119871   5.234   0.356   6.919
 6324SOL    HW219872   5.180   0.218   6.850
 6325SOL     OW19873   1.706   2.194   2.409
 6325SOL    HW119874   1.711   2.199   2.309
 6325SOL    HW219875   1.792   2.225   2.449
 6326SOL     OW19876   4.566   5.093   1.900
 6326SOL    HW119877   4.653   5.115   1.857
 6326SOL    HW219878   4.582   5.058   1.993
 6327SOL     OW19879   6.539   0.664   5.018
 6327SOL    HW119880   6.622   0.706   4.983
 6327SOL    HW219881   6.461   0.690   4.962
 6328SOL     OW19882   3.431   3.456   0.538
 6328SOL    HW119883   3.413   3.496   0.448
 6328SOL    HW219884   3.430   3.357   0.531
 6329SOL     OW19885   2.068   2.503   3.419
 6329SOL    HW119886   2.036   2.559   3.342
 6329SOL    HW219887   2.083   2.563   3.498
 6330SOL     OW19888   5.256   0.792   0.953
 6330SOL    HW119889   5.355   0.793   0.959
 6330SOL    HW219890   5.227   0.841   0.871
 6331SOL     OW19891   6.503   2.992   5.396
 6331SOL    HW119892   6.405   3.009   5.398
 6331SOL    HW219893   6.525   2.914   5.454
 6332SOL     OW19894   6.880   3.733   0.857
 6332SOL    HW119895   6.938   3.760   0.934
 6332SOL    HW219896   6.922   3.654   0.811
 6333SOL     OW19897   4.537   5.891   5.035
 6333SOL    HW119898   4.488   5.821   5.088
 6333SOL    HW219899   4.620   5.851   4.996
 6334SOL     OW19900   3.097   0.432   2.145
 6334SOL    HW119901   3.147   0.511   2.181
 6334SOL    HW219902   3.070   0.450   2.051
 6335SOL     OW19903   3.479   0.480   0.464
 6335SOL    HW119904   3.484   0.535   0.547
 6335SOL    HW219905   3.386   0.446   0.452
 6336SOL     OW19906   0.637   2.131   5.757
 6336SOL    HW119907   0.654   2.173   5.847
 6336SOL    HW219908   0.718   2.143   5.700
 6337SOL     OW19909   5.069   4.941   5.628
 6337SOL    HW119910   4.984   4.920   5.580
 6337SOL    HW219911   5.093   4.865   5.688
 6338SOL     OW19912   3.309   1.694   4.413
 6338SOL    HW119913   3.284   1.660   4.503
 6338SOL    HW219914   3.407   1.679   4.398
 6339SOL     OW19915   1.152   3.542   3.249
 6339SOL    HW119916   1.164   3.640   3.232
 6339SOL    HW219917   1.223   3.511   3.313
 6340SOL     OW19918   1.469   5.084   2.503
 6340SOL    HW119919   1.417   5.051   2.582
 6340SOL    HW219920   1.475   5.012   2.434
 6341SOL     OW19921   0.883   4.312   4.596
 6341SOL    HW119922   0.883   4.386   4.663
 6341SOL    HW219923   0.978   4.291   4.570
 6342SOL     OW19924   1.995   1.509   1.695
 6342SOL    HW119925   2.033   1.528   1.785
 6342SOL    HW219926   1.980   1.595   1.646
 6343SOL     OW19927   4.977   2.312   6.890
 6343SOL    HW119928   4.949   2.222   6.923
 6343SOL    HW219929   5.061   2.304   6.836
 6344SOL     OW19930   5.787   3.078   4.328
 6344SOL    HW119931   5.836   2.992   4.339
 6344SOL    HW219932   5.814   3.121   4.242
 6345SOL     OW19933   5.755   2.979   2.128
 6345SOL    HW119934   5.836   3.038   2.129
 6345SOL    HW219935   5.753   2.926   2.043
 6346SOL     OW19936   6.728   5.416   3.963
 6346SOL    HW119937   6.825   5.402   3.985
 6346SOL    HW219938   6.699   5.349   3.895
 6347SOL     OW19939   1.856   0.050   0.304
 6347SOL    HW119940   1.944   0.007   0.284
 6347SOL    HW219941   1.847   0.134   0.251
 6348SOL     OW19942   0.917   3.743   5.381
 6348SOL    HW119943   0.997   3.736   5.321
 6348SOL    HW219944   0.883   3.837   5.381
 6349SOL     OW19945   2.073   0.373   1.348
 6349SOL    HW119946   2.064   0.444   1.418
 6349SOL    HW219947   2.082   0.284   1.391
 6350SOL     OW19948   0.838   5.589   3.915
 6350SOL    HW119949   0.926   5.574   3.869
 6350SOL    HW219950   0.768   5.532   3.872
 6351SOL     OW19951   6.516   4.047   3.636
 6351SOL    HW119952   6.517   3.996   3.550
 6351SOL    HW219953   6.585   4.010   3.698
 6352SOL     OW19954   4.018   6.299   4.701
 6352SOL    HW119955   4.008   6.379   4.760
 6352SOL    HW219956   4.098   6.246   4.729
 6353SOL     OW19957   0.646   6.891   6.051
 6353SOL    HW119958   0.713   6.899   5.976
 6353SOL    HW219959   0.693   6.899   6.138
 6354SOL     OW19960   2.235   5.565   2.719
 6354SOL    HW119961   2.325   5.532   2.746
 6354SOL    HW219962   2.164   5.515   2.769
 6355SOL     OW19963   0.832   5.245   6.823
 6355SOL    HW119964   0.776   5.311   6.873
 6355SOL    HW219965   0.773   5.173   6.786
 6356SOL     OW19966   4.612   5.601   1.942
 6356SOL    HW119967   4.536   5.605   2.007
 6356SOL    HW219968   4.581   5.556   1.858
 6357SOL     OW19969   6.234   3.538   3.049
 6357SOL    HW119970   6.147   3.579   3.018
 6357SOL    HW219971   6.256   3.460   2.990
 6358SOL     OW19972   0.630   2.327   6.369
 6358SOL    HW119973   0.564   2.302   6.440
 6358SOL    HW219974   0.642   2.250   6.307
 6359SOL     OW19975   5.737   6.704   6.867
 6359SOL    HW119976   5.770   6.791   6.830
 6359SOL    HW219977   5.793   6.677   6.945
 6360SOL     OW19978   1.287   4.119   3.759
 6360SOL    HW119979   1.262   4.051   3.828
 6360SOL    HW219980   1.329   4.198   3.804
 6361SOL     OW19981   0.649   0.106   1.655
 6361SOL    HW119982   0.672   0.074   1.563
 6361SOL    HW219983   0.695   0.193   1.672
 6362SOL     OW19984   6.642   6.143   0.155
 6362SOL    HW119985   6.714   6.213   0.158
 6362SOL    HW219986   6.655   6.086   0.074
 6363SOL     OW19987   1.542   4.897   3.347
 6363SOL    HW119988   1.575   4.919   3.439
 6363SOL    HW219989   1.590   4.816   3.313
 6364SOL     OW19990   2.747   1.090   5.964
 6364SOL    HW119991   2.687   1.073   6.042
 6364SOL    HW219992   2.815   1.017   5.958
 6365SOL     OW19993   5.643   0.196   4.094
 6365SOL    HW119994   5.726   0.249   4.112
 6365SOL    HW219995   5.571   0.224   4.157
 6366SOL     OW19996   0.832   6.210   6.065
 6366SOL    HW119997   0.788   6.124   6.090
 6366SOL    HW219998   0.764   6.273   6.027
 6367SOL     OW19999   4.330   1.432   5.459
 6367SOL    HW120000   4.377   1.489   5.528
 6367SOL    HW220001   4.351   1.466   5.368
 6368SOL     OW20002   3.895   4.936   3.623
 6368SOL    HW120003   3.864   5.026   3.655
 6368SOL    HW220004   3.978   4.910   3.673
 6369SOL     OW20005   2.312   5.469   3.496
 6369SOL    HW120006   2.214   5.461   3.481
 6369SOL    HW220007   2.350   5.378   3.516
 6370SOL     OW20008   0.343   3.184   3.572
 6370SOL    HW120009   0.251   3.153   3.597
 6370SOL    HW220010   0.338   3.240   3.489
 6371SOL     OW20011   5.148   4.530   3.772
 6371SOL    HW120012   5.233   4.478   3.782
 6371SOL    HW220013   5.102   4.500   3.688
 6372SOL     OW20014   2.000   0.787   1.888
 6372SOL    HW120015   2.024   0.811   1.982
 6372SOL    HW220016   1.957   0.866   1.844
 6373SOL     OW20017   4.845   3.768   2.742
 6373SOL    HW120018   4.753   3.736   2.765
 6373SOL    HW220019   4.913   3.715   2.793
 6374SOL     OW20020   3.193   4.045   3.663
 6374SOL    HW120021   3.139   4.044   3.579
 6374SOL    HW220022   3.283   4.084   3.644
 6375SOL     OW20023   0.177   2.132   3.742
 6375SOL    HW120024   0.133   2.210   3.697
 6375SOL    HW220025   0.110   2.087   3.802
 6376SOL     OW20026   5.905   2.028   4.680
 6376SOL    HW120027   5.844   2.106   4.666
 6376SOL    HW220028   5.865   1.947   4.638
 6377SOL     OW20029   6.265   1.940   5.205
 6377SOL    HW120030   6.335   1.916   5.139
 6377SOL    HW220031   6.284   1.894   5.292
 6378SOL     OW20032   4.416   5.473   4.143
 6378SOL    HW120033   4.446   5.405   4.076
 6378SOL    HW220034   4.401   5.561   4.098
 6379SOL     OW20035   1.460   3.629   4.218
 6379SOL    HW120036   1.418   3.718   4.206
 6379SOL    HW220037   1.530   3.615   4.148
 6380SOL     OW20038   0.343   1.720   5.634
 6380SOL    HW120039   0.363   1.670   5.549
 6380SOL    HW220040   0.244   1.735   5.640
 6381SOL     OW20041   3.950   3.208   1.670
 6381SOL    HW120042   4.008   3.147   1.723
 6381SOL    HW220043   3.919   3.162   1.587
 6382SOL     OW20044   1.555   2.150   1.003
 6382SOL    HW120045   1.509   2.073   1.047
 6382SOL    HW220046   1.534   2.235   1.052
 6383SOL     OW20047   1.585   2.189   2.664
 6383SOL    HW120048   1.640   2.111   2.694
 6383SOL    HW220049   1.591   2.198   2.564
 6384SOL     OW20050   6.235   4.251   2.179
 6384SOL    HW120051   6.215   4.318   2.250
 6384SOL    HW220052   6.299   4.290   2.113
 6385SOL     OW20053   0.442   4.549   4.040
 6385SOL    HW120054   0.347   4.540   4.008
 6385SOL    HW220055   0.483   4.632   4.001
 6386SOL     OW20056   2.267   4.702   6.013
 6386SOL    HW120057   2.239   4.795   5.994
 6386SOL    HW220058   2.188   4.641   6.008
 6387SOL     OW20059   0.078   2.008   6.297
 6387SOL    HW120060   0.031   1.919   6.296
 6387SOL    HW220061   0.071   2.051   6.207
 6388SOL     OW20062   3.711   5.436   1.693
 6388SOL    HW120063   3.621   5.479   1.704
 6388SOL    HW220064   3.780   5.490   1.742
 6389SOL     OW20065   0.818   5.814   2.142
 6389SOL    HW120066   0.909   5.854   2.136
 6389SOL    HW220067   0.777   5.838   2.230
 6390SOL     OW20068   1.050   1.131   6.178
 6390SOL    HW120069   1.130   1.191   6.189
 6390SOL    HW220070   1.061   1.050   6.236
 6391SOL     OW20071   2.812   0.039   5.881
 6391SOL    HW120072   2.791   0.062   5.976
 6391SOL    HW220073   2.737   0.070   5.823
 6392SOL     OW20074   2.752   5.489   2.372
 6392SOL    HW120075   2.682   5.418   2.382
 6392SOL    HW220076   2.764   5.536   2.460
 6393SOL     OW20077   6.949   6.885   2.585
 6393SOL    HW120078   6.962   6.979   2.616
 6393SOL    HW220079   6.940   6.883   2.485
 6394SOL     OW20080   1.964   5.293   0.406
 6394SOL    HW120081   1.927   5.324   0.494
 6394SOL    HW220082   2.056   5.258   0.420
 6395SOL     OW20083   6.987   2.029   0.684
 6395SOL    HW120084   6.994   1.988   0.594
 6395SOL    HW220085   6.958   2.125   0.675
 6396SOL     OW20086   4.549   3.112   6.078
 6396SOL    HW120087   4.451   3.131   6.073
 6396SOL    HW220088   4.591   3.129   5.989
 6397SOL     OW20089   5.792   2.235   0.168
 6397SOL    HW120090   5.878   2.196   0.136
 6397SOL    HW220091   5.811   2.314   0.227
 6398SOL     OW20092   2.106   6.829   1.715
 6398SOL    HW120093   2.164   6.893   1.664
 6398SOL    HW220094   2.122   6.736   1.683
 6399SOL     OW20095   1.251   6.107   6.799
 6399SOL    HW120096   1.270   6.033   6.734
 6399SOL    HW220097   1.285   6.193   6.761
 6400SOL     OW20098   2.289   6.306   2.342
 6400SOL    HW120099   2.371   6.362   2.351
 6400SOL    HW220100   2.221   6.354   2.286
 6401SOL     OW20101   5.652   4.911   3.058
 6401SOL    HW120102   5.573   4.871   3.105
 6401SOL    HW220103   5.637   5.009   3.046
 6402SOL     OW20104   3.232   1.836   3.220
 6402SOL    HW120105   3.264   1.931   3.223
 6402SOL    HW220106   3.215   1.809   3.126
 6403SOL     OW20107   6.777   6.421   6.959
 6403SOL    HW120108   6.783   6.339   6.902
 6403SOL    HW220109   6.826   6.496   6.914
 6404SOL     OW20110   4.153   1.729   2.170
 6404SOL    HW120111   4.141   1.746   2.072
 6404SOL    HW220112   4.249   1.744   2.195
 6405SOL     OW20113   2.705   0.233   3.823
 6405SOL    HW120114   2.637   0.214   3.893
 6405SOL    HW220115   2.757   0.315   3.848
 6406SOL     OW20116   0.747   2.580   2.899
 6406SOL    HW120117   0.716   2.577   2.994
 6406SOL    HW220118   0.790   2.493   2.875
 6407SOL     OW20119   2.552   5.979   4.529
 6407SOL    HW120120   2.567   5.938   4.439
 6407SOL    HW220121   2.454   5.980   4.549
 6408SOL     OW20122   5.584   2.157   0.001
 6408SOL    HW120123   5.652   2.219   0.041
 6408SOL    HW220124   5.581   2.171   6.922
 6409SOL     OW20125   0.007   4.696   3.766
 6409SOL    HW120126   6.963   4.730   3.697
 6409SOL    HW220127   0.004   4.756   3.846
 6410SOL     OW20128   1.425   1.642   0.156
 6410SOL    HW120129   1.502   1.649   0.092
 6410SOL    HW220130   1.431   1.556   0.205
 6411SOL     OW20131   1.012   2.570   3.104
 6411SOL    HW120132   1.024   2.561   3.005
 6411SOL    HW220133   1.058   2.652   3.137
 6412SOL     OW20134   0.807   2.361   5.335
 6412SOL    HW120135   0.809   2.268   5.299
 6412SOL    HW220136   0.712   2.388   5.352
 6413SOL     OW20137   4.330   4.728   4.013
 6413SOL    HW120138   4.257   4.763   4.072
 6413SOL    HW220139   4.355   4.798   3.946
 6414SOL     OW20140   5.804   1.155   0.615
 6414SOL    HW120141   5.767   1.200   0.534
 6414SOL    HW220142   5.889   1.107   0.590
 6415SOL     OW20143   1.908   3.121   2.961
 6415SOL    HW120144   1.928   3.097   2.866
 6415SOL    HW220145   1.957   3.058   3.022
 6416SOL     OW20146   0.946   1.356   6.344
 6416SOL    HW120147   0.972   1.314   6.257
 6416SOL    HW220148   0.990   1.306   6.419
 6417SOL     OW20149   6.550   5.220   1.100
 6417SOL    HW120150   6.533   5.237   1.197
 6417SOL    HW220151   6.597   5.300   1.061
 6418SOL     OW20152   4.743   4.160   1.777
 6418SOL    HW120153   4.818   4.191   1.835
 6418SOL    HW220154   4.656   4.192   1.813
 6419SOL     OW20155   2.353   4.578   3.362
 6419SOL    HW120156   2.339   4.649   3.292
 6419SOL    HW220157   2.265   4.547   3.396
 6420SOL     OW20158   3.265   5.164   4.826
 6420SOL    HW120159   3.331   5.165   4.751
 6420SOL    HW220160   3.298   5.102   4.897
 6421SOL     OW20161   4.897   0.461   2.956
 6421SOL    HW120162   4.893   0.383   3.019
 6421SOL    HW220163   4.972   0.522   2.983
 6422SOL     OW20164   0.282   0.871   4.442
 6422SOL    HW120165   0.288   0.797   4.509
 6422SOL    HW220166   0.203   0.928   4.463
 6423SOL     OW20167   4.643   5.688   3.016
 6423SOL    HW120168   4.602   5.751   3.083
 6423SOL    HW220169   4.733   5.723   2.989
 6424SOL     OW20170   6.810   6.020   6.109
 6424SOL    HW120171   6.751   6.062   6.040
 6424SOL    HW220172   6.756   5.996   6.189
 6425SOL     OW20173   6.567   6.699   2.680
 6425SOL    HW120174   6.588   6.795   2.662
 6425SOL    HW220175   6.610   6.670   2.765
 6426SOL     OW20176   1.338   5.004   2.718
 6426SOL    HW120177   1.292   4.915   2.717
 6426SOL    HW220178   1.398   5.010   2.799
 6427SOL     OW20179   3.501   3.158   4.819
 6427SOL    HW120180   3.543   3.069   4.836
 6427SOL    HW220181   3.465   3.195   4.905
 6428SOL     OW20182   5.723   3.395   6.261
 6428SOL    HW120183   5.710   3.467   6.330
 6428SOL    HW220184   5.774   3.433   6.183
 6429SOL     OW20185   1.957   1.851   6.310
 6429SOL    HW120186   2.004   1.888   6.390
 6429SOL    HW220187   1.892   1.781   6.340
 6430SOL     OW20188   6.093   1.231   2.147
 6430SOL    HW120189   6.086   1.142   2.103
 6430SOL    HW220190   6.001   1.268   2.162
 6431SOL     OW20191   5.054   6.938   3.697
 6431SOL    HW120192   5.121   7.002   3.661
 6431SOL    HW220193   5.017   6.973   3.783
 6432SOL     OW20194   4.010   4.057   6.585
 6432SOL    HW120195   4.109   4.045   6.576
 6432SOL    HW220196   3.991   4.150   6.617
 6433SOL     OW20197   2.549   4.776   6.609
 6433SOL    HW120198   2.492   4.742   6.535
 6433SOL    HW220199   2.508   4.859   6.648
 6434SOL     OW20200   2.311   3.929   6.896
 6434SOL    HW120201   2.226   3.931   6.842
 6434SOL    HW220202   2.388   3.952   6.837
 6435SOL     OW20203   4.983   6.774   0.212
 6435SOL    HW120204   5.039   6.720   0.276
 6435SOL    HW220205   4.960   6.861   0.255
 6436SOL     OW20206   2.103   3.094   3.371
 6436SOL    HW120207   2.049   3.161   3.320
 6436SOL    HW220208   2.169   3.051   3.310
 6437SOL     OW20209   2.364   1.751   0.851
 6437SOL    HW120210   2.347   1.668   0.905
 6437SOL    HW220211   2.310   1.826   0.889
 6438SOL     OW20212   6.486   4.860   6.232
 6438SOL    HW120213   6.436   4.934   6.277
 6438SOL    HW220214   6.477   4.776   6.286
 6439SOL     OW20215   5.719   1.101   1.617
 6439SOL    HW120216   5.741   1.193   1.650
 6439SOL    HW220217   5.689   1.044   1.693
 6440SOL     OW20218   2.220   1.585   6.350
 6440SOL    HW120219   2.176   1.507   6.395
 6440SOL    HW220220   2.150   1.646   6.313
 6441SOL     OW20221   7.019   6.310   2.096
 6441SOL    HW120222   0.034   6.248   2.167
 6441SOL    HW220223   0.048   6.397   2.101
 6442SOL     OW20224   2.165   0.669   4.668
 6442SOL    HW120225   2.134   0.638   4.579
 6442SOL    HW220226   2.265   0.677   4.667
 6443SOL     OW20227   3.941   2.492   5.350
 6443SOL    HW120228   4.031   2.510   5.310
 6443SOL    HW220229   3.911   2.401   5.323
 6444SOL     OW20230   6.410   2.719   3.849
 6444SOL    HW120231   6.335   2.760   3.901
 6444SOL    HW220232   6.479   2.683   3.912
 6445SOL     OW20233   3.902   3.264   5.412
 6445SOL    HW120234   3.855   3.256   5.500
 6445SOL    HW220235   3.996   3.293   5.427
 6446SOL     OW20236   1.556   1.053   6.562
 6446SOL    HW120237   1.529   1.149   6.560
 6446SOL    HW220238   1.498   1.003   6.627
 6447SOL     OW20239   5.332   5.136   3.012
 6447SOL    HW120240   5.243   5.091   3.022
 6447SOL    HW220241   5.319   5.234   3.000
 6448SOL     OW20242   4.102   5.700   2.025
 6448SOL    HW120243   4.026   5.714   1.961
 6448SOL    HW220244   4.086   5.618   2.080
 6449SOL     OW20245   3.681   4.916   0.501
 6449SOL    HW120246   3.707   4.961   0.416
 6449SOL    HW220247   3.686   4.981   0.577
 6450SOL     OW20248   1.028   3.905   1.091
 6450SOL    HW120249   0.982   3.914   1.179
 6450SOL    HW220250   0.964   3.872   1.022
 6451SOL     OW20251   2.743   0.453   4.663
 6451SOL    HW120252   2.812   0.386   4.637
 6451SOL    HW220253   2.786   0.544   4.669
 6452SOL     OW20254   3.880   6.666   4.319
 6452SOL    HW120255   3.978   6.649   4.332
 6452SOL    HW220256   3.845   6.717   4.397
 6453SOL     OW20257   2.580   6.248   1.121
 6453SOL    HW120258   2.600   6.175   1.056
 6453SOL    HW220259   2.563   6.209   1.212
 6454SOL     OW20260   2.114   1.653   3.545
 6454SOL    HW120261   2.086   1.722   3.478
 6454SOL    HW220262   2.060   1.569   3.530
 6455SOL     OW20263   0.520   2.587   3.906
 6455SOL    HW120264   0.598   2.544   3.862
 6455SOL    HW220265   0.447   2.600   3.840
 6456SOL     OW20266   1.347   0.940   3.563
 6456SOL    HW120267   1.361   0.843   3.582
 6456SOL    HW220268   1.317   0.987   3.647
 6457SOL     OW20269   5.266   1.748   0.891
 6457SOL    HW120270   5.264   1.766   0.989
 6457SOL    HW220271   5.341   1.685   0.871
 6458SOL     OW20272   0.579   6.482   3.927
 6458SOL    HW120273   0.642   6.559   3.914
 6458SOL    HW220274   0.508   6.485   3.856
 6459SOL     OW20275   6.226   3.757   0.327
 6459SOL    HW120276   6.322   3.765   0.353
 6459SOL    HW220277   6.172   3.726   0.405
 6460SOL     OW20278   5.380   6.364   6.049
 6460SOL    HW120279   5.331   6.306   5.984
 6460SOL    HW220280   5.336   6.453   6.054
 6461SOL     OW20281   2.461   4.971   5.820
 6461SOL    HW120282   2.549   5.008   5.850
 6461SOL    HW220283   2.432   5.017   5.736
 6462SOL     OW20284   2.697   2.384   4.623
 6462SOL    HW120285   2.697   2.405   4.525
 6462SOL    HW220286   2.785   2.410   4.663
 6463SOL     OW20287   6.469   3.598   6.339
 6463SOL    HW120288   6.559   3.565   6.368
 6463SOL    HW220289   6.434   3.661   6.408
 6464SOL     OW20290   1.337   6.128   4.489
 6464SOL    HW120291   1.259   6.181   4.455
 6464SOL    HW220292   1.318   6.030   4.477
 6465SOL     OW20293   6.692   3.044   2.974
 6465SOL    HW120294   6.731   3.100   2.902
 6465SOL    HW220295   6.730   2.951   2.969
 6466SOL     OW20296   1.230   1.512   6.317
 6466SOL    HW120297   1.272   1.598   6.287
 6466SOL    HW220298   1.252   1.440   6.251
 6467SOL     OW20299   2.951   1.448   0.105
 6467SOL    HW120300   3.003   1.427   0.022
 6467SOL    HW220301   2.955   1.371   0.168
 6468SOL     OW20302   3.529   6.045   0.554
 6468SOL    HW120303   3.488   6.089   0.474
 6468SOL    HW220304   3.539   6.111   0.627
 6469SOL     OW20305   5.099   0.931   4.803
 6469SOL    HW120306   5.009   0.888   4.800
 6469SOL    HW220307   5.090   1.026   4.835
 6470SOL     OW20308   6.045   4.018   0.560
 6470SOL    HW120309   6.142   4.044   0.567
 6470SOL    HW220310   6.026   3.945   0.626
 6471SOL     OW20311   6.266   6.889   5.981
 6471SOL    HW120312   6.314   6.967   5.941
 6471SOL    HW220313   6.192   6.861   5.921
 6472SOL     OW20314   0.370   6.004   0.878
 6472SOL    HW120315   0.306   5.990   0.803
 6472SOL    HW220316   0.366   5.926   0.941
 6473SOL     OW20317   3.641   0.935   4.685
 6473SOL    HW120318   3.650   0.855   4.626
 6473SOL    HW220319   3.732   0.971   4.706
 6474SOL     OW20320   2.077   4.439   5.971
 6474SOL    HW120321   2.025   4.422   6.055
 6474SOL    HW220322   2.149   4.371   5.962
 6475SOL     OW20323   6.177   5.054   3.906
 6475SOL    HW120324   6.119   4.994   3.962
 6475SOL    HW220325   6.183   5.144   3.949
 6476SOL     OW20326   4.658   3.488   1.006
 6476SOL    HW120327   4.595   3.537   0.946
 6476SOL    HW220328   4.633   3.506   1.101
 6477SOL     OW20329   6.472   4.691   1.610
 6477SOL    HW120330   6.489   4.764   1.677
 6477SOL    HW220331   6.559   4.657   1.575
 6478SOL     OW20332   3.476   0.137   2.102
 6478SOL    HW120333   3.571   0.166   2.090
 6478SOL    HW220334   3.464   0.104   2.196
 6479SOL     OW20335   4.046   5.801   4.183
 6479SOL    HW120336   4.029   5.784   4.086
 6479SOL    HW220337   4.037   5.716   4.234
 6480SOL     OW20338   2.481   2.185   5.912
 6480SOL    HW120339   2.560   2.221   5.962
 6480SOL    HW220340   2.472   2.233   5.825
 6481SOL     OW20341   3.852   1.840   1.832
 6481SOL    HW120342   3.843   1.815   1.928
 6481SOL    HW220343   3.930   1.901   1.821
 6482SOL     OW20344   0.476   0.855   6.455
 6482SOL    HW120345   0.445   0.779   6.399
 6482SOL    HW220346   0.438   0.848   6.547
 6483SOL     OW20347   0.705   6.190   1.551
 6483SOL    HW120348   0.709   6.158   1.456
 6483SOL    HW220349   0.736   6.285   1.555
 6484SOL     OW20350   3.501   6.677   1.595
 6484SOL    HW120351   3.483   6.774   1.610
 6484SOL    HW220352   3.416   6.626   1.599
 6485SOL     OW20353   1.892   4.780   3.897
 6485SOL    HW120354   1.868   4.790   3.800
 6485SOL    HW220355   1.974   4.724   3.904
 6486SOL     OW20356   2.367   4.834   3.632
 6486SOL    HW120357   2.338   4.880   3.716
 6486SOL    HW220358   2.383   4.902   3.561
 6487SOL     OW20359   0.022   6.654   4.773
 6487SOL    HW120360   6.981   6.733   4.782
 6487SOL    HW220361   0.114   6.684   4.752
 6488SOL     OW20362   3.907   6.430   4.186
 6488SOL    HW120363   3.983   6.372   4.216
 6488SOL    HW220364   3.900   6.510   4.247
 6489SOL     OW20365   2.997   2.542   6.861
 6489SOL    HW120366   2.902   2.531   6.834
 6489SOL    HW220367   3.008   2.626   6.915
 6490SOL     OW20368   4.059   1.210   6.495
 6490SOL    HW120369   4.097   1.291   6.539
 6490SOL    HW220370   4.114   1.187   6.414
 6491SOL     OW20371   3.296   0.676   0.605
 6491SOL    HW120372   3.387   0.652   0.636
 6491SOL    HW220373   3.302   0.733   0.523
 6492SOL     OW20374   4.932   5.242   0.492
 6492SOL    HW120375   4.940   5.143   0.506
 6492SOL    HW220376   4.988   5.269   0.414
 6493SOL     OW20377   1.256   5.211   4.928
 6493SOL    HW120378   1.287   5.298   4.966
 6493SOL    HW220379   1.168   5.224   4.882
 6494SOL     OW20380   0.047   0.790   3.380
 6494SOL    HW120381   0.090   0.864   3.327
 6494SOL    HW220382   6.969   0.811   3.392
 6495SOL     OW20383   5.552   6.835   4.542
 6495SOL    HW120384   5.486   6.786   4.485
 6495SOL    HW220385   5.610   6.768   4.590
 6496SOL     OW20386   6.721   0.686   3.172
 6496SOL    HW120387   6.650   0.653   3.234
 6496SOL    HW220388   6.685   0.691   3.079
 6497SOL     OW20389   2.285   2.844   1.040
 6497SOL    HW120390   2.251   2.894   0.961
 6497SOL    HW220391   2.239   2.876   1.123
 6498SOL     OW20392   2.067   4.100   3.474
 6498SOL    HW120393   2.020   4.084   3.387
 6498SOL    HW220394   2.140   4.167   3.460
 6499SOL     OW20395   4.959   2.873   5.094
 6499SOL    HW120396   4.982   2.853   5.189
 6499SOL    HW220397   4.861   2.894   5.086
 6500SOL     OW20398   0.021   4.216   3.965
 6500SOL    HW120399   0.004   4.293   4.025
 6500SOL    HW220400   6.958   4.161   3.956
 6501SOL     OW20401   6.625   2.200   6.629
 6501SOL    HW120402   6.712   2.199   6.678
 6501SOL    HW220403   6.551   2.171   6.691
 6502SOL     OW20404   6.109   2.689   1.613
 6502SOL    HW120405   6.127   2.631   1.693
 6502SOL    HW220406   6.186   2.683   1.550
 6503SOL     OW20407   4.675   1.449   3.140
 6503SOL    HW120408   4.653   1.441   3.237
 6503SOL    HW220409   4.635   1.371   3.091
 6504SOL     OW20410   4.905   5.996   5.598
 6504SOL    HW120411   4.894   5.927   5.527
 6504SOL    HW220412   4.858   6.080   5.572
 6505SOL     OW20413   5.693   6.004   1.555
 6505SOL    HW120414   5.709   6.082   1.495
 6505SOL    HW220415   5.615   6.024   1.615
 6506SOL     OW20416   6.532   2.410   1.926
 6506SOL    HW120417   6.483   2.333   1.968
 6506SOL    HW220418   6.466   2.482   1.903
 6507SOL     OW20419   2.177   4.962   5.444
 6507SOL    HW120420   2.247   4.959   5.372
 6507SOL    HW220421   2.174   4.873   5.491
 6508SOL     OW20422   1.195   1.029   2.808
 6508SOL    HW120423   1.148   0.941   2.816
 6508SOL    HW220424   1.137   1.092   2.757
 6509SOL     OW20425   2.922   1.847   4.595
 6509SOL    HW120426   2.960   1.780   4.531
 6509SOL    HW220427   2.830   1.819   4.622
 6510SOL     OW20428   6.698   4.874   6.953
 6510SOL    HW120429   6.681   4.779   6.926
 6510SOL    HW220430   6.744   4.876   0.022
 6511SOL     OW20431   4.468   1.361   4.475
 6511SOL    HW120432   4.422   1.428   4.416
 6511SOL    HW220433   4.559   1.395   4.499
 6512SOL     OW20434   4.838   6.355   1.826
 6512SOL    HW120435   4.747   6.393   1.846
 6512SOL    HW220436   4.894   6.425   1.782
 6513SOL     OW20437   3.097   5.472   3.355
 6513SOL    HW120438   3.040   5.393   3.334
 6513SOL    HW220439   3.188   5.440   3.384
 6514SOL     OW20440   5.752   1.180   4.049
 6514SOL    HW120441   5.672   1.145   4.097
 6514SOL    HW220442   5.738   1.172   3.950
 6515SOL     OW20443   0.388   5.011   4.748
 6515SOL    HW120444   0.428   5.082   4.690
 6515SOL    HW220445   0.435   5.009   4.836
 6516SOL     OW20446   0.071   3.162   1.439
 6516SOL    HW120447   0.013   3.215   1.377
 6516SOL    HW220448   0.167   3.184   1.423
 6517SOL     OW20449   6.188   0.213   0.683
 6517SOL    HW120450   6.207   0.120   0.715
 6517SOL    HW220451   6.101   0.214   0.634
 6518SOL     OW20452   7.010   6.931   6.739
 6518SOL    HW120453   6.960   6.892   6.661
 6518SOL    HW220454   0.077   6.883   6.750
 6519SOL     OW20455   1.869   1.161   3.620
 6519SOL    HW120456   1.850   1.064   3.637
 6519SOL    HW220457   1.927   1.197   3.693
 6520SOL     OW20458   5.492   5.584   2.611
 6520SOL    HW120459   5.499   5.585   2.711
 6520SOL    HW220460   5.579   5.553   2.572
 6521SOL     OW20461   2.236   2.950   4.353
 6521SOL    HW120462   2.289   2.892   4.416
 6521SOL    HW220463   2.163   2.996   4.403
 6522SOL     OW20464   3.999   4.578   0.399
 6522SOL    HW120465   4.004   4.549   0.303
 6522SOL    HW220466   4.078   4.636   0.420
 6523SOL     OW20467   4.160   1.443   6.547
 6523SOL    HW120468   4.243   1.462   6.601
 6523SOL    HW220469   4.173   1.477   6.454
 6524SOL     OW20470   2.811   4.118   1.664
 6524SOL    HW120471   2.722   4.149   1.697
 6524SOL    HW220472   2.798   4.060   1.583
 6525SOL     OW20473   1.984   4.653   2.455
 6525SOL    HW120474   2.068   4.610   2.422
 6525SOL    HW220475   1.999   4.752   2.464
 6526SOL     OW20476   2.119   6.739   6.635
 6526SOL    HW120477   2.057   6.686   6.578
 6526SOL    HW220478   2.158   6.680   6.706
 6527SOL     OW20479   0.841   2.528   4.701
 6527SOL    HW120480   0.933   2.510   4.736
 6527SOL    HW220481   0.777   2.535   4.777
 6528SOL     OW20482   6.750   0.854   5.006
 6528SOL    HW120483   6.771   0.896   4.918
 6528SOL    HW220484   6.807   0.895   5.078
 6529SOL     OW20485   1.084   1.692   2.477
 6529SOL    HW120486   1.072   1.741   2.391
 6529SOL    HW220487   1.155   1.736   2.532
 6530SOL     OW20488   7.002   3.680   0.318
 6530SOL    HW120489   6.915   3.715   0.352
 6530SOL    HW220490   6.988   3.589   0.278
 6531SOL     OW20491   5.634   3.133   4.886
 6531SOL    HW120492   5.569   3.091   4.822
 6531SOL    HW220493   5.727   3.115   4.855
 6532SOL     OW20494   6.512   0.572   0.237
 6532SOL    HW120495   6.514   0.658   0.186
 6532SOL    HW220496   6.507   0.591   0.335
 6533SOL     OW20497   4.593   6.788   1.480
 6533SOL    HW120498   4.638   6.761   1.565
 6533SOL    HW220499   4.593   6.888   1.473
 6534SOL     OW20500   3.303   4.350   1.300
 6534SOL    HW120501   3.368   4.282   1.334
 6534SOL    HW220502   3.252   4.311   1.223
 6535SOL     OW20503   6.352   4.206   4.488
 6535SOL    HW120504   6.312   4.181   4.399
 6535SOL    HW220505   6.446   4.172   4.493
 6536SOL     OW20506   0.980   1.422   5.645
 6536SOL    HW120507   0.924   1.371   5.579
 6536SOL    HW220508   0.961   1.519   5.638
 6537SOL     OW20509   6.708   5.110   0.250
 6537SOL    HW120510   6.614   5.119   0.219
 6537SOL    HW220511   6.755   5.198   0.240
 6538SOL     OW20512   2.664   3.093   6.681
 6538SOL    HW120513   2.587   3.053   6.731
 6538SOL    HW220514   2.669   3.191   6.702
 6539SOL     OW20515   3.572   0.789   6.335
 6539SOL    HW120516   3.650   0.776   6.274
 6539SOL    HW220517   3.546   0.886   6.335
 6540SOL     OW20518   4.649   1.703   5.173
 6540SOL    HW120519   4.579   1.737   5.235
 6540SOL    HW220520   4.637   1.604   5.162
 6541SOL     OW20521   4.897   1.730   5.316
 6541SOL    HW120522   4.936   1.640   5.335
 6541SOL    HW220523   4.812   1.720   5.264
 6542SOL     OW20524   6.449   4.516   4.385
 6542SOL    HW120525   6.488   4.574   4.314
 6542SOL    HW220526   6.512   4.442   4.406
 6543SOL     OW20527   5.693   3.450   5.648
 6543SOL    HW120528   5.601   3.433   5.683
 6543SOL    HW220529   5.757   3.456   5.725
 6544SOL     OW20530   0.485   5.854   2.635
 6544SOL    HW120531   0.561   5.843   2.698
 6544SOL    HW220532   0.520   5.867   2.542
 6545SOL     OW20533   4.872   1.928   0.320
 6545SOL    HW120534   4.923   1.882   0.247
 6545SOL    HW220535   4.774   1.918   0.303
 6546SOL     OW20536   3.635   4.423   6.711
 6546SOL    HW120537   3.699   4.482   6.663
 6546SOL    HW220538   3.571   4.480   6.764
 6547SOL     OW20539   4.756   1.672   5.595
 6547SOL    HW120540   4.787   1.732   5.521
 6547SOL    HW220541   4.810   1.690   5.677
 6548SOL     OW20542   0.964   4.441   0.046
 6548SOL    HW120543   0.942   4.360   0.099
 6548SOL    HW220544   0.909   4.442   6.982
 6549SOL     OW20545   4.723   0.886   1.365
 6549SOL    HW120546   4.662   0.807   1.358
 6549SOL    HW220547   4.803   0.871   1.306
 6550SOL     OW20548   0.652   6.811   4.196
 6550SOL    HW120549   0.594   6.731   4.187
 6550SOL    HW220550   0.600   6.886   4.237
 6551SOL     OW20551   1.219   4.760   2.680
 6551SOL    HW120552   1.158   4.717   2.614
 6551SOL    HW220553   1.213   4.711   2.767
 6552SOL     OW20554   1.781   6.719   5.399
 6552SOL    HW120555   1.821   6.789   5.458
 6552SOL    HW220556   1.742   6.646   5.456
 6553SOL     OW20557   0.307   1.796   3.126
 6553SOL    HW120558   0.407   1.792   3.125
 6553SOL    HW220559   0.275   1.815   3.218
 6554SOL     OW20560   6.299   0.956   5.208
 6554SOL    HW120561   6.254   1.026   5.153
 6554SOL    HW220562   6.241   0.934   5.287
 6555SOL     OW20563   0.197   2.085   2.034
 6555SOL    HW120564   0.111   2.069   2.083
 6555SOL    HW220565   0.256   2.144   2.088
 6556SOL     OW20566   5.159   4.207   4.812
 6556SOL    HW120567   5.097   4.274   4.852
 6556SOL    HW220568   5.143   4.117   4.854
 6557SOL     OW20569   3.369   5.987   1.264
 6557SOL    HW120570   3.402   6.080   1.281
 6557SOL    HW220571   3.414   5.951   1.182
 6558SOL     OW20572   6.158   4.630   0.313
 6558SOL    HW120573   6.223   4.619   0.388
 6558SOL    HW220574   6.175   4.717   0.266
 6559SOL     OW20575   0.839   4.561   6.098
 6559SOL    HW120576   0.832   4.659   6.079
 6559SOL    HW220577   0.934   4.532   6.085
 6560SOL     OW20578   4.206   5.191   0.953
 6560SOL    HW120579   4.303   5.173   0.969
 6560SOL    HW220580   4.156   5.188   1.040
 6561SOL     OW20581   3.827   4.004   2.004
 6561SOL    HW120582   3.752   3.940   2.020
 6561SOL    HW220583   3.790   4.091   1.972
 6562SOL     OW20584   5.464   4.045   0.961
 6562SOL    HW120585   5.522   4.126   0.972
 6562SOL    HW220586   5.450   4.002   1.050
 6563SOL     OW20587   6.028   6.746   0.616
 6563SOL    HW120588   5.933   6.724   0.593
 6563SOL    HW220589   6.049   6.840   0.589
 6564SOL     OW20590   6.949   4.086   3.053
 6564SOL    HW120591   6.927   3.997   3.013
 6564SOL    HW220592   6.976   4.149   2.980
 6565SOL     OW20593   6.858   2.799   3.933
 6565SOL    HW120594   6.810   2.713   3.922
 6565SOL    HW220595   6.949   2.782   3.970
 6566SOL     OW20596   3.541   6.244   2.641
 6566SOL    HW120597   3.491   6.163   2.670
 6566SOL    HW220598   3.613   6.217   2.576
 6567SOL     OW20599   3.870   1.375   1.543
 6567SOL    HW120600   3.910   1.456   1.586
 6567SOL    HW220601   3.842   1.310   1.613
 6568SOL     OW20602   4.338   0.885   3.773
 6568SOL    HW120603   4.390   0.932   3.844
 6568SOL    HW220604   4.290   0.952   3.716
 6569SOL     OW20605   2.930   3.679   6.613
 6569SOL    HW120606   2.943   3.685   6.514
 6569SOL    HW220607   2.834   3.699   6.635
 6570SOL     OW20608   3.883   0.145   2.415
 6570SOL    HW120609   3.952   0.137   2.343
 6570SOL    HW220610   3.899   0.230   2.466
 6571SOL     OW20611   2.574   5.526   2.145
 6571SOL    HW120612   2.594   5.454   2.079
 6571SOL    HW220613   2.612   5.502   2.234
 6572SOL     OW20614   6.719   5.102   6.003
 6572SOL    HW120615   6.633   5.129   5.961
 6572SOL    HW220616   6.741   5.008   5.977
 6573SOL     OW20617   2.709   1.518   2.102
 6573SOL    HW120618   2.613   1.499   2.122
 6573SOL    HW220619   2.752   1.560   2.182
 6574SOL     OW20620   3.495   5.838   2.931
 6574SOL    HW120621   3.585   5.814   2.969
 6574SOL    HW220622   3.424   5.789   2.981
 6575SOL     OW20623   1.336   0.579   2.049
 6575SOL    HW120624   1.338   0.662   1.994
 6575SOL    HW220625   1.281   0.594   2.131
 6576SOL     OW20626   2.307   5.978   6.518
 6576SOL    HW120627   2.299   6.036   6.599
 6576SOL    HW220628   2.232   5.998   6.455
 6577SOL     OW20629   0.866   1.260   4.020
 6577SOL    HW120630   0.848   1.203   3.940
 6577SOL    HW220631   0.963   1.256   4.042
 6578SOL     OW20632   1.048   4.290   3.052
 6578SOL    HW120633   0.962   4.240   3.039
 6578SOL    HW220634   1.029   4.388   3.056
 6579SOL     OW20635   0.063   3.505   4.986
 6579SOL    HW120636   0.045   3.458   5.073
 6579SOL    HW220637   0.045   3.603   4.996
 6580SOL     OW20638   6.596   2.232   0.734
 6580SOL    HW120639   6.600   2.194   0.642
 6580SOL    HW220640   6.564   2.326   0.731
 6581SOL     OW20641   2.550   1.493   0.151
 6581SOL    HW120642   2.534   1.469   0.246
 6581SOL    HW220643   2.463   1.498   0.102
 6582SOL     OW20644   1.512   1.417   1.560
 6582SOL    HW120645   1.599   1.398   1.607
 6582SOL    HW220646   1.440   1.432   1.627
 6583SOL     OW20647   3.446   0.135   4.636
 6583SOL    HW120648   3.466   0.052   4.585
 6583SOL    HW220649   3.418   0.111   4.729
 6584SOL     OW20650   4.386   1.955   0.164
 6584SOL    HW120651   4.411   1.888   0.094
 6584SOL    HW220652   4.337   2.031   0.123
 6585SOL     OW20653   6.654   6.419   0.430
 6585SOL    HW120654   6.586   6.401   0.500
 6585SOL    HW220655   6.625   6.498   0.375
 6586SOL     OW20656   6.618   1.675   5.453
 6586SOL    HW120657   6.667   1.588   5.455
 6586SOL    HW220658   6.675   1.747   5.493
 6587SOL     OW20659   2.610   6.075   5.020
 6587SOL    HW120660   2.617   6.147   4.950
 6587SOL    HW220661   2.684   6.010   5.009
 6588SOL     OW20662   1.168   3.979   1.947
 6588SOL    HW120663   1.184   3.910   1.876
 6588SOL    HW220664   1.154   3.934   2.035
 6589SOL     OW20665   4.917   0.414   0.746
 6589SOL    HW120666   4.993   0.467   0.784
 6589SOL    HW220667   4.840   0.475   0.726
 6590SOL     OW20668   1.035   1.057   5.312
 6590SOL    HW120669   0.997   1.118   5.382
 6590SOL    HW220670   1.077   1.113   5.240
 6591SOL     OW20671   5.534   6.035   1.815
 6591SOL    HW120672   5.462   6.098   1.845
 6591SOL    HW220673   5.612   6.041   1.876
 6592SOL     OW20674   5.986   6.878   4.057
 6592SOL    HW120675   5.952   6.956   4.004
 6592SOL    HW220676   5.952   6.884   4.151
 6593SOL     OW20677   2.762   1.786   2.762
 6593SOL    HW120678   2.782   1.700   2.808
 6593SOL    HW220679   2.707   1.844   2.822
 6594SOL     OW20680   3.852   1.908   0.256
 6594SOL    HW120681   3.775   1.883   0.198
 6594SOL    HW220682   3.920   1.957   0.202
 6595SOL     OW20683   0.879   3.408   0.177
 6595SOL    HW120684   0.888   3.506   0.161
 6595SOL    HW220685   0.921   3.358   0.101
 6596SOL     OW20686   3.321   6.679   3.975
 6596SOL    HW120687   3.257   6.747   4.011
 6596SOL    HW220688   3.414   6.703   4.004
 6597SOL     OW20689   3.056   5.705   2.385
 6597SOL    HW120690   3.089   5.751   2.302
 6597SOL    HW220691   3.057   5.606   2.371
 6598SOL     OW20692   1.251   6.928   4.219
 6598SOL    HW120693   1.196   6.926   4.302
 6598SOL    HW220694   1.327   6.864   4.228
 6599SOL     OW20695   4.914   0.000   5.399
 6599SOL    HW120696   4.903   6.956   5.475
 6599SOL    HW220697   5.006   7.013   5.362
 6600SOL     OW20698   5.115   5.121   6.074
 6600SOL    HW120699   5.092   5.173   5.992
 6600SOL    HW220700   5.050   5.045   6.084
 6601SOL     OW20701   0.940   1.867   5.429
 6601SOL    HW120702   0.905   1.779   5.397
 6601SOL    HW220703   0.907   1.940   5.370
 6602SOL     OW20704   0.792   1.526   1.471
 6602SOL    HW120705   0.888   1.502   1.456
 6602SOL    HW220706   0.744   1.529   1.383
 6603SOL     OW20707   0.691   2.746   3.748
 6603SOL    HW120708   0.628   2.795   3.688
 6603SOL    HW220709   0.644   2.667   3.787
 6604SOL     OW20710   2.056   6.777   1.110
 6604SOL    HW120711   2.066   6.869   1.073
 6604SOL    HW220712   1.962   6.763   1.141
 6605SOL     OW20713   5.669   4.177   1.397
 6605SOL    HW120714   5.722   4.098   1.428
 6605SOL    HW220715   5.608   4.207   1.471
 6606SOL     OW20716   6.916   6.215   2.479
 6606SOL    HW120717   6.920   6.269   2.563
 6606SOL    HW220718   6.921   6.117   2.502
 6607SOL     OW20719   1.336   3.090   2.456
 6607SOL    HW120720   1.417   3.044   2.491
 6607SOL    HW220721   1.257   3.029   2.462
 6608SOL     OW20722   6.336   6.600   1.641
 6608SOL    HW120723   6.397   6.520   1.634
 6608SOL    HW220724   6.291   6.598   1.730
 6609SOL     OW20725   4.872   1.424   5.646
 6609SOL    HW120726   4.843   1.329   5.661
 6609SOL    HW220727   4.792   1.483   5.638
 6610SOL     OW20728   2.313   0.541   6.733
 6610SOL    HW120729   2.287   0.490   6.651
 6610SOL    HW220730   2.254   0.620   6.744
 6611SOL     OW20731   6.391   3.226   3.863
 6611SOL    HW120732   6.401   3.196   3.768
 6611SOL    HW220733   6.482   3.234   3.905
 6612SOL     OW20734   6.330   1.770   6.562
 6612SOL    HW120735   6.345   1.792   6.466
 6612SOL    HW220736   6.273   1.841   6.605
 6613SOL     OW20737   6.434   6.522   5.342
 6613SOL    HW120738   6.346   6.551   5.304
 6613SOL    HW220739   6.465   6.590   5.409
 6614SOL     OW20740   5.594   5.898   1.084
 6614SOL    HW120741   5.611   5.810   1.130
 6614SOL    HW220742   5.605   5.886   0.986
 6615SOL     OW20743   1.166   4.686   2.374
 6615SOL    HW120744   1.256   4.726   2.394
 6615SOL    HW220745   1.110   4.752   2.324
 6616SOL     OW20746   3.643   1.327   6.232
 6616SOL    HW120747   3.734   1.286   6.244
 6616SOL    HW220748   3.609   1.357   6.321
 6617SOL     OW20749   3.677   5.302   2.714
 6617SOL    HW120750   3.614   5.230   2.683
 6617SOL    HW220751   3.637   5.391   2.695
 6618SOL     OW20752   0.999   2.719   2.866
 6618SOL    HW120753   1.004   2.789   2.937
 6618SOL    HW220754   0.904   2.688   2.856
 6619SOL     OW20755   6.106   0.189   4.333
 6619SOL    HW120756   6.010   0.181   4.360
 6619SOL    HW220757   6.161   0.217   4.412
 6620SOL     OW20758   1.635   2.755   5.593
 6620SOL    HW120759   1.642   2.827   5.524
 6620SOL    HW220760   1.705   2.686   5.575
 6621SOL     OW20761   2.208   3.013   6.227
 6621SOL    HW120762   2.244   2.998   6.135
 6621SOL    HW220763   2.265   2.965   6.294
 6622SOL     OW20764   6.052   0.194   1.558
 6622SOL    HW120765   6.039   0.280   1.606
 6622SOL    HW220766   5.967   0.169   1.511
 6623SOL     OW20767   2.397   2.973   6.433
 6623SOL    HW120768   2.487   3.012   6.412
 6623SOL    HW220769   2.402   2.873   6.425
 6624SOL     OW20770   0.736   6.117   4.587
 6624SOL    HW120771   0.791   6.107   4.670
 6624SOL    HW220772   0.705   6.027   4.556
 6625SOL     OW20773   5.136   1.752   5.665
 6625SOL    HW120774   5.118   1.777   5.760
 6625SOL    HW220775   5.079   1.807   5.605
 6626SOL     OW20776   4.792   5.415   5.630
 6626SOL    HW120777   4.839   5.499   5.660
 6626SOL    HW220778   4.848   5.369   5.561
 6627SOL     OW20779   2.427   0.136   5.299
 6627SOL    HW120780   2.442   0.192   5.217
 6627SOL    HW220781   2.515   0.105   5.335
 6628SOL     OW20782   4.562   4.443   4.686
 6628SOL    HW120783   4.467   4.475   4.677
 6628SOL    HW220784   4.566   4.345   4.669
 6629SOL     OW20785   4.472   6.170   0.314
 6629SOL    HW120786   4.544   6.102   0.324
 6629SOL    HW220787   4.510   6.262   0.327
 6630SOL     OW20788   4.007   1.068   1.554
 6630SOL    HW120789   3.976   1.148   1.607
 6630SOL    HW220790   4.002   0.987   1.612
 6631SOL     OW20791   2.542   5.824   2.866
 6631SOL    HW120792   2.565   5.905   2.812
 6631SOL    HW220793   2.624   5.791   2.913
 6632SOL     OW20794   0.436   6.097   1.539
 6632SOL    HW120795   0.531   6.128   1.533
 6632SOL    HW220796   0.382   6.165   1.588
 6633SOL     OW20797   0.762   4.306   6.657
 6633SOL    HW120798   0.790   4.365   6.582
 6633SOL    HW220799   0.692   4.241   6.626
 6634SOL     OW20800   6.275   2.208   3.991
 6634SOL    HW120801   6.193   2.151   3.999
 6634SOL    HW220802   6.321   2.214   4.079
 6635SOL     OW20803   4.108   4.795   3.086
 6635SOL    HW120804   4.055   4.869   3.045
 6635SOL    HW220805   4.111   4.718   3.024
 6636SOL     OW20806   4.910   2.450   5.564
 6636SOL    HW120807   4.856   2.403   5.634
 6636SOL    HW220808   4.970   2.517   5.607
 6637SOL     OW20809   1.351   0.126   6.374
 6637SOL    HW120810   1.416   0.061   6.413
 6637SOL    HW220811   1.373   0.141   6.278
 6638SOL     OW20812   3.243   3.869   4.116
 6638SOL    HW120813   3.224   3.771   4.127
 6638SOL    HW220814   3.256   3.910   4.207
 6639SOL     OW20815   5.836   4.961   6.571
 6639SOL    HW120816   5.836   4.947   6.472
 6639SOL    HW220817   5.930   4.963   6.605
 6640SOL     OW20818   1.089   1.828   5.053
 6640SOL    HW120819   1.127   1.833   5.146
 6640SOL    HW220820   1.061   1.920   5.024
 6641SOL     OW20821   2.303   2.208   6.997
 6641SOL    HW120822   2.258   2.298   7.000
 6641SOL    HW220823   2.391   2.214   0.024
 6642SOL     OW20824   3.494   4.955   6.149
 6642SOL    HW120825   3.567   4.941   6.217
 6642SOL    HW220826   3.407   4.923   6.187
 6643SOL     OW20827   6.274   5.348   0.261
 6643SOL    HW120828   6.200   5.329   0.325
 6643SOL    HW220829   6.309   5.261   0.226
 6644SOL     OW20830   2.653   4.726   2.150
 6644SOL    HW120831   2.688   4.669   2.075
 6644SOL    HW220832   2.570   4.684   2.187
 6645SOL     OW20833   6.571   4.997   0.473
 6645SOL    HW120834   6.479   4.999   0.432
 6645SOL    HW220835   6.638   5.023   0.404
 6646SOL     OW20836   4.126   0.085   5.294
 6646SOL    HW120837   4.180   0.122   5.218
 6646SOL    HW220838   4.051   0.030   5.258
 6647SOL     OW20839   4.623   0.815   2.154
 6647SOL    HW120840   4.610   0.729   2.105
 6647SOL    HW220841   4.542   0.833   2.212
 6648SOL     OW20842   3.850   6.788   2.445
 6648SOL    HW120843   3.803   6.789   2.533
 6648SOL    HW220844   3.784   6.795   2.371
 6649SOL     OW20845   5.859   0.710   6.617
 6649SOL    HW120846   5.881   0.612   6.622
 6649SOL    HW220847   5.782   0.729   6.677
 6650SOL     OW20848   3.221   1.575   4.993
 6650SOL    HW120849   3.294   1.642   4.980
 6650SOL    HW220850   3.135   1.612   4.958
 6651SOL     OW20851   2.026   1.664   6.102
 6651SOL    HW120852   2.113   1.641   6.060
 6651SOL    HW220853   2.035   1.749   6.154
 6652SOL     OW20854   6.977   4.131   0.460
 6652SOL    HW120855   6.912   4.099   0.390
 6652SOL    HW220856   6.978   4.067   0.536
 6653SOL     OW20857   3.276   2.983   2.268
 6653SOL    HW120858   3.212   3.007   2.194
 6653SOL    HW220859   3.321   2.896   2.246
 6654SOL     OW20860   1.928   3.547   1.674
 6654SOL    HW120861   1.861   3.482   1.639
 6654SOL    HW220862   1.934   3.626   1.612
 6655SOL     OW20863   1.649   6.764   2.550
 6655SOL    HW120864   1.649   6.858   2.585
 6655SOL    HW220865   1.743   6.738   2.525
 6656SOL     OW20866   5.946   1.869   2.406
 6656SOL    HW120867   5.981   1.878   2.500
 6656SOL    HW220868   5.896   1.783   2.397
 6657SOL     OW20869   5.957   6.423   6.714
 6657SOL    HW120870   5.870   6.392   6.676
 6657SOL    HW220871   5.989   6.503   6.664
 6658SOL     OW20872   6.004   1.098   5.237
 6658SOL    HW120873   5.979   1.117   5.332
 6658SOL    HW220874   5.922   1.103   5.179
 6659SOL     OW20875   2.227   2.846   0.446
 6659SOL    HW120876   2.324   2.860   0.465
 6659SOL    HW220877   2.204   2.750   0.460
 6660SOL     OW20878   0.896   5.814   0.544
 6660SOL    HW120879   0.867   5.901   0.584
 6660SOL    HW220880   0.823   5.779   0.485
 6661SOL     OW20881   1.098   6.651   4.734
 6661SOL    HW120882   1.026   6.685   4.674
 6661SOL    HW220883   1.166   6.601   4.680
 6662SOL     OW20884   1.013   1.298   0.295
 6662SOL    HW120885   0.995   1.240   0.375
 6662SOL    HW220886   1.002   1.394   0.320
 6663SOL     OW20887   0.339   5.423   4.016
 6663SOL    HW120888   0.277   5.425   4.095
 6663SOL    HW220889   0.287   5.429   3.932
 6664SOL     OW20890   2.750   6.081   0.172
 6664SOL    HW120891   2.777   5.990   0.141
 6664SOL    HW220892   2.690   6.123   0.104
 6665SOL     OW20893   1.484   6.696   3.869
 6665SOL    HW120894   1.412   6.755   3.905
 6665SOL    HW220895   1.552   6.752   3.821
 6666SOL     OW20896   5.274   6.944   5.946
 6666SOL    HW120897   5.262   0.005   5.889
 6666SOL    HW220898   5.321   6.969   6.031
 6667SOL     OW20899   6.432   5.827   6.571
 6667SOL    HW120900   6.445   5.900   6.504
 6667SOL    HW220901   6.443   5.738   6.526
 6668SOL     OW20902   0.049   5.566   1.729
 6668SOL    HW120903   0.059   5.547   1.631
 6668SOL    HW220904   0.136   5.600   1.766
 6669SOL     OW20905   2.041   2.455   3.707
 6669SOL    HW120906   1.949   2.474   3.674
 6669SOL    HW220907   2.105   2.458   3.630
 6670SOL     OW20908   3.980   2.348   5.586
 6670SOL    HW120909   4.061   2.361   5.643
 6670SOL    HW220910   3.984   2.408   5.506
 6671SOL     OW20911   6.030   5.647   1.367
 6671SOL    HW120912   5.938   5.618   1.391
 6671SOL    HW220913   6.029   5.745   1.343
 6672SOL     OW20914   6.768   1.696   6.048
 6672SOL    HW120915   6.761   1.601   6.077
 6672SOL    HW220916   6.769   1.700   5.948
 6673SOL     OW20917   5.162   5.600   3.849
 6673SOL    HW120918   5.123   5.685   3.885
 6673SOL    HW220919   5.255   5.588   3.884
 6674SOL     OW20920   0.777   4.863   5.575
 6674SOL    HW120921   0.748   4.782   5.627
 6674SOL    HW220922   0.702   4.928   5.571
 6675SOL     OW20923   4.857   3.392   1.789
 6675SOL    HW120924   4.929   3.449   1.828
 6675SOL    HW220925   4.865   3.391   1.690
 6676SOL     OW20926   6.806   4.582   5.400
 6676SOL    HW120927   6.767   4.523   5.471
 6676SOL    HW220928   6.768   4.674   5.409
 6677SOL     OW20929   0.717   1.891   6.000
 6677SOL    HW120930   0.621   1.880   5.976
 6677SOL    HW220931   0.747   1.813   6.056
 6678SOL     OW20932   3.018   3.103   6.713
 6678SOL    HW120933   2.962   3.186   6.714
 6678SOL    HW220934   3.055   3.086   6.805
 6679SOL     OW20935   2.400   1.764   3.499
 6679SOL    HW120936   2.312   1.732   3.533
 6679SOL    HW220937   2.435   1.835   3.560
 6680SOL     OW20938   4.359   0.413   6.498
 6680SOL    HW120939   4.415   0.423   6.581
 6680SOL    HW220940   4.387   0.331   6.448
 6681SOL     OW20941   4.303   5.634   0.639
 6681SOL    HW120942   4.254   5.647   0.553
 6681SOL    HW220943   4.328   5.538   0.649
 6682SOL     OW20944   1.257   4.510   3.509
 6682SOL    HW120945   1.199   4.516   3.427
 6682SOL    HW220946   1.318   4.590   3.512
 6683SOL     OW20947   5.919   2.899   5.286
 6683SOL    HW120948   5.954   2.810   5.255
 6683SOL    HW220949   5.921   2.964   5.210
 6684SOL     OW20950   2.524   6.652   1.430
 6684SOL    HW120951   2.432   6.614   1.430
 6684SOL    HW220952   2.576   6.613   1.353
 6685SOL     OW20953   6.062   3.366   5.980
 6685SOL    HW120954   6.005   3.428   6.033
 6685SOL    HW220955   6.005   3.295   5.939
 6686SOL     OW20956   5.424   5.993   4.706
 6686SOL    HW120957   5.341   6.036   4.740
 6686SOL    HW220958   5.473   5.949   4.782
 6687SOL     OW20959   1.039   3.140   0.492
 6687SOL    HW120960   1.074   3.200   0.420
 6687SOL    HW220961   0.953   3.177   0.528
 6688SOL     OW20962   6.976   4.585   1.550
 6688SOL    HW120963   0.019   4.662   1.542
 6688SOL    HW220964   0.004   4.501   1.525
 6689SOL     OW20965   4.718   3.021   0.068
 6689SOL    HW120966   4.677   2.983   0.151
 6689SOL    HW220967   4.647   3.068   0.015
 6690SOL     OW20968   2.439   0.755   1.101
 6690SOL    HW120969   2.464   0.731   1.007
 6690SOL    HW220970   2.434   0.672   1.157
 6691SOL     OW20971   2.955   6.280   1.257
 6691SOL    HW120972   2.863   6.305   1.289
 6691SOL    HW220973   3.022   6.342   1.297
 6692SOL     OW20974   3.981   3.719   5.434
 6692SOL    HW120975   3.902   3.671   5.396
 6692SOL    HW220976   3.986   3.811   5.395
 6693SOL     OW20977   4.226   3.944   5.616
 6693SOL    HW120978   4.169   4.026   5.611
 6693SOL    HW220979   4.313   3.967   5.660
 6694SOL     OW20980   4.781   5.191   0.704
 6694SOL    HW120981   4.816   5.230   0.619
 6694SOL    HW220982   4.772   5.092   0.694
 6695SOL     OW20983   2.756   1.376   6.731
 6695SOL    HW120984   2.810   1.293   6.743
 6695SOL    HW220985   2.673   1.355   6.678
 6696SOL     OW20986   1.091   2.965   6.018
 6696SOL    HW120987   1.002   2.963   6.063
 6696SOL    HW220988   1.103   3.054   5.973
 6697SOL     OW20989   4.507   2.336   2.418
 6697SOL    HW120990   4.523   2.430   2.389
 6697SOL    HW220991   4.570   2.275   2.371
 6698SOL     OW20992   2.942   2.603   1.100
 6698SOL    HW120993   2.951   2.510   1.133
 6698SOL    HW220994   2.897   2.659   1.170
 6699SOL     OW20995   3.199   5.303   5.992
 6699SOL    HW120996   3.287   5.268   5.958
 6699SOL    HW220997   3.136   5.315   5.915
 6700SOL     OW20998   6.839   6.759   0.617
 6700SOL    HW120999   6.916   6.700   0.593
 6700SOL    HW221000   6.872   6.852   0.631
 6701SOL     OW21001   5.339   2.789   1.491
 6701SOL    HW121002   5.361   2.702   1.536
 6701SOL    HW221003   5.310   2.856   1.560
 6702SOL     OW21004   2.692   2.090   1.741
 6702SOL    HW121005   2.768   2.071   1.678
 6702SOL    HW221006   2.699   2.185   1.774
 6703SOL     OW21007   6.377   2.206   6.484
 6703SOL    HW121008   6.469   2.167   6.489
 6703SOL    HW221009   6.369   2.284   6.546
 6704SOL     OW21010   3.558   2.069   2.957
 6704SOL    HW121011   3.471   2.089   2.912
 6704SOL    HW221012   3.631   2.062   2.888
 6705SOL     OW21013   6.636   1.957   1.107
 6705SOL    HW121014   6.651   1.980   1.010
 6705SOL    HW221015   6.684   2.024   1.164
 6706SOL     OW21016   1.318   3.697   2.038
 6706SOL    HW121017   1.312   3.760   1.961
 6706SOL    HW221018   1.385   3.625   2.017
 6707SOL     OW21019   0.288   6.121   3.731
 6707SOL    HW121020   0.225   6.120   3.653
 6707SOL    HW221021   0.267   6.045   3.792
 6708SOL     OW21022   6.981   5.350   2.258
 6708SOL    HW121023   6.979   5.412   2.179
 6708SOL    HW221024   0.022   5.387   2.328
 6709SOL     OW21025   2.807   6.874   2.101
 6709SOL    HW121026   2.817   6.909   2.194
 6709SOL    HW221027   2.759   6.941   2.046
 6710SOL     OW21028   3.086   1.048   5.696
 6710SOL    HW121029   3.155   1.070   5.765
 6710SOL    HW221030   3.008   1.110   5.704
 6711SOL     OW21031   5.043   5.309   0.226
 6711SOL    HW121032   5.038   5.225   0.172
 6711SOL    HW221033   5.136   5.322   0.259
 6712SOL     OW21034   4.722   4.993   7.002
 6712SOL    HW121035   4.776   4.932   6.944
 6712SOL    HW221036   4.679   5.064   6.945
 6713SOL     OW21037   2.725   0.856   2.257
 6713SOL    HW121038   2.750   0.864   2.354
 6713SOL    HW221039   2.671   0.773   2.243
 6714SOL     OW21040   6.311   1.076   6.721
 6714SOL    HW121041   6.321   1.169   6.756
 6714SOL    HW221042   6.346   1.011   6.788
 6715SOL     OW21043   6.938   0.190   6.230
 6715SOL    HW121044   6.877   0.144   6.296
 6715SOL    HW221045   0.005   0.141   6.225
 6716SOL     OW21046   0.597   5.665   1.795
 6716SOL    HW121047   0.649   5.582   1.819
 6716SOL    HW221048   0.608   5.682   1.697
 6717SOL     OW21049   4.425   2.478   0.345
 6717SOL    HW121050   4.403   2.568   0.306
 6717SOL    HW221051   4.388   2.473   0.438
 6718SOL     OW21052   4.796   0.281   6.215
 6718SOL    HW121053   4.893   0.260   6.227
 6718SOL    HW221054   4.767   0.257   6.123
 6719SOL     OW21055   1.702   6.730   6.514
 6719SOL    HW121056   1.625   6.792   6.503
 6719SOL    HW221057   1.778   6.778   6.557
 6720SOL     OW21058   0.652   5.927   3.690
 6720SOL    HW121059   0.597   5.870   3.750
 6720SOL    HW221060   0.595   5.997   3.647
 6721SOL     OW21061   6.130   0.565   5.854
 6721SOL    HW121062   6.083   0.653   5.865
 6721SOL    HW221063   6.213   0.565   5.909
 6722SOL     OW21064   6.895   3.608   1.222
 6722SOL    HW121065   6.798   3.612   1.197
 6722SOL    HW221066   6.917   3.518   1.259
 6723SOL     OW21067   1.878   6.802   3.221
 6723SOL    HW121068   1.888   6.868   3.147
 6723SOL    HW221069   1.962   6.802   3.277
 6724SOL     OW21070   1.139   3.813   5.649
 6724SOL    HW121071   1.110   3.721   5.626
 6724SOL    HW221072   1.133   3.871   5.568
 6725SOL     OW21073   1.428   3.949   1.113
 6725SOL    HW121074   1.346   3.984   1.067
 6725SOL    HW221075   1.498   4.020   1.115
 6726SOL     OW21076   0.703   2.052   5.001
 6726SOL    HW121077   0.687   2.085   4.908
 6726SOL    HW221078   0.617   2.054   5.053
 6727SOL     OW21079   6.258   3.781   5.874
 6727SOL    HW121080   6.224   3.818   5.788
 6727SOL    HW221081   6.330   3.714   5.855
 6728SOL     OW21082   4.126   1.337   3.742
 6728SOL    HW121083   4.121   1.268   3.814
 6728SOL    HW221084   4.201   1.400   3.760
 6729SOL     OW21085   0.028   1.641   2.474
 6729SOL    HW121086   0.061   1.617   2.383
 6729SOL    HW221087   0.064   1.730   2.501
 6730SOL     OW21088   2.840   6.265   6.831
 6730SOL    HW121089   2.937   6.241   6.827
 6730SOL    HW221090   2.803   6.267   6.739
 6731SOL     OW21091   1.086   5.231   1.335
 6731SOL    HW121092   1.100   5.143   1.379
 6731SOL    HW221093   1.151   5.298   1.373
 6732SOL     OW21094   4.499   4.945   5.971
 6732SOL    HW121095   4.454   4.918   5.885
 6732SOL    HW221096   4.596   4.961   5.954
 6733SOL     OW21097   4.046   4.961   0.434
 6733SOL    HW121098   3.969   4.995   0.380
 6733SOL    HW221099   4.064   5.024   0.509
 6734SOL     OW21100   6.532   2.455   4.791
 6734SOL    HW121101   6.436   2.452   4.819
 6734SOL    HW221102   6.539   2.501   4.702
 6735SOL     OW21103   0.018   4.896   4.606
 6735SOL    HW121104   0.021   4.976   4.667
 6735SOL    HW221105   6.947   4.856   4.609
 6736SOL     OW21106   3.409   3.906   6.995
 6736SOL    HW121107   3.329   3.914   6.935
 6736SOL    HW221108   3.384   3.933   0.068
 6737SOL     OW21109   2.218   3.015   0.810
 6737SOL    HW121110   2.191   3.107   0.783
 6737SOL    HW221111   2.316   3.003   0.795
 6738SOL     OW21112   1.730   4.189   2.874
 6738SOL    HW121113   1.729   4.127   2.953
 6738SOL    HW221114   1.773   4.142   2.796
 6739SOL     OW21115   3.705   4.961   5.830
 6739SOL    HW121116   3.672   5.035   5.888
 6739SOL    HW221117   3.722   4.997   5.738
 6740SOL     OW21118   1.776   1.008   4.375
 6740SOL    HW121119   1.756   1.041   4.467
 6740SOL    HW221120   1.699   1.029   4.315
 6741SOL     OW21121   4.621   1.247   5.987
 6741SOL    HW121122   4.697   1.312   5.983
 6741SOL    HW221123   4.536   1.297   6.005
 6742SOL     OW21124   6.596   6.188   3.027
 6742SOL    HW121125   6.638   6.241   3.100
 6742SOL    HW221126   6.555   6.105   3.066
 6743SOL     OW21127   4.354   4.628   0.594
 6743SOL    HW121128   4.312   4.682   0.521
 6743SOL    HW221129   4.451   4.615   0.574
 6744SOL     OW21130   5.416   6.082   6.105
 6744SOL    HW121131   5.452   6.165   6.064
 6744SOL    HW221132   5.335   6.052   6.053
 6745SOL     OW21133   0.288   6.671   2.351
 6745SOL    HW121134   0.335   6.632   2.272
 6745SOL    HW221135   0.289   6.605   2.426
 6746SOL     OW21136   0.779   1.137   2.953
 6746SOL    HW121137   0.847   1.210   2.963
 6746SOL    HW221138   0.694   1.165   2.998
 6747SOL     OW21139   5.453   0.392   5.045
 6747SOL    HW121140   5.455   0.431   5.137
 6747SOL    HW221141   5.359   0.369   5.020
 6748SOL     OW21142   1.063   0.066   3.420
 6748SOL    HW121143   1.078   0.147   3.364
 6748SOL    HW221144   0.970   0.031   3.404
 6749SOL     OW21145   2.748   5.802   0.202
 6749SOL    HW121146   2.768   5.762   0.291
 6749SOL    HW221147   2.652   5.830   0.199
 6750SOL     OW21148   4.522   1.212   5.198
 6750SOL    HW121149   4.438   1.218   5.145
 6750SOL    HW221150   4.579   1.138   5.163
 6751SOL     OW21151   3.424   1.264   3.412
 6751SOL    HW121152   3.473   1.239   3.496
 6751SOL    HW221153   3.389   1.357   3.420
 6752SOL     OW21154   6.951   3.182   3.054
 6752SOL    HW121155   7.001   3.267   3.073
 6752SOL    HW221156   7.003   3.125   2.990
 6753SOL     OW21157   4.179   1.190   6.260
 6753SOL    HW121158   4.152   1.145   6.175
 6753SOL    HW221159   4.264   1.241   6.246
 6754SOL     OW21160   6.824   1.427   6.975
 6754SOL    HW121161   6.768   1.491   6.922
 6754SOL    HW221162   6.822   1.337   6.932
 6755SOL     OW21163   4.508   1.726   3.200
 6755SOL    HW121164   4.441   1.764   3.136
 6755SOL    HW221165   4.577   1.676   3.149
 6756SOL     OW21166   4.204   4.941   4.455
 6756SOL    HW121167   4.184   4.908   4.547
 6756SOL    HW221168   4.154   5.026   4.438
 6757SOL     OW21169   4.245   0.195   1.448
 6757SOL    HW121170   4.183   0.120   1.471
 6757SOL    HW221171   4.296   0.173   1.365
 6758SOL     OW21172   6.995   3.477   0.756
 6758SOL    HW121173   0.072   3.463   0.736
 6758SOL    HW221174   6.967   3.415   0.830
 6759SOL     OW21175   0.831   4.098   4.947
 6759SOL    HW121176   0.866   4.189   4.971
 6759SOL    HW221177   0.893   4.055   4.882
 6760SOL     OW21178   6.597   5.063   4.306
 6760SOL    HW121179   6.664   5.114   4.360
 6760SOL    HW221180   6.573   5.115   4.224
 6761SOL     OW21181   6.418   2.496   6.268
 6761SOL    HW121182   6.349   2.568   6.270
 6761SOL    HW221183   6.482   2.508   6.345
 6762SOL     OW21184   6.669   5.292   3.421
 6762SOL    HW121185   6.608   5.315   3.345
 6762SOL    HW221186   6.762   5.319   3.397
 6763SOL     OW21187   6.856   5.683   3.994
 6763SOL    HW121188   6.880   5.725   3.906
 6763SOL    HW221189   6.836   5.587   3.979
 6764SOL     OW21190   3.370   5.184   6.395
 6764SOL    HW121191   3.307   5.111   6.423
 6764SOL    HW221192   3.411   5.162   6.307
 6765SOL     OW21193   4.899   4.932   3.700
 6765SOL    HW121194   4.968   4.889   3.757
 6765SOL    HW221195   4.867   4.867   3.631
 6766SOL     OW21196   4.319   6.816   6.572
 6766SOL    HW121197   4.335   6.732   6.521
 6766SOL    HW221198   4.388   6.826   6.643
 6767SOL     OW21199   0.970   2.429   0.889
 6767SOL    HW121200   1.006   2.374   0.814
 6767SOL    HW221201   0.875   2.404   0.907
 6768SOL     OW21202   0.336   6.492   3.771
 6768SOL    HW121203   0.314   6.581   3.732
 6768SOL    HW221204   0.304   6.420   3.709
 6769SOL     OW21205   2.884   0.826   5.307
 6769SOL    HW121206   2.848   0.819   5.215
 6769SOL    HW221207   2.964   0.886   5.307
 6770SOL     OW21208   6.874   1.928   3.034
 6770SOL    HW121209   6.789   1.925   3.086
 6770SOL    HW221210   6.854   1.952   2.939
 6771SOL     OW21211   3.669   1.114   2.870
 6771SOL    HW121212   3.714   1.084   2.786
 6771SOL    HW221213   3.570   1.112   2.857
 6772SOL     OW21214   5.434   2.418   2.790
 6772SOL    HW121215   5.436   2.517   2.776
 6772SOL    HW221216   5.342   2.384   2.771
 6773SOL     OW21217   6.838   6.714   1.447
 6773SOL    HW121218   6.739   6.731   1.452
 6773SOL    HW221219   6.855   6.619   1.421
 6774SOL     OW21220   1.901   2.282   4.661
 6774SOL    HW121221   1.897   2.329   4.573
 6774SOL    HW221222   1.922   2.348   4.733
 6775SOL     OW21223   0.278   2.130   3.451
 6775SOL    HW121224   0.376   2.122   3.470
 6775SOL    HW221225   0.228   2.138   3.537
 6776SOL     OW21226   4.043   3.257   1.358
 6776SOL    HW121227   3.970   3.190   1.369
 6776SOL    HW221228   4.129   3.219   1.393
 6777SOL     OW21229   4.101   5.640   0.817
 6777SOL    HW121230   4.034   5.599   0.756
 6777SOL    HW221231   4.189   5.650   0.769
 6778SOL     OW21232   6.208   3.485   2.528
 6778SOL    HW121233   6.245   3.575   2.550
 6778SOL    HW221234   6.113   3.479   2.562
 6779SOL     OW21235   5.305   4.896   6.800
 6779SOL    HW121236   5.388   4.846   6.824
 6779SOL    HW221237   5.328   4.980   6.752
 6780SOL     OW21238   1.873   3.636   2.933
 6780SOL    HW121239   1.867   3.583   2.848
 6780SOL    HW221240   1.835   3.582   3.008
 6781SOL     OW21241   6.542   1.306   3.537
 6781SOL    HW121242   6.604   1.298   3.459
 6781SOL    HW221243   6.449   1.284   3.507
 6782SOL     OW21244   0.732   0.968   3.405
 6782SOL    HW121245   0.818   1.020   3.402
 6782SOL    HW221246   0.751   0.875   3.434
 6783SOL     OW21247   0.601   3.944   4.884
 6783SOL    HW121248   0.610   3.951   4.784
 6783SOL    HW221249   0.676   3.992   4.928
 6784SOL     OW21250   2.020   4.179   2.017
 6784SOL    HW121251   2.060   4.106   2.072
 6784SOL    HW221252   1.944   4.143   1.963
 6785SOL     OW21253   5.484   5.343   5.791
 6785SOL    HW121254   5.385   5.344   5.805
 6785SOL    HW221255   5.504   5.349   5.694
 6786SOL     OW21256   6.845   3.074   6.500
 6786SOL    HW121257   6.841   3.059   6.599
 6786SOL    HW221258   6.752   3.079   6.464
 6787SOL     OW21259   3.025   2.357   1.253
 6787SOL    HW121260   2.990   2.277   1.302
 6787SOL    HW221261   3.079   2.327   1.175
 6788SOL     OW21262   0.305   4.156   2.670
 6788SOL    HW121263   0.282   4.253   2.677
 6788SOL    HW221264   0.388   4.145   2.614
 6789SOL     OW21265   0.021   4.597   4.472
 6789SOL    HW121266   0.006   4.514   4.525
 6789SOL    HW221267   6.953   4.638   4.448
 6790SOL     OW21268   0.301   4.218   6.584
 6790SOL    HW121269   0.261   4.179   6.668
 6790SOL    HW221270   0.342   4.306   6.605
 6791SOL     OW21271   4.099   1.869   3.308
 6791SOL    HW121272   4.181   1.925   3.316
 6791SOL    HW221273   4.116   1.793   3.246
 6792SOL     OW21274   4.439   0.057   5.603
 6792SOL    HW121275   4.473   0.064   5.697
 6792SOL    HW221276   4.371   0.129   5.587
 6793SOL     OW21277   3.628   1.926   6.880
 6793SOL    HW121278   3.721   1.890   6.875
 6793SOL    HW221279   3.629   2.011   6.933
 6794SOL     OW21280   4.760   1.165   5.643
 6794SOL    HW121281   4.736   1.077   5.684
 6794SOL    HW221282   4.765   1.156   5.544
 6795SOL     OW21283   0.991   6.832   6.930
 6795SOL    HW121284   1.014   6.786   7.016
 6795SOL    HW221285   0.893   6.823   6.913
 6796SOL     OW21286   5.665   0.421   2.690
 6796SOL    HW121287   5.716   0.497   2.728
 6796SOL    HW221288   5.623   0.368   2.764
 6797SOL     OW21289   6.702   1.516   0.494
 6797SOL    HW121290   6.648   1.522   0.578
 6797SOL    HW221291   6.797   1.495   0.518
 6798SOL     OW21292   6.394   0.411   1.344
 6798SOL    HW121293   6.422   0.452   1.430
 6798SOL    HW221294   6.334   0.474   1.295
 6799SOL     OW21295   5.365   0.466   2.586
 6799SOL    HW121296   5.333   0.400   2.653
 6799SOL    HW221297   5.463   0.454   2.571
 6800SOL     OW21298   2.095   2.431   1.412
 6800SOL    HW121299   2.044   2.385   1.340
 6800SOL    HW221300   2.170   2.484   1.371
 6801SOL     OW21301   0.565   6.825   3.454
 6801SOL    HW121302   0.626   6.748   3.474
 6801SOL    HW221303   0.613   6.891   3.396
 6802SOL     OW21304   3.489   5.783   0.421
 6802SOL    HW121305   3.499   5.882   0.430
 6802SOL    HW221306   3.533   5.737   0.498
 6803SOL     OW21307   4.703   3.414   0.183
 6803SOL    HW121308   4.741   3.335   0.232
 6803SOL    HW221309   4.633   3.458   0.239
 6804SOL     OW21310   3.290   4.939   2.728
 6804SOL    HW121311   3.248   4.957   2.639
 6804SOL    HW221312   3.374   4.886   2.716
 6805SOL     OW21313   0.870   5.115   0.242
 6805SOL    HW121314   0.772   5.099   0.234
 6805SOL    HW221315   0.905   5.154   0.157
 6806SOL     OW21316   6.933   0.796   4.274
 6806SOL    HW121317   7.019   0.782   4.224
 6806SOL    HW221318   6.875   0.715   4.263
 6807SOL     OW21319   3.753   3.886   3.546
 6807SOL    HW121320   3.700   3.931   3.474
 6807SOL    HW221321   3.700   3.882   3.630
 6808SOL     OW21322   5.727   1.060   5.122
 6808SOL    HW121323   5.703   1.010   5.205
 6808SOL    HW221324   5.659   1.040   5.051
 6809SOL     OW21325   5.942   4.013   0.949
 6809SOL    HW121326   5.905   3.973   1.032
 6809SOL    HW221327   5.971   3.940   0.887
 6810SOL     OW21328   3.521   0.863   3.187
 6810SOL    HW121329   3.526   0.963   3.187
 6810SOL    HW221330   3.500   0.831   3.094
 6811SOL     OW21331   6.630   3.180   1.912
 6811SOL    HW121332   6.678   3.203   1.997
 6811SOL    HW221333   6.535   3.156   1.934
 6812SOL     OW21334   3.592   3.552   4.775
 6812SOL    HW121335   3.647   3.542   4.693
 6812SOL    HW221336   3.496   3.532   4.754
 6813SOL     OW21337   5.686   3.573   2.649
 6813SOL    HW121338   5.718   3.546   2.558
 6813SOL    HW221339   5.706   3.501   2.715
 6814SOL     OW21340   4.983   1.538   6.670
 6814SOL    HW121341   4.951   1.446   6.694
 6814SOL    HW221342   5.083   1.535   6.657
 6815SOL     OW21343   1.455   5.543   6.685
 6815SOL    HW121344   1.441   5.446   6.664
 6815SOL    HW221345   1.544   5.556   6.729
 6816SOL     OW21346   6.897   1.525   4.384
 6816SOL    HW121347   6.853   1.546   4.472
 6816SOL    HW221348   6.922   1.610   4.338
 6817SOL     OW21349   2.721   2.348   3.909
 6817SOL    HW121350   2.801   2.296   3.940
 6817SOL    HW221351   2.651   2.347   3.980
 6818SOL     OW21352   2.113   6.412   0.199
 6818SOL    HW121353   2.152   6.336   0.147
 6818SOL    HW221354   2.185   6.479   0.220
 6819SOL     OW21355   4.306   0.393   2.663
 6819SOL    HW121356   4.270   0.417   2.753
 6819SOL    HW221357   4.231   0.359   2.605
 6820SOL     OW21358   1.454   5.734   1.629
 6820SOL    HW121359   1.395   5.668   1.674
 6820SOL    HW221360   1.522   5.768   1.694
 6821SOL     OW21361   4.628   2.838   6.004
 6821SOL    HW121362   4.616   2.935   6.025
 6821SOL    HW221363   4.705   2.801   6.056
 6822SOL     OW21364   6.853   2.707   6.573
 6822SOL    HW121365   6.791   2.731   6.497
 6822SOL    HW221366   6.946   2.736   6.550
 6823SOL     OW21367   4.927   4.397   6.295
 6823SOL    HW121368   4.888   4.407   6.386
 6823SOL    HW221369   4.898   4.474   6.238
 6824SOL     OW21370   1.744   1.547   0.290
 6824SOL    HW121371   1.691   1.477   0.336
 6824SOL    HW221372   1.721   1.548   0.193
 6825SOL     OW21373   6.336   5.909   0.672
 6825SOL    HW121374   6.365   5.846   0.600
 6825SOL    HW221375   6.316   5.998   0.632
 6826SOL     OW21376   0.576   3.608   3.567
 6826SOL    HW121377   0.649   3.623   3.500
 6826SOL    HW221378   0.565   3.510   3.582
 6827SOL     OW21379   4.884   5.202   5.818
 6827SOL    HW121380   4.884   5.246   5.728
 6827SOL    HW221381   4.929   5.261   5.885
 6828SOL     OW21382   3.718   1.468   2.633
 6828SOL    HW121383   3.785   1.470   2.707
 6828SOL    HW221384   3.670   1.556   2.629
 6829SOL     OW21385   5.275   0.187   5.259
 6829SOL    HW121386   5.236   0.276   5.237
 6829SOL    HW221387   5.240   0.118   5.195
 6830SOL     OW21388   5.810   1.165   3.703
 6830SOL    HW121389   5.825   1.214   3.617
 6830SOL    HW221390   5.875   1.089   3.710
 6831SOL     OW21391   1.537   0.783   6.097
 6831SOL    HW121392   1.538   0.683   6.110
 6831SOL    HW221393   1.545   0.828   6.185
 6832SOL     OW21394   2.445   3.634   0.379
 6832SOL    HW121395   2.410   3.721   0.344
 6832SOL    HW221396   2.508   3.594   0.312
 6833SOL     OW21397   3.459   5.374   5.815
 6833SOL    HW121398   3.517   5.452   5.838
 6833SOL    HW221399   3.492   5.293   5.863
 6834SOL     OW21400   5.363   7.001   0.963
 6834SOL    HW121401   5.323   0.047   1.028
 6834SOL    HW221402   5.295   6.932   0.940
 6835SOL     OW21403   3.892   1.718   4.942
 6835SOL    HW121404   3.880   1.733   5.040
 6835SOL    HW221405   3.810   1.749   4.893
 6836SOL     OW21406   1.987   4.422   6.231
 6836SOL    HW121407   1.904   4.367   6.243
 6836SOL    HW221408   1.975   4.509   6.278
 6837SOL     OW21409   0.394   1.157   2.839
 6837SOL    HW121410   0.415   1.131   2.933
 6837SOL    HW221411   0.442   1.242   2.816
 6838SOL     OW21412   2.294   4.363   5.434
 6838SOL    HW121413   2.379   4.398   5.474
 6838SOL    HW221414   2.290   4.263   5.446
 6839SOL     OW21415   5.694   1.983   3.683
 6839SOL    HW121416   5.600   2.014   3.694
 6839SOL    HW221417   5.746   2.049   3.628
 6840SOL     OW21418   2.717   6.261   5.454
 6840SOL    HW121419   2.682   6.193   5.518
 6840SOL    HW221420   2.674   6.349   5.472
 6841SOL     OW21421   3.950   4.646   1.208
 6841SOL    HW121422   3.912   4.737   1.188
 6841SOL    HW221423   4.036   4.657   1.258
 6842SOL     OW21424   1.775   2.632   6.746
 6842SOL    HW121425   1.769   2.533   6.758
 6842SOL    HW221426   1.793   2.675   6.834
 6843SOL     OW21427   5.156   0.938   1.699
 6843SOL    HW121428   5.079   0.977   1.749
 6843SOL    HW221429   5.163   0.980   1.609
 6844SOL     OW21430   5.311   6.007   4.210
 6844SOL    HW121431   5.321   5.959   4.296
 6844SOL    HW221432   5.335   5.946   4.134
 6845SOL     OW21433   5.166   4.109   2.343
 6845SOL    HW121434   5.230   4.105   2.267
 6845SOL    HW221435   5.170   4.199   2.385
 6846SOL     OW21436   4.207   2.915   1.453
 6846SOL    HW121437   4.239   3.007   1.478
 6846SOL    HW221438   4.144   2.882   1.523
 6847SOL     OW21439   5.821   3.876   1.802
 6847SOL    HW121440   5.867   3.913   1.882
 6847SOL    HW221441   5.722   3.875   1.817
 6848SOL     OW21442   2.290   6.321   3.280
 6848SOL    HW121443   2.319   6.228   3.258
 6848SOL    HW221444   2.190   6.327   3.273
 6849SOL     OW21445   3.245   5.699   4.229
 6849SOL    HW121446   3.173   5.756   4.190
 6849SOL    HW221447   3.314   5.680   4.158
 6850SOL     OW21448   5.614   2.863   2.625
 6850SOL    HW121449   5.537   2.808   2.594
 6850SOL    HW221450   5.677   2.879   2.548
 6851SOL     OW21451   1.431   3.571   4.749
 6851SOL    HW121452   1.467   3.595   4.659
 6851SOL    HW221453   1.472   3.485   4.779
 6852SOL     OW21454   1.341   4.748   0.971
 6852SOL    HW121455   1.340   4.835   0.921
 6852SOL    HW221456   1.392   4.680   0.918
 6853SOL     OW21457   6.622   3.644   6.840
 6853SOL    HW121458   6.684   3.719   6.817
 6853SOL    HW221459   6.634   3.569   6.775
 6854SOL     OW21460   5.648   0.882   5.972
 6854SOL    HW121461   5.603   0.938   5.903
 6854SOL    HW221462   5.745   0.905   5.976
 6855SOL     OW21463   3.566   6.137   2.162
 6855SOL    HW121464   3.522   6.160   2.075
 6855SOL    HW221465   3.615   6.050   2.152
 6856SOL     OW21466   4.602   4.363   5.403
 6856SOL    HW121467   4.631   4.272   5.434
 6856SOL    HW221468   4.506   4.377   5.427
 6857SOL     OW21469   3.501   1.668   6.850
 6857SOL    HW121470   3.461   1.676   6.758
 6857SOL    HW221471   3.553   1.751   6.871
 6858SOL     OW21472   4.105   3.746   4.763
 6858SOL    HW121473   4.193   3.780   4.730
 6858SOL    HW221474   4.087   3.656   4.724
 6859SOL     OW21475   1.623   6.387   1.105
 6859SOL    HW121476   1.602   6.470   1.053
 6859SOL    HW221477   1.716   6.392   1.140
 6860SOL     OW21478   5.510   5.418   1.940
 6860SOL    HW121479   5.492   5.457   2.031
 6860SOL    HW221480   5.559   5.331   1.950
 6861SOL     OW21481   5.430   4.314   1.553
 6861SOL    HW121482   5.331   4.326   1.565
 6861SOL    HW221483   5.475   4.403   1.554
 6862SOL     OW21484   2.270   4.348   4.652
 6862SOL    HW121485   2.309   4.308   4.568
 6862SOL    HW221486   2.344   4.370   4.715
 6863SOL     OW21487   5.630   1.644   4.267
 6863SOL    HW121488   5.694   1.622   4.340
 6863SOL    HW221489   5.679   1.687   4.191
 6864SOL     OW21490   3.360   6.038   4.098
 6864SOL    HW121491   3.354   6.108   4.027
 6864SOL    HW221492   3.357   6.081   4.188
 6865SOL     OW21493   6.477   5.968   3.150
 6865SOL    HW121494   6.480   5.939   3.246
 6865SOL    HW221495   6.384   5.995   3.126
 6866SOL     OW21496   6.487   4.338   2.447
 6866SOL    HW121497   6.519   4.293   2.364
 6866SOL    HW221498   6.402   4.387   2.428
 6867SOL     OW21499   1.349   4.812   1.394
 6867SOL    HW121500   1.426   4.819   1.330
 6867SOL    HW221501   1.350   4.721   1.437
 6868SOL     OW21502   1.790   5.222   5.211
 6868SOL    HW121503   1.790   5.131   5.169
 6868SOL    HW221504   1.853   5.281   5.160
 6869SOL     OW21505   6.029   2.660   5.232
 6869SOL    HW121506   6.000   2.613   5.149
 6869SOL    HW221507   6.111   2.616   5.269
 6870SOL     OW21508   6.537   3.610   2.308
 6870SOL    HW121509   6.578   3.524   2.339
 6870SOL    HW221510   6.608   3.666   2.264
 6871SOL     OW21511   6.145   5.055   2.476
 6871SOL    HW121512   6.243   5.074   2.474
 6871SOL    HW221513   6.122   5.007   2.561
 6872SOL     OW21514   1.676   3.617   0.757
 6872SOL    HW121515   1.740   3.544   0.733
 6872SOL    HW221516   1.709   3.705   0.722
 6873SOL     OW21517   5.739   3.615   4.891
 6873SOL    HW121518   5.821   3.592   4.943
 6873SOL    HW221519   5.756   3.698   4.838
 6874SOL     OW21520   0.371   4.535   3.060
 6874SOL    HW121521   0.316   4.585   2.994
 6874SOL    HW221522   0.335   4.442   3.070
 6875SOL     OW21523   1.691   2.647   3.383
 6875SOL    HW121524   1.632   2.725   3.402
 6875SOL    HW221525   1.780   2.679   3.352
 6876SOL     OW21526   4.184   5.259   5.678
 6876SOL    HW121527   4.136   5.335   5.723
 6876SOL    HW221528   4.212   5.287   5.586
 6877SOL     OW21529   2.218   4.271   6.228
 6877SOL    HW121530   2.136   4.327   6.238
 6877SOL    HW221531   2.200   4.196   6.165
 6878SOL     OW21532   2.189   2.288   5.268
 6878SOL    HW121533   2.284   2.313   5.289
 6878SOL    HW221534   2.149   2.244   5.348
 6879SOL     OW21535   1.242   1.829   0.094
 6879SOL    HW121536   1.175   1.796   0.028
 6879SOL    HW221537   1.304   1.755   0.118
 6880SOL     OW21538   1.996   3.417   5.028
 6880SOL    HW121539   2.007   3.333   5.080
 6880SOL    HW221540   2.042   3.407   4.939
 6881SOL     OW21541   6.721   3.762   2.177
 6881SOL    HW121542   6.768   3.838   2.221
 6881SOL    HW221543   6.774   3.730   2.099
 6882SOL     OW21544   3.071   0.121   5.763
 6882SOL    HW121545   3.014   0.054   5.809
 6882SOL    HW221546   3.089   0.199   5.823
 6883SOL     OW21547   3.654   1.314   1.400
 6883SOL    HW121548   3.745   1.339   1.432
 6883SOL    HW221549   3.647   1.215   1.391
 6884SOL     OW21550   1.478   3.369   4.313
 6884SOL    HW121551   1.561   3.363   4.257
 6884SOL    HW221552   1.438   3.460   4.303
 6885SOL     OW21553   3.795   5.749   4.835
 6885SOL    HW121554   3.755   5.714   4.751
 6885SOL    HW221555   3.893   5.764   4.822
 6886SOL     OW21556   0.094   0.743   2.938
 6886SOL    HW121557   0.156   0.798   2.882
 6886SOL    HW221558   0.137   0.654   2.957
 6887SOL     OW21559   4.877   0.205   5.587
 6887SOL    HW121560   4.859   0.136   5.517
 6887SOL    HW221561   4.904   0.161   5.672
 6888SOL     OW21562   5.676   6.485   6.703
 6888SOL    HW121563   5.716   6.559   6.757
 6888SOL    HW221564   5.586   6.512   6.670
 6889SOL     OW21565   1.125   2.317   6.267
 6889SOL    HW121566   1.172   2.381   6.207
 6889SOL    HW221567   1.192   2.257   6.311
 6890SOL     OW21568   3.093   6.029   1.341
 6890SOL    HW121569   3.188   6.014   1.312
 6890SOL    HW221570   3.038   6.058   1.263
 6891SOL     OW21571   2.165   3.672   4.560
 6891SOL    HW121572   2.174   3.573   4.549
 6891SOL    HW221573   2.185   3.697   4.655
 6892SOL     OW21574   3.306   0.675   3.414
 6892SOL    HW121575   3.327   0.728   3.332
 6892SOL    HW221576   3.366   0.703   3.489
 6893SOL     OW21577   5.532   6.111   1.301
 6893SOL    HW121578   5.602   6.167   1.346
 6893SOL    HW221579   5.576   6.046   1.238
 6894SOL     OW21580   6.215   5.387   6.994
 6894SOL    HW121581   6.239   5.392   0.071
 6894SOL    HW221582   6.261   5.462   6.945
 6895SOL     OW21583   2.886   5.163   6.541
 6895SOL    HW121584   2.839   5.091   6.592
 6895SOL    HW221585   2.821   5.234   6.516
 6896SOL     OW21586   2.792   6.782   3.946
 6896SOL    HW121587   2.762   6.802   3.852
 6896SOL    HW221588   2.890   6.761   3.945
 6897SOL     OW21589   2.028   3.766   0.234
 6897SOL    HW121590   1.937   3.797   0.261
 6897SOL    HW221591   2.036   3.765   0.134
 6898SOL     OW21592   3.465   1.616   2.015
 6898SOL    HW121593   3.485   1.649   2.107
 6898SOL    HW221594   3.468   1.693   1.951
 6899SOL     OW21595   4.946   0.200   0.908
 6899SOL    HW121596   4.945   0.291   0.868
 6899SOL    HW221597   4.885   0.140   0.855
 6900SOL     OW21598   5.874   0.664   6.126
 6900SOL    HW121599   5.781   0.684   6.158
 6900SOL    HW221600   5.890   0.565   6.131
 6901SOL     OW21601   0.770   0.279   6.126
 6901SOL    HW121602   0.698   0.349   6.124
 6901SOL    HW221603   0.827   0.288   6.044
 6902SOL     OW21604   6.908   6.148   0.919
 6902SOL    HW121605   6.998   6.189   0.905
 6902SOL    HW221606   6.838   6.219   0.913
 6903SOL     OW21607   4.115   4.825   5.492
 6903SOL    HW121608   4.177   4.781   5.426
 6903SOL    HW221609   4.103   4.764   5.571
 6904SOL     OW21610   6.010   1.613   4.103
 6904SOL    HW121611   6.088   1.559   4.134
 6904SOL    HW221612   6.014   1.704   4.144
 6905SOL     OW21613   6.170   6.537   0.466
 6905SOL    HW121614   6.120   6.615   0.505
 6905SOL    HW221615   6.181   6.552   0.367
 6906SOL     OW21616   3.810   0.902   3.682
 6906SOL    HW121617   3.883   0.840   3.709
 6906SOL    HW221618   3.744   0.911   3.757
 6907SOL     OW21619   5.050   1.183   1.056
 6907SOL    HW121620   5.140   1.226   1.051
 6907SOL    HW221621   5.058   1.092   1.096
 6908SOL     OW21622   1.089   6.635   5.485
 6908SOL    HW121623   1.050   6.670   5.570
 6908SOL    HW221624   1.130   6.711   5.434
 6909SOL     OW21625   5.488   4.905   1.516
 6909SOL    HW121626   5.395   4.886   1.482
 6909SOL    HW221627   5.492   4.998   1.550
 6910SOL     OW21628   6.578   2.686   3.227
 6910SOL    HW121629   6.663   2.672   3.278
 6910SOL    HW221630   6.500   2.675   3.288
 6911SOL     OW21631   3.987   6.916   3.179
 6911SOL    HW121632   4.041   6.909   3.095
 6911SOL    HW221633   3.910   6.979   3.164
 6912SOL     OW21634   4.525   4.684   1.219
 6912SOL    HW121635   4.482   4.692   1.309
 6912SOL    HW221636   4.471   4.736   1.152
 6913SOL     OW21637   4.739   4.985   5.852
 6913SOL    HW121638   4.788   4.937   5.779
 6913SOL    HW221639   4.764   5.082   5.849
 6914SOL     OW21640   6.176   4.757   6.905
 6914SOL    HW121641   6.122   4.808   6.838
 6914SOL    HW221642   6.114   4.706   6.966
 6915SOL     OW21643   6.641   4.743   1.886
 6915SOL    HW121644   6.735   4.778   1.876
 6915SOL    HW221645   6.638   4.648   1.858
 6916SOL     OW21646   5.932   4.074   0.122
 6916SOL    HW121647   6.025   4.107   0.103
 6916SOL    HW221648   5.915   3.991   0.069
 6917SOL     OW21649   3.243   5.457   0.590
 6917SOL    HW121650   3.181   5.492   0.520
 6917SOL    HW221651   3.330   5.432   0.547
 6918SOL     OW21652   1.176   3.459   4.685
 6918SOL    HW121653   1.246   3.520   4.722
 6918SOL    HW221654   1.216   3.400   4.615
 6919SOL     OW21655   0.426   5.771   3.294
 6919SOL    HW121656   0.345   5.802   3.344
 6919SOL    HW221657   0.495   5.843   3.296
 6920SOL     OW21658   4.322   6.122   5.965
 6920SOL    HW121659   4.414   6.119   6.004
 6920SOL    HW221660   4.272   6.200   6.003
 6921SOL     OW21661   4.780   5.538   3.274
 6921SOL    HW121662   4.724   5.455   3.268
 6921SOL    HW221663   4.765   5.594   3.193
 6922SOL     OW21664   1.405   5.902   6.709
 6922SOL    HW121665   1.416   5.829   6.641
 6922SOL    HW221666   1.494   5.945   6.724
 6923SOL     OW21667   5.441   6.504   3.483
 6923SOL    HW121668   5.439   6.566   3.562
 6923SOL    HW221669   5.531   6.463   3.475
 6924SOL     OW21670   0.619   3.986   6.823
 6924SOL    HW121671   0.710   3.948   6.805
 6924SOL    HW221672   0.590   4.043   6.746
 6925SOL     OW21673   3.626   6.499   4.169
 6925SOL    HW121674   3.723   6.473   4.171
 6925SOL    HW221675   3.588   6.492   4.260
 6926SOL     OW21676   2.988   3.244   2.853
 6926SOL    HW121677   2.991   3.145   2.862
 6926SOL    HW221678   2.979   3.286   2.943
 6927SOL     OW21679   5.376   4.316   5.742
 6927SOL    HW121680   5.456   4.268   5.706
 6927SOL    HW221681   5.406   4.393   5.799
 6928SOL     OW21682   6.462   6.316   0.593
 6928SOL    HW121683   6.481   6.264   0.675
 6928SOL    HW221684   6.370   6.295   0.560
 6929SOL     OW21685   4.948   5.670   1.284
 6929SOL    HW121686   4.900   5.664   1.371
 6929SOL    HW221687   4.908   5.743   1.229
 6930SOL     OW21688   7.017   6.853   1.599
 6930SOL    HW121689   0.096   6.848   1.585
 6930SOL    HW221690   6.971   6.799   1.529
 6931SOL     OW21691   1.463   0.734   2.562
 6931SOL    HW121692   1.464   0.701   2.656
 6931SOL    HW221693   1.408   0.672   2.506
 6932SOL     OW21694   3.814   0.559   0.683
 6932SOL    HW121695   3.840   0.627   0.614
 6932SOL    HW221696   3.835   0.467   0.649
 6933SOL     OW21697   4.022   6.160   4.449
 6933SOL    HW121698   4.077   6.216   4.387
 6933SOL    HW221699   4.023   6.202   4.540
 6934SOL     OW21700   4.814   4.334   5.746
 6934SOL    HW121701   4.795   4.236   5.740
 6934SOL    HW221702   4.905   4.352   5.708
 6935SOL     OW21703   4.449   6.076   3.655
 6935SOL    HW121704   4.423   5.993   3.606
 6935SOL    HW221705   4.465   6.150   3.590
 6936SOL     OW21706   6.812   2.975   2.405
 6936SOL    HW121707   6.894   3.031   2.415
 6936SOL    HW221708   6.831   2.881   2.431
 6937SOL     OW21709   6.427   6.225   0.285
 6937SOL    HW121710   6.461   6.243   0.378
 6937SOL    HW221711   6.484   6.157   0.241
 6938SOL     OW21712   4.880   3.791   5.231
 6938SOL    HW121713   4.925   3.752   5.311
 6938SOL    HW221714   4.828   3.719   5.184
 6939SOL     OW21715   6.959   4.367   1.138
 6939SOL    HW121716   6.985   4.404   1.227
 6939SOL    HW221717   6.970   4.438   1.068
 6940SOL     OW21718   5.050   1.357   0.518
 6940SOL    HW121719   5.073   1.419   0.444
 6940SOL    HW221720   4.970   1.392   0.568
 6941SOL     OW21721   3.704   3.275   3.042
 6941SOL    HW121722   3.731   3.186   3.005
 6941SOL    HW221723   3.785   3.334   3.049
 6942SOL     OW21724   6.778   2.451   0.481
 6942SOL    HW121725   6.809   2.542   0.510
 6942SOL    HW221726   6.680   2.454   0.463
 6943SOL     OW21727   4.625   6.478   0.012
 6943SOL    HW121728   4.694   6.550   0.002
 6943SOL    HW221729   4.648   6.401   6.972
 6944SOL     OW21730   1.566   4.555   5.927
 6944SOL    HW121731   1.616   4.588   5.847
 6944SOL    HW221732   1.608   4.591   6.010
 6945SOL     OW21733   6.077   2.918   6.172
 6945SOL    HW121734   5.980   2.924   6.151
 6945SOL    HW221735   6.092   2.940   6.268
 6946SOL     OW21736   6.398   6.399   2.274
 6946SOL    HW121737   6.447   6.468   2.220
 6946SOL    HW221738   6.443   6.387   2.362
 6947SOL     OW21739   2.994   6.751   5.394
 6947SOL    HW121740   3.041   6.823   5.444
 6947SOL    HW221741   3.000   6.665   5.445
 6948SOL     OW21742   6.781   0.730   6.917
 6948SOL    HW121743   6.855   0.750   6.854
 6948SOL    HW221744   6.764   0.631   6.920
 6949SOL     OW21745   5.302   0.058   3.883
 6949SOL    HW121746   5.300   7.008   3.954
 6949SOL    HW221747   5.396   0.089   3.869
 6950SOL     OW21748   2.019   0.272   3.767
 6950SOL    HW121749   2.050   0.239   3.678
 6950SOL    HW221750   2.085   0.338   3.803
 6951SOL     OW21751   6.168   6.391   6.161
 6951SOL    HW121752   6.220   6.385   6.076
 6951SOL    HW221753   6.102   6.316   6.165
 6952SOL     OW21754   6.953   5.568   3.720
 6952SOL    HW121755   6.954   5.469   3.704
 6952SOL    HW221756   6.901   5.613   3.648
 6953SOL     OW21757   4.779   0.383   6.726
 6953SOL    HW121758   4.812   0.312   6.664
 6953SOL    HW221759   4.680   0.395   6.713
 6954SOL     OW21760   0.770   3.775   4.363
 6954SOL    HW121761   0.734   3.849   4.306
 6954SOL    HW221762   0.714   3.694   4.353
 6955SOL     OW21763   6.902   0.487   3.087
 6955SOL    HW121764   6.938   0.517   2.998
 6955SOL    HW221765   6.865   0.565   3.136
 6956SOL     OW21766   4.786   6.321   2.210
 6956SOL    HW121767   4.701   6.349   2.164
 6956SOL    HW221768   4.788   6.221   2.217
 6957SOL     OW21769   5.549   4.924   1.812
 6957SOL    HW121770   5.519   4.870   1.891
 6957SOL    HW221771   5.503   4.890   1.729
 6958SOL     OW21772   3.081   4.084   5.243
 6958SOL    HW121773   3.093   4.015   5.171
 6958SOL    HW221774   3.065   4.037   5.330
 6959SOL     OW21775   2.702   1.172   4.759
 6959SOL    HW121776   2.690   1.266   4.728
 6959SOL    HW221777   2.739   1.171   4.851
 6960SOL     OW21778   1.230   5.448   1.398
 6960SOL    HW121779   1.166   5.511   1.353
 6960SOL    HW221780   1.319   5.493   1.408
 6961SOL     OW21781   6.519   2.758   4.170
 6961SOL    HW121782   6.506   2.674   4.221
 6961SOL    HW221783   6.609   2.797   4.192
 6962SOL     OW21784   5.121   5.411   2.342
 6962SOL    HW121785   5.057   5.487   2.347
 6962SOL    HW221786   5.184   5.426   2.266
 6963SOL     OW21787   0.061   5.281   0.963
 6963SOL    HW121788   6.994   5.247   0.927
 6963SOL    HW221789   0.053   5.295   1.061
 6964SOL     OW21790   4.485   5.446   4.402
 6964SOL    HW121791   4.427   5.508   4.454
 6964SOL    HW221792   4.463   5.454   4.305
 6965SOL     OW21793   0.817   3.767   6.201
 6965SOL    HW121794   0.740   3.804   6.149
 6965SOL    HW221795   0.884   3.840   6.219
 6966SOL     OW21796   6.618   2.234   3.021
 6966SOL    HW121797   6.634   2.284   2.936
 6966SOL    HW221798   6.520   2.221   3.034
 6967SOL     OW21799   1.571   0.195   5.851
 6967SOL    HW121800   1.529   0.155   5.933
 6967SOL    HW221801   1.619   0.279   5.877
 6968SOL     OW21802   3.653   6.803   2.240
 6968SOL    HW121803   3.639   6.710   2.205
 6968SOL    HW221804   3.583   6.824   2.309
 6969SOL     OW21805   3.191   2.073   1.416
 6969SOL    HW121806   3.234   2.098   1.502
 6969SOL    HW221807   3.262   2.066   1.345
 6970SOL     OW21808   4.323   3.749   0.224
 6970SOL    HW121809   4.299   3.787   0.313
 6970SOL    HW221810   4.338   3.823   0.159
 6971SOL     OW21811   6.694   4.305   1.630
 6971SOL    HW121812   6.712   4.391   1.582
 6971SOL    HW221813   6.732   4.229   1.577
 6972SOL     OW21814   5.323   5.065   4.052
 6972SOL    HW121815   5.253   5.130   4.082
 6972SOL    HW221816   5.361   5.096   3.964
 6973SOL     OW21817   1.146   3.749   5.233
 6973SOL    HW121818   1.193   3.837   5.222
 6973SOL    HW221819   1.175   3.687   5.161
 6974SOL     OW21820   3.792   2.985   3.072
 6974SOL    HW121821   3.878   3.008   3.028
 6974SOL    HW221822   3.728   2.949   3.003
 6975SOL     OW21823   2.359   6.130   5.657
 6975SOL    HW121824   2.310   6.060   5.710
 6975SOL    HW221825   2.311   6.218   5.666
 6976SOL     OW21826   4.635   5.680   5.669
 6976SOL    HW121827   4.609   5.590   5.635
 6976SOL    HW221828   4.568   5.748   5.639
 6977SOL     OW21829   4.305   2.477   1.863
 6977SOL    HW121830   4.228   2.417   1.887
 6977SOL    HW221831   4.275   2.544   1.795
 6978SOL     OW21832   6.256   2.257   1.618
 6978SOL    HW121833   6.248   2.211   1.530
 6978SOL    HW221834   6.311   2.340   1.609
 6979SOL     OW21835   1.439   5.204   0.539
 6979SOL    HW121836   1.527   5.172   0.505
 6979SOL    HW221837   1.367   5.178   0.474
 6980SOL     OW21838   1.678   0.755   3.601
 6980SOL    HW121839   1.737   0.688   3.647
 6980SOL    HW221840   1.735   0.823   3.554
 6981SOL     OW21841   2.635   2.854   6.257
 6981SOL    HW121842   2.641   2.945   6.298
 6981SOL    HW221843   2.694   2.851   6.176
 6982SOL     OW21844   1.255   1.003   3.795
 6982SOL    HW121845   1.157   0.999   3.773
 6982SOL    HW221846   1.283   0.916   3.835
 6983SOL     OW21847   5.195   1.877   3.227
 6983SOL    HW121848   5.113   1.909   3.178
 6983SOL    HW221849   5.257   1.832   3.163
 6984SOL     OW21850   2.721   2.083   4.225
 6984SOL    HW121851   2.632   2.098   4.182
 6984SOL    HW221852   2.775   2.020   4.169
 6985SOL     OW21853   4.002   5.659   1.246
 6985SOL    HW121854   3.916   5.622   1.279
 6985SOL    HW221855   3.985   5.747   1.201
 6986SOL     OW21856   1.815   6.292   6.567
 6986SOL    HW121857   1.884   6.233   6.527
 6986SOL    HW221858   1.797   6.369   6.507
 6987SOL     OW21859   6.944   2.167   5.816
 6987SOL    HW121860   6.920   2.258   5.784
 6987SOL    HW221861   6.980   2.113   5.740
 6988SOL     OW21862   6.710   1.124   5.950
 6988SOL    HW121863   6.625   1.156   5.992
 6988SOL    HW221864   6.738   1.037   5.992
 6989SOL     OW21865   0.376   3.349   3.344
 6989SOL    HW121866   0.371   3.415   3.269
 6989SOL    HW221867   0.464   3.301   3.341
 6990SOL     OW21868   5.283   2.272   1.248
 6990SOL    HW121869   5.282   2.364   1.209
 6990SOL    HW221870   5.350   2.217   1.199
 6991SOL     OW21871   3.038   4.841   4.056
 6991SOL    HW121872   3.117   4.875   4.108
 6991SOL    HW221873   3.056   4.849   3.958
 6992SOL     OW21874   5.224   6.666   5.025
 6992SOL    HW121875   5.164   6.696   5.099
 6992SOL    HW221876   5.177   6.679   4.937
 6993SOL     OW21877   6.887   0.843   2.847
 6993SOL    HW121878   6.812   0.796   2.893
 6993SOL    HW221879   6.974   0.819   2.891
 6994SOL     OW21880   0.953   3.379   4.894
 6994SOL    HW121881   0.931   3.431   4.976
 6994SOL    HW221882   0.986   3.441   4.823
 6995SOL     OW21883   6.456   5.307   6.219
 6995SOL    HW121884   6.529   5.259   6.268
 6995SOL    HW221885   6.492   5.342   6.133
 6996SOL     OW21886   2.615   0.220   6.360
 6996SOL    HW121887   2.559   0.171   6.427
 6996SOL    HW221888   2.680   0.278   6.407
 6997SOL     OW21889   6.097   6.424   5.348
 6997SOL    HW121890   6.110   6.513   5.391
 6997SOL    HW221891   6.038   6.434   5.268
 6998SOL     OW21892   2.282   2.606   1.327
 6998SOL    HW121893   2.381   2.614   1.324
 6998SOL    HW221894   2.243   2.688   1.370
 6999SOL     OW21895   2.272   2.720   6.302
 6999SOL    HW121896   2.191   2.721   6.243
 6999SOL    HW221897   2.353   2.698   6.247
 7000SOL     OW21898   6.228   5.792   1.720
 7000SOL    HW121899   6.206   5.759   1.628
 7000SOL    HW221900   6.176   5.741   1.788
 7001SOL     OW21901   2.587   3.174   5.439
 7001SOL    HW121902   2.567   3.125   5.354
 7001SOL    HW221903   2.606   3.107   5.511
 7002SOL     OW21904   1.822   5.013   2.794
 7002SOL    HW121905   1.814   5.027   2.893
 7002SOL    HW221906   1.831   5.102   2.749
 7003SOL     OW21907   4.028   5.209   6.944
 7003SOL    HW121908   4.028   5.305   6.972
 7003SOL    HW221909   4.064   5.153   7.019
 7004SOL     OW21910   1.763   4.624   1.576
 7004SOL    HW121911   1.787   4.683   1.499
 7004SOL    HW221912   1.714   4.677   1.645
 7005SOL     OW21913   1.552   6.558   6.800
 7005SOL    HW121914   1.644   6.520   6.807
 7005SOL    HW221915   1.502   6.541   6.885
 7006SOL     OW21916   5.002   4.400   4.571
 7006SOL    HW121917   4.923   4.456   4.595
 7006SOL    HW221918   5.007   4.321   4.632
 7007SOL     OW21919   4.935   6.702   3.629
 7007SOL    HW121920   5.003   6.683   3.558
 7007SOL    HW221921   4.967   6.778   3.686
 7008SOL     OW21922   1.747   4.932   5.110
 7008SOL    HW121923   1.800   4.871   5.168
 7008SOL    HW221924   1.649   4.914   5.124
 7009SOL     OW21925   6.070   5.688   2.709
 7009SOL    HW121926   5.978   5.673   2.747
 7009SOL    HW221927   6.106   5.775   2.744
 7010SOL     OW21928   4.239   4.247   5.980
 7010SOL    HW121929   4.155   4.289   6.016
 7010SOL    HW221930   4.276   4.183   6.047
 7011SOL     OW21931   2.566   0.525   6.253
 7011SOL    HW121932   2.618   0.483   6.328
 7011SOL    HW221933   2.545   0.456   6.184
 7012SOL     OW21934   1.735   1.254   2.560
 7012SOL    HW121935   1.641   1.222   2.573
 7012SOL    HW221936   1.746   1.287   2.466
 7013SOL     OW21937   0.605   0.110   0.396
 7013SOL    HW121938   0.659   0.149   0.322
 7013SOL    HW221939   0.524   0.167   0.412
 7014SOL     OW21940   5.034   3.000   1.441
 7014SOL    HW121941   5.044   2.935   1.517
 7014SOL    HW221942   4.967   2.964   1.376
 7015SOL     OW21943   6.068   4.727   2.474
 7015SOL    HW121944   6.038   4.780   2.554
 7015SOL    HW221945   6.161   4.754   2.450
 7016SOL     OW21946   3.647   4.803   1.617
 7016SOL    HW121947   3.617   4.749   1.538
 7016SOL    HW221948   3.616   4.760   1.701
 7017SOL     OW21949   2.183   6.644   2.425
 7017SOL    HW121950   2.281   6.663   2.426
 7017SOL    HW221951   2.156   6.607   2.514
 7018SOL     OW21952   5.900   4.191   4.781
 7018SOL    HW121953   5.882   4.151   4.691
 7018SOL    HW221954   5.983   4.151   4.819
 7019SOL     OW21955   2.464   3.354   6.470
 7019SOL    HW121956   2.484   3.355   6.372
 7019SOL    HW221957   2.368   3.332   6.484
 7020SOL     OW21958   6.301   7.018   6.599
 7020SOL    HW121959   6.391   0.023   6.634
 7020SOL    HW221960   6.238   7.004   6.675
 7021SOL     OW21961   2.078   1.251   5.881
 7021SOL    HW121962   2.162   1.239   5.828
 7021SOL    HW221963   2.005   1.196   5.841
 7022SOL     OW21964   4.508   5.822   0.684
 7022SOL    HW121965   4.430   5.768   0.651
 7022SOL    HW221966   4.551   5.775   0.761
 7023SOL     OW21967   0.542   1.870   3.727
 7023SOL    HW121968   0.618   1.828   3.777
 7023SOL    HW221969   0.541   1.835   3.633
 7024SOL     OW21970   1.315   4.693   5.504
 7024SOL    HW121971   1.312   4.720   5.600
 7024SOL    HW221972   1.345   4.770   5.448
 7025SOL     OW21973   2.572   1.311   6.917
 7025SOL    HW121974   2.566   1.366   7.000
 7025SOL    HW221975   2.624   1.360   6.847
 7026SOL     OW21976   2.995   1.720   2.197
 7026SOL    HW121977   3.012   1.672   2.111
 7026SOL    HW221978   2.899   1.748   2.202
 7027SOL     OW21979   2.797   4.691   3.721
 7027SOL    HW121980   2.782   4.704   3.623
 7027SOL    HW221981   2.720   4.641   3.760
 7028SOL     OW21982   5.444   6.645   4.282
 7028SOL    HW121983   5.386   6.672   4.204
 7028SOL    HW221984   5.430   6.548   4.301
 7029SOL     OW21985   4.289   5.891   6.217
 7029SOL    HW121986   4.257   5.828   6.147
 7029SOL    HW221987   4.336   5.968   6.175
 7030SOL     OW21988   6.860   2.399   5.159
 7030SOL    HW121989   6.833   2.431   5.069
 7030SOL    HW221990   6.954   2.429   5.178
 7031SOL     OW21991   2.328   6.340   4.828
 7031SOL    HW121992   2.292   6.306   4.915
 7031SOL    HW221993   2.295   6.434   4.813
 7032SOL     OW21994   3.392   0.010   3.546
 7032SOL    HW121995   3.406   6.935   3.576
 7032SOL    HW221996   3.295   0.033   3.553
 7033SOL     OW21997   0.804   1.878   3.841
 7033SOL    HW121998   0.868   1.803   3.860
 7033SOL    HW221999   0.841   1.935   3.767
 7034SOL     OW22000   6.059   0.114   3.135
 7034SOL    HW122001   6.150   0.095   3.099
 7034SOL    HW222002   6.018   0.190   3.085
 7035SOL     OW22003   1.275   6.366   1.634
 7035SOL    HW122004   1.279   6.439   1.702
 7035SOL    HW222005   1.202   6.301   1.658
 7036SOL     OW22006   6.945   0.879   2.095
 7036SOL    HW122007   0.020   0.852   2.080
 7036SOL    HW222008   6.942   0.949   2.166
 7037SOL     OW22009   1.596   0.357   6.414
 7037SOL    HW122010   1.659   0.345   6.490
 7037SOL    HW222011   1.544   0.441   6.427
 7038SOL     OW22012   1.620   3.071   4.265
 7038SOL    HW122013   1.641   2.995   4.326
 7038SOL    HW222014   1.530   3.108   4.289
 7039SOL     OW22015   2.678   5.287   1.524
 7039SOL    HW122016   2.755   5.261   1.582
 7039SOL    HW222017   2.632   5.204   1.492
 7040SOL     OW22018   5.759   1.841   4.559
 7040SOL    HW122019   5.789   1.878   4.471
 7040SOL    HW222020   5.659   1.845   4.564
 7041SOL     OW22021   0.883   2.219   1.783
 7041SOL    HW122022   0.903   2.152   1.712
 7041SOL    HW222023   0.803   2.190   1.835
 7042SOL     OW22024   5.421   5.571   6.680
 7042SOL    HW122025   5.389   5.579   6.586
 7042SOL    HW222026   5.521   5.564   6.681
 7043SOL     OW22027   2.350   2.778   3.143
 7043SOL    HW122028   2.404   2.726   3.077
 7043SOL    HW222029   2.340   2.725   3.227
 7044SOL     OW22030   4.831   5.130   2.613
 7044SOL    HW122031   4.756   5.178   2.568
 7044SOL    HW222032   4.915   5.142   2.560
 7045SOL     OW22033   4.674   5.529   2.533
 7045SOL    HW122034   4.613   5.608   2.530
 7045SOL    HW222035   4.732   5.535   2.615
 7046SOL     OW22036   3.664   1.661   3.207
 7046SOL    HW122037   3.671   1.761   3.210
 7046SOL    HW222038   3.752   1.623   3.179
 7047SOL     OW22039   0.671   2.685   2.391
 7047SOL    HW122040   0.698   2.624   2.465
 7047SOL    HW222041   0.733   2.673   2.313
 7048SOL     OW22042   0.213   5.665   2.229
 7048SOL    HW122043   0.192   5.696   2.136
 7048SOL    HW222044   0.177   5.731   2.295
 7049SOL     OW22045   2.608   1.505   1.139
 7049SOL    HW122046   2.682   1.465   1.192
 7049SOL    HW222047   2.638   1.591   1.098
 7050SOL     OW22048   3.816   3.708   2.217
 7050SOL    HW122049   3.908   3.740   2.238
 7050SOL    HW222050   3.818   3.657   2.131
 7051SOL     OW22051   0.285   0.410   1.182
 7051SOL    HW122052   0.224   0.338   1.149
 7051SOL    HW222053   0.254   0.441   1.271
 7052SOL     OW22054   6.209   2.729   3.498
 7052SOL    HW122055   6.211   2.738   3.398
 7052SOL    HW222056   6.295   2.687   3.529
 7053SOL     OW22057   0.846   3.786   4.623
 7053SOL    HW122058   0.859   3.879   4.656
 7053SOL    HW222059   0.805   3.788   4.532
 7054SOL     OW22060   0.453   6.596   0.698
 7054SOL    HW122061   0.397   6.590   0.780
 7054SOL    HW222062   0.542   6.637   0.721
 7055SOL     OW22063   4.059   6.022   5.226
 7055SOL    HW122064   4.110   6.072   5.156
 7055SOL    HW222065   4.122   5.976   5.288
 7056SOL     OW22066   5.272   5.785   2.515
 7056SOL    HW122067   5.322   5.699   2.523
 7056SOL    HW222068   5.337   5.861   2.508
 7057SOL     OW22069   1.207   6.023   3.480
 7057SOL    HW122070   1.174   6.016   3.386
 7057SOL    HW222071   1.130   6.035   3.542
 7058SOL     OW22072   6.652   5.954   6.306
 7058SOL    HW122073   6.579   6.018   6.329
 7058SOL    HW222074   6.613   5.865   6.285
 7059SOL     OW22075   6.803   0.834   3.414
 7059SOL    HW122076   6.776   0.787   3.329
 7059SOL    HW222077   6.739   0.810   3.487
 7060SOL     OW22078   4.303   0.405   1.893
 7060SOL    HW122079   4.267   0.342   1.824
 7060SOL    HW222080   4.376   0.460   1.852
 7061SOL     OW22081   0.176   3.149   4.219
 7061SOL    HW122082   0.268   3.133   4.255
 7061SOL    HW222083   0.165   3.100   4.133
 7062SOL     OW22084   5.120   1.578   5.133
 7062SOL    HW122085   5.076   1.500   5.177
 7062SOL    HW222086   5.219   1.562   5.128
 7063SOL     OW22087   0.760   0.504   1.401
 7063SOL    HW122088   0.672   0.476   1.362
 7063SOL    HW222089   0.771   0.603   1.388
 7064SOL     OW22090   4.098   1.917   2.386
 7064SOL    HW122091   4.180   1.891   2.438
 7064SOL    HW222092   4.089   1.858   2.306
 7065SOL     OW22093   3.938   3.166   6.354
 7065SOL    HW122094   3.933   3.230   6.430
 7065SOL    HW222095   3.940   3.217   6.268
 7066SOL     OW22096   4.317   0.307   0.395
 7066SOL    HW122097   4.416   0.304   0.403
 7066SOL    HW222098   4.285   0.400   0.413
 7067SOL     OW22099   1.567   1.444   5.602
 7067SOL    HW122100   1.561   1.489   5.691
 7067SOL    HW222101   1.535   1.506   5.530
 7068SOL     OW22102   0.614   4.507   4.497
 7068SOL    HW122103   0.686   4.530   4.563
 7068SOL    HW222104   0.541   4.456   4.543
 7069SOL     OW22105   6.237   2.078   3.644
 7069SOL    HW122106   6.251   2.149   3.575
 7069SOL    HW222107   6.279   1.992   3.612
 7070SOL     OW22108   6.578   6.089   4.323
 7070SOL    HW122109   6.523   6.040   4.256
 7070SOL    HW222110   6.564   6.187   4.314
 7071SOL     OW22111   1.574   6.200   6.023
 7071SOL    HW122112   1.514   6.163   6.094
 7071SOL    HW222113   1.537   6.178   5.933
 7072SOL     OW22114   0.563   6.345   6.319
 7072SOL    HW122115   0.520   6.337   6.229
 7072SOL    HW222116   0.583   6.441   6.338
 7073SOL     OW22117   5.315   6.789   4.720
 7073SOL    HW122118   5.236   6.819   4.773
 7073SOL    HW222119   5.396   6.837   4.752
 7074SOL     OW22120   4.462   2.168   1.599
 7074SOL    HW122121   4.486   2.071   1.598
 7074SOL    HW222122   4.406   2.189   1.519
 7075SOL     OW22123   1.616   5.322   5.406
 7075SOL    HW122124   1.551   5.392   5.376
 7075SOL    HW222125   1.668   5.289   5.327
 7076SOL     OW22126   5.645   2.504   6.277
 7076SOL    HW122127   5.707   2.582   6.264
 7076SOL    HW222128   5.565   2.515   6.219
 7077SOL     OW22129   2.303   4.300   4.391
 7077SOL    HW122130   2.269   4.223   4.337
 7077SOL    HW222131   2.271   4.386   4.351
 7078SOL     OW22132   6.737   0.654   1.351
 7078SOL    HW122133   6.723   0.602   1.436
 7078SOL    HW222134   6.833   0.683   1.345
 7079SOL     OW22135   6.579   6.422   5.128
 7079SOL    HW122136   6.581   6.324   5.145
 7079SOL    HW222137   6.535   6.469   5.205
 7080SOL     OW22138   3.123   2.130   4.217
 7080SOL    HW122139   3.202   2.069   4.213
 7080SOL    HW222140   3.087   2.131   4.310
 7081SOL     OW22141   2.677   1.661   6.791
 7081SOL    HW122142   2.723   1.746   6.767
 7081SOL    HW222143   2.728   1.614   6.862
 7082SOL     OW22144   6.355   4.298   6.743
 7082SOL    HW122145   6.328   4.390   6.712
 7082SOL    HW222146   6.277   4.236   6.733
 7083SOL     OW22147   2.848   0.621   0.214
 7083SOL    HW122148   2.784   0.546   0.195
 7083SOL    HW222149   2.933   0.606   0.163
 7084SOL     OW22150   0.466   6.397   5.411
 7084SOL    HW122151   0.561   6.388   5.381
 7084SOL    HW222152   0.421   6.468   5.358
 7085SOL     OW22153   1.659   2.227   1.687
 7085SOL    HW122154   1.708   2.206   1.771
 7085SOL    HW222155   1.670   2.324   1.665
 7086SOL     OW22156   5.301   1.164   5.125
 7086SOL    HW122157   5.322   1.195   5.032
 7086SOL    HW222158   5.231   1.223   5.165
 7087SOL     OW22159   6.152   4.611   3.678
 7087SOL    HW122160   6.153   4.512   3.690
 7087SOL    HW222161   6.122   4.633   3.585
 7088SOL     OW22162   5.754   2.843   3.626
 7088SOL    HW122163   5.825   2.774   3.635
 7088SOL    HW222164   5.686   2.831   3.698
 7089SOL     OW22165   3.331   2.094   4.846
 7089SOL    HW122166   3.293   2.161   4.909
 7089SOL    HW222167   3.279   2.094   4.761
 7090SOL     OW22168   2.200   0.801   6.819
 7090SOL    HW122169   2.121   0.816   6.761
 7090SOL    HW222170   2.177   0.823   6.914
 7091SOL     OW22171   0.421   1.708   6.563
 7091SOL    HW122172   0.338   1.761   6.580
 7091SOL    HW222173   0.453   1.724   6.470
 7092SOL     OW22174   4.511   2.767   6.307
 7092SOL    HW122175   4.478   2.793   6.216
 7092SOL    HW222176   4.481   2.836   6.374
 7093SOL     OW22177   2.940   3.660   3.541
 7093SOL    HW122178   2.974   3.722   3.470
 7093SOL    HW222179   2.990   3.675   3.626
 7094SOL     OW22180   0.939   5.851   5.637
 7094SOL    HW122181   0.908   5.895   5.722
 7094SOL    HW222182   0.878   5.774   5.616
 7095SOL     OW22183   2.916   3.899   5.879
 7095SOL    HW122184   2.890   3.830   5.811
 7095SOL    HW222185   2.983   3.961   5.838
 7096SOL     OW22186   6.319   0.879   3.573
 7096SOL    HW122187   6.319   0.949   3.502
 7096SOL    HW222188   6.316   0.789   3.530
 7097SOL     OW22189   6.022   1.685   1.119
 7097SOL    HW122190   5.937   1.661   1.073
 7097SOL    HW222191   6.001   1.731   1.206
 7098SOL     OW22192   0.647   0.712   4.721
 7098SOL    HW122193   0.668   0.801   4.760
 7098SOL    HW222194   0.720   0.685   4.658
 7099SOL     OW22195   2.585   0.921   4.957
 7099SOL    HW122196   2.657   0.987   4.978
 7099SOL    HW222197   2.539   0.948   4.872
 7100SOL     OW22198   5.681   2.886   0.989
 7100SOL    HW122199   5.759   2.832   1.020
 7100SOL    HW222200   5.631   2.836   0.920
 7101SOL     OW22201   2.261   0.948   4.869
 7101SOL    HW122202   2.300   0.923   4.958
 7101SOL    HW222203   2.326   1.006   4.820
 7102SOL     OW22204   4.447   0.505   0.974
 7102SOL    HW122205   4.447   0.594   1.019
 7102SOL    HW222206   4.412   0.514   0.881
 7103SOL     OW22207   4.475   5.064   1.630
 7103SOL    HW122208   4.447   5.160   1.635
 7103SOL    HW222209   4.539   5.044   1.704
 7104SOL     OW22210   0.808   3.083   4.507
 7104SOL    HW122211   0.803   3.161   4.569
 7104SOL    HW222212   0.769   3.002   4.551
 7105SOL     OW22213   2.937   2.630   5.345
 7105SOL    HW122214   2.847   2.629   5.301
 7105SOL    HW222215   2.976   2.538   5.345
 7106SOL     OW22216   2.940   3.268   3.470
 7106SOL    HW122217   2.949   3.267   3.569
 7106SOL    HW222218   2.920   3.361   3.439
 7107SOL     OW22219   2.582   2.016   0.476
 7107SOL    HW122220   2.516   1.967   0.419
 7107SOL    HW222221   2.539   2.098   0.514
 7108SOL     OW22222   3.860   6.338   2.875
 7108SOL    HW122223   3.950   6.367   2.907
 7108SOL    HW222224   3.869   6.288   2.789
 7109SOL     OW22225   3.078   0.449   6.470
 7109SOL    HW122226   3.101   0.495   6.555
 7109SOL    HW222227   3.147   0.380   6.450
 7110SOL     OW22228   3.419   5.863   4.519
 7110SOL    HW122229   3.359   5.908   4.452
 7110SOL    HW222230   3.514   5.883   4.497
 7111SOL     OW22231   2.032   1.670   4.249
 7111SOL    HW122232   1.939   1.701   4.270
 7111SOL    HW222233   2.028   1.581   4.205
 7112SOL     OW22234   1.300   5.810   4.178
 7112SOL    HW122235   1.303   5.824   4.079
 7112SOL    HW222236   1.351   5.727   4.201
 7113SOL     OW22237   3.568   4.173   5.058
 7113SOL    HW122238   3.616   4.228   5.125
 7113SOL    HW222239   3.616   4.179   4.970
 7114SOL     OW22240   4.056   6.479   1.526
 7114SOL    HW122241   4.091   6.387   1.511
 7114SOL    HW222242   4.004   6.509   1.446
 7115SOL     OW22243   5.527   3.520   2.277
 7115SOL    HW122244   5.448   3.571   2.312
 7115SOL    HW222245   5.496   3.456   2.207
 7116SOL     OW22246   5.718   3.976   3.215
 7116SOL    HW122247   5.687   4.071   3.228
 7116SOL    HW222248   5.771   3.947   3.294
 7117SOL     OW22249   6.825   6.298   5.005
 7117SOL    HW122250   6.766   6.368   5.046
 7117SOL    HW222251   6.884   6.340   4.936
 7118SOL     OW22252   2.829   3.665   1.368
 7118SOL    HW122253   2.745   3.691   1.414
 7118SOL    HW222254   2.819   3.682   1.269
 7119SOL     OW22255   4.896   1.454   2.812
 7119SOL    HW122256   4.887   1.382   2.743
 7119SOL    HW222257   4.867   1.541   2.773
 7120SOL     OW22258   3.943   2.193   2.869
 7120SOL    HW122259   4.000   2.229   2.795
 7120SOL    HW222260   3.861   2.151   2.830
 7121SOL     OW22261   1.678   6.626   2.812
 7121SOL    HW122262   1.757   6.570   2.788
 7121SOL    HW222263   1.647   6.677   2.731
 7122SOL     OW22264   1.176   0.222   5.997
 7122SOL    HW122265   1.150   0.235   5.901
 7122SOL    HW222266   1.175   0.310   6.045
 7123SOL     OW22267   2.525   4.881   2.867
 7123SOL    HW122268   2.561   4.959   2.816
 7123SOL    HW222269   2.430   4.899   2.892
 7124SOL     OW22270   0.092   2.338   0.446
 7124SOL    HW122271   0.039   2.264   0.405
 7124SOL    HW222272   0.099   2.414   0.381
 7125SOL     OW22273   6.243   6.683   0.801
 7125SOL    HW122274   6.225   6.718   0.893
 7125SOL    HW222275   6.210   6.749   0.734
 7126SOL     OW22276   3.476   4.502   6.907
 7126SOL    HW122277   3.482   4.402   6.902
 7126SOL    HW222278   3.391   4.527   6.954
 7127SOL     OW22279   1.780   5.616   4.779
 7127SOL    HW122280   1.781   5.529   4.730
 7127SOL    HW222281   1.685   5.642   4.798
 7128SOL     OW22282   3.158   4.814   0.084
 7128SOL    HW122283   3.241   4.829   0.139
 7128SOL    HW222284   3.079   4.805   0.144
 7129SOL     OW22285   2.258   1.559   0.081
 7129SOL    HW122286   2.296   1.623   0.014
 7129SOL    HW222287   2.171   1.523   0.047
 7130SOL     OW22288   4.104   5.629   5.396
 7130SOL    HW122289   4.058   5.680   5.323
 7130SOL    HW222290   4.080   5.669   5.484
 7131SOL     OW22291   2.331   1.172   0.790
 7131SOL    HW122292   2.364   1.128   0.706
 7131SOL    HW222293   2.403   1.228   0.829
 7132SOL     OW22294   3.856   3.621   6.856
 7132SOL    HW122295   3.905   3.707   6.874
 7132SOL    HW222296   3.878   3.555   6.927
 7133SOL     OW22297   5.274   5.534   5.123
 7133SOL    HW122298   5.357   5.488   5.090
 7133SOL    HW222299   5.265   5.518   5.222
 7134SOL     OW22300   5.754   6.900   1.947
 7134SOL    HW122301   5.793   6.819   1.904
 7134SOL    HW222302   5.654   6.892   1.952
 7135SOL     OW22303   0.917   3.257   2.911
 7135SOL    HW122304   0.886   3.336   2.857
 7135SOL    HW222305   1.013   3.237   2.890
 7136SOL     OW22306   2.004   2.794   1.135
 7136SOL    HW122307   2.026   2.891   1.122
 7136SOL    HW222308   1.930   2.785   1.201
 7137SOL     OW22309   3.934   0.216   6.537
 7137SOL    HW122310   3.923   0.185   6.443
 7137SOL    HW222311   3.891   0.150   6.599
 7138SOL     OW22312   1.814   3.306   6.827
 7138SOL    HW122313   1.803   3.390   6.880
 7138SOL    HW222314   1.760   3.233   6.870
 7139SOL     OW22315   5.508   3.922   2.229
 7139SOL    HW122316   5.483   4.009   2.185
 7139SOL    HW222317   5.436   3.895   2.292
 7140SOL     OW22318   5.534   4.673   4.426
 7140SOL    HW122319   5.602   4.663   4.498
 7140SOL    HW222320   5.443   4.656   4.462
 7141SOL     OW22321   3.489   6.187   1.451
 7141SOL    HW122322   3.502   6.280   1.486
 7141SOL    HW222323   3.561   6.165   1.385
 7142SOL     OW22324   4.217   0.042   3.676
 7142SOL    HW122325   4.287   0.098   3.720
 7142SOL    HW222326   4.130   0.053   3.725
 7143SOL     OW22327   1.281   2.749   6.064
 7143SOL    HW122328   1.214   2.816   6.032
 7143SOL    HW222329   1.370   2.768   6.023
 7144SOL     OW22330   1.831   2.057   2.736
 7144SOL    HW122331   1.859   2.017   2.649
 7144SOL    HW222332   1.864   2.001   2.812
 7145SOL     OW22333   4.189   7.014   0.282
 7145SOL    HW122334   4.211   6.925   0.321
 7145SOL    HW222335   4.167   0.058   0.355
 7146SOL     OW22336   2.361   0.314   0.539
 7146SOL    HW122337   2.284   0.281   0.485
 7146SOL    HW222338   2.393   0.401   0.501
 7147SOL     OW22339   0.046   6.404   3.052
 7147SOL    HW122340   0.087   6.345   2.982
 7147SOL    HW222341   0.080   6.498   3.040
 7148SOL     OW22342   0.845   6.507   6.945
 7148SOL    HW122343   0.763   6.480   6.895
 7148SOL    HW222344   0.828   6.593   6.993
 7149SOL     OW22345   5.945   6.881   2.799
 7149SOL    HW122346   5.953   6.804   2.736
 7149SOL    HW222347   5.906   6.849   2.886
 7150SOL     OW22348   3.348   1.510   2.387
 7150SOL    HW122349   3.291   1.429   2.399
 7150SOL    HW222350   3.401   1.500   2.302
 7151SOL     OW22351   1.934   6.181   0.399
 7151SOL    HW122352   1.941   6.280   0.410
 7151SOL    HW222353   2.021   6.138   0.422
 7152SOL     OW22354   1.355   1.319   4.893
 7152SOL    HW122355   1.265   1.341   4.856
 7152SOL    HW222356   1.401   1.403   4.921
 7153SOL     OW22357   3.474   5.598   1.810
 7153SOL    HW122358   3.376   5.594   1.789
 7153SOL    HW222359   3.486   5.602   1.910
 7154SOL     OW22360   3.296   0.154   3.820
 7154SOL    HW122361   3.286   0.120   3.726
 7154SOL    HW222362   3.269   0.250   3.824
 7155SOL     OW22363   2.031   3.625   1.921
 7155SOL    HW122364   2.015   3.606   1.824
 7155SOL    HW222365   2.102   3.564   1.955
 7156SOL     OW22366   0.320   4.049   4.736
 7156SOL    HW122367   0.417   4.025   4.743
 7156SOL    HW222368   0.269   3.970   4.701
 7157SOL     OW22369   5.971   3.948   2.026
 7157SOL    HW122370   5.975   4.010   2.105
 7157SOL    HW222371   6.017   3.862   2.049
 7158SOL     OW22372   1.277   6.886   2.750
 7158SOL    HW122373   1.339   6.837   2.688
 7158SOL    HW222374   1.247   6.970   2.706
 7159SOL     OW22375   0.539   4.427   2.338
 7159SOL    HW122376   0.597   4.365   2.390
 7159SOL    HW222377   0.574   4.434   2.244
 7160SOL     OW22378   5.297   0.535   3.048
 7160SOL    HW122379   5.333   0.443   3.064
 7160SOL    HW222380   5.353   0.581   2.978
 7161SOL     OW22381   2.864   3.395   4.920
 7161SOL    HW122382   2.897   3.323   4.859
 7161SOL    HW222383   2.811   3.353   4.994
 7162SOL     OW22384   1.865   5.692   5.893
 7162SOL    HW122385   1.849   5.780   5.849
 7162SOL    HW222386   1.904   5.628   5.827
 7163SOL     OW22387   2.736   6.597   3.089
 7163SOL    HW122388   2.661   6.537   3.119
 7163SOL    HW222389   2.816   6.542   3.066
 7164SOL     OW22390   1.929   0.573   4.203
 7164SOL    HW122391   2.027   0.564   4.188
 7164SOL    HW222392   1.912   0.645   4.271
 7165SOL     OW22393   0.072   1.529   1.787
 7165SOL    HW122394   0.090   1.432   1.767
 7165SOL    HW222395   6.996   1.539   1.815
 7166SOL     OW22396   5.776   3.219   0.548
 7166SOL    HW122397   5.716   3.139   0.541
 7166SOL    HW222398   5.868   3.193   0.517
 7167SOL     OW22399   5.151   3.340   4.043
 7167SOL    HW122400   5.234   3.327   3.989
 7167SOL    HW222401   5.074   3.297   3.996
 7168SOL     OW22402   1.965   1.916   3.615
 7168SOL    HW122403   2.011   1.833   3.645
 7168SOL    HW222404   1.882   1.930   3.668
 7169SOL     OW22405   6.399   3.137   5.088
 7169SOL    HW122406   6.449   3.169   5.168
 7169SOL    HW222407   6.324   3.077   5.117
 7170SOL     OW22408   5.067   5.744   3.161
 7170SOL    HW122409   5.125   5.819   3.193
 7170SOL    HW222410   5.043   5.685   3.239
 7171SOL     OW22411   5.035   4.215   0.077
 7171SOL    HW122412   5.130   4.231   0.106
 7171SOL    HW222413   5.035   4.182   7.002
 7172SOL     OW22414   1.399   0.892   5.508
 7172SOL    HW122415   1.499   0.893   5.512
 7172SOL    HW222416   1.370   0.890   5.412
 7173SOL     OW22417   0.269   4.349   5.868
 7173SOL    HW122418   0.305   4.288   5.797
 7173SOL    HW222419   0.172   4.330   5.884
 7174SOL     OW22420   0.379   4.405   0.790
 7174SOL    HW122421   0.472   4.409   0.753
 7174SOL    HW222422   0.343   4.498   0.798
 7175SOL     OW22423   4.887   2.559   6.613
 7175SOL    HW122424   4.879   2.579   6.710
 7175SOL    HW222425   4.886   2.461   6.598
 7176SOL     OW22426   1.141   6.253   2.677
 7176SOL    HW122427   1.169   6.161   2.704
 7176SOL    HW222428   1.056   6.277   2.724
 7177SOL     OW22429   1.896   5.808   4.381
 7177SOL    HW122430   1.917   5.711   4.389
 7177SOL    HW222431   1.934   5.843   4.296
 7178SOL     OW22432   1.828   2.560   5.548
 7178SOL    HW122433   1.875   2.585   5.463
 7178SOL    HW222434   1.895   2.538   5.618
 7179SOL     OW22435   1.949   3.433   4.303
 7179SOL    HW122436   1.916   3.342   4.278
 7179SOL    HW222437   1.871   3.495   4.310
 7180SOL     OW22438   2.348   5.154   7.012
 7180SOL    HW122439   2.376   5.170   0.087
 7180SOL    HW222440   2.251   5.133   7.009
 7181SOL     OW22441   2.387   6.179   0.337
 7181SOL    HW122442   2.333   6.236   0.275
 7181SOL    HW222443   2.328   6.110   0.379
 7182SOL     OW22444   1.452   2.803   5.080
 7182SOL    HW122445   1.442   2.896   5.045
 7182SOL    HW222446   1.541   2.794   5.126
 7183SOL     OW22447   2.497   5.880   0.292
 7183SOL    HW122448   2.407   5.847   0.321
 7183SOL    HW222449   2.540   5.931   0.366
 7184SOL     OW22450   0.174   1.236   3.063
 7184SOL    HW122451   0.137   1.186   3.141
 7184SOL    HW222452   0.143   1.192   2.978
 7185SOL     OW22453   5.520   0.246   5.447
 7185SOL    HW122454   5.534   0.332   5.398
 7185SOL    HW222455   5.510   0.172   5.380
 7186SOL     OW22456   6.321   0.374   0.198
 7186SOL    HW122457   6.309   0.329   0.286
 7186SOL    HW222458   6.394   0.442   0.205
 7187SOL     OW22459   3.511   3.779   6.685
 7187SOL    HW122460   3.428   3.824   6.718
 7187SOL    HW222461   3.591   3.831   6.716
 7188SOL     OW22462   6.419   0.301   0.820
 7188SOL    HW122463   6.344   0.267   0.762
 7188SOL    HW222464   6.384   0.369   0.884
 7189SOL     OW22465   0.489   0.996   6.076
 7189SOL    HW122466   0.462   1.083   6.033
 7189SOL    HW222467   0.434   0.922   6.038
 7190SOL     OW22468   0.017   3.809   3.325
 7190SOL    HW122469   0.090   3.851   3.271
 7190SOL    HW222470   0.015   3.711   3.307
 7191SOL     OW22471   0.099   4.201   2.840
 7191SOL    HW122472   0.143   4.252   2.914
 7191SOL    HW222473   0.168   4.160   2.781
 7192SOL     OW22474   3.467   4.559   5.543
 7192SOL    HW122475   3.548   4.571   5.486
 7192SOL    HW222476   3.494   4.557   5.639
 7193SOL     OW22477   1.676   2.764   2.350
 7193SOL    HW122478   1.726   2.678   2.340
 7193SOL    HW222479   1.629   2.786   2.265
 7194SOL     OW22480   2.872   2.182   0.779
 7194SOL    HW122481   2.796   2.237   0.813
 7194SOL    HW222482   2.913   2.227   0.700
 7195SOL     OW22483   6.896   4.351   6.826
 7195SOL    HW122484   6.903   4.256   6.855
 7195SOL    HW222485   6.960   4.368   6.751
 7196SOL     OW22486   3.183   4.246   1.086
 7196SOL    HW122487   3.201   4.284   0.995
 7196SOL    HW222488   3.150   4.152   1.078
 7197SOL     OW22489   6.680   2.652   5.776
 7197SOL    HW122490   6.758   2.599   5.741
 7197SOL    HW222491   6.700   2.682   5.870
 7198SOL     OW22492   0.747   0.836   6.596
 7198SOL    HW122493   0.745   0.877   6.687
 7198SOL    HW222494   0.671   0.871   6.542
 7199SOL     OW22495   2.157   0.944   2.480
 7199SOL    HW122496   2.073   0.990   2.508
 7199SOL    HW222497   2.231   0.968   2.542
 7200SOL     OW22498   2.814   1.901   0.781
 7200SOL    HW122499   2.799   1.853   0.694
 7200SOL    HW222500   2.827   1.998   0.763
 7201SOL     OW22501   0.958   5.755   4.353
 7201SOL    HW122502   0.883   5.724   4.412
 7201SOL    HW222503   1.043   5.711   4.381
 7202SOL     OW22504   4.238   0.734   6.161
 7202SOL    HW122505   4.324   0.783   6.142
 7202SOL    HW222506   4.213   0.679   6.082
 7203SOL     OW22507   6.763   1.917   0.857
 7203SOL    HW122508   6.800   1.983   0.792
 7203SOL    HW222509   6.830   1.901   0.930
 7204SOL     OW22510   0.183   6.979   5.766
 7204SOL    HW122511   0.121   6.944   5.696
 7204SOL    HW222512   0.245   6.907   5.795
 7205SOL     OW22513   1.129   5.449   3.445
 7205SOL    HW122514   1.033   5.435   3.467
 7205SOL    HW222515   1.183   5.372   3.479
 7206SOL     OW22516   1.944   0.289   1.099
 7206SOL    HW122517   1.859   0.338   1.083
 7206SOL    HW222518   1.977   0.309   1.192
 7207SOL     OW22519   3.730   0.234   2.102
 7207SOL    HW122520   3.769   0.142   2.112
 7207SOL    HW222521   3.789   0.289   2.043
 7208SOL     OW22522   4.129   6.258   3.283
 7208SOL    HW122523   4.209   6.269   3.223
 7208SOL    HW222524   4.137   6.320   3.361
 7209SOL     OW22525   2.884   3.560   2.574
 7209SOL    HW122526   2.955   3.493   2.594
 7209SOL    HW222527   2.864   3.560   2.476
 7210SOL     OW22528   4.582   0.669   3.833
 7210SOL    HW122529   4.604   0.649   3.928
 7210SOL    HW222530   4.527   0.753   3.828
 7211SOL     OW22531   2.552   5.684   4.184
 7211SOL    HW122532   2.486   5.681   4.260
 7211SOL    HW222533   2.517   5.744   4.113
 7212SOL     OW22534   0.519   6.695   4.574
 7212SOL    HW122535   0.542   6.598   4.583
 7212SOL    HW222536   0.488   6.713   4.480
 7213SOL     OW22537   5.386   0.413   6.915
 7213SOL    HW122538   5.430   0.411   6.825
 7213SOL    HW222539   5.456   0.419   6.986
 7214SOL     OW22540   0.420   5.352   5.369
 7214SOL    HW122541   0.329   5.339   5.329
 7214SOL    HW222542   0.480   5.395   5.301
 7215SOL     OW22543   0.373   3.305   5.264
 7215SOL    HW122544   0.467   3.312   5.231
 7215SOL    HW222545   0.319   3.381   5.229
 7216SOL     OW22546   3.149   6.074   0.001
 7216SOL    HW122547   3.222   6.136   6.993
 7216SOL    HW222548   3.085   6.124   0.060
 7217SOL     OW22549   2.313   4.227   3.041
 7217SOL    HW122550   2.392   4.165   3.039
 7217SOL    HW222551   2.262   4.219   2.955
 7218SOL     OW22552   5.073   2.362   5.349
 7218SOL    HW122553   5.004   2.388   5.416
 7218SOL    HW222554   5.123   2.443   5.319
 7219SOL     OW22555   4.474   6.449   4.670
 7219SOL    HW122556   4.450   6.506   4.749
 7219SOL    HW222557   4.561   6.403   4.688
 7220SOL     OW22558   0.333   5.831   4.705
 7220SOL    HW122559   0.361   5.925   4.724
 7220SOL    HW222560   0.379   5.769   4.769
 7221SOL     OW22561   4.319   5.642   4.516
 7221SOL    HW122562   4.349   5.703   4.590
 7221SOL    HW222563   4.239   5.681   4.471
 7222SOL     OW22564   6.034   0.567   2.988
 7222SOL    HW122565   5.990   0.481   3.015
 7222SOL    HW222566   6.112   0.547   2.929
 7223SOL     OW22567   2.693   2.277   1.369
 7223SOL    HW122568   2.775   2.241   1.414
 7223SOL    HW222569   2.707   2.278   1.270
 7224SOL     OW22570   5.853   2.236   4.304
 7224SOL    HW122571   5.856   2.311   4.239
 7224SOL    HW222572   5.937   2.234   4.357
 7225SOL     OW22573   0.742   6.135   6.687
 7225SOL    HW122574   0.824   6.147   6.743
 7225SOL    HW222575   0.661   6.158   6.740
 7226SOL     OW22576   7.008   1.206   0.720
 7226SOL    HW122577   6.954   1.124   0.700
 7226SOL    HW222578   0.067   1.209   0.658
 7227SOL     OW22579   0.404   2.109   0.986
 7227SOL    HW122580   0.350   2.128   0.904
 7227SOL    HW222581   0.486   2.058   0.960
 7228SOL     OW22582   1.020   1.156   2.284
 7228SOL    HW122583   0.963   1.190   2.359
 7228SOL    HW222584   1.069   1.232   2.242
 7229SOL     OW22585   1.513   0.019   4.893
 7229SOL    HW122586   1.440   6.971   4.889
 7229SOL    HW222587   1.512   0.064   4.982
 7230SOL     OW22588   4.810   5.113   4.379
 7230SOL    HW122589   4.802   5.122   4.280
 7230SOL    HW222590   4.732   5.159   4.423
 7231SOL     OW22591   4.882   7.010   0.297
 7231SOL    HW122592   4.929   0.012   0.383
 7231SOL    HW222593   4.802   0.048   0.288
 7232SOL     OW22594   4.953   5.285   3.121
 7232SOL    HW122595   4.936   5.266   3.218
 7232SOL    HW222596   5.004   5.370   3.113
 7233SOL     OW22597   0.553   2.535   4.391
 7233SOL    HW122598   0.506   2.514   4.305
 7233SOL    HW222599   0.615   2.612   4.377
 7234SOL     OW22600   5.467   3.255   3.560
 7234SOL    HW122601   5.489   3.196   3.483
 7234SOL    HW222602   5.551   3.292   3.600
 7235SOL     OW22603   6.726   4.166   2.009
 7235SOL    HW122604   6.660   4.125   1.946
 7235SOL    HW222605   6.817   4.162   1.969
 7236SOL     OW22606   2.593   1.367   2.412
 7236SOL    HW122607   2.552   1.394   2.325
 7236SOL    HW222608   2.546   1.286   2.446
 7237SOL     OW22609   6.183   6.864   5.051
 7237SOL    HW122610   6.097   6.827   5.085
 7237SOL    HW222611   6.225   6.800   4.987
 7238SOL     OW22612   2.937   2.126   1.340
 7238SOL    HW122613   3.030   2.103   1.365
 7238SOL    HW222614   2.903   2.061   1.272
 7239SOL     OW22615   2.151   1.852   2.561
 7239SOL    HW122616   2.235   1.902   2.581
 7239SOL    HW222617   2.089   1.911   2.509
 7240SOL     OW22618   2.215   4.954   5.964
 7240SOL    HW122619   2.193   5.051   5.978
 7240SOL    HW222620   2.278   4.945   5.887
 7241SOL     OW22621   2.927   0.763   0.412
 7241SOL    HW122622   2.957   0.690   0.474
 7241SOL    HW222623   2.887   0.723   0.329
 7242SOL     OW22624   6.492   5.725   0.524
 7242SOL    HW122625   6.502   5.754   0.428
 7242SOL    HW222626   6.582   5.724   0.568
 7243SOL     OW22627   6.769   4.722   6.170
 7243SOL    HW122628   6.759   4.766   6.260
 7243SOL    HW222629   6.692   4.661   6.154
 7244SOL     OW22630   5.729   0.390   1.129
 7244SOL    HW122631   5.821   0.352   1.132
 7244SOL    HW222632   5.700   0.415   1.222
 7245SOL     OW22633   0.470   2.008   5.114
 7245SOL    HW122634   0.373   1.983   5.121
 7245SOL    HW222635   0.511   2.007   5.206
 7246SOL     OW22636   6.270   0.323   4.506
 7246SOL    HW122637   6.363   0.359   4.521
 7246SOL    HW222638   6.212   0.349   4.583
 7247SOL     OW22639   3.044   6.690   3.894
 7247SOL    HW122640   3.065   6.782   3.861
 7247SOL    HW222641   3.077   6.623   3.828
 7248SOL     OW22642   3.619   0.634   3.259
 7248SOL    HW122643   3.599   0.727   3.228
 7248SOL    HW222644   3.674   0.637   3.342
 7249SOL     OW22645   5.183   4.588   1.935
 7249SOL    HW122646   5.278   4.602   1.907
 7249SOL    HW222647   5.167   4.633   2.022
 7250SOL     OW22648   4.156   6.152   6.329
 7250SOL    HW122649   4.256   6.149   6.328
 7250SOL    HW222650   4.123   6.192   6.243
 7251SOL     OW22651   0.346   6.824   5.542
 7251SOL    HW122652   0.407   6.794   5.469
 7251SOL    HW222653   0.340   6.924   5.542
 7252SOL     OW22654   3.855   3.014   3.592
 7252SOL    HW122655   3.798   2.932   3.596
 7252SOL    HW222656   3.885   3.029   3.498
 7253SOL     OW22657   1.866   6.366   6.831
 7253SOL    HW122658   1.798   6.326   6.893
 7253SOL    HW222659   1.837   6.353   6.737
 7254SOL     OW22660   4.765   5.761   4.914
 7254SOL    HW122661   4.728   5.668   4.911
 7254SOL    HW222662   4.851   5.764   4.862
 7255SOL     OW22663   3.662   3.377   1.302
 7255SOL    HW122664   3.733   3.317   1.265
 7255SOL    HW222665   3.649   3.358   1.399
 7256SOL     OW22666   4.759   4.467   4.388
 7256SOL    HW122667   4.710   4.529   4.449
 7256SOL    HW222668   4.830   4.518   4.340
 7257SOL     OW22669   4.876   3.256   3.895
 7257SOL    HW122670   4.802   3.311   3.933
 7257SOL    HW222671   4.869   3.162   3.929
 7258SOL     OW22672   3.803   1.143   3.253
 7258SOL    HW122673   3.713   1.123   3.215
 7258SOL    HW222674   3.795   1.212   3.325
 7259SOL     OW22675   3.411   3.280   1.862
 7259SOL    HW122676   3.326   3.228   1.851
 7259SOL    HW222677   3.473   3.230   1.923
 7260SOL     OW22678   2.637   2.162   2.970
 7260SOL    HW122679   2.662   2.237   2.908
 7260SOL    HW222680   2.558   2.189   3.025
 7261SOL     OW22681   2.159   3.047   1.187
 7261SOL    HW122682   2.091   3.115   1.213
 7261SOL    HW222683   2.224   3.087   1.123
 7262SOL     OW22684   5.451   2.010   4.291
 7262SOL    HW122685   5.399   2.096   4.296
 7262SOL    HW222686   5.533   2.024   4.236
 7263SOL     OW22687   0.366   6.197   2.654
 7263SOL    HW122688   0.438   6.177   2.588
 7263SOL    HW222689   0.305   6.119   2.662
 7264SOL     OW22690   6.213   1.508   6.629
 7264SOL    HW122691   6.247   1.591   6.585
 7264SOL    HW222692   6.284   1.468   6.687
 7265SOL     OW22693   5.386   6.059   5.642
 7265SOL    HW122694   5.327   6.107   5.708
 7265SOL    HW222695   5.473   6.108   5.634
 7266SOL     OW22696   4.099   6.934   1.257
 7266SOL    HW122697   4.040   7.000   1.211
 7266SOL    HW222698   4.097   6.949   1.356
 7267SOL     OW22699   6.946   5.694   5.799
 7267SOL    HW122700   6.932   5.708   5.701
 7267SOL    HW222701   6.993   5.774   5.838
 7268SOL     OW22702   4.526   4.813   2.748
 7268SOL    HW122703   4.507   4.721   2.784
 7268SOL    HW222704   4.451   4.875   2.773
 7269SOL     OW22705   6.906   6.209   1.211
 7269SOL    HW122706   6.928   6.140   1.142
 7269SOL    HW222707   6.852   6.282   1.169
 7270SOL     OW22708   1.244   2.872   4.697
 7270SOL    HW122709   1.188   2.820   4.633
 7270SOL    HW222710   1.202   2.962   4.714
 7271SOL     OW22711   0.372   4.837   4.199
 7271SOL    HW122712   0.409   4.787   4.120
 7271SOL    HW222713   0.397   4.789   4.283
 7272SOL     OW22714   5.752   4.634   1.870
 7272SOL    HW122715   5.792   4.555   1.915
 7272SOL    HW222716   5.687   4.679   1.931
 7273SOL     OW22717   5.660   4.703   2.705
 7273SOL    HW122718   5.638   4.606   2.699
 7273SOL    HW222719   5.583   4.752   2.745
 7274SOL     OW22720   1.063   6.122   6.206
 7274SOL    HW122721   1.118   6.071   6.140
 7274SOL    HW222722   0.976   6.148   6.164
 7275SOL     OW22723   6.806   1.272   2.463
 7275SOL    HW122724   6.805   1.346   2.531
 7275SOL    HW222725   6.742   1.200   2.491
 7276SOL     OW22726   3.164   1.511   3.524
 7276SOL    HW122727   3.264   1.508   3.521
 7276SOL    HW222728   3.133   1.490   3.616
 7277SOL     OW22729   5.473   1.399   4.208
 7277SOL    HW122730   5.546   1.459   4.175
 7277SOL    HW222731   5.426   1.443   4.285
 7278SOL     OW22732   3.135   1.946   2.274
 7278SOL    HW122733   3.202   1.903   2.335
 7278SOL    HW222734   3.071   1.876   2.241
 7279SOL     OW22735   4.029   2.930   6.821
 7279SOL    HW122736   4.057   3.001   6.885
 7279SOL    HW222737   3.944   2.957   6.776
 7280SOL     OW22738   6.727   2.359   4.465
 7280SOL    HW122739   6.712   2.261   4.460
 7280SOL    HW222740   6.671   2.406   4.397
 7281SOL     OW22741   2.168   0.279   0.318
 7281SOL    HW122742   2.094   0.338   0.284
 7281SOL    HW222743   2.169   0.194   0.266
 7282SOL     OW22744   6.456   6.562   0.697
 7282SOL    HW122745   6.379   6.597   0.752
 7282SOL    HW222746   6.436   6.470   0.666
 7283SOL     OW22747   2.566   6.757   1.889
 7283SOL    HW122748   2.624   6.689   1.933
 7283SOL    HW222749   2.617   6.843   1.880
 7284SOL     OW22750   0.371   3.036   4.608
 7284SOL    HW122751   0.308   2.961   4.587
 7284SOL    HW222752   0.324   3.107   4.659
 7285SOL     OW22753   5.520   3.589   1.735
 7285SOL    HW122754   5.591   3.606   1.803
 7285SOL    HW222755   5.457   3.666   1.732
 7286SOL     OW22756   1.019   0.325   0.598
 7286SOL    HW122757   1.037   0.226   0.596
 7286SOL    HW222758   1.059   0.368   0.517
 7287SOL     OW22759   6.891   3.549   4.779
 7287SOL    HW122760   6.952   3.504   4.844
 7287SOL    HW222761   6.893   3.648   4.793
 7288SOL     OW22762   1.114   2.905   2.100
 7288SOL    HW122763   1.108   2.846   2.181
 7288SOL    HW222764   1.085   2.854   2.019
 7289SOL     OW22765   6.641   2.638   2.695
 7289SOL    HW122766   6.629   2.723   2.747
 7289SOL    HW222767   6.556   2.617   2.647
 7290SOL     OW22768   3.174   0.869   5.468
 7290SOL    HW122769   3.142   0.788   5.517
 7290SOL    HW222770   3.149   0.951   5.519
 7291SOL     OW22771   3.265   0.060   0.735
 7291SOL    HW122772   3.234   0.103   0.650
 7291SOL    HW222773   3.192   0.061   0.802
 7292SOL     OW22774   2.533   6.989   3.078
 7292SOL    HW122775   2.593   7.001   2.999
 7292SOL    HW222776   2.548   0.043   3.143
 7293SOL     OW22777   1.500   1.199   6.098
 7293SOL    HW122778   1.530   1.267   6.031
 7293SOL    HW222779   1.470   1.117   6.051
 7294SOL     OW22780   3.109   4.394   0.210
 7294SOL    HW122781   3.048   4.332   0.160
 7294SOL    HW222782   3.155   4.344   0.284
 7295SOL     OW22783   0.020   4.328   1.445
 7295SOL    HW122784   6.956   4.277   1.427
 7295SOL    HW222785   0.088   4.267   1.487
 7296SOL     OW22786   4.515   4.795   2.458
 7296SOL    HW122787   4.540   4.831   2.548
 7296SOL    HW222788   4.474   4.867   2.403
 7297SOL     OW22789   2.629   6.598   2.774
 7297SOL    HW122790   2.578   6.616   2.859
 7297SOL    HW222791   2.647   6.685   2.727
 7298SOL     OW22792   5.300   5.342   0.303
 7298SOL    HW122793   5.327   5.383   0.390
 7298SOL    HW222794   5.343   5.392   0.228
 7299SOL     OW22795   0.900   1.862   0.694
 7299SOL    HW122796   0.966   1.787   0.691
 7299SOL    HW222797   0.817   1.834   0.646
 7300SOL     OW22798   0.727   5.323   2.179
 7300SOL    HW122799   0.732   5.260   2.101
 7300SOL    HW222800   0.812   5.375   2.186
 7301SOL     OW22801   6.760   1.679   5.758
 7301SOL    HW122802   6.669   1.641   5.776
 7301SOL    HW222803   6.754   1.745   5.682
 7302SOL     OW22804   0.267   1.984   5.406
 7302SOL    HW122805   0.314   1.930   5.476
 7302SOL    HW222806   0.261   1.931   5.322
 7303SOL     OW22807   3.364   1.008   6.909
 7303SOL    HW122808   3.377   0.911   6.886
 7303SOL    HW222809   3.296   1.015   6.982
 7304SOL     OW22810   1.902   5.650   1.843
 7304SOL    HW122811   1.899   5.721   1.773
 7304SOL    HW222812   1.880   5.691   1.932
 7305SOL     OW22813   6.112   2.350   1.192
 7305SOL    HW122814   6.099   2.447   1.214
 7305SOL    HW222815   6.040   2.320   1.129
 7306SOL     OW22816   3.488   1.507   1.651
 7306SOL    HW122817   3.545   1.460   1.584
 7306SOL    HW222818   3.399   1.529   1.611
 7307SOL     OW22819   4.273   0.050   2.367
 7307SOL    HW122820   4.372   0.053   2.382
 7307SOL    HW222821   4.236   6.990   2.414
 7308SOL     OW22822   6.999   1.529   3.379
 7308SOL    HW122823   0.073   1.540   3.409
 7308SOL    HW222824   6.995   1.463   3.303
 7309SOL     OW22825   2.472   6.326   1.804
 7309SOL    HW122826   2.557   6.333   1.858
 7309SOL    HW222827   2.453   6.414   1.761
 7310SOL     OW22828   1.656   3.363   6.165
 7310SOL    HW122829   1.656   3.311   6.251
 7310SOL    HW222830   1.656   3.299   6.088
 7311SOL     OW22831   0.803   0.065   0.594
 7311SOL    HW122832   0.737   0.092   0.524
 7311SOL    HW222833   0.890   0.040   0.550
 7312SOL     OW22834   0.710   1.778   5.064
 7312SOL    HW122835   0.632   1.737   5.112
 7312SOL    HW222836   0.690   1.873   5.042
 7313SOL     OW22837   2.789   1.818   0.520
 7313SOL    HW122838   2.801   1.783   0.426
 7313SOL    HW222839   2.733   1.901   0.517
 7314SOL     OW22840   6.896   4.047   6.009
 7314SOL    HW122841   6.841   4.040   6.092
 7314SOL    HW222842   6.932   3.957   5.985
 7315SOL     OW22843   5.792   5.517   2.584
 7315SOL    HW122844   5.870   5.456   2.574
 7315SOL    HW222845   5.812   5.587   2.652
 7316SOL     OW22846   3.420   2.079   6.294
 7316SOL    HW122847   3.368   2.004   6.336
 7316SOL    HW222848   3.374   2.166   6.312
 7317SOL     OW22849   3.611   1.006   2.015
 7317SOL    HW122850   3.629   1.097   1.976
 7317SOL    HW222851   3.592   0.941   1.941
 7318SOL     OW22852   3.179   6.203   2.400
 7318SOL    HW122853   3.275   6.190   2.376
 7318SOL    HW222854   3.154   6.299   2.388
 7319SOL     OW22855   6.088   3.682   6.048
 7319SOL    HW122856   6.145   3.621   6.103
 7319SOL    HW222857   6.147   3.742   5.994
 7320SOL     OW22858   0.541   3.503   0.023
 7320SOL    HW122859   0.553   3.403   0.029
 7320SOL    HW222860   0.444   3.525   0.027
 7321SOL     OW22861   1.987   6.317   6.163
 7321SOL    HW122862   1.955   6.237   6.213
 7321SOL    HW222863   2.021   6.288   6.073
 7322SOL     OW22864   0.075   3.023   2.890
 7322SOL    HW122865   0.104   3.081   2.815
 7322SOL    HW222866   0.093   2.927   2.868
 7323SOL     OW22867   2.668   2.165   1.100
 7323SOL    HW122868   2.754   2.114   1.098
 7323SOL    HW222869   2.592   2.101   1.113
 7324SOL     OW22870   6.065   4.449   2.675
 7324SOL    HW122871   6.097   4.505   2.599
 7324SOL    HW222872   6.012   4.505   2.738
 7325SOL     OW22873   2.903   0.052   5.314
 7325SOL    HW122874   2.932   0.097   5.399
 7325SOL    HW222875   2.968   7.000   5.292
 7326SOL     OW22876   3.891   0.740   6.522
 7326SOL    HW122877   3.863   0.681   6.445
 7326SOL    HW222878   3.986   0.767   6.510
 7327SOL     OW22879   5.787   3.490   3.943
 7327SOL    HW122880   5.694   3.476   3.977
 7327SOL    HW222881   5.848   3.512   4.020
 7328SOL     OW22882   4.548   6.504   6.085
 7328SOL    HW122883   4.607   6.574   6.125
 7328SOL    HW222884   4.521   6.531   5.993
 7329SOL     OW22885   1.193   2.738   0.125
 7329SOL    HW122886   1.177   2.677   0.203
 7329SOL    HW222887   1.239   2.821   0.156
 7330SOL     OW22888   2.781   2.715   1.311
 7330SOL    HW122889   2.777   2.677   1.403
 7330SOL    HW222890   2.691   2.710   1.269
 7331SOL     OW22891   4.766   6.044   2.200
 7331SOL    HW122892   4.796   5.983   2.273
 7331SOL    HW222893   4.817   6.023   2.116
 7332SOL     OW22894   3.839   4.128   6.833
 7332SOL    HW122895   3.787   4.090   6.757
 7332SOL    HW222896   3.822   4.227   6.838
 7333SOL     OW22897   6.234   3.330   3.269
 7333SOL    HW122898   6.242   3.381   3.184
 7333SOL    HW222899   6.153   3.271   3.265
 7334SOL     OW22900   3.077   5.341   5.705
 7334SOL    HW122901   3.018   5.383   5.774
 7334SOL    HW222902   3.034   5.257   5.671
 7335SOL     OW22903   0.173   2.532   3.003
 7335SOL    HW122904   0.105   2.467   2.969
 7335SOL    HW222905   0.264   2.498   2.983
 7336SOL     OW22906   2.119   6.107   1.027
 7336SOL    HW122907   2.075   6.091   0.939
 7336SOL    HW222908   2.133   6.205   1.040
 7337SOL     OW22909   2.701   3.052   1.464
 7337SOL    HW122910   2.652   3.118   1.520
 7337SOL    HW222911   2.755   2.991   1.523
 7338SOL     OW22912   6.235   2.143   1.380
 7338SOL    HW122913   6.152   2.192   1.355
 7338SOL    HW222914   6.268   2.092   1.300
 7339SOL     OW22915   6.818   6.639   5.570
 7339SOL    HW122916   6.759   6.718   5.552
 7339SOL    HW222917   6.896   6.667   5.625
 7340SOL     OW22918   4.063   1.969   0.094
 7340SOL    HW122919   4.104   1.888   0.137
 7340SOL    HW222920   4.132   2.015   0.039
 7341SOL     OW22921   1.294   5.083   5.196
 7341SOL    HW122922   1.282   5.161   5.257
 7341SOL    HW222923   1.275   5.111   5.102
 7342SOL     OW22924   6.044   6.983   0.407
 7342SOL    HW122925   6.135   6.977   0.365
 7342SOL    HW222926   5.978   6.934   0.351
 7343SOL     OW22927   5.499   3.090   2.082
 7343SOL    HW122928   5.433   3.036   2.030
 7343SOL    HW222929   5.570   3.030   2.118
 7344SOL     OW22930   1.717   0.069   6.585
 7344SOL    HW122931   1.669   0.115   6.660
 7344SOL    HW222932   1.791   0.013   6.623
 7345SOL     OW22933   5.122   5.579   5.446
 7345SOL    HW122934   5.179   5.570   5.528
 7345SOL    HW222935   5.038   5.629   5.469
 7346SOL     OW22936   3.949   3.772   1.157
 7346SOL    HW122937   3.857   3.733   1.166
 7346SOL    HW222938   4.007   3.708   1.107
 7347SOL     OW22939   6.567   2.178   1.404
 7347SOL    HW122940   6.652   2.147   1.363
 7347SOL    HW222941   6.515   2.232   1.337
 7348SOL     OW22942   1.538   3.277   3.706
 7348SOL    HW122943   1.481   3.266   3.787
 7348SOL    HW222944   1.498   3.345   3.644
 7349SOL     OW22945   3.464   1.967   1.299
 7349SOL    HW122946   3.455   1.934   1.392
 7349SOL    HW222947   3.407   1.912   1.238
 7350SOL     OW22948   1.193   3.120   3.955
 7350SOL    HW122949   1.130   3.068   4.014
 7350SOL    HW222950   1.272   3.064   3.933
 7351SOL     OW22951   4.361   4.936   6.363
 7351SOL    HW122952   4.460   4.923   6.369
 7351SOL    HW222953   4.324   4.957   6.454
 7352SOL     OW22954   1.939   2.711   3.271
 7352SOL    HW122955   1.915   2.799   3.310
 7352SOL    HW222956   1.988   2.724   3.185
 7353SOL     OW22957   0.620   0.536   5.802
 7353SOL    HW122958   0.685   0.518   5.876
 7353SOL    HW222959   0.533   0.491   5.823
 7354SOL     OW22960   0.376   1.241   5.947
 7354SOL    HW122961   0.382   1.291   6.033
 7354SOL    HW222962   0.316   1.290   5.884
 7355SOL     OW22963   1.342   6.410   6.981
 7355SOL    HW122964   1.385   6.320   6.991
 7355SOL    HW222965   1.248   6.398   6.947
 7356SOL     OW22966   5.149   3.163   6.227
 7356SOL    HW122967   5.189   3.236   6.283
 7356SOL    HW222968   5.214   3.136   6.156
 7357SOL     OW22969   4.527   1.236   1.032
 7357SOL    HW122970   4.487   1.169   1.095
 7357SOL    HW222971   4.625   1.242   1.047
 7358SOL     OW22972   1.867   2.581   2.288
 7358SOL    HW122973   1.879   2.606   2.192
 7358SOL    HW222974   1.828   2.489   2.294
 7359SOL     OW22975   3.363   2.475   0.931
 7359SOL    HW122976   3.312   2.396   0.895
 7359SOL    HW222977   3.299   2.536   0.979
 7360SOL     OW22978   3.177   2.082   6.073
 7360SOL    HW122979   3.138   2.149   6.136
 7360SOL    HW222980   3.273   2.065   6.097
 7361SOL     OW22981   4.098   6.915   2.032
 7361SOL    HW122982   4.181   6.862   2.053
 7361SOL    HW222983   4.084   6.984   2.103
 7362SOL     OW22984   0.599   0.139   4.977
 7362SOL    HW122985   0.683   0.093   4.949
 7362SOL    HW222986   0.522   0.076   4.968
 7363SOL     OW22987   3.975   1.437   1.284
 7363SOL    HW122988   3.951   1.394   1.370
 7363SOL    HW222989   3.893   1.446   1.226
 7364SOL     OW22990   4.163   6.958   1.548
 7364SOL    HW122991   4.078   6.977   1.597
 7364SOL    HW222992   4.188   6.862   1.561
 7365SOL     OW22993   1.343   5.983   1.864
 7365SOL    HW122994   1.295   6.028   1.789
 7365SOL    HW222995   1.371   6.052   1.931
 7366SOL     OW22996   1.655   5.853   0.562
 7366SOL    HW122997   1.658   5.775   0.625
 7366SOL    HW222998   1.561   5.886   0.553
 7367SOL     OW22999   4.401   4.001   1.015
 7367SOL    HW123000   4.439   4.087   1.051
 7367SOL    HW223001   4.301   4.007   1.013
 7368SOL     OW23002   3.707   2.974   4.214
 7368SOL    HW123003   3.612   2.965   4.244
 7368SOL    HW223004   3.765   2.998   4.293
 7369SOL     OW23005   5.211   3.139   0.968
 7369SOL    HW123006   5.179   3.047   0.992
 7369SOL    HW223007   5.310   3.143   0.978
 7370SOL     OW23008   2.277   0.305   5.449
 7370SOL    HW123009   2.343   0.372   5.482
 7370SOL    HW223010   2.326   0.228   5.408
 7371SOL     OW23011   2.317   5.563   3.758
 7371SOL    HW123012   2.404   5.580   3.804
 7371SOL    HW223013   2.332   5.551   3.660
 7372SOL     OW23014   3.219   0.603   5.670
 7372SOL    HW123015   3.148   0.541   5.705
 7372SOL    HW223016   3.226   0.683   5.731
 7373SOL     OW23017   5.291   1.524   3.348
 7373SOL    HW123018   5.379   1.477   3.338
 7373SOL    HW223019   5.275   1.541   3.445
 7374SOL     OW23020   2.937   2.348   5.243
 7374SOL    HW123021   3.029   2.366   5.210
 7374SOL    HW223022   2.941   2.285   5.321
 7375SOL     OW23023   2.000   1.969   3.339
 7375SOL    HW123024   1.916   1.942   3.290
 7375SOL    HW223025   1.986   1.957   3.437
 7376SOL     OW23026   3.769   1.535   0.461
 7376SOL    HW123027   3.771   1.631   0.435
 7376SOL    HW223028   3.814   1.523   0.550
 7377SOL     OW23029   4.892   5.990   1.953
 7377SOL    HW123030   4.910   5.996   1.855
 7377SOL    HW223031   4.856   5.900   1.975
 7378SOL     OW23032   0.167   2.209   4.899
 7378SOL    HW123033   0.109   2.244   4.973
 7378SOL    HW223034   0.163   2.272   4.821
 7379SOL     OW23035   4.044   2.246   3.119
 7379SOL    HW123036   3.977   2.274   3.051
 7379SOL    HW223037   4.134   2.239   3.077
 7380SOL     OW23038   6.676   3.243   5.137
 7380SOL    HW123039   6.723   3.290   5.062
 7380SOL    HW223040   6.633   3.160   5.102
 7381SOL     OW23041   4.835   3.994   2.563
 7381SOL    HW123042   4.842   3.907   2.611
 7381SOL    HW223043   4.852   3.980   2.465
 7382SOL     OW23044   0.195   5.801   6.044
 7382SOL    HW123045   0.273   5.861   6.063
 7382SOL    HW223046   0.219   5.736   5.972
 7383SOL     OW23047   0.362   6.597   1.991
 7383SOL    HW123048   0.341   6.682   1.942
 7383SOL    HW223049   0.456   6.600   2.024
 7384SOL     OW23050   4.956   1.042   2.172
 7384SOL    HW123051   5.048   1.082   2.168
 7384SOL    HW223052   4.962   0.947   2.202
 7385SOL     OW23053   4.196   6.455   2.052
 7385SOL    HW123054   4.242   6.395   1.986
 7385SOL    HW223055   4.134   6.516   2.003
 7386SOL     OW23056   0.194   2.261   5.316
 7386SOL    HW123057   0.126   2.258   5.242
 7386SOL    HW223058   0.286   2.251   5.277
 7387SOL     OW23059   4.186   0.106   4.567
 7387SOL    HW123060   4.229   0.099   4.657
 7387SOL    HW223061   4.248   0.072   4.497
 7388SOL     OW23062   6.440   5.327   3.590
 7388SOL    HW123063   6.522   5.321   3.534
 7388SOL    HW223064   6.361   5.346   3.532
 7389SOL     OW23065   1.114   4.980   0.010
 7389SOL    HW123066   1.213   4.967   0.008
 7389SOL    HW223067   1.092   5.076   0.027
 7390SOL     OW23068   1.683   1.192   0.065
 7390SOL    HW123069   1.620   1.262   0.032
 7390SOL    HW223070   1.739   1.229   0.139
 7391SOL     OW23071   4.747   4.129   4.645
 7391SOL    HW123072   4.767   4.185   4.725
 7391SOL    HW223073   4.772   4.034   4.664
 7392SOL     OW23074   3.082   5.808   6.554
 7392SOL    HW123075   3.057   5.731   6.612
 7392SOL    HW223076   3.090   5.891   6.610
 7393SOL     OW23077   6.120   5.394   1.504
 7393SOL    HW123078   6.117   5.493   1.490
 7393SOL    HW223079   6.194   5.355   1.449
 7394SOL     OW23080   3.261   2.471   6.417
 7394SOL    HW123081   3.238   2.568   6.424
 7394SOL    HW223082   3.231   2.424   6.500
 7395SOL     OW23083   1.929   1.027   0.118
 7395SOL    HW123084   1.933   1.120   0.081
 7395SOL    HW223085   1.915   0.962   0.043
 7396SOL     OW23086   1.132   0.081   0.550
 7396SOL    HW123087   1.199   0.125   0.490
 7396SOL    HW223088   1.173   0.065   0.639
 7397SOL     OW23089   5.164   5.267   4.657
 7397SOL    HW123090   5.106   5.199   4.702
 7397SOL    HW223091   5.159   5.254   4.558
 7398SOL     OW23092   3.274   5.367   4.111
 7398SOL    HW123093   3.260   5.305   4.189
 7398SOL    HW223094   3.197   5.430   4.105
 7399SOL     OW23095   0.110   3.583   5.495
 7399SOL    HW123096   0.037   3.638   5.534
 7399SOL    HW223097   0.191   3.640   5.481
 7400SOL     OW23098   2.661   3.663   6.721
 7400SOL    HW123099   2.662   3.690   6.817
 7400SOL    HW223100   2.568   3.638   6.694
 7401SOL     OW23101   0.800   1.049   3.835
 7401SOL    HW123102   0.717   1.083   3.790
 7401SOL    HW223103   0.800   0.949   3.832
 7402SOL     OW23104   1.953   5.349   5.018
 7402SOL    HW123105   1.916   5.441   5.031
 7402SOL    HW223106   2.042   5.355   4.972
 7403SOL     OW23107   1.518   3.370   3.346
 7403SOL    HW123108   1.528   3.408   3.254
 7403SOL    HW223109   1.447   3.421   3.395
 7404SOL     OW23110   2.571   5.814   1.837
 7404SOL    HW123111   2.658   5.771   1.813
 7404SOL    HW223112   2.509   5.810   1.759
 7405SOL     OW23113   2.181   4.827   4.461
 7405SOL    HW123114   2.249   4.754   4.468
 7405SOL    HW223115   2.227   4.914   4.442
 7406SOL     OW23116   1.279   3.429   3.491
 7406SOL    HW123117   1.249   3.500   3.555
 7406SOL    HW223118   1.206   3.361   3.480
 7407SOL     OW23119   6.922   6.122   5.192
 7407SOL    HW123120   6.890   6.187   5.123
 7407SOL    HW223121   7.010   6.152   5.228
 7408SOL     OW23122   1.050   3.523   5.641
 7408SOL    HW123123   1.008   3.433   5.637
 7408SOL    HW223124   1.102   3.539   5.556
 7409SOL     OW23125   0.234   1.359   5.106
 7409SOL    HW123126   0.217   1.315   5.018
 7409SOL    HW223127   0.326   1.335   5.138
 7410SOL     OW23128   6.944   4.610   0.992
 7410SOL    HW123129   6.866   4.667   0.964
 7410SOL    HW223130   7.018   4.620   0.926
 7411SOL     OW23131   3.172   6.499   4.102
 7411SOL    HW123132   3.251   6.548   4.066
 7411SOL    HW223133   3.090   6.556   4.094
 7412SOL     OW23134   4.332   0.795   2.209
 7412SOL    HW123135   4.310   0.892   2.224
 7412SOL    HW223136   4.248   0.742   2.204
 7413SOL     OW23137   5.902   5.202   4.696
 7413SOL    HW123138   5.997   5.189   4.668
 7413SOL    HW223139   5.853   5.116   4.690
 7414SOL     OW23140   0.230   6.716   3.647
 7414SOL    HW123141   0.131   6.711   3.666
 7414SOL    HW223142   0.244   6.757   3.557
 7415SOL     OW23143   0.847   4.093   2.979
 7415SOL    HW123144   0.896   4.005   2.974
 7415SOL    HW223145   0.752   4.076   3.003
 7416SOL     OW23146   2.931   0.410   3.902
 7416SOL    HW123147   2.937   0.438   3.997
 7416SOL    HW223148   2.902   0.487   3.846
 7417SOL     OW23149   2.317   0.221   6.211
 7417SOL    HW123150   2.401   0.240   6.262
 7417SOL    HW223151   2.310   0.122   6.195
 7418SOL     OW23152   3.952   5.170   0.847
 7418SOL    HW123153   4.042   5.179   0.890
 7418SOL    HW223154   3.963   5.165   0.748
 7419SOL     OW23155   6.583   2.591   4.557
 7419SOL    HW123156   6.519   2.583   4.481
 7419SOL    HW223157   6.677   2.578   4.523
 7420SOL     OW23158   6.639   6.551   2.150
 7420SOL    HW123159   6.688   6.514   2.229
 7420SOL    HW223160   6.693   6.540   2.068
 7421SOL     OW23161   3.330   3.733   1.929
 7421SOL    HW123162   3.315   3.705   1.834
 7421SOL    HW223163   3.405   3.680   1.968
 7422SOL     OW23164   0.273   3.732   1.940
 7422SOL    HW123165   0.191   3.779   1.908
 7422SOL    HW223166   0.249   3.667   2.012
 7423SOL     OW23167   6.554   4.298   5.951
 7423SOL    HW123168   6.462   4.260   5.946
 7423SOL    HW223169   6.617   4.240   5.900
 7424SOL     OW23170   6.404   0.842   4.612
 7424SOL    HW123171   6.468   0.792   4.553
 7424SOL    HW223172   6.311   0.830   4.577
 7425SOL     OW23173   4.403   6.025   6.552
 7425SOL    HW123174   4.398   6.086   6.632
 7425SOL    HW223175   4.365   5.936   6.577
 7426SOL     OW23176   0.949   1.960   5.857
 7426SOL    HW123177   0.856   1.947   5.892
 7426SOL    HW223178   0.952   2.043   5.802
 7427SOL     OW23179   3.609   6.247   4.332
 7427SOL    HW123180   3.665   6.168   4.310
 7427SOL    HW223181   3.657   6.306   4.397
 7428SOL     OW23182   3.922   1.436   5.379
 7428SOL    HW123183   3.896   1.431   5.475
 7428SOL    HW223184   3.972   1.522   5.362
 7429SOL     OW23185   5.351   0.296   3.200
 7429SOL    HW123186   5.294   0.224   3.240
 7429SOL    HW223187   5.364   0.369   3.267
 7430SOL     OW23188   0.372   3.808   6.593
 7430SOL    HW123189   0.440   3.880   6.583
 7430SOL    HW223190   0.367   3.755   6.509
 7431SOL     OW23191   0.225   3.539   2.201
 7431SOL    HW123192   0.297   3.484   2.243
 7431SOL    HW223193   0.150   3.480   2.172
 7432SOL     OW23194   0.296   6.773   3.239
 7432SOL    HW123195   0.220   6.709   3.251
 7432SOL    HW223196   0.352   6.744   3.161
 7433SOL     OW23197   5.889   5.171   1.045
 7433SOL    HW123198   5.963   5.210   1.099
 7433SOL    HW223199   5.900   5.071   1.041
 7434SOL     OW23200   4.406   0.998   6.527
 7434SOL    HW123201   4.446   1.037   6.443
 7434SOL    HW223202   4.445   0.907   6.543
 7435SOL     OW23203   3.743   5.657   6.929
 7435SOL    HW123204   3.782   5.700   6.847
 7435SOL    HW223205   3.685   5.580   6.902
 7436SOL     OW23206   5.735   3.547   6.023
 7436SOL    HW123207   5.707   3.603   5.946
 7436SOL    HW223208   5.679   3.464   6.026
 7437SOL     OW23209   0.147   5.911   0.235
 7437SOL    HW123210   0.185   5.885   0.146
 7437SOL    HW223211   0.099   5.998   0.226
 7438SOL     OW23212   0.894   5.491   1.058
 7438SOL    HW123213   0.903   5.421   0.987
 7438SOL    HW223214   0.840   5.567   1.022
 7439SOL     OW23215   1.462   6.380   4.781
 7439SOL    HW123216   1.515   6.330   4.713
 7439SOL    HW223217   1.386   6.324   4.813
 7440SOL     OW23218   1.044   2.952   4.104
 7440SOL    HW123219   1.075   2.979   4.195
 7440SOL    HW223220   0.948   2.976   4.093
 7441SOL     OW23221   5.022   6.254   4.804
 7441SOL    HW123222   5.041   6.182   4.871
 7441SOL    HW223223   5.103   6.311   4.792
 7442SOL     OW23224   1.179   1.385   6.549
 7442SOL    HW123225   1.198   1.431   6.462
 7442SOL    HW223226   1.198   1.287   6.539
 7443SOL     OW23227   0.213   0.567   1.427
 7443SOL    HW123228   0.245   0.488   1.479
 7443SOL    HW223229   0.210   0.648   1.486
 7444SOL     OW23230   6.667   3.857   4.954
 7444SOL    HW123231   6.642   3.917   4.877
 7444SOL    HW223232   6.765   3.840   4.952
 7445SOL     OW23233   3.788   0.451   1.241
 7445SOL    HW123234   3.857   0.513   1.277
 7445SOL    HW223235   3.828   0.395   1.168
 7446SOL     OW23236   5.407   4.362   0.787
 7446SOL    HW123237   5.366   4.279   0.749
 7446SOL    HW223238   5.406   4.358   0.887
 7447SOL     OW23239   1.623   2.986   5.422
 7447SOL    HW123240   1.589   3.041   5.346
 7447SOL    HW223241   1.685   3.040   5.478
 7448SOL     OW23242   5.435   6.852   5.242
 7448SOL    HW123243   5.466   6.824   5.151
 7448SOL    HW223244   5.358   6.915   5.232
 7449SOL     OW23245   6.404   2.172   2.011
 7449SOL    HW123246   6.350   2.099   1.969
 7449SOL    HW223247   6.358   2.203   2.094
 7450SOL     OW23248   4.858   2.166   4.273
 7450SOL    HW123249   4.834   2.141   4.367
 7450SOL    HW223250   4.843   2.264   4.261
 7451SOL     OW23251   1.402   0.167   2.526
 7451SOL    HW123252   1.405   0.166   2.626
 7451SOL    HW223253   1.309   0.145   2.495
 7452SOL     OW23254   0.548   6.608   4.845
 7452SOL    HW123255   0.525   6.634   4.751
 7452SOL    HW223256   0.614   6.532   4.843
 7453SOL     OW23257   4.992   5.777   6.194
 7453SOL    HW123258   5.064   5.818   6.251
 7453SOL    HW223259   4.925   5.732   6.253
 7454SOL     OW23260   1.047   2.767   1.816
 7454SOL    HW123261   0.962   2.750   1.865
 7454SOL    HW223262   1.049   2.862   1.785
 7455SOL     OW23263   0.309   1.620   1.909
 7455SOL    HW123264   0.232   1.608   1.847
 7455SOL    HW223265   0.376   1.547   1.893
 7456SOL     OW23266   0.712   2.463   3.775
 7456SOL    HW123267   0.812   2.453   3.775
 7456SOL    HW223268   0.670   2.380   3.739
 7457SOL     OW23269   3.561   0.879   5.535
 7457SOL    HW123270   3.625   0.805   5.554
 7457SOL    HW223271   3.536   0.925   5.620
 7458SOL     OW23272   2.680   0.059   6.140
 7458SOL    HW123273   2.654   0.123   6.213
 7458SOL    HW223274   2.667   6.985   6.172
 7459SOL     OW23275   4.668   0.657   0.819
 7459SOL    HW123276   4.605   0.579   0.825
 7459SOL    HW223277   4.657   0.703   0.732
 7460SOL     OW23278   1.656   4.424   1.138
 7460SOL    HW123279   1.617   4.339   1.103
 7460SOL    HW223280   1.641   4.430   1.237
 7461SOL     OW23281   6.190   1.386   6.381
 7461SOL    HW123282   6.218   1.414   6.472
 7461SOL    HW223283   6.090   1.382   6.376
 7462SOL     OW23284   2.013   3.275   2.720
 7462SOL    HW123285   1.945   3.346   2.740
 7462SOL    HW223286   2.091   3.287   2.781
 7463SOL     OW23287   3.321   4.906   1.439
 7463SOL    HW123288   3.293   4.868   1.351
 7463SOL    HW223289   3.380   4.840   1.486
 7464SOL     OW23290   3.197   6.777   6.450
 7464SOL    HW123291   3.124   6.733   6.397
 7464SOL    HW223292   3.279   6.720   6.447
 7465SOL     OW23293   1.199   7.011   0.145
 7465SOL    HW123294   1.238   0.015   0.234
 7465SOL    HW223295   1.166   0.074   0.100
 7466SOL     OW23296   0.426   0.125   6.290
 7466SOL    HW123297   0.477   0.170   6.217
 7466SOL    HW223298   0.444   0.026   6.287
 7467SOL     OW23299   6.819   1.002   0.607
 7467SOL    HW123300   6.764   1.060   0.547
 7467SOL    HW223301   6.759   0.944   0.662
 7468SOL     OW23302   6.195   3.041   2.469
 7468SOL    HW123303   6.105   3.000   2.479
 7468SOL    HW223304   6.194   3.106   2.393
 7469SOL     OW23305   6.533   0.113   0.099
 7469SOL    HW123306   6.590   0.150   0.172
 7469SOL    HW223307   6.511   0.186   0.034
 7470SOL     OW23308   0.440   3.072   4.308
 7470SOL    HW123309   0.445   3.049   4.405
 7470SOL    HW223310   0.531   3.094   4.274
 7471SOL     OW23311   5.700   6.009   5.634
 7471SOL    HW123312   5.678   6.100   5.597
 7471SOL    HW223313   5.699   6.014   5.734
 7472SOL     OW23314   5.780   6.670   4.618
 7472SOL    HW123315   5.844   6.681   4.695
 7472SOL    HW223316   5.825   6.619   4.545
 7473SOL     OW23317   0.240   4.417   2.699
 7473SOL    HW123318   0.171   4.483   2.730
 7473SOL    HW223319   0.257   4.431   2.601
 7474SOL     OW23320   2.243   1.517   5.524
 7474SOL    HW123321   2.297   1.555   5.449
 7474SOL    HW223322   2.271   1.422   5.540
 7475SOL     OW23323   3.410   1.354   2.055
 7475SOL    HW123324   3.404   1.454   2.043
 7475SOL    HW223325   3.484   1.333   2.119
 7476SOL     OW23326   3.909   5.544   4.220
 7476SOL    HW123327   3.875   5.483   4.292
 7476SOL    HW223328   3.854   5.531   4.137
 7477SOL     OW23329   6.339   1.647   4.641
 7477SOL    HW123330   6.254   1.687   4.607
 7477SOL    HW223331   6.397   1.621   4.564
 7478SOL     OW23332   4.454   4.848   0.020
 7478SOL    HW123333   4.485   4.797   6.960
 7478SOL    HW223334   4.528   4.906   0.054
 7479SOL     OW23335   3.946   2.571   1.091
 7479SOL    HW123336   3.883   2.512   1.041
 7479SOL    HW223337   3.949   2.543   1.187
 7480SOL     OW23338   6.260   4.172   1.712
 7480SOL    HW123339   6.232   4.077   1.727
 7480SOL    HW223340   6.326   4.176   1.637
 7481SOL     OW23341   5.999   5.319   2.522
 7481SOL    HW123342   6.069   5.248   2.524
 7481SOL    HW223343   5.981   5.346   2.427
 7482SOL     OW23344   5.358   2.086   3.008
 7482SOL    HW123345   5.442   2.131   3.039
 7482SOL    HW223346   5.325   2.131   2.925
 7483SOL     OW23347   4.561   2.327   5.255
 7483SOL    HW123348   4.652   2.358   5.228
 7483SOL    HW223349   4.550   2.231   5.229
 7484SOL     OW23350   0.805   0.145   3.300
 7484SOL    HW123351   0.811   0.075   3.371
 7484SOL    HW223352   0.846   0.110   3.215
 7485SOL     OW23353   3.101   6.989   4.693
 7485SOL    HW123354   3.114   6.968   4.596
 7485SOL    HW223355   3.012   6.953   4.723
 7486SOL     OW23356   2.838   0.671   6.038
 7486SOL    HW123357   2.740   0.689   6.043
 7486SOL    HW223358   2.868   0.626   6.123
 7487SOL     OW23359   2.477   6.510   2.364
 7487SOL    HW123360   2.518   6.465   2.443
 7487SOL    HW223361   2.510   6.605   2.360
 7488SOL     OW23362   2.010   7.010   4.740
 7488SOL    HW123363   1.916   6.998   4.772
 7488SOL    HW223364   2.011   0.044   4.656
 7489SOL     OW23365   5.448   2.562   4.856
 7489SOL    HW123366   5.481   2.472   4.887
 7489SOL    HW223367   5.507   2.634   4.893
 7490SOL     OW23368   0.825   1.919   0.968
 7490SOL    HW123369   0.811   1.832   1.015
 7490SOL    HW223370   0.871   1.903   0.881
 7491SOL     OW23371   6.729   3.402   6.705
 7491SOL    HW123372   6.661   3.329   6.692
 7491SOL    HW223373   6.806   3.367   6.758
 7492SOL     OW23374   2.739   1.127   4.475
 7492SOL    HW123375   2.740   1.117   4.574
 7492SOL    HW223376   2.831   1.150   4.443
 7493SOL     OW23377   6.765   4.125   6.557
 7493SOL    HW123378   6.695   4.196   6.553
 7493SOL    HW223379   6.848   4.156   6.512
 7494SOL     OW23380   6.045   0.686   2.735
 7494SOL    HW123381   6.079   0.612   2.676
 7494SOL    HW223382   6.097   0.770   2.717
 7495SOL     OW23383   2.379   1.034   0.553
 7495SOL    HW123384   2.295   1.036   0.498
 7495SOL    HW223385   2.457   1.014   0.494
 7496SOL     OW23386   0.221   3.601   6.705
 7496SOL    HW123387   0.267   3.686   6.679
 7496SOL    HW223388   0.138   3.622   6.756
 7497SOL     OW23389   2.980   4.181   0.080
 7497SOL    HW123390   2.914   4.248   0.046
 7497SOL    HW223391   2.943   4.089   0.067
 7498SOL     OW23392   2.291   1.233   5.511
 7498SOL    HW123393   2.200   1.209   5.475
 7498SOL    HW223394   2.361   1.183   5.460
 7499SOL     OW23395   4.977   1.237   3.532
 7499SOL    HW123396   4.926   1.321   3.512
 7499SOL    HW223397   4.919   1.174   3.584
 7500SOL     OW23398   3.718   5.794   4.184
 7500SOL    HW123399   3.752   5.872   4.237
 7500SOL    HW223400   3.792   5.728   4.170
 7501SOL     OW23401   6.577   4.803   4.318
 7501SOL    HW123402   6.597   4.899   4.300
 7501SOL    HW223403   6.498   4.796   4.379
 7502SOL     OW23404   1.334   0.332   4.808
 7502SOL    HW123405   1.414   0.311   4.751
 7502SOL    HW223406   1.358   0.403   4.875
 7503SOL     OW23407   2.236   1.418   0.656
 7503SOL    HW123408   2.282   1.335   0.688
 7503SOL    HW223409   2.195   1.465   0.734
 7504SOL     OW23410   2.320   0.292   3.184
 7504SOL    HW123411   2.283   0.205   3.217
 7504SOL    HW223412   2.330   0.288   3.084
 7505SOL     OW23413   2.361   2.081   5.586
 7505SOL    HW123414   2.266   2.050   5.589
 7505SOL    HW223415   2.411   2.028   5.517
 7506SOL     OW23416   4.731   6.322   2.867
 7506SOL    HW123417   4.750   6.419   2.880
 7506SOL    HW223418   4.726   6.302   2.769
 7507SOL     OW23419   0.577   0.719   1.881
 7507SOL    HW123420   0.658   0.750   1.930
 7507SOL    HW223421   0.561   0.622   1.900
 7508SOL     OW23422   6.774   6.766   1.789
 7508SOL    HW123423   6.808   6.731   1.702
 7508SOL    HW223424   6.840   6.745   1.861
 7509SOL     OW23425   5.737   4.411   1.253
 7509SOL    HW123426   5.829   4.435   1.222
 7509SOL    HW223427   5.742   4.333   1.315
 7510SOL     OW23428   2.736   4.501   5.343
 7510SOL    HW123429   2.829   4.502   5.307
 7510SOL    HW223430   2.678   4.559   5.287
 7511SOL     OW23431   1.811   6.960   3.448
 7511SOL    HW123432   1.756   6.894   3.397
 7511SOL    HW223433   1.818   6.931   3.544
 7512SOL     OW23434   3.338   4.902   6.593
 7512SOL    HW123435   3.261   4.896   6.529
 7512SOL    HW223436   3.423   4.883   6.544
 7513SOL     OW23437   2.095   1.722   1.524
 7513SOL    HW123438   2.148   1.757   1.601
 7513SOL    HW223439   2.156   1.705   1.447
 7514SOL     OW23440   2.332   5.511   1.747
 7514SOL    HW123441   2.429   5.513   1.721
 7514SOL    HW223442   2.320   5.554   1.837
 7515SOL     OW23443   0.285   5.360   2.142
 7515SOL    HW123444   0.214   5.400   2.199
 7515SOL    HW223445   0.322   5.429   2.080
 7516SOL     OW23446   6.251   5.806   4.295
 7516SOL    HW123447   6.259   5.851   4.384
 7516SOL    HW223448   6.169   5.839   4.248
 7517SOL     OW23449   6.917   3.334   1.293
 7517SOL    HW123450   6.883   3.335   1.199
 7517SOL    HW223451   6.847   3.296   1.353
 7518SOL     OW23452   4.269   5.215   3.247
 7518SOL    HW123453   4.323   5.285   3.293
 7518SOL    HW223454   4.175   5.247   3.234
 7519SOL     OW23455   0.374   6.997   4.225
 7519SOL    HW123456   0.400   0.027   4.142
 7519SOL    HW223457   0.352   0.042   4.297
 7520SOL     OW23458   3.178   6.644   1.662
 7520SOL    HW123459   3.098   6.650   1.602
 7520SOL    HW223460   3.212   6.735   1.681
 7521SOL     OW23461   4.577   4.700   6.040
 7521SOL    HW123462   4.534   4.628   6.095
 7521SOL    HW223463   4.510   4.771   6.022
 7522SOL     OW23464   2.724   6.401   6.275
 7522SOL    HW123465   2.801   6.338   6.267
 7522SOL    HW223466   2.731   6.453   6.360
 7523SOL     OW23467   5.672   0.729   6.339
 7523SOL    HW123468   5.730   0.712   6.419
 7523SOL    HW223469   5.632   0.820   6.346
 7524SOL     OW23470   2.171   2.188   6.686
 7524SOL    HW123471   2.104   2.176   6.613
 7524SOL    HW223472   2.146   2.130   6.764
 7525SOL     OW23473   2.649   0.467   6.730
 7525SOL    HW123474   2.597   0.534   6.783
 7525SOL    HW223475   2.695   0.403   6.792
 7526SOL     OW23476   3.287   3.367   2.171
 7526SOL    HW123477   3.278   3.438   2.101
 7526SOL    HW223478   3.205   3.366   2.228
 7527SOL     OW23479   4.264   5.921   3.077
 7527SOL    HW123480   4.188   5.935   3.141
 7527SOL    HW223481   4.229   5.879   2.993
 7528SOL     OW23482   4.695   1.960   6.792
 7528SOL    HW123483   4.703   1.868   6.754
 7528SOL    HW223484   4.620   2.008   6.746
 7529SOL     OW23485   6.063   0.441   4.653
 7529SOL    HW123486   5.987   0.399   4.702
 7529SOL    HW223487   6.028   0.511   4.590
 7530SOL     OW23488   6.995   4.117   1.964
 7530SOL    HW123489   6.971   4.030   1.921
 7530SOL    HW223490   0.000   4.101   2.060
 7531SOL     OW23491   4.554   2.115   3.890
 7531SOL    HW123492   4.645   2.091   3.923
 7531SOL    HW223493   4.562   2.182   3.815
 7532SOL     OW23494   5.462   5.144   1.651
 7532SOL    HW123495   5.544   5.176   1.697
 7532SOL    HW223496   5.386   5.141   1.716
 7533SOL     OW23497   2.786   1.512   2.596
 7533SOL    HW123498   2.823   1.473   2.681
 7533SOL    HW223499   2.763   1.438   2.533
 7534SOL     OW23500   4.081   6.614   6.009
 7534SOL    HW123501   4.143   6.581   6.081
 7534SOL    HW223502   4.128   6.612   5.921
 7535SOL     OW23503   3.141   0.347   5.925
 7535SOL    HW123504   3.094   0.330   6.012
 7535SOL    HW223505   3.103   0.429   5.882
 7536SOL     OW23506   5.370   5.291   5.277
 7536SOL    HW123507   5.440   5.221   5.266
 7536SOL    HW223508   5.280   5.248   5.279
 7537SOL     OW23509   2.638   5.336   3.367
 7537SOL    HW123510   2.568   5.348   3.296
 7537SOL    HW223511   2.609   5.263   3.429
 7538SOL     OW23512   3.630   3.372   2.138
 7538SOL    HW123513   3.566   3.296   2.151
 7538SOL    HW223514   3.701   3.345   2.073
 7539SOL     OW23515   2.038   2.601   3.948
 7539SOL    HW123516   2.036   2.537   3.871
 7539SOL    HW223517   1.997   2.688   3.921
 7540SOL     OW23518   3.266   6.505   5.657
 7540SOL    HW123519   3.231   6.419   5.620
 7540SOL    HW223520   3.366   6.508   5.646
 7541SOL     OW23521   6.938   4.533   4.183
 7541SOL    HW123522   7.011   4.582   4.231
 7541SOL    HW223523   6.872   4.498   4.249
 7542SOL     OW23524   0.754   5.464   6.964
 7542SOL    HW123525   0.802   5.517   6.895
 7542SOL    HW223526   0.655   5.466   6.945
 7543SOL     OW23527   3.891   1.808   1.132
 7543SOL    HW123528   3.819   1.872   1.159
 7543SOL    HW223529   3.924   1.760   1.214
 7544SOL     OW23530   0.571   2.499   3.099
 7544SOL    HW123531   0.512   2.492   3.018
 7544SOL    HW223532   0.604   2.408   3.123
 7545SOL     OW23533   5.976   6.216   2.520
 7545SOL    HW123534   6.047   6.236   2.588
 7545SOL    HW223535   5.946   6.302   2.477
 7546SOL     OW23536   3.538   0.616   2.223
 7546SOL    HW123537   3.542   0.569   2.311
 7546SOL    HW223538   3.557   0.552   2.149
 7547SOL     OW23539   4.630   0.230   0.360
 7547SOL    HW123540   4.594   0.138   0.340
 7547SOL    HW223541   4.688   0.259   0.284
 7548SOL     OW23542   3.632   2.020   0.407
 7548SOL    HW123543   3.603   2.014   0.312
 7548SOL    HW223544   3.719   1.972   0.418
 7549SOL     OW23545   5.572   2.023   0.822
 7549SOL    HW123546   5.548   1.933   0.859
 7549SOL    HW223547   5.505   2.049   0.752
 7550SOL     OW23548   2.457   4.580   2.250
 7550SOL    HW123549   2.367   4.593   2.291
 7550SOL    HW223550   2.455   4.500   2.189
 7551SOL     OW23551   4.890   3.802   6.392
 7551SOL    HW123552   4.901   3.736   6.318
 7551SOL    HW223553   4.865   3.754   6.476
 7552SOL     OW23554   1.818   5.949   3.014
 7552SOL    HW123555   1.880   5.973   3.089
 7552SOL    HW223556   1.791   6.032   2.965
 7553SOL     OW23557   4.399   5.099   5.421
 7553SOL    HW123558   4.456   5.176   5.451
 7553SOL    HW223559   4.335   5.131   5.351
 7554SOL     OW23560   4.385   0.861   1.553
 7554SOL    HW123561   4.441   0.816   1.483
 7554SOL    HW223562   4.347   0.946   1.517
 7555SOL     OW23563   1.936   4.837   5.270
 7555SOL    HW123564   1.992   4.854   5.351
 7555SOL    HW223565   1.936   4.739   5.250
 7556SOL     OW23566   0.958   2.896   5.758
 7556SOL    HW123567   1.005   2.984   5.755
 7556SOL    HW223568   0.860   2.910   5.765
 7557SOL     OW23569   5.208   2.482   5.813
 7557SOL    HW123570   5.231   2.392   5.776
 7557SOL    HW223571   5.237   2.487   5.908
 7558SOL     OW23572   2.161   2.646   4.183
 7558SOL    HW123573   2.095   2.706   4.230
 7558SOL    HW223574   2.123   2.617   4.096
 7559SOL     OW23575   6.398   4.883   0.027
 7559SOL    HW123576   6.315   4.857   6.997
 7559SOL    HW223577   6.477   4.878   6.986
 7560SOL     OW23578   5.428   6.546   0.961
 7560SOL    HW123579   5.457   6.450   0.962
 7560SOL    HW223580   5.359   6.559   0.891
 7561SOL     OW23581   0.823   3.421   6.730
 7561SOL    HW123582   0.761   3.492   6.764
 7561SOL    HW223583   0.874   3.382   6.807
 7562SOL     OW23584   6.027   6.012   5.243
 7562SOL    HW123585   6.034   5.925   5.293
 7562SOL    HW223586   6.084   6.008   5.161
 7563SOL     OW23587   2.645   6.059   0.950
 7563SOL    HW123588   2.706   5.980   0.960
 7563SOL    HW223589   2.567   6.034   0.893
 7564SOL     OW23590   5.078   1.306   2.942
 7564SOL    HW123591   5.123   1.376   2.998
 7564SOL    HW223592   5.001   1.347   2.893
 7565SOL     OW23593   5.305   4.197   0.123
 7565SOL    HW123594   5.362   4.130   0.076
 7565SOL    HW223595   5.328   4.198   0.220
 7566SOL     OW23596   6.978   5.283   3.985
 7566SOL    HW123597   7.015   5.192   3.966
 7566SOL    HW223598   6.976   5.299   4.084
 7567SOL     OW23599   1.866   1.989   5.123
 7567SOL    HW123600   1.861   1.932   5.205
 7567SOL    HW223601   1.934   1.951   5.060
 7568SOL     OW23602   5.496   6.050   3.216
 7568SOL    HW123603   5.544   5.975   3.259
 7568SOL    HW223604   5.546   6.081   3.136
 7569SOL     OW23605   4.083   5.110   6.352
 7569SOL    HW123606   3.996   5.129   6.307
 7569SOL    HW223607   4.115   5.019   6.325
 7570SOL     OW23608   5.488   5.025   5.300
 7570SOL    HW123609   5.403   4.987   5.265
 7570SOL    HW223610   5.482   5.034   5.400
 7571SOL     OW23611   4.378   5.806   3.575
 7571SOL    HW123612   4.296   5.790   3.520
 7571SOL    HW223613   4.443   5.733   3.559
 7572SOL     OW23614   4.165   1.221   2.610
 7572SOL    HW123615   4.234   1.256   2.547
 7572SOL    HW223616   4.209   1.169   2.683
 7573SOL     OW23617   6.579   6.808   4.906
 7573SOL    HW123618   6.642   6.834   4.979
 7573SOL    HW223619   6.628   6.757   4.836
 7574SOL     OW23620   6.429   1.136   4.606
 7574SOL    HW123621   6.433   1.036   4.614
 7574SOL    HW223622   6.491   1.177   4.673
 7575SOL     OW23623   4.090   0.750   5.872
 7575SOL    HW123624   4.024   0.815   5.834
 7575SOL    HW223625   4.048   0.659   5.876
 7576SOL     OW23626   5.957   4.864   0.476
 7576SOL    HW123627   5.991   4.822   0.561
 7576SOL    HW223628   5.869   4.907   0.493
 7577SOL     OW23629   6.932   6.439   5.937
 7577SOL    HW123630   6.887   6.382   5.868
 7577SOL    HW223631   6.962   6.525   5.894
 7578SOL     OW23632   2.953   5.888   2.555
 7578SOL    HW123633   2.984   5.806   2.507
 7578SOL    HW223634   2.885   5.936   2.500
 7579SOL     OW23635   5.786   2.344   2.045
 7579SOL    HW123636   5.723   2.282   1.998
 7579SOL    HW223637   5.747   2.436   2.048
 7580SOL     OW23638   1.648   4.284   4.131
 7580SOL    HW123639   1.733   4.244   4.097
 7580SOL    HW223640   1.591   4.212   4.170
 7581SOL     OW23641   7.015   0.238   1.309
 7581SOL    HW123642   0.028   0.239   1.214
 7581SOL    HW223643   6.967   0.153   1.326
 7582SOL     OW23644   2.552   0.609   0.193
 7582SOL    HW123645   2.617   0.624   0.118
 7582SOL    HW223646   2.594   0.633   0.280
 7583SOL     OW23647   6.346   2.975   0.783
 7583SOL    HW123648   6.393   3.044   0.838
 7583SOL    HW223649   6.278   2.928   0.839
 7584SOL     OW23650   2.451   6.692   1.109
 7584SOL    HW123651   2.438   6.626   1.036
 7584SOL    HW223652   2.538   6.741   1.095
 7585SOL     OW23653   2.123   2.828   5.772
 7585SOL    HW123654   2.199   2.784   5.724
 7585SOL    HW223655   2.086   2.902   5.716
 7586SOL     OW23656   3.474   0.720   3.640
 7586SOL    HW123657   3.403   0.744   3.707
 7586SOL    HW223658   3.549   0.673   3.687
 7587SOL     OW23659   2.818   2.102   6.605
 7587SOL    HW123660   2.777   2.048   6.531
 7587SOL    HW223661   2.821   2.199   6.578
 7588SOL     OW23662   1.203   3.137   2.892
 7588SOL    HW123663   1.252   3.165   2.809
 7588SOL    HW223664   1.234   3.194   2.968
 7589SOL     OW23665   6.938   0.006   2.043
 7589SOL    HW123666   6.978   0.019   1.952
 7589SOL    HW223667   6.845   0.045   2.044
 7590SOL     OW23668   4.559   2.192   6.643
 7590SOL    HW123669   4.619   2.270   6.661
 7590SOL    HW223670   4.477   2.200   6.698
 7591SOL     OW23671   0.020   4.362   0.261
 7591SOL    HW123672   0.004   4.426   0.186
 7591SOL    HW223673   6.978   4.284   0.253
 7592SOL     OW23674   6.319   4.012   6.527
 7592SOL    HW123675   6.276   4.019   6.437
 7592SOL    HW223676   6.406   3.962   6.519
 7593SOL     OW23677   5.523   2.517   1.201
 7593SOL    HW123678   5.549   2.605   1.242
 7593SOL    HW223679   5.439   2.528   1.149
 7594SOL     OW23680   0.463   4.918   1.859
 7594SOL    HW123681   0.382   4.888   1.909
 7594SOL    HW223682   0.438   4.991   1.795
 7595SOL     OW23683   6.999   2.884   6.050
 7595SOL    HW123684   0.032   2.836   6.120
 7595SOL    HW223685   0.009   2.979   6.045
 7596SOL     OW23686   4.959   5.972   3.665
 7596SOL    HW123687   5.021   5.993   3.590
 7596SOL    HW223688   5.012   5.940   3.744
 7597SOL     OW23689   3.202   6.017   2.582
 7597SOL    HW123690   3.208   6.099   2.526
 7597SOL    HW223691   3.112   5.975   2.570
 7598SOL     OW23692   6.995   1.409   3.804
 7598SOL    HW123693   0.027   1.346   3.746
 7598SOL    HW223694   6.959   1.483   3.748
 7599SOL     OW23695   5.429   1.875   2.590
 7599SOL    HW123696   5.355   1.877   2.657
 7599SOL    HW223697   5.506   1.822   2.626
 7600SOL     OW23698   1.438   1.465   2.779
 7600SOL    HW123699   1.456   1.554   2.823
 7600SOL    HW223700   1.444   1.476   2.680
 7601SOL     OW23701   1.921   5.252   2.717
 7601SOL    HW123702   1.960   5.335   2.756
 7601SOL    HW223703   1.916   5.261   2.617
 7602SOL     OW23704   0.622   4.614   0.102
 7602SOL    HW123705   0.653   4.561   0.023
 7602SOL    HW223706   0.701   4.652   0.150
 7603SOL     OW23707   1.815   5.153   5.766
 7603SOL    HW123708   1.850   5.228   5.822
 7603SOL    HW223709   1.876   5.074   5.772
 7604SOL     OW23710   1.548   4.746   4.485
 7604SOL    HW123711   1.515   4.839   4.470
 7604SOL    HW223712   1.476   4.681   4.462
 7605SOL     OW23713   0.556   6.973   0.725
 7605SOL    HW123714   0.598   0.042   0.710
 7605SOL    HW223715   0.467   6.969   0.678
 7606SOL     OW23716   6.671   3.480   3.751
 7606SOL    HW123717   6.648   3.507   3.657
 7606SOL    HW223718   6.766   3.502   3.770
 7607SOL     OW23719   4.605   5.136   0.521
 7607SOL    HW123720   4.656   5.187   0.591
 7607SOL    HW223721   4.626   5.175   0.431
 7608SOL     OW23722   3.299   3.740   3.378
 7608SOL    HW123723   3.365   3.748   3.303
 7608SOL    HW223724   3.329   3.798   3.454
 7609SOL     OW23725   0.493   3.736   3.988
 7609SOL    HW123726   0.518   3.737   4.084
 7609SOL    HW223727   0.411   3.792   3.974
 7610SOL     OW23728   5.730   6.182   0.351
 7610SOL    HW123729   5.724   6.103   0.413
 7610SOL    HW223730   5.822   6.186   0.311
 7611SOL     OW23731   0.433   1.699   6.862
 7611SOL    HW123732   0.453   1.707   6.764
 7611SOL    HW223733   0.457   1.784   6.908
 7612SOL     OW23734   5.080   3.203   5.178
 7612SOL    HW123735   5.003   3.199   5.114
 7612SOL    HW223736   5.051   3.248   5.262
 7613SOL     OW23737   6.054   3.174   1.139
 7613SOL    HW123738   6.004   3.135   1.062
 7613SOL    HW223739   6.067   3.103   1.209
 7614SOL     OW23740   5.114   3.752   0.886
 7614SOL    HW123741   5.066   3.742   0.973
 7614SOL    HW223742   5.155   3.844   0.881
 7615SOL     OW23743   4.422   3.720   5.974
 7615SOL    HW123744   4.465   3.806   5.949
 7615SOL    HW223745   4.323   3.726   5.957
 7616SOL     OW23746   6.197   4.732   5.393
 7616SOL    HW123747   6.248   4.698   5.314
 7616SOL    HW223748   6.157   4.821   5.370
 7617SOL     OW23749   3.874   5.535   2.548
 7617SOL    HW123750   3.822   5.463   2.594
 7617SOL    HW223751   3.971   5.509   2.546
 7618SOL     OW23752   0.475   1.577   5.859
 7618SOL    HW123753   0.439   1.623   5.778
 7618SOL    HW223754   0.574   1.566   5.850
 7619SOL     OW23755   5.726   3.238   5.461
 7619SOL    HW123756   5.689   3.150   5.492
 7619SOL    HW223757   5.714   3.306   5.533
 7620SOL     OW23758   4.069   5.364   0.375
 7620SOL    HW123759   3.986   5.342   0.324
 7620SOL    HW223760   4.143   5.385   0.310
 7621SOL     OW23761   0.021   1.854   0.405
 7621SOL    HW123762   0.105   1.849   0.458
 7621SOL    HW223763   0.036   1.817   0.314
 7622SOL     OW23764   5.306   5.463   1.711
 7622SOL    HW123765   5.274   5.370   1.728
 7622SOL    HW223766   5.390   5.480   1.763
 7623SOL     OW23767   4.412   3.572   6.700
 7623SOL    HW123768   4.426   3.542   6.606
 7623SOL    HW223769   4.391   3.493   6.758
 7624SOL     OW23770   0.170   2.878   4.861
 7624SOL    HW123771   0.140   2.919   4.775
 7624SOL    HW223772   0.263   2.908   4.881
 7625SOL     OW23773   4.981   0.915   1.171
 7625SOL    HW123774   4.983   0.889   1.074
 7625SOL    HW223775   5.066   0.884   1.215
 7626SOL     OW23776   5.920   6.869   4.325
 7626SOL    HW123777   5.995   6.812   4.357
 7626SOL    HW223778   5.834   6.835   4.363
 7627SOL     OW23779   5.541   2.698   6.592
 7627SOL    HW123780   5.596   2.724   6.512
 7627SOL    HW223781   5.587   2.729   6.675
 7628SOL     OW23782   4.071   6.979   2.662
 7628SOL    HW123783   4.045   6.884   2.645
 7628SOL    HW223784   4.051   0.014   2.580
 7629SOL     OW23785   6.736   0.172   2.823
 7629SOL    HW123786   6.752   0.250   2.883
 7629SOL    HW223787   6.813   0.108   2.830
 7630SOL     OW23788   6.470   0.340   1.812
 7630SOL    HW123789   6.421   0.278   1.751
 7630SOL    HW223790   6.566   0.314   1.818
 7631SOL     OW23791   0.842   0.650   6.057
 7631SOL    HW123792   0.837   0.611   6.149
 7631SOL    HW223793   0.779   0.728   6.051
 7632SOL     OW23794   3.582   2.579   1.700
 7632SOL    HW123795   3.516   2.635   1.751
 7632SOL    HW223796   3.613   2.503   1.757
 7633SOL     OW23797   5.296   1.295   1.066
 7633SOL    HW123798   5.306   1.341   1.154
 7633SOL    HW223799   5.367   1.226   1.056
 7634SOL     OW23800   0.812   1.796   2.851
 7634SOL    HW123801   0.721   1.787   2.891
 7634SOL    HW223802   0.848   1.887   2.872
 7635SOL     OW23803   3.243   5.377   5.066
 7635SOL    HW123804   3.271   5.471   5.047
 7635SOL    HW223805   3.277   5.317   4.994
 7636SOL     OW23806   1.312   2.457   4.146
 7636SOL    HW123807   1.220   2.419   4.156
 7636SOL    HW223808   1.306   2.557   4.140
 7637SOL     OW23809   2.378   5.063   1.969
 7637SOL    HW123810   2.303   5.004   1.997
 7637SOL    HW223811   2.453   5.007   1.933
 7638SOL     OW23812   3.974   6.370   0.731
 7638SOL    HW123813   3.994   6.324   0.645
 7638SOL    HW223814   3.892   6.329   0.772
 7639SOL     OW23815   1.075   2.127   0.325
 7639SOL    HW123816   0.983   2.089   0.312
 7639SOL    HW223817   1.126   2.117   0.239
 7640SOL     OW23818   3.340   1.897   6.487
 7640SOL    HW123819   3.266   1.960   6.464
 7640SOL    HW223820   3.305   1.823   6.545
 7641SOL     OW23821   1.307   4.286   1.487
 7641SOL    HW123822   1.380   4.229   1.450
 7641SOL    HW223823   1.269   4.242   1.569
 7642SOL     OW23824   3.864   0.558   3.123
 7642SOL    HW123825   3.923   0.639   3.125
 7642SOL    HW223826   3.768   0.586   3.121
 7643SOL     OW23827   4.891   3.187   4.336
 7643SOL    HW123828   4.984   3.168   4.303
 7643SOL    HW223829   4.833   3.107   4.318
 7644SOL     OW23830   5.833   2.632   2.381
 7644SOL    HW123831   5.788   2.611   2.467
 7644SOL    HW223832   5.784   2.589   2.306
 7645SOL     OW23833   3.913   4.044   5.598
 7645SOL    HW123834   3.955   4.046   5.689
 7645SOL    HW223835   3.984   4.061   5.529
 7646SOL     OW23836   1.651   3.125   2.663
 7646SOL    HW123837   1.711   3.106   2.585
 7646SOL    HW223838   1.589   3.048   2.677
 7647SOL     OW23839   6.374   3.773   2.058
 7647SOL    HW123840   6.448   3.733   2.112
 7647SOL    HW223841   6.389   3.871   2.048
 7648SOL     OW23842   3.274   1.737   3.667
 7648SOL    HW123843   3.322   1.667   3.614
 7648SOL    HW223844   3.318   1.826   3.653
 7649SOL     OW23845   0.635   0.573   3.127
 7649SOL    HW123846   0.606   0.482   3.155
 7649SOL    HW223847   0.672   0.622   3.206
 7650SOL     OW23848   4.610   2.946   1.415
 7650SOL    HW123849   4.581   2.950   1.511
 7650SOL    HW223850   4.545   2.890   1.364
 7651SOL     OW23851   2.607   0.663   4.476
 7651SOL    HW123852   2.524   0.693   4.431
 7651SOL    HW223853   2.667   0.741   4.493
 7652SOL     OW23854   6.764   3.690   4.405
 7652SOL    HW123855   6.671   3.662   4.428
 7652SOL    HW223856   6.827   3.615   4.426
 7653SOL     OW23857   2.661   1.895   0.013
 7653SOL    HW123858   2.692   1.806   0.045
 7653SOL    HW223859   2.676   1.903   6.934
 7654SOL     OW23860   5.040   2.828   3.486
 7654SOL    HW123861   5.004   2.802   3.576
 7654SOL    HW223862   4.975   2.890   3.441
 7655SOL     OW23863   4.080   0.354   3.433
 7655SOL    HW123864   4.003   0.357   3.498
 7655SOL    HW223865   4.107   0.259   3.419
 7656SOL     OW23866   1.948   5.559   6.139
 7656SOL    HW123867   2.041   5.591   6.159
 7656SOL    HW223868   1.907   5.618   6.070
 7657SOL     OW23869   2.229   2.719   3.603
 7657SOL    HW123870   2.273   2.716   3.693
 7657SOL    HW223871   2.158   2.790   3.603
 7658SOL     OW23872   3.264   7.018   5.623
 7658SOL    HW123873   3.309   0.035   5.541
 7658SOL    HW223874   3.208   0.070   5.665
 7659SOL     OW23875   6.082   5.092   0.342
 7659SOL    HW123876   6.025   5.029   0.393
 7659SOL    HW223877   6.114   5.165   0.403
 7660SOL     OW23878   0.692   6.269   3.775
 7660SOL    HW123879   0.635   6.347   3.802
 7660SOL    HW223880   0.636   6.186   3.771
 7661SOL     OW23881   6.366   2.491   4.048
 7661SOL    HW123882   6.373   2.461   3.952
 7661SOL    HW223883   6.288   2.553   4.057
 7662SOL     OW23884   0.795   3.023   2.935
 7662SOL    HW123885   0.867   3.090   2.917
 7662SOL    HW223886   0.802   2.992   3.030
 7663SOL     OW23887   1.442   6.009   5.427
 7663SOL    HW123888   1.535   5.991   5.460
 7663SOL    HW223889   1.424   5.955   5.345
 7664SOL     OW23890   3.503   0.322   1.742
 7664SOL    HW123891   3.498   0.261   1.821
 7664SOL    HW223892   3.533   0.412   1.772
 7665SOL     OW23893   4.386   0.342   5.005
 7665SOL    HW123894   4.414   0.370   4.913
 7665SOL    HW223895   4.446   0.386   5.072
 7666SOL     OW23896   0.535   6.449   1.775
 7666SOL    HW123897   0.619   6.426   1.727
 7666SOL    HW223898   0.457   6.409   1.728
 7667SOL     OW23899   4.744   5.166   2.208
 7667SOL    HW123900   4.739   5.238   2.139
 7667SOL    HW223901   4.692   5.086   2.176
 7668SOL     OW23902   3.117   4.627   0.965
 7668SOL    HW123903   3.155   4.546   0.923
 7668SOL    HW223904   3.019   4.632   0.945
 7669SOL     OW23905   5.594   1.864   5.468
 7669SOL    HW123906   5.509   1.813   5.480
 7669SOL    HW223907   5.595   1.944   5.527
 7670SOL     OW23908   0.698   5.052   6.682
 7670SOL    HW123909   0.602   5.050   6.711
 7670SOL    HW223910   0.727   4.960   6.655
 7671SOL     OW23911   4.148   1.200   3.270
 7671SOL    HW123912   4.203   1.133   3.220
 7671SOL    HW223913   4.055   1.166   3.279
 7672SOL     OW23914   6.504   6.438   2.967
 7672SOL    HW123915   6.558   6.512   2.929
 7672SOL    HW223916   6.556   6.353   2.964
 7673SOL     OW23917   1.503   5.590   0.297
 7673SOL    HW123918   1.516   5.539   0.212
 7673SOL    HW223919   1.546   5.540   0.372
 7674SOL     OW23920   5.459   1.759   3.790
 7674SOL    HW123921   5.431   1.834   3.730
 7674SOL    HW223922   5.500   1.796   3.874
 7675SOL     OW23923   5.979   6.862   2.390
 7675SOL    HW123924   5.986   6.811   2.476
 7675SOL    HW223925   6.048   6.829   2.326
 7676SOL     OW23926   2.098   2.580   0.526
 7676SOL    HW123927   2.111   2.487   0.491
 7676SOL    HW223928   2.001   2.595   0.544
 7677SOL     OW23929   0.737   4.441   1.850
 7677SOL    HW123930   0.744   4.451   1.949
 7677SOL    HW223931   0.775   4.523   1.806
 7678SOL     OW23932   2.256   1.592   4.775
 7678SOL    HW123933   2.171   1.633   4.740
 7678SOL    HW223934   2.269   1.618   4.870
 7679SOL     OW23935   3.062   5.625   6.272
 7679SOL    HW123936   3.015   5.537   6.278
 7679SOL    HW223937   3.048   5.676   6.357
 7680SOL     OW23938   1.772   1.850   0.653
 7680SOL    HW123939   1.852   1.822   0.706
 7680SOL    HW223940   1.738   1.937   0.689
 7681SOL     OW23941   2.504   6.957   0.542
 7681SOL    HW123942   2.571   0.009   0.557
 7681SOL    HW223943   2.509   6.926   0.447
 7682SOL     OW23944   2.891   6.950   2.355
 7682SOL    HW123945   2.911   0.011   2.300
 7682SOL    HW223946   2.877   6.976   2.450
 7683SOL     OW23947   6.487   1.620   3.491
 7683SOL    HW123948   6.481   1.556   3.567
 7683SOL    HW223949   6.581   1.622   3.456
 7684SOL     OW23950   4.036   2.184   2.335
 7684SOL    HW123951   4.059   2.090   2.359
 7684SOL    HW223952   3.988   2.186   2.248
 7685SOL     OW23953   3.573   2.251   0.094
 7685SOL    HW123954   3.513   2.262   0.014
 7685SOL    HW223955   3.661   2.295   0.075
 7686SOL     OW23956   6.298   0.022   3.040
 7686SOL    HW123957   6.386   0.066   3.059
 7686SOL    HW223958   6.296   7.009   2.945
 7687SOL     OW23959   5.736   4.721   4.249
 7687SOL    HW123960   5.660   4.697   4.309
 7687SOL    HW223961   5.813   4.659   4.266
 7688SOL     OW23962   0.597   6.099   5.553
 7688SOL    HW123963   0.659   6.149   5.614
 7688SOL    HW223964   0.643   6.080   5.467
 7689SOL     OW23965   5.630   6.184   3.018
 7689SOL    HW123966   5.652   6.167   2.922
 7689SOL    HW223967   5.692   6.253   3.055
 7690SOL     OW23968   6.120   5.092   0.817
 7690SOL    HW123969   6.100   5.186   0.792
 7690SOL    HW223970   6.217   5.073   0.802
 7691SOL     OW23971   5.175   2.643   4.848
 7691SOL    HW123972   5.262   2.596   4.835
 7691SOL    HW223973   5.191   2.735   4.882
 7692SOL     OW23974   0.549   6.202   2.193
 7692SOL    HW123975   0.537   6.103   2.195
 7692SOL    HW223976   0.626   6.225   2.134
 7693SOL     OW23977   3.800   0.280   0.947
 7693SOL    HW123978   3.836   0.216   1.015
 7693SOL    HW223979   3.701   0.267   0.938
 7694SOL     OW23980   0.064   4.989   5.024
 7694SOL    HW123981   0.074   4.890   5.024
 7694SOL    HW223982   7.008   5.016   5.083
 7695SOL     OW23983   4.169   6.374   0.926
 7695SOL    HW123984   4.187   6.284   0.888
 7695SOL    HW223985   4.097   6.419   0.872
 7696SOL     OW23986   0.012   1.704   4.779
 7696SOL    HW123987   0.038   1.732   4.686
 7696SOL    HW223988   6.934   1.684   4.782
 7697SOL     OW23989   2.969   6.379   2.092
 7697SOL    HW123990   3.023   6.445   2.145
 7697SOL    HW223991   2.945   6.419   2.003
 7698SOL     OW23992   6.654   1.965   3.177
 7698SOL    HW123993   6.632   2.042   3.117
 7698SOL    HW223994   6.572   1.940   3.230
 7699SOL     OW23995   3.846   5.795   6.717
 7699SOL    HW123996   3.816   5.753   6.631
 7699SOL    HW223997   3.820   5.892   6.717
 7700SOL     OW23998   5.187   6.107   4.558
 7700SOL    HW123999   5.134   6.090   4.641
 7700SOL    HW224000   5.126   6.136   4.484
 7701SOL     OW24001   6.888   1.356   0.288
 7701SOL    HW124002   6.925   1.318   0.203
 7701SOL    HW224003   6.953   1.422   0.326
 7702SOL     OW24004   3.439   6.247   6.090
 7702SOL    HW124005   3.405   6.311   6.159
 7702SOL    HW224006   3.402   6.272   6.000
 7703SOL     OW24007   6.343   0.481   5.621
 7703SOL    HW124008   6.382   0.534   5.546
 7703SOL    HW224009   6.278   0.538   5.671
 7704SOL     OW24010   5.019   5.321   5.528
 7704SOL    HW124011   5.044   5.252   5.460
 7704SOL    HW224012   5.061   5.408   5.504
 7705SOL     OW24013   3.640   5.589   5.701
 7705SOL    HW124014   3.603   5.682   5.710
 7705SOL    HW224015   3.727   5.594   5.651
 7706SOL     OW24016   4.317   3.059   5.441
 7706SOL    HW124017   4.320   3.141   5.497
 7706SOL    HW224018   4.222   3.041   5.413
 7707SOL     OW24019   0.548   5.858   6.314
 7707SOL    HW124020   0.580   5.767   6.341
 7707SOL    HW224021   0.600   5.927   6.363
 7708SOL     OW24022   6.148   0.226   6.103
 7708SOL    HW124023   6.206   0.285   6.160
 7708SOL    HW224024   6.193   0.208   6.016
 7709SOL     OW24025   5.342   4.574   1.682
 7709SOL    HW124026   5.280   4.496   1.690
 7709SOL    HW224027   5.382   4.575   1.590
 7710SOL     OW24028   2.937   0.530   0.621
 7710SOL    HW124029   2.847   0.574   0.620
 7710SOL    HW224030   2.998   0.580   0.682
 7711SOL     OW24031   6.600   6.086   5.186
 7711SOL    HW124032   6.618   6.163   5.248
 7711SOL    HW224033   6.686   6.053   5.148
 7712SOL     OW24034   5.095   5.904   2.721
 7712SOL    HW124035   5.161   5.880   2.649
 7712SOL    HW224036   5.026   5.965   2.683
 7713SOL     OW24037   1.628   4.567   0.575
 7713SOL    HW124038   1.534   4.584   0.546
 7713SOL    HW224039   1.678   4.653   0.577
 7714SOL     OW24040   6.361   4.073   5.626
 7714SOL    HW124041   6.396   4.167   5.620
 7714SOL    HW224042   6.386   4.023   5.543
 7715SOL     OW24043   3.745   2.044   6.659
 7715SOL    HW124044   3.684   1.984   6.710
 7715SOL    HW224045   3.815   1.990   6.613
 7716SOL     OW24046   6.443   4.333   3.605
 7716SOL    HW124047   6.463   4.336   3.507
 7716SOL    HW224048   6.453   4.239   3.637
 7717SOL     OW24049   1.700   0.946   4.901
 7717SOL    HW124050   1.776   0.963   4.963
 7717SOL    HW224051   1.666   0.853   4.913
 7718SOL     OW24052   1.516   2.174   3.193
 7718SOL    HW124053   1.604   2.189   3.149
 7718SOL    HW224054   1.479   2.261   3.226
 7719SOL     OW24055   6.851   4.052   4.751
 7719SOL    HW124056   6.812   4.143   4.767
 7719SOL    HW224057   6.875   4.042   4.655
 7720SOL     OW24058   0.449   1.098   6.981
 7720SOL    HW124059   0.407   1.072   6.894
 7720SOL    HW224060   0.448   1.020   0.023
 7721SOL     OW24061   0.290   5.225   2.519
 7721SOL    HW124062   0.364   5.223   2.451
 7721SOL    HW224063   0.244   5.137   2.520
 7722SOL     OW24064   0.654   5.983   3.332
 7722SOL    HW124065   0.633   6.075   3.366
 7722SOL    HW224066   0.728   5.943   3.387
 7723SOL     OW24067   5.132   3.300   6.675
 7723SOL    HW124068   5.146   3.206   6.707
 7723SOL    HW224069   5.092   3.298   6.583
 7724SOL     OW24070   3.004   4.197   1.377
 7724SOL    HW124071   2.983   4.294   1.378
 7724SOL    HW224072   3.031   4.169   1.285
 7725SOL     OW24073   5.920   2.663   3.082
 7725SOL    HW124074   5.860   2.722   3.136
 7725SOL    HW224075   5.920   2.571   3.121
 7726SOL     OW24076   2.035   6.052   5.179
 7726SOL    HW124077   1.951   6.028   5.131
 7726SOL    HW224078   2.064   5.975   5.236
 7727SOL     OW24079   0.238   0.613   2.364
 7727SOL    HW124080   0.194   0.697   2.396
 7727SOL    HW224081   0.333   0.612   2.393
 7728SOL     OW24082   0.986   4.941   3.521
 7728SOL    HW124083   0.985   4.934   3.421
 7728SOL    HW224084   1.059   4.884   3.558
 7729SOL     OW24085   6.029   2.911   0.844
 7729SOL    HW124086   6.034   2.905   0.744
 7729SOL    HW224087   5.985   2.997   0.870
 7730SOL     OW24088   6.056   5.942   1.452
 7730SOL    HW124089   6.074   6.029   1.497
 7730SOL    HW224090   6.003   5.882   1.512
 7731SOL     OW24091   6.879   0.392   0.458
 7731SOL    HW124092   6.903   0.315   0.517
 7731SOL    HW224093   6.779   0.403   0.458
 7732SOL     OW24094   4.366   6.272   0.587
 7732SOL    HW124095   4.394   6.191   0.536
 7732SOL    HW224096   4.284   6.251   0.642
 7733SOL     OW24097   4.587   6.856   2.441
 7733SOL    HW124098   4.590   6.869   2.540
 7733SOL    HW224099   4.604   6.943   2.394
 7734SOL     OW24100   2.948   5.458   2.908
 7734SOL    HW124101   3.035   5.413   2.929
 7734SOL    HW224102   2.876   5.389   2.903
 7735SOL     OW24103   4.872   6.147   6.593
 7735SOL    HW124104   4.959   6.161   6.545
 7735SOL    HW224105   4.803   6.114   6.529
 7736SOL     OW24106   3.492   3.617   7.000
 7736SOL    HW124107   3.426   3.553   6.961
 7736SOL    HW224108   3.473   3.709   6.966
 7737SOL     OW24109   3.500   0.764   2.630
 7737SOL    HW124110   3.557   0.833   2.585
 7737SOL    HW224111   3.515   0.675   2.586
 7738SOL     OW24112   2.984   5.829   0.035
 7738SOL    HW124113   3.047   5.894   0.077
 7738SOL    HW224114   2.906   5.814   0.096
 7739SOL     OW24115   0.915   1.922   1.302
 7739SOL    HW124116   0.969   1.839   1.287
 7739SOL    HW224117   0.852   1.907   1.379
 7740SOL     OW24118   1.967   0.684   3.360
 7740SOL    HW124119   1.976   0.772   3.407
 7740SOL    HW224120   1.938   0.614   3.425
 7741SOL     OW24121   0.569   4.630   5.383
 7741SOL    HW124122   0.657   4.612   5.340
 7741SOL    HW224123   0.568   4.724   5.418
 7742SOL     OW24124   5.926   1.928   3.349
 7742SOL    HW124125   5.830   1.904   3.338
 7742SOL    HW224126   5.977   1.900   3.268
 7743SOL     OW24127   5.632   1.663   0.226
 7743SOL    HW124128   5.657   1.735   0.161
 7743SOL    HW224129   5.562   1.604   0.186
 7744SOL     OW24130   0.855   5.952   3.484
 7744SOL    HW124131   0.911   5.870   3.470
 7744SOL    HW224132   0.821   5.954   3.578
 7745SOL     OW24133   3.453   1.061   5.742
 7745SOL    HW124134   3.518   1.124   5.700
 7745SOL    HW224135   3.461   1.065   5.842
 7746SOL     OW24136   2.648   6.344   0.033
 7746SOL    HW124137   2.700   6.324   6.970
 7746SOL    HW224138   2.703   6.398   0.096
 7747SOL     OW24139   4.806   5.976   1.681
 7747SOL    HW124140   4.855   5.895   1.650
 7747SOL    HW224141   4.734   5.998   1.615
 7748SOL     OW24142   2.738   3.466   5.252
 7748SOL    HW124143   2.777   3.557   5.265
 7748SOL    HW224144   2.717   3.426   5.341
 7749SOL     OW24145   2.851   2.774   5.596
 7749SOL    HW124146   2.887   2.736   5.511
 7749SOL    HW224147   2.813   2.864   5.579
 7750SOL     OW24148   0.312   6.343   1.621
 7750SOL    HW124149   0.280   6.429   1.581
 7750SOL    HW224150   0.293   6.343   1.719
 7751SOL     OW24151   1.375   2.372   2.256
 7751SOL    HW124152   1.421   2.419   2.181
 7751SOL    HW224153   1.375   2.431   2.337
 7752SOL     OW24154   5.131   0.424   5.982
 7752SOL    HW124155   5.125   0.509   6.034
 7752SOL    HW224156   5.067   0.428   5.905
 7753SOL     OW24157   2.551   1.306   4.356
 7753SOL    HW124158   2.629   1.267   4.405
 7753SOL    HW224159   2.480   1.236   4.346
 7754SOL     OW24160   3.326   6.080   0.830
 7754SOL    HW124161   3.267   6.044   0.757
 7754SOL    HW224162   3.346   6.007   0.895
 7755SOL     OW24163   1.832   2.454   5.959
 7755SOL    HW124164   1.904   2.418   6.019
 7755SOL    HW224165   1.791   2.379   5.908
 7756SOL     OW24166   2.586   6.832   2.614
 7756SOL    HW124167   2.517   6.849   2.684
 7756SOL    HW224168   2.658   6.901   2.620
 7757SOL     OW24169   5.953   5.035   1.345
 7757SOL    HW124170   5.867   4.996   1.378
 7757SOL    HW224171   6.017   4.962   1.324
 7758SOL     OW24172   2.135   0.134   6.513
 7758SOL    HW124173   2.066   0.198   6.480
 7758SOL    HW224174   2.130   0.128   6.613
 7759SOL     OW24175   1.788   1.381   5.453
 7759SOL    HW124176   1.821   1.288   5.468
 7759SOL    HW224177   1.703   1.395   5.504
 7760SOL     OW24178   5.708   3.086   2.748
 7760SOL    HW124179   5.648   3.012   2.716
 7760SOL    HW224180   5.799   3.049   2.767
 7761SOL     OW24181   6.628   6.585   4.633
 7761SOL    HW124182   6.684   6.657   4.591
 7761SOL    HW224183   6.677   6.498   4.629
 7762SOL     OW24184   2.293   0.315   4.128
 7762SOL    HW124185   2.238   0.238   4.161
 7762SOL    HW224186   2.379   0.318   4.180
 7763SOL     OW24187   2.422   0.107   6.534
 7763SOL    HW124188   2.323   0.116   6.522
 7763SOL    HW224189   2.441   0.057   6.619
 7764SOL     OW24190   3.162   3.978   5.526
 7764SOL    HW124191   3.117   4.026   5.601
 7764SOL    HW224192   3.248   4.025   5.503
 7765SOL     OW24193   6.173   2.644   4.084
 7765SOL    HW124194   6.208   2.737   4.075
 7765SOL    HW224195   6.073   2.647   4.097
 7766SOL     OW24196   6.721   3.948   0.676
 7766SOL    HW124197   6.711   3.929   0.774
 7766SOL    HW224198   6.638   3.992   0.642
 7767SOL     OW24199   4.543   6.337   2.091
 7767SOL    HW124200   4.455   6.299   2.117
 7767SOL    HW224201   4.540   6.366   1.995
 7768SOL     OW24202   4.921   4.452   3.069
 7768SOL    HW124203   4.869   4.526   3.027
 7768SOL    HW224204   5.013   4.451   3.031
 7769SOL     OW24205   5.026   1.464   4.265
 7769SOL    HW124206   5.062   1.557   4.271
 7769SOL    HW224207   5.012   1.428   4.358
 7770SOL     OW24208   0.850   3.257   5.204
 7770SOL    HW124209   0.932   3.267   5.261
 7770SOL    HW224210   0.811   3.166   5.217
 7771SOL     OW24211   3.090   1.426   5.518
 7771SOL    HW124212   2.991   1.430   5.526
 7771SOL    HW224213   3.119   1.475   5.436
 7772SOL     OW24214   5.376   6.842   1.595
 7772SOL    HW124215   5.283   6.867   1.621
 7772SOL    HW224216   5.374   6.795   1.506
 7773SOL     OW24217   1.767   5.097   5.513
 7773SOL    HW124218   1.733   5.176   5.463
 7773SOL    HW224219   1.797   5.125   5.604
 7774SOL     OW24220   5.100   2.715   4.410
 7774SOL    HW124221   5.021   2.720   4.470
 7774SOL    HW224222   5.174   2.771   4.448
 7775SOL     OW24223   4.511   6.982   0.253
 7775SOL    HW124224   4.418   6.977   0.290
 7775SOL    HW224225   4.508   0.008   0.164
 7776SOL     OW24226   0.808   5.609   6.736
 7776SOL    HW124227   0.826   5.552   6.656
 7776SOL    HW224228   0.720   5.655   6.726
 7777SOL     OW24229   5.876   5.694   4.191
 7777SOL    HW124230   5.790   5.675   4.240
 7777SOL    HW224231   5.896   5.792   4.197
 7778SOL     OW24232   5.691   3.745   2.317
 7778SOL    HW124233   5.647   3.657   2.298
 7778SOL    HW224234   5.629   3.819   2.291
 7779SOL     OW24235   2.745   0.899   2.000
 7779SOL    HW124236   2.728   0.900   2.098
 7779SOL    HW224237   2.704   0.980   1.958
 7780SOL     OW24238   0.999   5.007   5.535
 7780SOL    HW124239   0.978   5.093   5.488
 7780SOL    HW224240   0.915   4.953   5.545
 7781SOL     OW24241   1.524   4.165   1.388
 7781SOL    HW124242   1.571   4.106   1.453
 7781SOL    HW224243   1.567   4.256   1.388
 7782SOL     OW24244   5.097   5.190   4.135
 7782SOL    HW124245   5.104   5.274   4.082
 7782SOL    HW224246   5.005   5.153   4.128
 7783SOL     OW24247   0.908   0.444   5.857
 7783SOL    HW124248   0.955   0.471   5.773
 7783SOL    HW224249   0.892   0.525   5.913
 7784SOL     OW24250   3.306   2.419   1.339
 7784SOL    HW124251   3.227   2.450   1.393
 7784SOL    HW224252   3.364   2.497   1.317
 7785SOL     OW24253   2.026   5.920   4.164
 7785SOL    HW124254   2.028   5.959   4.072
 7785SOL    HW224255   2.117   5.930   4.205
 7786SOL     OW24256   3.659   0.318   0.069
 7786SOL    HW124257   3.589   0.367   0.017
 7786SOL    HW224258   3.660   0.351   0.163
 7787SOL     OW24259   2.099   3.060   6.996
 7787SOL    HW124260   2.072   3.106   6.911
 7787SOL    HW224261   2.199   3.061   7.004
 7788SOL     OW24262   1.514   4.660   1.958
 7788SOL    HW124263   1.486   4.564   1.951
 7788SOL    HW224264   1.584   4.679   1.890
 7789SOL     OW24265   3.285   0.277   6.417
 7789SOL    HW124266   3.367   0.312   6.461
 7789SOL    HW224267   3.259   0.190   6.460
 7790SOL     OW24268   5.163   5.669   2.850
 7790SOL    HW124269   5.114   5.747   2.812
 7790SOL    HW224270   5.207   5.618   2.775
 7791SOL     OW24271   2.088   5.065   2.464
 7791SOL    HW124272   2.067   4.999   2.536
 7791SOL    HW224273   2.005   5.115   2.440
 7792SOL     OW24274   1.270   6.559   4.057
 7792SOL    HW124275   1.320   6.641   4.082
 7792SOL    HW224276   1.279   6.543   3.958
 7793SOL     OW24277   3.922   0.559   0.251
 7793SOL    HW124278   3.964   0.555   0.160
 7793SOL    HW224279   3.866   0.477   0.264
 7794SOL     OW24280   0.434   4.124   1.866
 7794SOL    HW124281   0.462   4.041   1.817
 7794SOL    HW224282   0.337   4.143   1.847
 7795SOL     OW24283   2.654   4.980   4.935
 7795SOL    HW124284   2.575   4.930   4.970
 7795SOL    HW224285   2.720   4.916   4.896
 7796SOL     OW24286   3.760   2.623   5.494
 7796SOL    HW124287   3.745   2.716   5.461
 7796SOL    HW224288   3.821   2.575   5.430
 7797SOL     OW24289   0.788   6.341   1.298
 7797SOL    HW124290   0.729   6.410   1.257
 7797SOL    HW224291   0.862   6.385   1.349
 7798SOL     OW24292   0.987   2.300   3.129
 7798SOL    HW124293   1.083   2.273   3.117
 7798SOL    HW224294   0.980   2.400   3.123
 7799SOL     OW24295   1.855   5.279   2.425
 7799SOL    HW124296   1.772   5.237   2.389
 7799SOL    HW224297   1.889   5.347   2.360
 7800SOL     OW24298   0.891   5.582   3.179
 7800SOL    HW124299   0.977   5.579   3.230
 7800SOL    HW224300   0.866   5.490   3.152
 7801SOL     OW24301   1.511   1.742   2.802
 7801SOL    HW124302   1.493   1.814   2.869
 7801SOL    HW224303   1.607   1.715   2.808
 7802SOL     OW24304   6.425   3.255   0.214
 7802SOL    HW124305   6.487   3.270   0.291
 7802SOL    HW224306   6.381   3.341   0.189
 7803SOL     OW24307   4.269   2.144   0.023
 7803SOL    HW124308   4.287   2.158   6.946
 7803SOL    HW224309   4.271   2.232   0.071
 7804SOL     OW24310   4.838   2.064   4.774
 7804SOL    HW124311   4.839   2.163   4.759
 7804SOL    HW224312   4.827   2.045   4.871
 7805SOL     OW24313   5.124   3.325   2.974
 7805SOL    HW124314   5.149   3.325   3.071
 7805SOL    HW224315   5.181   3.390   2.924
 7806SOL     OW24316   5.886   1.371   6.362
 7806SOL    HW124317   5.831   1.434   6.416
 7806SOL    HW224318   5.842   1.281   6.361
 7807SOL     OW24319   0.791   4.520   5.253
 7807SOL    HW124320   0.857   4.493   5.323
 7807SOL    HW224321   0.840   4.551   5.171
 7808SOL     OW24322   6.005   3.183   3.600
 7808SOL    HW124323   6.075   3.117   3.571
 7808SOL    HW224324   6.016   3.268   3.548
 7809SOL     OW24325   5.231   5.217   4.986
 7809SOL    HW124326   5.287   5.140   4.954
 7809SOL    HW224327   5.284   5.271   5.051
 7810SOL     OW24328   3.028   6.857   5.643
 7810SOL    HW124329   3.116   6.901   5.659
 7810SOL    HW224330   3.023   6.774   5.699
 7811SOL     OW24331   1.196   5.608   1.992
 7811SOL    HW124332   1.202   5.509   1.978
 7811SOL    HW224333   1.156   5.651   1.911
 7812SOL     OW24334   2.256   2.415   4.555
 7812SOL    HW124335   2.341   2.463   4.538
 7812SOL    HW224336   2.253   2.332   4.498
 7813SOL     OW24337   4.308   2.228   1.374
 7813SOL    HW124338   4.391   2.260   1.330
 7813SOL    HW224339   4.302   2.128   1.366
 7814SOL     OW24340   6.826   3.358   3.405
 7814SOL    HW124341   6.777   3.319   3.328
 7814SOL    HW224342   6.895   3.293   3.437
 7815SOL     OW24343   5.703   2.015   4.187
 7815SOL    HW124344   5.754   2.098   4.208
 7815SOL    HW224345   5.757   1.935   4.213
 7816SOL     OW24346   0.633   2.418   6.743
 7816SOL    HW124347   0.694   2.485   6.701
 7816SOL    HW224348   0.671   2.389   6.831
 7817SOL     OW24349   4.758   4.444   5.200
 7817SOL    HW124350   4.686   4.420   5.265
 7817SOL    HW224351   4.716   4.468   5.112
 7818SOL     OW24352   4.675   0.796   3.139
 7818SOL    HW124353   4.708   0.887   3.110
 7818SOL    HW224354   4.663   0.739   3.058
 7819SOL     OW24355   0.258   3.628   3.469
 7819SOL    HW124356   0.296   3.560   3.407
 7819SOL    HW224357   0.304   3.715   3.455
 7820SOL     OW24358   1.915   1.007   5.751
 7820SOL    HW124359   1.986   0.949   5.710
 7820SOL    HW224360   1.854   0.951   5.806
 7821SOL     OW24361   5.764   6.018   0.770
 7821SOL    HW124362   5.845   6.052   0.722
 7821SOL    HW224363   5.740   6.080   0.845
 7822SOL     OW24364   1.120   1.709   6.902
 7822SOL    HW124365   1.035   1.672   6.939
 7822SOL    HW224366   1.140   1.666   6.815
 7823SOL     OW24367   2.251   4.063   6.062
 7823SOL    HW124368   2.326   4.023   6.116
 7823SOL    HW224369   2.286   4.143   6.013
 7824SOL     OW24370   5.703   0.762   4.768
 7824SOL    HW124371   5.712   0.677   4.820
 7824SOL    HW224372   5.787   0.815   4.777
 7825SOL     OW24373   1.339   3.588   0.664
 7825SOL    HW124374   1.438   3.585   0.680
 7825SOL    HW224375   1.302   3.495   0.664
 7826SOL     OW24376   5.653   1.866   6.728
 7826SOL    HW124377   5.605   1.951   6.750
 7826SOL    HW224378   5.585   1.796   6.704
 7827SOL     OW24379   3.196   4.385   0.852
 7827SOL    HW124380   3.115   4.405   0.797
 7827SOL    HW224381   3.274   4.367   0.792
 7828SOL     OW24382   0.447   5.126   0.715
 7828SOL    HW124383   0.390   5.206   0.695
 7828SOL    HW224384   0.430   5.096   0.809
 7829SOL     OW24385   2.116   2.856   0.142
 7829SOL    HW124386   2.098   2.909   0.059
 7829SOL    HW224387   2.114   2.916   0.222
 7830SOL     OW24388   4.572   3.954   5.951
 7830SOL    HW124389   4.662   3.912   5.938
 7830SOL    HW224390   4.571   4.005   6.037
 7831SOL     OW24391   1.478   5.463   0.914
 7831SOL    HW124392   1.406   5.444   0.848
 7831SOL    HW224393   1.451   5.431   1.004
 7832SOL     OW24394   3.555   0.942   4.399
 7832SOL    HW124395   3.512   0.967   4.486
 7832SOL    HW224396   3.648   0.977   4.396
 7833SOL     OW24397   0.298   0.602   6.766
 7833SOL    HW124398   0.304   0.599   6.866
 7833SOL    HW224399   0.366   0.540   6.727
 7834SOL     OW24400   0.327   1.603   3.706
 7834SOL    HW124401   0.278   1.671   3.760
 7834SOL    HW224402   0.348   1.524   3.763
 7835SOL     OW24403   2.231   2.561   4.898
 7835SOL    HW124404   2.166   2.634   4.916
 7835SOL    HW224405   2.182   2.478   4.871
 7836SOL     OW24406   3.975   2.356   5.984
 7836SOL    HW124407   3.994   2.447   6.021
 7836SOL    HW224408   3.989   2.357   5.885
 7837SOL     OW24409   6.340   6.227   1.872
 7837SOL    HW124410   6.297   6.316   1.885
 7837SOL    HW224411   6.415   6.235   1.806
 7838SOL     OW24412   4.238   6.064   0.373
 7838SOL    HW124413   4.194   6.028   0.290
 7838SOL    HW224414   4.325   6.107   0.348
 7839SOL     OW24415   6.111   4.894   5.647
 7839SOL    HW124416   6.188   4.941   5.604
 7839SOL    HW224417   6.137   4.800   5.669
 7840SOL     OW24418   5.112   3.406   4.541
 7840SOL    HW124419   5.184   3.381   4.476
 7840SOL    HW224420   5.154   3.432   4.628
 7841SOL     OW24421   5.749   1.272   0.352
 7841SOL    HW124422   5.664   1.322   0.337
 7841SOL    HW224423   5.825   1.320   0.309
 7842SOL     OW24424   2.315   1.507   2.998
 7842SOL    HW124425   2.291   1.449   3.076
 7842SOL    HW224426   2.403   1.479   2.961
 7843SOL     OW24427   4.954   4.311   1.943
 7843SOL    HW124428   4.934   4.352   2.032
 7843SOL    HW224429   4.952   4.383   1.873
 7844SOL     OW24430   4.036   0.768   3.805
 7844SOL    HW124431   4.008   0.803   3.894
 7844SOL    HW224432   4.110   0.824   3.768
 7845SOL     OW24433   6.324   1.384   4.023
 7845SOL    HW124434   6.329   1.458   4.090
 7845SOL    HW224435   6.388   1.312   4.047
 7846SOL     OW24436   1.539   0.523   1.383
 7846SOL    HW124437   1.555   0.542   1.480
 7846SOL    HW224438   1.483   0.597   1.344
 7847SOL     OW24439   6.396   1.937   1.493
 7847SOL    HW124440   6.492   1.912   1.482
 7847SOL    HW224441   6.381   2.028   1.454
 7848SOL     OW24442   3.106   3.635   1.406
 7848SOL    HW124443   3.147   3.646   1.496
 7848SOL    HW224444   3.006   3.645   1.413
 7849SOL     OW24445   5.677   4.032   3.911
 7849SOL    HW124446   5.654   4.068   3.821
 7849SOL    HW224447   5.763   4.072   3.943
 7850SOL     OW24448   0.111   1.774   3.778
 7850SOL    HW124449   0.063   1.758   3.692
 7850SOL    HW224450   0.072   1.853   3.824
 7851SOL     OW24451   6.690   7.011   0.930
 7851SOL    HW124452   6.687   0.035   0.840
 7851SOL    HW224453   6.633   0.041   0.994
 7852SOL     OW24454   2.804   0.599   5.423
 7852SOL    HW124455   2.747   0.552   5.357
 7852SOL    HW224456   2.819   0.694   5.394
 7853SOL     OW24457   3.983   1.592   1.697
 7853SOL    HW124458   3.930   1.674   1.676
 7853SOL    HW224459   3.973   1.570   1.794
 7854SOL     OW24460   3.616   3.754   0.881
 7854SOL    HW124461   3.598   3.755   0.783
 7854SOL    HW224462   3.595   3.844   0.920
 7855SOL     OW24463   3.061   5.972   5.412
 7855SOL    HW124464   3.037   6.060   5.453
 7855SOL    HW224465   2.992   5.946   5.346
 7856SOL     OW24466   5.488   4.834   3.843
 7856SOL    HW124467   5.560   4.770   3.869
 7856SOL    HW224468   5.424   4.845   3.920
 7857SOL     OW24469   6.220   2.926   5.124
 7857SOL    HW124470   6.260   2.856   5.064
 7857SOL    HW224471   6.187   2.883   5.208
 7858SOL     OW24472   4.376   5.427   3.770
 7858SOL    HW124473   4.331   5.482   3.840
 7858SOL    HW224474   4.451   5.376   3.811
 7859SOL     OW24475   6.467   4.323   5.601
 7859SOL    HW124476   6.562   4.299   5.581
 7859SOL    HW224477   6.460   4.420   5.624
 7860SOL     OW24478   4.342   0.274   3.265
 7860SOL    HW124479   4.430   0.263   3.311
 7860SOL    HW224480   4.268   0.249   3.327
 7861SOL     OW24481   3.884   5.240   1.611
 7861SOL    HW124482   3.807   5.296   1.642
 7861SOL    HW224483   3.850   5.169   1.549
 7862SOL     OW24484   3.121   4.670   1.763
 7862SOL    HW124485   3.040   4.615   1.784
 7862SOL    HW224486   3.184   4.616   1.707
 7863SOL     OW24487   6.784   6.369   3.732
 7863SOL    HW124488   6.690   6.373   3.766
 7863SOL    HW224489   6.848   6.385   3.807
 7864SOL     OW24490   0.230   6.400   5.586
 7864SOL    HW124491   0.305   6.357   5.535
 7864SOL    HW224492   0.229   6.364   5.679
 7865SOL     OW24493   4.569   6.878   4.179
 7865SOL    HW124494   4.610   6.914   4.095
 7865SOL    HW224495   4.641   6.868   4.249
 7866SOL     OW24496   2.650   1.946   6.773
 7866SOL    HW124497   2.555   1.937   6.743
 7866SOL    HW224498   2.697   2.015   6.717
 7867SOL     OW24499   4.897   6.115   2.869
 7867SOL    HW124500   4.940   6.099   2.780
 7867SOL    HW224501   4.839   6.197   2.863
 7868SOL     OW24502   5.489   6.802   2.425
 7868SOL    HW124503   5.528   6.888   2.457
 7868SOL    HW224504   5.544   6.767   2.349
 7869SOL     OW24505   5.657   3.877   0.539
 7869SOL    HW124506   5.614   3.886   0.449
 7869SOL    HW224507   5.652   3.964   0.588
 7870SOL     OW24508   4.923   5.399   4.407
 7870SOL    HW124509   4.851   5.335   4.379
 7870SOL    HW224510   5.010   5.349   4.413
 7871SOL     OW24511   5.529   3.794   2.742
 7871SOL    HW124512   5.579   3.722   2.695
 7871SOL    HW224513   5.450   3.755   2.789
 7872SOL     OW24514   1.995   4.396   2.605
 7872SOL    HW124515   1.955   4.377   2.515
 7872SOL    HW224516   1.957   4.481   2.641
 7873SOL     OW24517   5.206   0.593   5.250
 7873SOL    HW124518   5.156   0.610   5.165
 7873SOL    HW224519   5.284   0.655   5.255
 7874SOL     OW24520   4.733   1.674   0.481
 7874SOL    HW124521   4.777   1.585   0.490
 7874SOL    HW224522   4.791   1.744   0.522
 7875SOL     OW24523   4.568   2.508   6.659
 7875SOL    HW124524   4.646   2.476   6.712
 7875SOL    HW224525   4.599   2.535   6.567
 7876SOL     OW24526   6.945   0.081   4.889
 7876SOL    HW124527   6.857   0.107   4.927
 7876SOL    HW224528   6.962   0.132   4.804
 7877SOL     OW24529   0.057   3.035   2.469
 7877SOL    HW124530   0.076   3.071   2.560
 7877SOL    HW224531   0.084   2.939   2.465
 7878SOL     OW24532   4.761   4.899   4.114
 7878SOL    HW124533   4.727   4.889   4.021
 7878SOL    HW224534   4.697   4.855   4.178
 7879SOL     OW24535   4.773   5.525   3.647
 7879SOL    HW124536   4.769   5.601   3.711
 7879SOL    HW224537   4.855   5.533   3.590
 7880SOL     OW24538   0.912   5.247   0.890
 7880SOL    HW124539   1.005   5.239   0.856
 7880SOL    HW224540   0.854   5.180   0.844
 7881SOL     OW24541   5.999   3.755   4.651
 7881SOL    HW124542   6.030   3.668   4.689
 7881SOL    HW224543   5.932   3.796   4.713
 7882SOL     OW24544   1.558   2.732   3.105
 7882SOL    HW124545   1.471   2.683   3.109
 7882SOL    HW224546   1.634   2.666   3.106
 7883SOL     OW24547   1.329   6.857   1.486
 7883SOL    HW124548   1.411   6.880   1.538
 7883SOL    HW224549   1.265   6.934   1.488
 7884SOL     OW24550   1.781   4.259   3.592
 7884SOL    HW124551   1.787   4.353   3.626
 7884SOL    HW224552   1.826   4.198   3.657
 7885SOL     OW24553   6.110   6.494   2.246
 7885SOL    HW124554   6.206   6.465   2.249
 7885SOL    HW224555   6.080   6.500   2.151
 7886SOL     OW24556   4.343   4.343   0.729
 7886SOL    HW124557   4.365   4.431   0.688
 7886SOL    HW224558   4.258   4.350   0.780
 7887SOL     OW24559   3.450   2.264   5.566
 7887SOL    HW124560   3.368   2.287   5.618
 7887SOL    HW224561   3.527   2.318   5.601
 7888SOL     OW24562   0.064   0.551   5.303
 7888SOL    HW124563   0.143   0.574   5.246
 7888SOL    HW224564   0.033   0.458   5.282
 7889SOL     OW24565   0.824   4.763   0.255
 7889SOL    HW124566   0.916   4.785   0.289
 7889SOL    HW224567   0.756   4.794   0.321
 7890SOL     OW24568   0.495   3.455   3.937
 7890SOL    HW124569   0.506   3.551   3.914
 7890SOL    HW224570   0.544   3.399   3.870
 7891SOL     OW24571   1.036   3.818   4.247
 7891SOL    HW124572   1.030   3.747   4.177
 7891SOL    HW224573   0.956   3.815   4.306
 7892SOL     OW24574   1.618   2.085   4.072
 7892SOL    HW124575   1.610   2.184   4.067
 7892SOL    HW224576   1.530   2.046   4.098
 7893SOL     OW24577   5.887   6.999   2.155
 7893SOL    HW124578   5.905   6.926   2.220
 7893SOL    HW224579   5.842   6.962   2.074
 7894SOL     OW24580   2.947   0.686   1.231
 7894SOL    HW124581   2.948   0.590   1.258
 7894SOL    HW224582   3.024   0.734   1.273
 7895SOL     OW24583   5.061   6.810   5.178
 7895SOL    HW124584   5.102   6.879   5.238
 7895SOL    HW224585   5.010   6.856   5.105
 7896SOL     OW24586   5.551   3.465   1.160
 7896SOL    HW124587   5.594   3.546   1.201
 7896SOL    HW224588   5.491   3.494   1.085
 7897SOL     OW24589   3.611   2.875   1.279
 7897SOL    HW124590   3.588   2.931   1.199
 7897SOL    HW224591   3.531   2.820   1.305
 7898SOL     OW24592   3.812   0.351   3.584
 7898SOL    HW124593   3.750   0.277   3.613
 7898SOL    HW224594   3.765   0.408   3.516
 7899SOL     OW24595   5.974   6.960   1.613
 7899SOL    HW124596   5.876   6.975   1.626
 7899SOL    HW224597   6.023   0.025   1.629
 7900SOL     OW24598   1.062   4.996   1.490
 7900SOL    HW124599   1.129   4.922   1.482
 7900SOL    HW224600   0.973   4.965   1.458
 7901SOL     OW24601   4.788   0.888   6.438
 7901SOL    HW124602   4.699   0.872   6.482
 7901SOL    HW224603   4.849   0.812   6.460
 7902SOL     OW24604   6.225   6.072   3.149
 7902SOL    HW124605   6.158   6.085   3.076
 7902SOL    HW224606   6.182   6.024   3.226
 7903SOL     OW24607   4.595   2.026   2.677
 7903SOL    HW124608   4.595   1.960   2.602
 7903SOL    HW224609   4.508   2.075   2.679
 7904SOL     OW24610   5.691   0.067   2.931
 7904SOL    HW124611   5.767   0.094   2.871
 7904SOL    HW224612   5.653   7.000   2.900
 7905SOL     OW24613   5.477   2.404   0.126
 7905SOL    HW124614   5.420   2.341   0.075
 7905SOL    HW224615   5.485   2.372   0.221
 7906SOL     OW24616   1.020   6.052   0.865
 7906SOL    HW124617   0.950   6.109   0.822
 7906SOL    HW224618   1.077   6.010   0.794
 7907SOL     OW24619   6.674   1.078   3.007
 7907SOL    HW124620   6.762   1.125   3.003
 7907SOL    HW224621   6.600   1.145   3.014
 7908SOL     OW24622   0.744   1.438   5.960
 7908SOL    HW124623   0.668   1.394   5.911
 7908SOL    HW224624   0.830   1.396   5.931
 7909SOL     OW24625   4.716   4.164   3.673
 7909SOL    HW124626   4.698   4.154   3.771
 7909SOL    HW224627   4.728   4.073   3.633
 7910SOL     OW24628   1.842   3.304   0.328
 7910SOL    HW124629   1.820   3.226   0.270
 7910SOL    HW224630   1.941   3.317   0.330
 7911SOL     OW24631   1.205   5.052   1.086
 7911SOL    HW124632   1.178   4.965   1.126
 7911SOL    HW224633   1.202   5.123   1.156
 7912SOL     OW24634   6.010   4.493   1.227
 7912SOL    HW124635   6.095   4.445   1.206
 7912SOL    HW224636   6.001   4.503   1.326
 7913SOL     OW24637   1.706   3.901   2.146
 7913SOL    HW124638   1.615   3.930   2.119
 7913SOL    HW224639   1.738   3.828   2.085
 7914SOL     OW24640   7.010   4.716   1.225
 7914SOL    HW124641   6.989   4.659   1.146
 7914SOL    HW224642   0.080   4.690   1.261
 7915SOL     OW24643   4.871   2.200   2.441
 7915SOL    HW124644   4.875   2.110   2.485
 7915SOL    HW224645   4.853   2.270   2.510
 7916SOL     OW24646   0.308   6.363   5.843
 7916SOL    HW124647   0.339   6.332   5.932
 7916SOL    HW224648   0.385   6.399   5.791
 7917SOL     OW24649   4.117   3.271   5.676
 7917SOL    HW124650   4.216   3.287   5.686
 7917SOL    HW224651   4.068   3.355   5.701
 7918SOL     OW24652   6.507   1.046   4.359
 7918SOL    HW124653   6.513   1.080   4.452
 7918SOL    HW224654   6.598   1.020   4.327
 7919SOL     OW24655   1.516   4.688   2.987
 7919SOL    HW124656   1.566   4.715   3.069
 7919SOL    HW224657   1.579   4.648   2.921
 7920SOL     OW24658   6.317   6.672   1.388
 7920SOL    HW124659   6.295   6.769   1.385
 7920SOL    HW224660   6.335   6.644   1.482
 7921SOL     OW24661   5.634   5.873   2.253
 7921SOL    HW124662   5.653   5.912   2.163
 7921SOL    HW224663   5.701   5.907   2.319
 7922SOL     OW24664   0.553   6.191   6.878
 7922SOL    HW124665   0.479   6.192   6.945
 7922SOL    HW224666   0.578   6.284   6.853
 7923SOL     OW24667   4.206   1.507   6.276
 7923SOL    HW124668   4.201   1.607   6.275
 7923SOL    HW224669   4.205   1.473   6.182
 7924SOL     OW24670   4.894   0.100   1.346
 7924SOL    HW124671   4.911   0.136   1.438
 7924SOL    HW224672   4.956   0.024   1.327
 7925SOL     OW24673   0.928   0.089   6.957
 7925SOL    HW124674   0.963   0.145   6.883
 7925SOL    HW224675   0.964   7.016   6.950
 7926SOL     OW24676   5.322   1.424   6.080
 7926SOL    HW124677   5.338   1.507   6.027
 7926SOL    HW224678   5.321   1.345   6.018
 7927SOL     OW24679   4.854   7.011   2.144
 7927SOL    HW124680   4.797   0.004   2.225
 7927SOL    HW224681   4.857   0.076   2.091
 7928SOL     OW24682   1.072   2.144   3.910
 7928SOL    HW124683   1.031   2.052   3.913
 7928SOL    HW224684   1.010   2.206   3.861
 7929SOL     OW24685   3.683   3.688   5.938
 7929SOL    HW124686   3.723   3.641   5.859
 7929SOL    HW224687   3.606   3.635   5.973
 7930SOL     OW24688   4.400   5.003   5.663
 7930SOL    HW124689   4.369   5.026   5.571
 7930SOL    HW224690   4.423   5.086   5.712
 7931SOL     OW24691   3.405   3.155   0.562
 7931SOL    HW124692   3.494   3.121   0.591
 7931SOL    HW224693   3.334   3.092   0.594
 7932SOL     OW24694   0.953   5.664   6.390
 7932SOL    HW124695   0.953   5.740   6.455
 7932SOL    HW224696   1.028   5.676   6.325
 7933SOL     OW24697   6.364   0.751   6.277
 7933SOL    HW124698   6.421   0.678   6.314
 7933SOL    HW224699   6.307   0.789   6.350
 7934SOL     OW24700   1.364   5.270   6.662
 7934SOL    HW124701   1.271   5.292   6.691
 7934SOL    HW224702   1.372   5.171   6.650
 7935SOL     OW24703   5.881   6.355   1.153
 7935SOL    HW124704   5.946   6.428   1.174
 7935SOL    HW224705   5.926   6.266   1.161
 7936SOL     OW24706   3.045   5.919   3.030
 7936SOL    HW124707   3.056   5.866   3.114
 7936SOL    HW224708   3.036   5.856   2.952
 7937SOL     OW24709   0.416   6.013   4.350
 7937SOL    HW124710   0.405   6.028   4.251
 7937SOL    HW224711   0.474   6.084   4.388
 7938SOL     OW24712   6.362   6.432   4.963
 7938SOL    HW124713   6.439   6.440   5.026
 7938SOL    HW224714   6.372   6.348   4.909
 7939SOL     OW24715   1.749   1.980   5.976
 7939SOL    HW124716   1.752   1.881   5.969
 7939SOL    HW224717   1.815   2.010   6.045
 7940SOL     OW24718   2.324   2.710   2.390
 7940SOL    HW124719   2.304   2.694   2.294
 7940SOL    HW224720   2.387   2.639   2.423
 7941SOL     OW24721   5.776   6.150   2.221
 7941SOL    HW124722   5.815   6.117   2.306
 7941SOL    HW224723   5.738   6.242   2.236
 7942SOL     OW24724   0.487   4.052   2.877
 7942SOL    HW124725   0.446   4.133   2.834
 7942SOL    HW224726   0.426   3.974   2.865
 7943SOL     OW24727   0.575   4.482   6.114
 7943SOL    HW124728   0.571   4.443   6.207
 7943SOL    HW224729   0.665   4.522   6.099
 7944SOL     OW24730   0.640   2.975   0.588
 7944SOL    HW124731   0.587   2.919   0.525
 7944SOL    HW224732   0.615   2.952   0.682
 7945SOL     OW24733   6.465   5.952   1.714
 7945SOL    HW124734   6.385   5.893   1.701
 7945SOL    HW224735   6.467   6.021   1.642
 7946SOL     OW24736   3.516   0.561   5.584
 7946SOL    HW124737   3.432   0.508   5.593
 7946SOL    HW224738   3.551   0.585   5.675
 7947SOL     OW24739   2.750   1.603   5.666
 7947SOL    HW124740   2.764   1.529   5.600
 7947SOL    HW224741   2.681   1.667   5.630
 7948SOL     OW24742   1.020   6.469   0.683
 7948SOL    HW124743   1.078   6.388   0.687
 7948SOL    HW224744   0.924   6.442   0.694
 7949SOL     OW24745   4.493   3.995   5.702
 7949SOL    HW124746   4.526   3.993   5.797
 7949SOL    HW224747   4.537   3.921   5.651
 7950SOL     OW24748   4.755   5.764   4.506
 7950SOL    HW124749   4.758   5.686   4.568
 7950SOL    HW224750   4.845   5.777   4.464
 7951SOL     OW24751   1.961   4.424   2.126
 7951SOL    HW124752   1.991   4.339   2.084
 7951SOL    HW224753   1.948   4.411   2.225
 7952SOL     OW24754   0.351   3.354   6.640
 7952SOL    HW124755   0.435   3.325   6.686
 7952SOL    HW224756   0.323   3.443   6.677
 7953SOL     OW24757   4.322   2.309   2.645
 7953SOL    HW124758   4.314   2.212   2.667
 7953SOL    HW224759   4.386   2.322   2.570
 7954SOL     OW24760   2.968   4.267   6.234
 7954SOL    HW124761   3.032   4.191   6.217
 7954SOL    HW224762   2.877   4.230   6.252
 7955SOL     OW24763   2.189   1.232   6.752
 7955SOL    HW124764   2.187   1.332   6.747
 7955SOL    HW224765   2.111   1.195   6.701
 7956SOL     OW24766   5.305   0.518   2.134
 7956SOL    HW124767   5.231   0.486   2.076
 7956SOL    HW224768   5.376   0.560   2.078
 7957SOL     OW24769   1.352   0.161   0.734
 7957SOL    HW124770   1.433   0.150   0.793
 7957SOL    HW224771   1.369   0.236   0.670
 7958SOL     OW24772   4.607   5.150   6.146
 7958SOL    HW124773   4.643   5.057   6.156
 7958SOL    HW224774   4.522   5.159   6.199
 7959SOL     OW24775   5.163   6.833   1.234
 7959SOL    HW124776   5.192   6.926   1.211
 7959SOL    HW224777   5.100   6.800   1.164
 7960SOL     OW24778   2.234   0.615   6.058
 7960SOL    HW124779   2.329   0.626   6.028
 7960SOL    HW224780   2.178   0.687   6.017
 7961SOL     OW24781   0.039   0.902   0.520
 7961SOL    HW124782   6.977   0.939   0.565
 7961SOL    HW224783   0.045   0.937   0.427
 7962SOL     OW24784   1.177   1.023   5.642
 7962SOL    HW124785   1.159   1.118   5.617
 7962SOL    HW224786   1.247   0.986   5.582
 7963SOL     OW24787   5.682   6.052   4.507
 7963SOL    HW124788   5.650   6.091   4.421
 7963SOL    HW224789   5.607   6.051   4.573
 7964SOL     OW24790   6.912   3.830   2.945
 7964SOL    HW124791   6.940   3.755   3.004
 7964SOL    HW224792   6.813   3.825   2.929
 7965SOL     OW24793   4.126   2.176   6.094
 7965SOL    HW124794   4.080   2.251   6.047
 7965SOL    HW224795   4.169   2.116   6.026
 7966SOL     OW24796   3.118   2.844   5.779
 7966SOL    HW124797   3.033   2.852   5.727
 7966SOL    HW224798   3.176   2.775   5.737
 7967SOL     OW24799   3.179   6.082   1.797
 7967SOL    HW124800   3.244   6.014   1.764
 7967SOL    HW224801   3.120   6.041   1.866
 7968SOL     OW24802   6.722   2.260   3.872
 7968SOL    HW124803   6.766   2.190   3.814
 7968SOL    HW224804   6.791   2.320   3.911
 7969SOL     OW24805   5.605   5.630   1.201
 7969SOL    HW124806   5.589   5.531   1.199
 7969SOL    HW224807   5.663   5.653   1.279
 7970SOL     OW24808   6.404   2.836   1.962
 7970SOL    HW124809   6.355   2.910   2.008
 7970SOL    HW224810   6.342   2.758   1.949
 7971SOL     OW24811   3.314   1.809   1.125
 7971SOL    HW124812   3.231   1.768   1.163
 7971SOL    HW224813   3.292   1.857   1.040
 7972SOL     OW24814   2.788   3.027   0.839
 7972SOL    HW124815   2.842   3.095   0.791
 7972SOL    HW224816   2.828   3.009   0.929
 7973SOL     OW24817   4.403   4.579   4.247
 7973SOL    HW124818   4.331   4.636   4.209
 7973SOL    HW224819   4.366   4.522   4.320
 7974SOL     OW24820   5.717   1.101   5.703
 7974SOL    HW124821   5.628   1.058   5.721
 7974SOL    HW224822   5.746   1.151   5.785
 7975SOL     OW24823   6.437   0.724   1.378
 7975SOL    HW124824   6.521   0.705   1.327
 7975SOL    HW224825   6.434   0.669   1.461
 7976SOL     OW24826   1.362   0.528   5.793
 7976SOL    HW124827   1.373   0.448   5.734
 7976SOL    HW224828   1.284   0.513   5.855
 7977SOL     OW24829   4.506   5.839   3.197
 7977SOL    HW124830   4.574   5.900   3.238
 7977SOL    HW224831   4.422   5.889   3.181
 7978SOL     OW24832   6.400   2.291   6.096
 7978SOL    HW124833   6.373   2.326   6.006
 7978SOL    HW224834   6.410   2.367   6.160
 7979SOL     OW24835   3.751   5.346   5.304
 7979SOL    HW124836   3.657   5.316   5.288
 7979SOL    HW224837   3.753   5.446   5.314
 7980SOL     OW24838   3.516   5.576   6.177
 7980SOL    HW124839   3.419   5.560   6.162
 7980SOL    HW224840   3.531   5.672   6.201
 7981SOL     OW24841   0.990   4.500   1.377
 7981SOL    HW124842   1.060   4.483   1.308
 7981SOL    HW224843   0.899   4.490   1.336
 7982SOL     OW24844   1.336   0.981   0.281
 7982SOL    HW124845   1.430   0.958   0.255
 7982SOL    HW224846   1.322   0.961   0.378
 7983SOL     OW24847   5.840   2.430   0.342
 7983SOL    HW124848   5.765   2.470   0.393
 7983SOL    HW224849   5.925   2.438   0.395
 7984SOL     OW24850   1.298   1.303   0.696
 7984SOL    HW124851   1.359   1.372   0.657
 7984SOL    HW224852   1.308   1.218   0.644
 7985SOL     OW24853   2.865   1.539   4.404
 7985SOL    HW124854   2.789   1.596   4.376
 7985SOL    HW224855   2.862   1.526   4.504
 7986SOL     OW24856   2.917   0.665   6.352
 7986SOL    HW124857   2.839   0.628   6.402
 7986SOL    HW224858   3.000   0.616   6.380
 7987SOL     OW24859   1.670   2.485   0.409
 7987SOL    HW124860   1.611   2.536   0.346
 7987SOL    HW224861   1.703   2.402   0.364
 7988SOL     OW24862   1.113   1.755   2.814
 7988SOL    HW124863   1.127   1.840   2.764
 7988SOL    HW224864   1.017   1.746   2.840
 7989SOL     OW24865   2.981   3.416   0.299
 7989SOL    HW124866   3.004   3.343   0.364
 7989SOL    HW224867   3.035   3.497   0.320
 7990SOL     OW24868   1.724   5.118   4.910
 7990SOL    HW124869   1.756   5.063   4.987
 7990SOL    HW224870   1.785   5.196   4.897
 7991SOL     OW24871   5.954   0.919   3.726
 7991SOL    HW124872   5.905   0.838   3.693
 7991SOL    HW224873   5.992   0.901   3.816
 7992SOL     OW24874   1.110   0.407   0.350
 7992SOL    HW124875   1.159   0.494   0.352
 7992SOL    HW224876   1.032   0.414   0.287
 7993SOL     OW24877   0.178   0.010   0.860
 7993SOL    HW124878   0.209   0.094   0.816
 7993SOL    HW224879   0.202   6.951   0.802
 7994SOL     OW24880   3.533   0.047   3.312
 7994SOL    HW124881   3.512   0.142   3.289
 7994SOL    HW224882   3.466   0.013   3.377
 7995SOL     OW24883   5.968   5.477   3.563
 7995SOL    HW124884   5.904   5.400   3.561
 7995SOL    HW224885   6.058   5.446   3.532
 7996SOL     OW24886   3.567   6.766   4.081
 7996SOL    HW124887   3.595   6.673   4.106
 7996SOL    HW224888   3.605   6.831   4.147
 7997SOL     OW24889   0.073   1.321   0.950
 7997SOL    HW124890   0.033   1.287   0.864
 7997SOL    HW224891   0.163   1.281   0.963
 7998SOL     OW24892   2.641   0.626   0.440
 7998SOL    HW124893   2.580   0.676   0.502
 7998SOL    HW224894   2.637   0.528   0.462
 7999SOL     OW24895   0.736   0.935   5.941
 7999SOL    HW124896   0.810   0.998   5.918
 7999SOL    HW224897   0.690   0.967   6.024
 8000SOL     OW24898   5.008   7.009   6.607
 8000SOL    HW124899   4.922   6.976   6.645
 8000SOL    HW224900   5.063   0.030   6.680
 8001SOL     OW24901   4.379   6.388   1.615
 8001SOL    HW124902   4.301   6.336   1.581
 8001SOL    HW224903   4.390   6.471   1.559
 8002SOL     OW24904   1.768   0.705   6.586
 8002SOL    HW124905   1.693   0.647   6.619
 8002SOL    HW224906   1.731   0.771   6.520
 8003SOL     OW24907   2.926   5.315   1.679
 8003SOL    HW124908   2.962   5.227   1.649
 8003SOL    HW224909   2.914   5.315   1.778
 8004SOL     OW24910   2.189   3.024   3.109
 8004SOL    HW124911   2.240   3.102   3.072
 8004SOL    HW224912   2.243   2.941   3.099
 8005SOL     OW24913   2.970   0.865   3.386
 8005SOL    HW124914   2.968   0.812   3.470
 8005SOL    HW224915   3.064   0.886   3.361
 8006SOL     OW24916   2.314   5.933   5.470
 8006SOL    HW124917   2.311   6.022   5.516
 8006SOL    HW224918   2.230   5.919   5.418
 8007SOL     OW24919   6.007   1.334   5.941
 8007SOL    HW124920   5.973   1.314   5.849
 8007SOL    HW224921   6.076   1.266   5.966
 8008SOL     OW24922   4.016   6.297   6.515
 8008SOL    HW124923   4.078   6.375   6.524
 8008SOL    HW224924   4.050   6.234   6.445
 8009SOL     OW24925   5.912   0.660   1.239
 8009SOL    HW124926   5.935   0.566   1.263
 8009SOL    HW224927   5.850   0.698   1.308
 8010SOL     OW24928   1.988   1.587   5.448
 8010SOL    HW124929   2.078   1.556   5.479
 8010SOL    HW224930   1.933   1.508   5.419
 8011SOL     OW24931   3.120   2.092   0.950
 8011SOL    HW124932   3.053   2.160   0.922
 8011SOL    HW224933   3.184   2.132   1.015
 8012SOL     OW24934   2.631   3.525   0.200
 8012SOL    HW124935   2.620   3.467   0.119
 8012SOL    HW224936   2.719   3.572   0.195
 8013SOL     OW24937   1.488   5.446   3.337
 8013SOL    HW124938   1.475   5.530   3.389
 8013SOL    HW224939   1.435   5.372   3.379
 8014SOL     OW24940   1.336   6.546   4.619
 8014SOL    HW124941   1.387   6.484   4.679
 8014SOL    HW224942   1.338   6.511   4.525
 8015SOL     OW24943   2.468   0.688   6.495
 8015SOL    HW124944   2.398   0.669   6.564
 8015SOL    HW224945   2.472   0.611   6.431
 8016SOL     OW24946   3.903   0.537   5.800
 8016SOL    HW124947   3.846   0.456   5.787
 8016SOL    HW224948   3.851   0.608   5.847
 8017SOL     OW24949   5.586   0.132   0.415
 8017SOL    HW124950   5.650   0.082   0.473
 8017SOL    HW224951   5.507   0.159   0.468
 8018SOL     OW24952   3.348   2.160   6.882
 8018SOL    HW124953   3.321   2.251   6.851
 8018SOL    HW224954   3.394   2.111   6.808
 8019SOL     OW24955   2.556   4.856   1.109
 8019SOL    HW124956   2.651   4.877   1.088
 8019SOL    HW224957   2.513   4.814   1.030
 8020SOL     OW24958   6.082   0.264   6.786
 8020SOL    HW124959   6.049   0.228   6.874
 8020SOL    HW224960   6.036   0.349   6.765
 8021SOL     OW24961   1.062   2.976   0.805
 8021SOL    HW124962   1.146   2.930   0.775
 8021SOL    HW224963   0.986   2.945   0.747
 8022SOL     OW24964   5.859   0.617   2.165
 8022SOL    HW124965   5.837   0.520   2.175
 8022SOL    HW224966   5.933   0.642   2.228
 8023SOL     OW24967   6.260   4.568   2.955
 8023SOL    HW124968   6.251   4.607   2.864
 8023SOL    HW224969   6.181   4.594   3.011
 8024SOL     OW24970   1.212   5.115   5.701
 8024SOL    HW124971   1.156   5.052   5.647
 8024SOL    HW224972   1.284   5.063   5.747
 8025SOL     OW24973   2.265   5.799   0.777
 8025SOL    HW124974   2.171   5.803   0.745
 8025SOL    HW224975   2.266   5.766   0.872
 8026SOL     OW24976   6.778   4.264   0.637
 8026SOL    HW124977   6.792   4.168   0.660
 8026SOL    HW224978   6.867   4.310   0.629
 8027SOL     OW24979   4.017   0.228   5.493
 8027SOL    HW124980   3.958   0.153   5.524
 8027SOL    HW224981   4.067   0.200   5.411
 8028SOL     OW24982   4.372   5.858   5.598
 8028SOL    HW124983   4.397   5.905   5.682
 8028SOL    HW224984   4.287   5.807   5.612
 8029SOL     OW24985   5.301   3.030   1.658
 8029SOL    HW124986   5.335   3.008   1.749
 8029SOL    HW224987   5.236   3.106   1.664
 8030SOL     OW24988   5.252   4.935   0.514
 8030SOL    HW124989   5.293   4.960   0.426
 8030SOL    HW224990   5.154   4.956   0.512
 8031SOL     OW24991   6.179   6.772   2.214
 8031SOL    HW124992   6.148   6.685   2.250
 8031SOL    HW224993   6.246   6.813   2.276
 8032SOL     OW24994   6.257   4.537   1.560
 8032SOL    HW124995   6.300   4.447   1.564
 8032SOL    HW224996   6.323   4.606   1.589
 8033SOL     OW24997   4.740   2.424   6.850
 8033SOL    HW124998   4.751   2.412   6.949
 8033SOL    HW224999   4.826   2.401   6.804
 8034SOL     OW25000   4.333   0.832   5.154
 8034SOL    HW125001   4.399   0.845   5.228
 8034SOL    HW225002   4.380   0.831   5.066
 8035SOL     OW25003   5.133   1.725   2.452
 8035SOL    HW125004   5.188   1.654   2.496
 8035SOL    HW225005   5.192   1.798   2.418
 8036SOL     OW25006   6.793   4.119   3.925
 8036SOL    HW125007   6.727   4.192   3.905
 8036SOL    HW225008   6.757   4.032   3.890
 8037SOL     OW25009   2.565   3.379   6.988
 8037SOL    HW125010   2.481   3.429   6.968
 8037SOL    HW225011   2.555   3.284   6.957
 8038SOL     OW25012   4.717   0.457   2.284
 8038SOL    HW125013   4.725   0.494   2.377
 8038SOL    HW225014   4.640   0.502   2.237
 8039SOL     OW25015   0.136   1.462   5.347
 8039SOL    HW125016   0.167   1.428   5.258
 8039SOL    HW225017   0.052   1.515   5.335
 8040SOL     OW25018   1.183   5.628   0.254
 8040SOL    HW125019   1.278   5.631   0.286
 8040SOL    HW225020   1.138   5.715   0.275
 8041SOL     OW25021   3.213   0.703   3.043
 8041SOL    HW125022   3.294   0.749   3.006
 8041SOL    HW225023   3.227   0.604   3.037
 8042SOL     OW25024   3.927   2.774   5.230
 8042SOL    HW125025   4.016   2.818   5.235
 8042SOL    HW225026   3.939   2.675   5.229
 8043SOL     OW25027   3.803   6.049   0.648
 8043SOL    HW125028   3.821   6.101   0.732
 8043SOL    HW225029   3.706   6.055   0.626
 8044SOL     OW25030   4.861   2.977   0.661
 8044SOL    HW125031   4.780   2.978   0.719
 8044SOL    HW225032   4.866   3.062   0.608
 8045SOL     OW25033   6.311   2.422   2.381
 8045SOL    HW125034   6.303   2.436   2.282
 8045SOL    HW225035   6.219   2.419   2.422
 8046SOL     OW25036   1.000   4.353   1.767
 8046SOL    HW125037   0.943   4.359   1.685
 8046SOL    HW225038   0.948   4.311   1.841
 8047SOL     OW25039   3.955   5.992   6.092
 8047SOL    HW125040   3.861   6.025   6.088
 8047SOL    HW225041   4.019   6.068   6.082
 8048SOL     OW25042   3.775   1.511   0.000
 8048SOL    HW125043   3.818   1.559   0.076
 8048SOL    HW225044   3.678   1.535   7.016
 8049SOL     OW25045   1.057   0.177   6.649
 8049SOL    HW125046   1.113   0.165   6.731
 8049SOL    HW225047   1.038   0.088   6.609
 8050SOL     OW25048   2.118   3.590   3.616
 8050SOL    HW125049   2.147   3.542   3.534
 8050SOL    HW225050   2.149   3.685   3.613
 8051SOL     OW25051   4.631   6.222   4.268
 8051SOL    HW125052   4.664   6.186   4.356
 8051SOL    HW225053   4.695   6.290   4.233
 8052SOL     OW25054   3.073   1.711   1.135
 8052SOL    HW125055   3.003   1.702   1.064
 8052SOL    HW225056   3.037   1.675   1.221
 8053SOL     OW25057   3.804   3.037   4.925
 8053SOL    HW125058   3.738   2.962   4.931
 8053SOL    HW225059   3.809   3.083   5.013
 8054SOL     OW25060   6.760   4.304   4.759
 8054SOL    HW125061   6.689   4.264   4.701
 8054SOL    HW225062   6.755   4.404   4.753
 8055SOL     OW25063   0.002   0.529   5.570
 8055SOL    HW125064   0.032   0.617   5.607
 8055SOL    HW225065   0.038   0.519   5.477
 8056SOL     OW25066   3.023   0.777   4.924
 8056SOL    HW125067   2.927   0.799   4.942
 8056SOL    HW225068   3.076   0.789   5.008
 8057SOL     OW25069   2.935   2.155   3.043
 8057SOL    HW125070   2.988   2.096   2.983
 8057SOL    HW225071   2.837   2.142   3.025
 8058SOL     OW25072   3.136   0.049   3.080
 8058SOL    HW125073   3.229   0.080   3.060
 8058SOL    HW225074   3.118   6.984   3.032
 8059SOL     OW25075   2.643   1.697   4.342
 8059SOL    HW125076   2.608   1.787   4.367
 8059SOL    HW225077   2.598   1.666   4.258
 8060SOL     OW25078   6.678   2.242   6.217
 8060SOL    HW125079   6.584   2.242   6.183
 8060SOL    HW225080   6.682   2.294   6.302
 8061SOL     OW25081   0.226   0.489   2.907
 8061SOL    HW125082   0.151   0.484   2.840
 8061SOL    HW225083   0.222   0.409   2.967
 8062SOL     OW25084   3.829   4.885   4.003
 8062SOL    HW125085   3.886   4.859   3.925
 8062SOL    HW225086   3.744   4.831   4.002
 8063SOL     OW25087   2.383   1.940   2.659
 8063SOL    HW125088   2.416   1.863   2.605
 8063SOL    HW225089   2.414   1.930   2.754
 8064SOL     OW25090   6.707   2.503   0.867
 8064SOL    HW125091   6.615   2.488   0.830
 8064SOL    HW225092   6.701   2.564   0.946
 8065SOL     OW25093   2.536   5.344   3.917
 8065SOL    HW125094   2.461   5.285   3.947
 8065SOL    HW225095   2.588   5.373   3.997
 8066SOL     OW25096   0.355   1.028   5.675
 8066SOL    HW125097   0.314   0.978   5.752
 8066SOL    HW225098   0.290   1.098   5.643
 8067SOL     OW25099   5.419   2.679   2.762
 8067SOL    HW125100   5.400   2.762   2.709
 8067SOL    HW225101   5.384   2.691   2.855
 8068SOL     OW25102   0.243   4.550   1.345
 8068SOL    HW125103   0.216   4.638   1.383
 8068SOL    HW225104   0.331   4.522   1.383
 8069SOL     OW25105   2.190   5.360   1.184
 8069SOL    HW125106   2.252   5.406   1.248
 8069SOL    HW225107   2.238   5.282   1.142
 8070SOL     OW25108   4.623   3.096   0.752
 8070SOL    HW125109   4.537   3.051   0.726
 8070SOL    HW225110   4.604   3.166   0.821
 8071SOL     OW25111   3.413   6.487   4.988
 8071SOL    HW125112   3.403   6.582   4.959
 8071SOL    HW225113   3.509   6.459   4.979
 8072SOL     OW25114   3.609   1.350   0.732
 8072SOL    HW125115   3.674   1.378   0.661
 8072SOL    HW225116   3.549   1.279   0.697
 8073SOL     OW25117   3.193   5.600   5.341
 8073SOL    HW125118   3.217   5.575   5.247
 8073SOL    HW225119   3.191   5.700   5.350
 8074SOL     OW25120   3.336   3.013   0.932
 8074SOL    HW125121   3.325   3.005   1.031
 8074SOL    HW225122   3.310   2.927   0.888
 8075SOL     OW25123   6.284   6.979   0.781
 8075SOL    HW125124   6.328   6.892   0.804
 8075SOL    HW225125   6.227   7.008   0.857
 8076SOL     OW25126   5.926   0.672   5.512
 8076SOL    HW125127   5.828   0.681   5.496
 8076SOL    HW225128   5.959   0.751   5.564
 8077SOL     OW25129   3.450   6.240   2.370
 8077SOL    HW125130   3.518   6.200   2.309
 8077SOL    HW225131   3.484   6.241   2.463
 8078SOL     OW25132   6.996   2.115   0.294
 8078SOL    HW125133   6.951   2.026   0.308
 8078SOL    HW225134   7.002   2.135   0.197
 8079SOL     OW25135   6.377   1.063   3.785
 8079SOL    HW125136   6.374   0.963   3.788
 8079SOL    HW225137   6.324   1.096   3.707
 8080SOL     OW25138   0.563   2.916   2.541
 8080SOL    HW125139   0.627   2.860   2.488
 8080SOL    HW225140   0.551   2.875   2.631
 8081SOL     OW25141   6.016   5.927   6.238
 8081SOL    HW125142   5.995   5.907   6.333
 8081SOL    HW225143   6.108   5.965   6.231
 8082SOL     OW25144   4.117   0.948   1.946
 8082SOL    HW125145   4.163   0.897   2.018
 8082SOL    HW225146   4.083   0.885   1.877
 8083SOL     OW25147   4.736   2.844   3.213
 8083SOL    HW125148   4.768   2.881   3.299
 8083SOL    HW225149   4.701   2.918   3.155
 8084SOL     OW25150   3.933   6.666   6.817
 8084SOL    HW125151   3.939   6.765   6.828
 8084SOL    HW225152   3.863   6.644   6.749
 8085SOL     OW25153   5.665   6.404   2.325
 8085SOL    HW125154   5.695   6.450   2.241
 8085SOL    HW225155   5.568   6.421   2.338
 8086SOL     OW25156   6.495   0.388   2.441
 8086SOL    HW125157   6.555   0.312   2.466
 8086SOL    HW225158   6.428   0.357   2.373
 8087SOL     OW25159   1.974   0.047   0.005
 8087SOL    HW125160   2.027   0.082   6.948
 8087SOL    HW225161   2.015   6.982   0.038
 8088SOL     OW25162   6.207   1.244   1.546
 8088SOL    HW125163   6.148   1.216   1.622
 8088SOL    HW225164   6.272   1.171   1.525
 8089SOL     OW25165   5.954   2.842   0.572
 8089SOL    HW125166   5.856   2.829   0.586
 8089SOL    HW225167   5.984   2.784   0.496
 8090SOL     OW25168   3.797   1.272   6.861
 8090SOL    HW125169   3.712   1.237   6.820
 8090SOL    HW225170   3.775   1.341   6.929
 8091SOL     OW25171   1.817   3.736   4.838
 8091SOL    HW125172   1.899   3.713   4.889
 8091SOL    HW225173   1.842   3.791   4.759
 8092SOL     OW25174   5.654   2.178   5.392
 8092SOL    HW125175   5.636   2.130   5.478
 8092SOL    HW225176   5.739   2.229   5.399
 8093SOL     OW25177   3.129   5.078   3.208
 8093SOL    HW125178   3.093   4.988   3.186
 8093SOL    HW225179   3.077   5.118   3.284
 8094SOL     OW25180   0.503   3.731   4.559
 8094SOL    HW125181   0.523   3.653   4.499
 8094SOL    HW225182   0.439   3.701   4.631
 8095SOL     OW25183   0.434   4.691   4.403
 8095SOL    HW125184   0.392   4.730   4.485
 8095SOL    HW225185   0.497   4.618   4.429
 8096SOL     OW25186   1.912   6.803   2.712
 8096SOL    HW125187   1.912   6.716   2.663
 8096SOL    HW225188   1.978   6.800   2.787
 8097SOL     OW25189   4.280   6.870   4.445
 8097SOL    HW125190   4.302   6.917   4.359
 8097SOL    HW225191   4.238   6.782   4.425
 8098SOL     OW25192   1.865   6.545   3.366
 8098SOL    HW125193   1.870   6.632   3.317
 8098SOL    HW225194   1.773   6.534   3.405
 8099SOL     OW25195   4.046   5.938   4.870
 8099SOL    HW125196   4.086   5.991   4.795
 8099SOL    HW225197   3.965   5.986   4.904
 8100SOL     OW25198   0.382   0.359   6.631
 8100SOL    HW125199   0.465   0.311   6.658
 8100SOL    HW225200   0.328   0.301   6.570
 8101SOL     OW25201   1.708   6.279   1.702
 8101SOL    HW125202   1.614   6.301   1.727
 8101SOL    HW225203   1.754   6.237   1.779
 8102SOL     OW25204   0.333   3.898   3.418
 8102SOL    HW125205   0.389   3.957   3.477
 8102SOL    HW225206   0.258   3.951   3.380
 8103SOL     OW25207   2.958   6.675   1.431
 8103SOL    HW125208   3.004   6.587   1.424
 8103SOL    HW225209   2.887   6.681   1.360
 8104SOL     OW25210   2.121   0.339   6.059
 8104SOL    HW125211   2.160   0.431   6.049
 8104SOL    HW225212   2.168   0.291   6.132
 8105SOL     OW25213   0.478   2.980   3.052
 8105SOL    HW125214   0.386   3.016   3.068
 8105SOL    HW225215   0.490   2.958   2.955
 8106SOL     OW25216   3.154   6.200   3.022
 8106SOL    HW125217   3.238   6.234   3.065
 8106SOL    HW225218   3.149   6.100   3.032
 8107SOL     OW25219   0.879   5.159   4.533
 8107SOL    HW125220   0.783   5.149   4.559
 8107SOL    HW225221   0.908   5.079   4.482
 8108SOL     OW25222   6.173   2.780   5.844
 8108SOL    HW125223   6.191   2.786   5.746
 8108SOL    HW225224   6.124   2.695   5.863
 8109SOL     OW25225   0.010   4.258   5.879
 8109SOL    HW125226   6.967   4.214   5.944
 8109SOL    HW225227   6.977   4.309   5.811
 8110SOL     OW25228   4.094   6.170   2.382
 8110SOL    HW125229   4.013   6.112   2.377
 8110SOL    HW225230   4.170   6.127   2.333
 8111SOL     OW25231   5.187   0.953   4.130
 8111SOL    HW125232   5.283   0.931   4.148
 8111SOL    HW225233   5.182   1.040   4.081
 8112SOL     OW25234   2.608   1.970   4.455
 8112SOL    HW125235   2.616   2.018   4.543
 8112SOL    HW225236   2.665   2.016   4.387
 8113SOL     OW25237   1.449   3.529   0.215
 8113SOL    HW125238   1.506   3.611   0.219
 8113SOL    HW225239   1.371   3.546   0.155
 8114SOL     OW25240   1.305   4.294   2.982
 8114SOL    HW125241   1.342   4.249   2.900
 8114SOL    HW225242   1.208   4.275   2.989
 8115SOL     OW25243   3.724   0.717   6.897
 8115SOL    HW125244   3.750   0.782   6.825
 8115SOL    HW225245   3.726   0.763   6.985
 8116SOL     OW25246   4.572   4.597   6.953
 8116SOL    HW125247   4.662   4.558   6.971
 8116SOL    HW225248   4.501   4.538   6.994
 8117SOL     OW25249   1.844   0.065   3.752
 8117SOL    HW125250   1.843   0.041   3.655
 8117SOL    HW225251   1.906   0.141   3.767
 8118SOL     OW25252   5.003   4.462   6.876
 8118SOL    HW125253   5.031   4.557   6.861
 8118SOL    HW225254   5.080   4.401   6.856
 8119SOL     OW25255   4.931   5.532   6.703
 8119SOL    HW125256   4.852   5.592   6.705
 8119SOL    HW225257   4.953   5.509   6.608
 8120SOL     OW25258   2.813   4.931   0.962
 8120SOL    HW125259   2.833   4.844   0.917
 8120SOL    HW225260   2.893   4.962   1.013
 8121SOL     OW25261   6.840   4.848   2.281
 8121SOL    HW125262   6.932   4.809   2.294
 8121SOL    HW225263   6.778   4.776   2.250
 8122SOL     OW25264   0.398   4.913   3.684
 8122SOL    HW125265   0.439   4.968   3.610
 8122SOL    HW225266   0.334   4.847   3.644
 8123SOL     OW25267   6.809   2.001   6.519
 8123SOL    HW125268   6.757   1.916   6.507
 8123SOL    HW225269   6.752   2.070   6.563
 8124SOL     OW25270   5.338   6.233   1.902
 8124SOL    HW125271   5.403   6.309   1.894
 8124SOL    HW225272   5.247   6.268   1.920
 8125SOL     OW25273   1.467   1.928   3.056
 8125SOL    HW125274   1.444   2.002   3.120
 8125SOL    HW225275   1.562   1.900   3.071
 8126SOL     OW25276   4.815   4.091   2.817
 8126SOL    HW125277   4.795   4.069   2.721
 8126SOL    HW225278   4.889   4.158   2.821
 8127SOL     OW25279   2.509   4.461   6.591
 8127SOL    HW125280   2.422   4.447   6.544
 8127SOL    HW225281   2.584   4.434   6.530
 8128SOL     OW25282   2.950   2.215   2.301
 8128SOL    HW125283   2.919   2.289   2.241
 8128SOL    HW225284   3.008   2.152   2.249
 8129SOL     OW25285   3.920   1.370   6.236
 8129SOL    HW125286   3.935   1.451   6.179
 8129SOL    HW225287   4.008   1.334   6.266
 8130SOL     OW25288   0.394   3.821   6.856
 8130SOL    HW125289   0.485   3.864   6.854
 8130SOL    HW225290   0.355   3.820   6.764
 8131SOL     OW25291   2.506   1.923   1.235
 8131SOL    HW125292   2.492   2.020   1.256
 8131SOL    HW225293   2.536   1.913   1.140
 8132SOL     OW25294   5.987   6.984   6.017
 8132SOL    HW125295   6.069   7.011   6.067
 8132SOL    HW225296   5.909   6.983   6.080
 8133SOL     OW25297   3.583   5.699   1.564
 8133SOL    HW125298   3.561   5.683   1.661
 8133SOL    HW225299   3.502   5.733   1.517
 8134SOL     OW25300   6.545   2.819   5.606
 8134SOL    HW125301   6.584   2.902   5.644
 8134SOL    HW225302   6.558   2.744   5.671
 8135SOL     OW25303   3.328   6.588   1.363
 8135SOL    HW125304   3.336   6.685   1.341
 8135SOL    HW225305   3.357   6.533   1.285
 8136SOL     OW25306   4.693   6.033   3.318
 8136SOL    HW125307   4.716   5.976   3.397
 8136SOL    HW225308   4.770   6.034   3.254
 8137SOL     OW25309   3.697   1.555   5.278
 8137SOL    HW125310   3.638   1.597   5.347
 8137SOL    HW225311   3.776   1.513   5.323
 8138SOL     OW25312   5.029   0.768   0.618
 8138SOL    HW125313   5.025   0.844   0.683
 8138SOL    HW225314   5.112   0.714   0.634
 8139SOL     OW25315   0.486   1.126   2.501
 8139SOL    HW125316   0.557   1.087   2.561
 8139SOL    HW225317   0.437   1.052   2.455
 8140SOL     OW25318   5.652   0.751   6.805
 8140SOL    HW125319   5.703   0.764   6.891
 8140SOL    HW225320   5.556   0.773   6.821
 8141SOL     OW25321   4.415   6.212   4.515
 8141SOL    HW125322   4.473   6.143   4.558
 8141SOL    HW225323   4.383   6.277   4.584
 8142SOL     OW25324   0.078   5.484   0.012
 8142SOL    HW125325   0.022   5.407   0.044
 8142SOL    HW225326   0.098   5.545   0.088
 8143SOL     OW25327   5.634   4.242   1.000
 8143SOL    HW125328   5.722   4.286   0.980
 8143SOL    HW225329   5.613   4.252   1.097
 8144SOL     OW25330   5.983   6.108   6.771
 8144SOL    HW125331   5.893   6.079   6.805
 8144SOL    HW225332   5.983   6.109   6.671
 8145SOL     OW25333   5.736   5.999   1.972
 8145SOL    HW125334   5.769   5.905   1.980
 8145SOL    HW225335   5.757   6.049   2.056
 8146SOL     OW25336   3.825   1.008   4.398
 8146SOL    HW125337   3.902   1.058   4.437
 8146SOL    HW225338   3.829   0.913   4.428
 8147SOL     OW25339   6.101   2.081   1.781
 8147SOL    HW125340   6.137   2.153   1.722
 8147SOL    HW225341   6.171   2.011   1.795
 8148SOL     OW25342   4.808   4.408   0.959
 8148SOL    HW125343   4.892   4.380   1.003
 8148SOL    HW225344   4.735   4.342   0.980
 8149SOL     OW25345   2.680   6.151   2.294
 8149SOL    HW125346   2.640   6.215   2.229
 8149SOL    HW225347   2.780   6.159   2.291
 8150SOL     OW25348   1.981   4.217   0.568
 8150SOL    HW125349   1.929   4.167   0.638
 8150SOL    HW225350   2.026   4.152   0.507
 8151SOL     OW25351   6.440   2.322   1.193
 8151SOL    HW125352   6.480   2.404   1.152
 8151SOL    HW225353   6.341   2.332   1.197
 8152SOL     OW25354   0.157   1.525   2.702
 8152SOL    HW125355   0.131   1.609   2.750
 8152SOL    HW225356   0.137   1.535   2.604
 8153SOL     OW25357   2.184   0.060   3.906
 8153SOL    HW125358   2.175   0.141   3.965
 8153SOL    HW225359   2.140   0.078   3.818
 8154SOL     OW25360   2.840   5.226   2.531
 8154SOL    HW125361   2.919   5.283   2.506
 8154SOL    HW225362   2.836   5.147   2.470
 8155SOL     OW25363   1.776   3.712   1.960
 8155SOL    HW125364   1.706   3.640   1.954
 8155SOL    HW225365   1.857   3.676   2.006
 8156SOL     OW25366   5.196   6.835   0.556
 8156SOL    HW125367   5.237   6.919   0.518
 8156SOL    HW225368   5.108   6.857   0.598
 8157SOL     OW25369   7.005   4.989   6.786
 8157SOL    HW125370   0.047   5.053   6.742
 8157SOL    HW225371   0.011   4.979   6.883
 8158SOL     OW25372   5.063   5.084   0.796
 8158SOL    HW125373   5.031   5.070   0.890
 8158SOL    HW225374   5.007   5.029   0.734
 8159SOL     OW25375   3.008   6.337   2.740
 8159SOL    HW125376   2.938   6.266   2.733
 8159SOL    HW225377   3.098   6.297   2.727
 8160SOL     OW25378   4.832   1.001   2.810
 8160SOL    HW125379   4.865   0.909   2.791
 8160SOL    HW225380   4.876   1.036   2.893
 8161SOL     OW25381   5.271   1.571   6.426
 8161SOL    HW125382   5.192   1.610   6.379
 8161SOL    HW225383   5.239   1.516   6.503
 8162SOL     OW25384   6.060   6.615   6.324
 8162SOL    HW125385   6.125   6.546   6.294
 8162SOL    HW225386   6.085   6.704   6.287
 8163SOL     OW25387   2.563   4.052   5.361
 8163SOL    HW125388   2.528   4.009   5.278
 8163SOL    HW225389   2.489   4.098   5.410
 8164SOL     OW25390   5.805   3.574   0.905
 8164SOL    HW125391   5.764   3.650   0.856
 8164SOL    HW225392   5.767   3.488   0.871
 8165SOL     OW25393   0.927   4.798   6.970
 8165SOL    HW125394   0.903   4.772   0.044
 8165SOL    HW225395   0.994   4.872   6.972
 8166SOL     OW25396   1.617   0.581   2.265
 8166SOL    HW125397   1.662   0.665   2.297
 8166SOL    HW225398   1.656   0.502   2.312
 8167SOL     OW25399   6.507   0.053   4.881
 8167SOL    HW125400   6.410   0.069   4.896
 8167SOL    HW225401   6.523   6.976   4.863
 8168SOL     OW25402   2.683   1.473   3.996
 8168SOL    HW125403   2.773   1.517   4.001
 8168SOL    HW225404   2.658   1.458   3.901
 8169SOL     OW25405   4.828   2.829   1.306
 8169SOL    HW125406   4.758   2.890   1.342
 8169SOL    HW225407   4.838   2.845   1.208
 8170SOL     OW25408   1.585   5.315   2.375
 8170SOL    HW125409   1.545   5.256   2.445
 8170SOL    HW225410   1.561   5.410   2.395
 8171SOL     OW25411   1.492   1.374   0.286
 8171SOL    HW125412   1.431   1.296   0.270
 8171SOL    HW225413   1.581   1.341   0.318
 8172SOL     OW25414   0.848   1.199   1.894
 8172SOL    HW125415   0.945   1.187   1.871
 8172SOL    HW225416   0.803   1.254   1.823
 8173SOL     OW25417   4.167   1.028   1.049
 8173SOL    HW125418   4.120   1.116   1.040
 8173SOL    HW225419   4.125   0.962   0.987
 8174SOL     OW25420   5.891   2.306   0.617
 8174SOL    HW125421   5.820   2.290   0.686
 8174SOL    HW225422   5.972   2.345   0.661
 8175SOL     OW25423   0.127   3.399   6.489
 8175SOL    HW125424   0.202   3.379   6.553
 8175SOL    HW225425   0.047   3.430   6.540
 8176SOL     OW25426   2.918   5.319   2.236
 8176SOL    HW125427   2.869   5.392   2.283
 8176SOL    HW225428   3.000   5.294   2.287
 8177SOL     OW25429   2.476   5.822   3.935
 8177SOL    HW125430   2.572   5.824   3.906
 8177SOL    HW225431   2.425   5.891   3.884
 8178SOL     OW25432   2.734   5.795   6.284
 8178SOL    HW125433   2.765   5.738   6.360
 8178SOL    HW225434   2.663   5.857   6.317
 8179SOL     OW25435   4.189   2.543   6.054
 8179SOL    HW125436   4.230   2.633   6.069
 8179SOL    HW225437   4.224   2.478   6.121
 8180SOL     OW25438   6.714   0.204   4.993
 8180SOL    HW125439   6.646   0.132   4.983
 8180SOL    HW225440   6.700   0.273   4.922
 8181SOL     OW25441   1.979   1.915   1.805
 8181SOL    HW125442   1.968   1.889   1.709
 8181SOL    HW225443   2.060   1.974   1.814
 8182SOL     OW25444   3.499   2.171   6.607
 8182SOL    HW125445   3.597   2.153   6.611
 8182SOL    HW225446   3.473   2.195   6.513
 8183SOL     OW25447   0.706   2.326   4.564
 8183SOL    HW125448   0.792   2.360   4.602
 8183SOL    HW225449   0.642   2.402   4.555
 8184SOL     OW25450   5.284   2.121   5.709
 8184SOL    HW125451   5.256   2.129   5.613
 8184SOL    HW225452   5.381   2.099   5.714
 8185SOL     OW25453   2.656   6.176   0.414
 8185SOL    HW125454   2.724   6.161   0.342
 8185SOL    HW225455   2.568   6.199   0.372
 8186SOL     OW25456   3.315   5.650   6.523
 8186SOL    HW125457   3.322   5.591   6.442
 8186SOL    HW225458   3.235   5.709   6.514
 8187SOL     OW25459   1.875   1.802   5.708
 8187SOL    HW125460   1.947   1.733   5.721
 8187SOL    HW225461   1.798   1.783   5.769
 8188SOL     OW25462   5.129   2.397   2.066
 8188SOL    HW125463   5.200   2.442   2.011
 8188SOL    HW225464   5.041   2.406   2.019
 8189SOL     OW25465   4.990   4.809   2.316
 8189SOL    HW125466   4.967   4.887   2.257
 8189SOL    HW225467   4.906   4.765   2.347
 8190SOL     OW25468   4.636   5.257   4.528
 8190SOL    HW125469   4.621   5.277   4.625
 8190SOL    HW225470   4.586   5.324   4.472
 8191SOL     OW25471   3.120   5.713   3.623
 8191SOL    HW125472   3.058   5.772   3.572
 8191SOL    HW225473   3.084   5.619   3.623
 8192SOL     OW25474   3.549   5.073   0.249
 8192SOL    HW125475   3.474   5.118   0.298
 8192SOL    HW225476   3.542   5.095   0.151
 8193SOL     OW25477   6.832   0.188   4.041
 8193SOL    HW125478   6.761   0.125   4.070
 8193SOL    HW225479   6.920   0.141   4.036
 8194SOL     OW25480   6.272   2.476   0.391
 8194SOL    HW125481   6.260   2.508   0.298
 8194SOL    HW225482   6.367   2.448   0.405
 8195SOL     OW25483   0.661   0.216   0.758
 8195SOL    HW125484   0.708   0.279   0.820
 8195SOL    HW225485   0.729   0.153   0.718
 8196SOL     OW25486   3.315   0.238   5.424
 8196SOL    HW125487   3.402   0.203   5.390
 8196SOL    HW225488   3.317   0.338   5.422
 8197SOL     OW25489   4.169   1.091   5.998
 8197SOL    HW125490   4.078   1.049   6.005
 8197SOL    HW225491   4.160   1.191   6.007
 8198SOL     OW25492   2.678   6.298   3.099
 8198SOL    HW125493   2.634   6.233   3.037
 8198SOL    HW225494   2.775   6.306   3.076
 8199SOL     OW25495   0.235   3.045   6.542
 8199SOL    HW125496   0.290   3.086   6.469
 8199SOL    HW225497   0.184   2.968   6.506
 8200SOL     OW25498   4.466   3.825   1.233
 8200SOL    HW125499   4.384   3.767   1.239
 8200SOL    HW225500   4.468   3.869   1.143
 8201SOL     OW25501   5.112   0.669   4.514
 8201SOL    HW125502   5.145   0.585   4.557
 8201SOL    HW225503   5.178   0.742   4.528
 8202SOL     OW25504   0.558   5.497   4.215
 8202SOL    HW125505   0.632   5.558   4.187
 8202SOL    HW225506   0.505   5.470   4.135
 8203SOL     OW25507   5.170   2.596   6.972
 8203SOL    HW125508   5.237   2.667   6.994
 8203SOL    HW225509   5.103   2.590   0.027
 8204SOL     OW25510   2.909   5.614   0.730
 8204SOL    HW125511   2.992   5.635   0.782
 8204SOL    HW225512   2.915   5.521   0.695
 8205SOL     OW25513   6.712   4.564   1.491
 8205SOL    HW125514   6.809   4.588   1.498
 8205SOL    HW225515   6.680   4.579   1.398
 8206SOL     OW25516   3.694   3.015   6.024
 8206SOL    HW125517   3.674   2.924   5.987
 8206SOL    HW225518   3.727   3.006   6.118
 8207SOL     OW25519   3.782   4.564   5.299
 8207SOL    HW125520   3.741   4.483   5.257
 8207SOL    HW225521   3.794   4.548   5.397
 8208SOL     OW25522   2.462   6.230   1.538
 8208SOL    HW125523   2.390   6.289   1.503
 8208SOL    HW225524   2.482   6.254   1.633
 8209SOL     OW25525   0.581   2.134   5.348
 8209SOL    HW125526   0.566   2.179   5.436
 8209SOL    HW225527   0.607   2.039   5.363
 8210SOL     OW25528   3.027   0.869   1.628
 8210SOL    HW125529   2.983   0.935   1.689
 8210SOL    HW225530   2.965   0.847   1.552
 8211SOL     OW25531   3.587   3.893   3.782
 8211SOL    HW125532   3.557   3.988   3.776
 8211SOL    HW225533   3.628   3.876   3.872
 8212SOL     OW25534   3.283   1.095   1.526
 8212SOL    HW125535   3.276   1.035   1.447
 8212SOL    HW225536   3.289   1.040   1.609
 8213SOL     OW25537   5.470   4.499   2.668
 8213SOL    HW125538   5.440   4.545   2.752
 8213SOL    HW225539   5.483   4.401   2.688
 8214SOL     OW25540   1.819   5.704   3.859
 8214SOL    HW125541   1.840   5.616   3.819
 8214SOL    HW225542   1.825   5.698   3.959
 8215SOL     OW25543   4.350   5.390   6.964
 8215SOL    HW125544   4.313   5.407   0.035
 8215SOL    HW225545   4.363   5.477   6.917
 8216SOL     OW25546   4.818   6.906   3.236
 8216SOL    HW125547   4.827   6.927   3.333
 8216SOL    HW225548   4.856   6.815   3.218
 8217SOL     OW25549   2.166   3.926   2.330
 8217SOL    HW125550   2.150   3.886   2.240
 8217SOL    HW225551   2.196   4.021   2.319
 8218SOL     OW25552   1.632   0.021   4.236
 8218SOL    HW125553   1.684   0.037   4.152
 8218SOL    HW225554   1.687   6.987   4.300
 8219SOL     OW25555   3.962   3.950   1.386
 8219SOL    HW125556   3.960   3.878   1.316
 8219SOL    HW225557   3.910   4.029   1.353
 8220SOL     OW25558   3.417   4.425   5.322
 8220SOL    HW125559   3.404   4.488   5.399
 8220SOL    HW225560   3.332   4.419   5.270
 8221SOL     OW25561   6.667   4.179   3.013
 8221SOL    HW125562   6.621   4.267   3.004
 8221SOL    HW225563   6.759   4.192   3.048
 8222SOL     OW25564   5.457   2.485   0.851
 8222SOL    HW125565   5.418   2.493   0.759
 8222SOL    HW225566   5.513   2.402   0.856
 8223SOL     OW25567   0.179   4.559   6.203
 8223SOL    HW125568   0.236   4.477   6.210
 8223SOL    HW225569   0.085   4.533   6.181
 8224SOL     OW25570   4.963   1.811   1.809
 8224SOL    HW125571   5.060   1.803   1.790
 8224SOL    HW225572   4.948   1.886   1.875
 8225SOL     OW25573   3.607   1.014   1.088
 8225SOL    HW125574   3.522   0.989   1.041
 8225SOL    HW225575   3.642   1.099   1.049
 8226SOL     OW25576   2.885   0.387   1.302
 8226SOL    HW125577   2.793   0.379   1.265
 8226SOL    HW225578   2.947   0.327   1.252
 8227SOL     OW25579   0.366   1.362   2.290
 8227SOL    HW125580   0.356   1.388   2.386
 8227SOL    HW225581   0.430   1.425   2.245
 8228SOL     OW25582   0.449   1.903   5.985
 8228SOL    HW125583   0.359   1.865   6.007
 8228SOL    HW225584   0.445   2.003   5.990
 8229SOL     OW25585   4.662   4.085   0.713
 8229SOL    HW125586   4.736   4.024   0.684
 8229SOL    HW225587   4.640   4.149   0.639
 8230SOL     OW25588   3.759   6.576   5.715
 8230SOL    HW125589   3.681   6.577   5.652
 8230SOL    HW225590   3.725   6.570   5.809
 8231SOL     OW25591   3.578   2.023   2.140
 8231SOL    HW125592   3.488   2.039   2.099
 8231SOL    HW225593   3.649   2.063   2.082
 8232SOL     OW25594   5.169   1.905   2.696
 8232SOL    HW125595   5.186   1.810   2.722
 8232SOL    HW225596   5.071   1.919   2.685
 8233SOL     OW25597   0.996   6.847   6.148
 8233SOL    HW125598   0.909   6.894   6.163
 8233SOL    HW225599   1.028   6.865   6.055
 8234SOL     OW25600   3.116   3.678   0.291
 8234SOL    HW125601   3.203   3.631   0.305
 8234SOL    HW225602   3.084   3.662   0.197
 8235SOL     OW25603   0.547   3.878   0.196
 8235SOL    HW125604   0.467   3.897   0.140
 8235SOL    HW225605   0.575   3.962   0.244
 8236SOL     OW25606   0.451   5.246   6.138
 8236SOL    HW125607   0.352   5.236   6.152
 8236SOL    HW225608   0.468   5.308   6.062
 8237SOL     OW25609   4.948   5.969   5.984
 8237SOL    HW125610   4.955   5.923   6.073
 8237SOL    HW225611   4.876   5.925   5.930
 8238SOL     OW25612   0.418   5.751   0.043
 8238SOL    HW125613   0.512   5.758   0.078
 8238SOL    HW225614   0.377   5.842   0.041
 8239SOL     OW25615   0.219   1.105   5.281
 8239SOL    HW125616   0.182   1.076   5.193
 8239SOL    HW225617   0.319   1.110   5.275
 8240SOL     OW25618   2.899   3.525   3.302
 8240SOL    HW125619   2.871   3.584   3.226
 8240SOL    HW225620   2.887   3.574   3.388
 8241SOL     OW25621   2.169   4.934   6.246
 8241SOL    HW125622   2.224   5.000   6.298
 8241SOL    HW225623   2.217   4.911   6.161
 8242SOL     OW25624   1.026   3.762   4.827
 8242SOL    HW125625   0.950   3.765   4.892
 8242SOL    HW225626   0.991   3.767   4.734
 8243SOL     OW25627   0.266   4.399   6.971
 8243SOL    HW125628   0.235   4.456   6.894
 8243SOL    HW225629   0.290   4.457   0.028
 8244SOL     OW25630   0.443   0.241   3.662
 8244SOL    HW125631   0.487   0.160   3.702
 8244SOL    HW225632   0.351   0.250   3.699
 8245SOL     OW25633   3.439   1.553   3.526
 8245SOL    HW125634   3.473   1.628   3.469
 8245SOL    HW225635   3.508   1.528   3.594
 8246SOL     OW25636   0.488   4.450   6.582
 8246SOL    HW125637   0.426   4.502   6.641
 8246SOL    HW225638   0.577   4.495   6.580
 8247SOL     OW25639   2.788   6.075   3.941
 8247SOL    HW125640   2.782   5.977   3.923
 8247SOL    HW225641   2.877   6.097   3.980
 8248SOL     OW25642   0.786   5.608   5.229
 8248SOL    HW125643   0.706   5.550   5.214
 8248SOL    HW225644   0.761   5.686   5.287
 8249SOL     OW25645   2.731   1.202   5.492
 8249SOL    HW125646   2.700   1.126   5.434
 8249SOL    HW225647   2.689   1.193   5.582
 8250SOL     OW25648   3.260   1.877   0.848
 8250SOL    HW125649   3.354   1.911   0.841
 8250SOL    HW225650   3.198   1.954   0.864
 8251SOL     OW25651   5.967   1.196   4.200
 8251SOL    HW125652   5.880   1.208   4.153
 8251SOL    HW225653   5.965   1.110   4.252
 8252SOL     OW25654   3.562   1.634   0.711
 8252SOL    HW125655   3.577   1.652   0.614
 8252SOL    HW225656   3.577   1.537   0.730
 8253SOL     OW25657   3.706   6.083   6.844
 8253SOL    HW125658   3.606   6.082   6.840
 8253SOL    HW225659   3.737   6.011   6.906
 8254SOL     OW25660   5.522   4.454   5.930
 8254SOL    HW125661   5.504   4.372   5.984
 8254SOL    HW225662   5.620   4.475   5.932
 8255SOL     OW25663   1.216   6.714   6.235
 8255SOL    HW125664   1.133   6.764   6.209
 8255SOL    HW225665   1.225   6.714   6.334
 8256SOL     OW25666   6.320   0.428   3.031
 8256SOL    HW125667   6.293   0.451   2.938
 8256SOL    HW225668   6.418   0.410   3.035
 8257SOL     OW25669   5.809   4.741   3.915
 8257SOL    HW125670   5.793   4.830   3.958
 8257SOL    HW225671   5.737   4.677   3.942
 8258SOL     OW25672   5.311   2.960   1.935
 8258SOL    HW125673   5.256   3.023   1.989
 8258SOL    HW225674   5.261   2.874   1.922
 8259SOL     OW25675   3.961   2.006   5.126
 8259SOL    HW125676   4.052   1.988   5.089
 8259SOL    HW225677   3.933   1.930   5.185
 8260SOL     OW25678   2.266   6.042   1.598
 8260SOL    HW125679   2.179   6.084   1.571
 8260SOL    HW225680   2.341   6.091   1.555
 8261SOL     OW25681   5.319   6.292   3.036
 8261SOL    HW125682   5.404   6.243   3.056
 8261SOL    HW225683   5.241   6.233   3.057
 8262SOL     OW25684   0.676   4.447   0.797
 8262SOL    HW125685   0.746   4.501   0.844
 8262SOL    HW225686   0.720   4.384   0.733
 8263SOL     OW25687   6.799   3.022   6.798
 8263SOL    HW125688   6.814   3.117   6.827
 8263SOL    HW225689   6.827   2.961   6.872
 8264SOL     OW25690   1.431   0.233   1.570
 8264SOL    HW125691   1.472   0.255   1.482
 8264SOL    HW225692   1.449   0.308   1.635
 8265SOL     OW25693   4.611   0.366   1.625
 8265SOL    HW125694   4.607   0.400   1.719
 8265SOL    HW225695   4.690   0.407   1.578
 8266SOL     OW25696   3.344   0.218   5.062
 8266SOL    HW125697   3.352   0.302   5.009
 8266SOL    HW225698   3.248   0.201   5.084
 8267SOL     OW25699   1.771   4.778   1.358
 8267SOL    HW125700   1.679   4.793   1.322
 8267SOL    HW225701   1.822   4.864   1.354
 8268SOL     OW25702   2.931   4.725   5.776
 8268SOL    HW125703   2.844   4.702   5.733
 8268SOL    HW225704   3.003   4.669   5.736
 8269SOL     OW25705   4.563   2.268   2.939
 8269SOL    HW125706   4.625   2.244   2.865
 8269SOL    HW225707   4.528   2.361   2.926
 8270SOL     OW25708   2.975   5.564   5.904
 8270SOL    HW125709   3.067   5.535   5.929
 8270SOL    HW225710   2.958   5.655   5.942
 8271SOL     OW25711   6.991   6.718   3.977
 8271SOL    HW125712   0.045   6.675   4.030
 8271SOL    HW225713   6.923   6.755   4.040
 8272SOL     OW25714   0.649   0.822   2.654
 8272SOL    HW125715   0.666   0.724   2.644
 8272SOL    HW225716   0.555   0.837   2.685
 8273SOL     OW25717   2.800   1.157   7.007
 8273SOL    HW125718   2.833   1.100   6.932
 8273SOL    HW225719   2.714   1.199   6.981
 8274SOL     OW25720   4.230   4.453   6.362
 8274SOL    HW125721   4.172   4.381   6.324
 8274SOL    HW225722   4.242   4.438   6.460
 8275SOL     OW25723   5.523   0.194   4.622
 8275SOL    HW125724   5.585   0.273   4.626
 8275SOL    HW225725   5.546   0.139   4.542
 8276SOL     OW25726   6.435   2.069   5.507
 8276SOL    HW125727   6.412   1.974   5.485
 8276SOL    HW225728   6.351   2.123   5.512
 8277SOL     OW25729   2.445   6.169   5.222
 8277SOL    HW125730   2.492   6.157   5.309
 8277SOL    HW225731   2.497   6.123   5.150
 8278SOL     OW25732   2.699   1.078   6.253
 8278SOL    HW125733   2.778   1.025   6.284
 8278SOL    HW225734   2.693   1.163   6.306
 8279SOL     OW25735   5.698   5.619   6.096
 8279SOL    HW125736   5.688   5.548   6.166
 8279SOL    HW225737   5.796   5.635   6.079
 8280SOL     OW25738   4.858   2.372   0.539
 8280SOL    HW125739   4.793   2.348   0.611
 8280SOL    HW225740   4.905   2.290   0.507
 8281SOL     OW25741   1.953   4.593   1.252
 8281SOL    HW125742   1.877   4.657   1.265
 8281SOL    HW225743   1.990   4.565   1.341
 8282SOL     OW25744   2.917   3.233   0.677
 8282SOL    HW125745   2.827   3.230   0.633
 8282SOL    HW225746   2.987   3.243   0.607
 8283SOL     OW25747   0.892   4.587   3.774
 8283SOL    HW125748   0.812   4.545   3.817
 8283SOL    HW225749   0.865   4.627   3.686
 8284SOL     OW25750   1.220   3.539   2.547
 8284SOL    HW125751   1.300   3.572   2.497
 8284SOL    HW225752   1.169   3.476   2.489
 8285SOL     OW25753   3.298   3.019   5.876
 8285SOL    HW125754   3.364   2.954   5.914
 8285SOL    HW225755   3.222   2.968   5.835
 8286SOL     OW25756   5.701   1.772   5.222
 8286SOL    HW125757   5.616   1.737   5.184
 8286SOL    HW225758   5.683   1.816   5.310
 8287SOL     OW25759   1.499   6.579   3.410
 8287SOL    HW125760   1.497   6.602   3.313
 8287SOL    HW225761   1.436   6.639   3.460
 8288SOL     OW25762   1.305   2.191   2.779
 8288SOL    HW125763   1.398   2.176   2.747
 8288SOL    HW225764   1.244   2.124   2.737
 8289SOL     OW25765   6.143   0.575   6.497
 8289SOL    HW125766   6.183   0.661   6.529
 8289SOL    HW225767   6.122   0.582   6.400
 8290SOL     OW25768   4.217   2.586   1.625
 8290SOL    HW125769   4.155   2.514   1.594
 8290SOL    HW225770   4.288   2.600   1.557
 8291SOL     OW25771   5.656   5.949   6.679
 8291SOL    HW125772   5.678   5.865   6.629
 8291SOL    HW225773   5.631   5.927   6.773
 8292SOL     OW25774   2.051   5.538   5.741
 8292SOL    HW125775   2.140   5.583   5.749
 8292SOL    HW225776   2.041   5.501   5.649
 8293SOL     OW25777   1.513   3.997   1.623
 8293SOL    HW125778   1.592   3.938   1.609
 8293SOL    HW225779   1.429   3.944   1.613
 8294SOL     OW25780   5.857   3.142   4.740
 8294SOL    HW125781   5.882   3.049   4.711
 8294SOL    HW225782   5.913   3.208   4.691
 8295SOL     OW25783   5.413   3.478   2.751
 8295SOL    HW125784   5.499   3.509   2.790
 8295SOL    HW225785   5.414   3.378   2.742
 8296SOL     OW25786   3.816   5.252   6.707
 8296SOL    HW125787   3.744   5.197   6.664
 8296SOL    HW225788   3.897   5.196   6.723
 8297SOL     OW25789   6.608   3.382   2.461
 8297SOL    HW125790   6.529   3.391   2.521
 8297SOL    HW225791   6.606   3.292   2.417
 8298SOL     OW25792   0.227   0.591   6.496
 8298SOL    HW125793   0.239   0.492   6.485
 8298SOL    HW225794   0.247   0.617   6.590
 8299SOL     OW25795   0.707   3.180   0.822
 8299SOL    HW125796   0.682   3.083   0.833
 8299SOL    HW225797   0.778   3.188   0.752
 8300SOL     OW25798   6.102   6.996   4.775
 8300SOL    HW125799   6.181   0.006   4.828
 8300SOL    HW225800   6.021   0.027   4.803
 8301SOL     OW25801   4.752   6.945   6.658
 8301SOL    HW125802   4.714   6.853   6.647
 8301SOL    HW225803   4.683   7.013   6.634
 8302SOL     OW25804   3.989   6.804   5.587
 8302SOL    HW125805   3.960   6.708   5.585
 8302SOL    HW225806   4.081   6.812   5.547
 8303SOL     OW25807   6.985   0.273   3.213
 8303SOL    HW125808   6.931   0.331   3.152
 8303SOL    HW225809   6.963   0.295   3.308
 8304SOL     OW25810   5.686   4.661   2.156
 8304SOL    HW125811   5.680   4.698   2.249
 8304SOL    HW225812   5.781   4.652   2.129
 8305SOL     OW25813   4.029   5.236   3.875
 8305SOL    HW125814   4.095   5.183   3.824
 8305SOL    HW225815   4.074   5.283   3.951
 8306SOL     OW25816   6.478   1.555   2.568
 8306SOL    HW125817   6.403   1.618   2.548
 8306SOL    HW225818   6.536   1.545   2.486
 8307SOL     OW25819   3.065   4.980   1.636
 8307SOL    HW125820   3.129   4.976   1.559
 8307SOL    HW225821   2.975   4.948   1.607
 8308SOL     OW25822   2.024   4.663   0.271
 8308SOL    HW125823   2.105   4.701   0.315
 8308SOL    HW225824   1.986   4.590   0.328
 8309SOL     OW25825   6.303   4.877   3.685
 8309SOL    HW125826   6.264   4.785   3.689
 8309SOL    HW225827   6.277   4.927   3.767
 8310SOL     OW25828   1.110   5.419   0.410
 8310SOL    HW125829   1.015   5.390   0.399
 8310SOL    HW225830   1.126   5.502   0.356
 8311SOL     OW25831   4.954   0.561   4.888
 8311SOL    HW125832   5.039   0.609   4.908
 8311SOL    HW225833   4.919   0.589   4.799
 8312SOL     OW25834   5.487   1.091   0.715
 8312SOL    HW125835   5.569   1.055   0.670
 8312SOL    HW225836   5.409   1.081   0.654
 8313SOL     OW25837   4.594   6.834   5.554
 8313SOL    HW125838   4.572   6.923   5.594
 8313SOL    HW225839   4.532   6.816   5.478
 8314SOL     OW25840   6.030   6.689   6.657
 8314SOL    HW125841   6.039   6.733   6.747
 8314SOL    HW225842   5.981   6.751   6.596
 8315SOL     OW25843   3.827   3.974   2.884
 8315SOL    HW125844   3.903   3.936   2.831
 8315SOL    HW225845   3.835   3.945   2.980
 8316SOL     OW25846   2.099   3.397   6.972
 8316SOL    HW125847   2.039   3.458   0.004
 8316SOL    HW225848   2.044   3.330   6.922
 8317SOL     OW25849   3.217   1.577   4.175
 8317SOL    HW125850   3.278   1.566   4.097
 8317SOL    HW225851   3.262   1.630   4.246
 8318SOL     OW25852   4.947   0.829   5.912
 8318SOL    HW125853   4.888   0.756   5.877
 8318SOL    HW225854   4.890   0.901   5.952
 8319SOL     OW25855   1.722   7.002   6.928
 8319SOL    HW125856   1.698   6.908   6.951
 8319SOL    HW225857   1.811   0.005   6.965
 8320SOL     OW25858   3.847   3.614   3.631
 8320SOL    HW125859   3.835   3.560   3.547
 8320SOL    HW225860   3.813   3.707   3.615
 8321SOL     OW25861   0.194   0.380   6.183
 8321SOL    HW125862   0.191   0.338   6.274
 8321SOL    HW225863   0.194   0.309   6.113
 8322SOL     OW25864   0.322   1.373   0.353
 8322SOL    HW125865   0.411   1.350   0.393
 8322SOL    HW225866   0.323   1.355   0.255
 8323SOL     OW25867   3.758   4.478   1.314
 8323SOL    HW125868   3.822   4.543   1.273
 8323SOL    HW225869   3.665   4.511   1.302
 8324SOL     OW25870   5.748   0.689   0.504
 8324SOL    HW125871   5.786   0.596   0.510
 8324SOL    HW225872   5.823   0.755   0.493
 8325SOL     OW25873   1.225   4.096   4.971
 8325SOL    HW125874   1.196   4.163   4.903
 8325SOL    HW225875   1.149   4.036   4.994
 8326SOL     OW25876   4.364   3.392   6.908
 8326SOL    HW125877   4.308   3.443   6.974
 8326SOL    HW225878   4.332   3.297   6.903
 8327SOL     OW25879   0.648   0.240   5.641
 8327SOL    HW125880   0.676   0.330   5.672
 8327SOL    HW225881   0.675   0.227   5.546
 8328SOL     OW25882   1.572   6.591   5.884
 8328SOL    HW125883   1.636   6.519   5.911
 8328SOL    HW225884   1.478   6.558   5.896
 8329SOL     OW25885   0.224   2.608   4.903
 8329SOL    HW125886   0.170   2.540   4.854
 8329SOL    HW225887   0.193   2.700   4.878
 8330SOL     OW25888   3.630   1.379   6.546
 8330SOL    HW125889   3.600   1.283   6.546
 8330SOL    HW225890   3.724   1.385   6.580
 8331SOL     OW25891   2.851   0.851   0.896
 8331SOL    HW125892   2.902   0.938   0.895
 8331SOL    HW225893   2.907   0.781   0.939
 8332SOL     OW25894   5.493   5.581   2.167
 8332SOL    HW125895   5.533   5.516   2.231
 8332SOL    HW225896   5.501   5.674   2.204
 8333SOL     OW25897   2.257   5.433   0.278
 8333SOL    HW125898   2.198   5.509   0.253
 8333SOL    HW225899   2.315   5.409   0.200
 8334SOL     OW25900   2.473   2.762   6.053
 8334SOL    HW125901   2.519   2.703   5.987
 8334SOL    HW225902   2.522   2.760   6.140
 8335SOL     OW25903   4.361   2.954   6.891
 8335SOL    HW125904   4.377   2.970   6.988
 8335SOL    HW225905   4.322   3.036   6.849
 8336SOL     OW25906   1.158   3.687   3.605
 8336SOL    HW125907   1.072   3.725   3.571
 8336SOL    HW225908   1.158   3.691   3.705
 8337SOL     OW25909   0.794   6.868   4.416
 8337SOL    HW125910   0.747   6.828   4.337
 8337SOL    HW225911   0.887   6.894   4.390
 8338SOL     OW25912   3.846   5.693   1.616
 8338SOL    HW125913   3.905   5.634   1.559
 8338SOL    HW225914   3.757   5.704   1.571
 8339SOL     OW25915   0.283   0.924   1.675
 8339SOL    HW125916   0.256   0.829   1.689
 8339SOL    HW225917   0.304   0.967   1.763
 8340SOL     OW25918   5.062   3.852   0.332
 8340SOL    HW125919   5.019   3.934   0.293
 8340SOL    HW225920   5.157   3.846   0.302
 8341SOL     OW25921   3.420   0.527   0.115
 8341SOL    HW125922   3.358   0.592   0.158
 8341SOL    HW225923   3.484   0.575   0.055
 8342SOL     OW25924   3.724   0.048   0.099
 8342SOL    HW125925   3.779   0.025   0.180
 8342SOL    HW225926   3.701   0.145   0.102
 8343SOL     OW25927   6.208   5.939   3.818
 8343SOL    HW125928   6.189   5.990   3.902
 8343SOL    HW225929   6.132   5.951   3.754
 8344SOL     OW25930   6.819   5.232   4.789
 8344SOL    HW125931   6.883   5.156   4.801
 8344SOL    HW225932   6.847   5.288   4.711
 8345SOL     OW25933   4.800   2.043   3.671
 8345SOL    HW125934   4.760   2.133   3.682
 8345SOL    HW225935   4.897   2.052   3.648
 8346SOL     OW25936   3.464   3.312   6.194
 8346SOL    HW125937   3.558   3.331   6.165
 8346SOL    HW225938   3.412   3.397   6.197
 8347SOL     OW25939   3.655   6.742   6.642
 8347SOL    HW125940   3.596   6.697   6.709
 8347SOL    HW225941   3.646   6.697   6.553
 8348SOL     OW25942   2.306   6.910   1.225
 8348SOL    HW125943   2.361   6.860   1.159
 8348SOL    HW225944   2.226   6.951   1.179
 8349SOL     OW25945   0.746   6.754   1.566
 8349SOL    HW125946   0.820   6.818   1.543
 8349SOL    HW225947   0.781   6.660   1.563
 8350SOL     OW25948   2.686   6.083   6.035
 8350SOL    HW125949   2.766   6.037   5.994
 8350SOL    HW225950   2.704   6.181   6.042
 8351SOL     OW25951   5.494   5.386   3.616
 8351SOL    HW125952   5.402   5.377   3.576
 8351SOL    HW225953   5.557   5.325   3.569
 8352SOL     OW25954   1.648   6.785   3.048
 8352SOL    HW125955   1.652   6.735   2.961
 8352SOL    HW225956   1.737   6.782   3.092
 8353SOL     OW25957   1.277   3.780   1.280
 8353SOL    HW125958   1.307   3.848   1.213
 8353SOL    HW225959   1.180   3.760   1.265
 8354SOL     OW25960   3.668   6.570   3.760
 8354SOL    HW125961   3.662   6.496   3.827
 8354SOL    HW225962   3.625   6.652   3.797
 8355SOL     OW25963   2.366   0.810   5.511
 8355SOL    HW125964   2.393   0.904   5.527
 8355SOL    HW225965   2.315   0.804   5.425
 8356SOL     OW25966   0.741   5.747   1.243
 8356SOL    HW125967   0.793   5.807   1.304
 8356SOL    HW225968   0.753   5.778   1.149
 8357SOL     OW25969   4.049   5.813   5.619
 8357SOL    HW125970   3.959   5.850   5.644
 8357SOL    HW225971   4.100   5.790   5.702
 8358SOL     OW25972   0.880   2.800   5.060
 8358SOL    HW125973   0.891   2.709   5.019
 8358SOL    HW225974   0.958   2.820   5.119
 8359SOL     OW25975   2.122   1.278   4.716
 8359SOL    HW125976   2.135   1.306   4.621
 8359SOL    HW225977   2.082   1.186   4.718
 8360SOL     OW25978   4.762   6.837   1.237
 8360SOL    HW125979   4.702   6.806   1.310
 8360SOL    HW225980   4.712   6.901   1.178
 8361SOL     OW25981   2.862   0.411   6.924
 8361SOL    HW125982   2.918   0.346   6.975
 8361SOL    HW225983   2.913   0.497   6.913
 8362SOL     OW25984   5.668   2.311   1.299
 8362SOL    HW125985   5.611   2.246   1.351
 8362SOL    HW225986   5.610   2.365   1.239
 8363SOL     OW25987   4.747   1.504   0.893
 8363SOL    HW125988   4.746   1.427   0.956
 8363SOL    HW225989   4.685   1.576   0.926
 8364SOL     OW25990   0.541   3.354   3.681
 8364SOL    HW125991   0.609   3.290   3.647
 8364SOL    HW225992   0.451   3.309   3.682
 8365SOL     OW25993   1.753   2.528   3.141
 8365SOL    HW125994   1.838   2.535   3.195
 8365SOL    HW225995   1.709   2.440   3.161
 8366SOL     OW25996   3.720   5.134   1.016
 8366SOL    HW125997   3.817   5.139   0.991
 8366SOL    HW225998   3.680   5.051   0.977
 8367SOL     OW25999   3.468   5.197   5.061
 8367SOL    HW126000   3.411   5.116   5.044
 8367SOL    HW226001   3.454   5.228   5.155
 8368SOL     OW26002   0.719   6.048   0.062
 8368SOL    HW126003   0.661   6.073   7.004
 8368SOL    HW226004   0.772   5.966   0.038
 8369SOL     OW26005   0.665   1.241   6.902
 8369SOL    HW126006   0.684   1.207   6.810
 8369SOL    HW226007   0.589   1.188   6.941
 8370SOL     OW26008   2.275   0.903   6.383
 8370SOL    HW126009   2.190   0.850   6.383
 8370SOL    HW226010   2.353   0.841   6.375
 8371SOL     OW26011   1.801   3.597   6.143
 8371SOL    HW126012   1.757   3.507   6.142
 8371SOL    HW226013   1.869   3.602   6.070
 8372SOL     OW26014   1.541   5.601   1.933
 8372SOL    HW126015   1.605   5.531   1.965
 8372SOL    HW226016   1.448   5.564   1.934
 8373SOL     OW26017   1.715   1.073   4.657
 8373SOL    HW126018   1.645   1.144   4.663
 8373SOL    HW226019   1.693   1.000   4.722
 8374SOL     OW26020   0.024   0.702   4.916
 8374SOL    HW126021   0.051   0.796   4.936
 8374SOL    HW226022   0.015   0.691   4.817
 8375SOL     OW26023   3.760   0.244   5.987
 8375SOL    HW126024   3.815   0.301   6.048
 8375SOL    HW226025   3.722   0.168   6.039
 8376SOL     OW26026   1.572   1.292   3.676
 8376SOL    HW126027   1.645   1.304   3.743
 8376SOL    HW226028   1.485   1.276   3.723
 8377SOL     OW26029   5.660   5.977   0.508
 8377SOL    HW126030   5.677   5.943   0.600
 8377SOL    HW226031   5.696   5.913   0.441
 8378SOL     OW26032   4.099   4.860   3.834
 8378SOL    HW126033   4.152   4.793   3.783
 8378SOL    HW226034   4.134   4.952   3.815
 8379SOL     OW26035   4.745   2.470   2.104
 8379SOL    HW126036   4.677   2.477   2.032
 8379SOL    HW226037   4.706   2.503   2.190
 8380SOL     OW26038   0.380   6.525   6.659
 8380SOL    HW126039   0.306   6.482   6.711
 8380SOL    HW226040   0.346   6.555   6.570
 8381SOL     OW26041   6.912   2.651   3.228
 8381SOL    HW126042   6.915   2.750   3.242
 8381SOL    HW226043   6.999   2.620   3.190
 8382SOL     OW26044   2.481   6.740   0.737
 8382SOL    HW126045   2.556   6.679   0.712
 8382SOL    HW226046   2.485   6.823   0.682
 8383SOL     OW26047   2.604   0.166   5.752
 8383SOL    HW126048   2.529   0.126   5.804
 8383SOL    HW226049   2.597   0.266   5.754
 8384SOL     OW26050   0.044   1.525   0.053
 8384SOL    HW126051   6.979   1.489   0.014
 8384SOL    HW226052   0.045   1.509   0.152
 8385SOL     OW26053   4.277   2.125   1.076
 8385SOL    HW126054   4.356   2.067   1.054
 8385SOL    HW226055   4.270   2.135   1.175
 8386SOL     OW26056   2.011   5.568   1.147
 8386SOL    HW126057   1.954   5.550   1.067
 8386SOL    HW226058   2.075   5.491   1.159
 8387SOL     OW26059   1.484   2.338   1.206
 8387SOL    HW126060   1.424   2.411   1.175
 8387SOL    HW226061   1.436   2.283   1.274
 8388SOL     OW26062   1.402   6.753   0.809
 8388SOL    HW126063   1.328   6.816   0.832
 8388SOL    HW226064   1.450   6.786   0.728
 8389SOL     OW26065   0.728   3.448   4.214
 8389SOL    HW126066   0.817   3.446   4.260
 8389SOL    HW226067   0.741   3.435   4.116
 8390SOL     OW26068   4.089   0.078   6.881
 8390SOL    HW126069   4.132   0.026   6.954
 8390SOL    HW226070   4.070   0.018   6.804
 8391SOL     OW26071   4.716   4.919   1.426
 8391SOL    HW126072   4.739   4.822   1.435
 8391SOL    HW226073   4.640   4.941   1.487
 8392SOL     OW26074   6.773   5.576   5.981
 8392SOL    HW126075   6.748   5.629   5.899
 8392SOL    HW226076   6.821   5.636   6.045
 8393SOL     OW26077   0.015   6.920   4.248
 8393SOL    HW126078   6.939   6.896   4.235
 8393SOL    HW226079   0.069   6.887   4.170
 8394SOL     OW26080   6.730   2.852   1.572
 8394SOL    HW126081   6.821   2.815   1.555
 8394SOL    HW226082   6.667   2.777   1.593
 8395SOL     OW26083   1.829   6.517   3.966
 8395SOL    HW126084   1.758   6.455   3.932
 8395SOL    HW226085   1.916   6.469   3.972
 8396SOL     OW26086   4.570   4.477   2.195
 8396SOL    HW126087   4.554   4.446   2.289
 8396SOL    HW226088   4.545   4.404   2.132
 8397SOL     OW26089   2.603   0.278   2.959
 8397SOL    HW126090   2.606   0.294   3.057
 8397SOL    HW226091   2.675   0.213   2.934
 8398SOL     OW26092   4.531   2.052   6.391
 8398SOL    HW126093   4.559   2.101   6.473
 8398SOL    HW226094   4.448   2.095   6.354
 8399SOL     OW26095   6.396   0.285   6.917
 8399SOL    HW126096   6.378   0.338   6.999
 8399SOL    HW226097   6.321   0.297   6.852
 8400SOL     OW26098   1.030   0.388   3.722
 8400SOL    HW126099   0.948   0.417   3.771
 8400SOL    HW226100   1.109   0.391   3.784
 8401SOL     OW26101   3.474   2.352   6.299
 8401SOL    HW126102   3.524   2.415   6.240
 8401SOL    HW226103   3.407   2.403   6.353
 8402SOL     OW26104   4.023   1.886   5.749
 8402SOL    HW126105   3.985   1.970   5.710
 8402SOL    HW226106   3.978   1.866   5.836
 8403SOL     OW26107   0.885   1.873   3.336
 8403SOL    HW126108   0.856   1.826   3.420
 8403SOL    HW226109   0.940   1.811   3.280
 8404SOL     OW26110   5.359   5.519   6.965
 8404SOL    HW126111   5.279   5.565   7.003
 8404SOL    HW226112   5.386   5.563   6.880
 8405SOL     OW26113   1.848   0.829   6.935
 8405SOL    HW126114   1.861   0.738   6.896
 8405SOL    HW226115   1.755   0.861   6.917
 8406SOL     OW26116   4.282   0.101   0.886
 8406SOL    HW126117   4.227   0.156   0.949
 8406SOL    HW226118   4.319   0.021   0.934
 8407SOL     OW26119   5.394   6.363   4.010
 8407SOL    HW126120   5.480   6.395   4.051
 8407SOL    HW226121   5.326   6.351   4.082
 8408SOL     OW26122   4.810   2.033   2.934
 8408SOL    HW126123   4.896   2.047   2.984
 8408SOL    HW226124   4.795   1.935   2.920
 8409SOL     OW26125   6.050   2.988   3.048
 8409SOL    HW126126   6.023   3.075   3.006
 8409SOL    HW226127   5.989   2.916   3.017
 8410SOL     OW26128   4.434   0.464   1.429
 8410SOL    HW126129   4.428   0.383   1.372
 8410SOL    HW226130   4.508   0.453   1.495
 8411SOL     OW26131   0.852   6.002   4.813
 8411SOL    HW126132   0.906   6.069   4.864
 8411SOL    HW226133   0.902   5.916   4.807
 8412SOL     OW26134   4.139   1.904   1.910
 8412SOL    HW126135   4.190   1.854   1.840
 8412SOL    HW226136   4.191   1.985   1.938
 8413SOL     OW26137   4.930   4.805   0.867
 8413SOL    HW126138   4.957   4.897   0.894
 8413SOL    HW226139   4.922   4.748   0.948
 8414SOL     OW26140   4.484   6.595   2.442
 8414SOL    HW126141   4.451   6.542   2.520
 8414SOL    HW226142   4.529   6.678   2.474
 8415SOL     OW26143   0.129   5.682   4.006
 8415SOL    HW126144   0.206   5.665   4.067
 8415SOL    HW226145   0.044   5.653   4.050
 8416SOL     OW26146   5.390   4.437   3.166
 8416SOL    HW126147   5.424   4.526   3.198
 8416SOL    HW226148   5.456   4.398   3.102
 8417SOL     OW26149   1.049   5.337   5.725
 8417SOL    HW126150   1.106   5.257   5.704
 8417SOL    HW226151   1.075   5.373   5.814
 8418SOL     OW26152   6.334   5.501   1.716
 8418SOL    HW126153   6.405   5.536   1.777
 8418SOL    HW226154   6.323   5.563   1.638
 8419SOL     OW26155   5.011   1.104   2.467
 8419SOL    HW126156   5.091   1.051   2.439
 8419SOL    HW226157   4.988   1.169   2.395
 8420SOL     OW26158   4.075   0.082   0.705
 8420SOL    HW126159   4.031   0.018   0.769
 8420SOL    HW226160   4.163   0.111   0.742
 8421SOL     OW26161   2.460   6.451   0.946
 8421SOL    HW126162   2.484   6.465   0.850
 8421SOL    HW226163   2.508   6.372   0.982
 8422SOL     OW26164   4.625   0.068   1.445
 8422SOL    HW126165   4.629   0.107   1.537
 8422SOL    HW226166   4.708   0.090   1.396
 8423SOL     OW26167   4.141   3.766   5.913
 8423SOL    HW126168   4.146   3.719   5.825
 8423SOL    HW226169   4.105   3.858   5.899
 8424SOL     OW26170   2.296   2.731   2.687
 8424SOL    HW126171   2.382   2.741   2.737
 8424SOL    HW226172   2.314   2.724   2.589
 8425SOL     OW26173   5.743   5.708   1.411
 8425SOL    HW126174   5.683   5.644   1.460
 8425SOL    HW226175   5.749   5.794   1.462
 8426SOL     OW26176   3.439   2.925   4.336
 8426SOL    HW126177   3.509   2.882   4.393
 8426SOL    HW226178   3.361   2.952   4.393
 8427SOL     OW26179   2.676   3.516   5.975
 8427SOL    HW126180   2.744   3.450   6.007
 8427SOL    HW226181   2.669   3.590   6.042
 8428SOL     OW26182   6.563   4.096   1.809
 8428SOL    HW126183   6.536   4.013   1.760
 8428SOL    HW226184   6.608   4.159   1.746
 8429SOL     OW26185   2.313   4.360   3.774
 8429SOL    HW126186   2.361   4.397   3.853
 8429SOL    HW226187   2.363   4.384   3.690
 8430SOL     OW26188   4.174   5.723   3.737
 8430SOL    HW126189   4.257   5.758   3.693
 8430SOL    HW226190   4.154   5.631   3.703
 8431SOL     OW26191   2.881   5.365   0.676
 8431SOL    HW126192   2.860   5.284   0.731
 8431SOL    HW226193   2.895   5.339   0.581
 8432SOL     OW26194   5.046   6.586   5.728
 8432SOL    HW126195   5.009   6.628   5.811
 8432SOL    HW226196   5.025   6.488   5.728
 8433SOL     OW26197   6.438   2.464   6.816
 8433SOL    HW126198   6.467   2.472   6.912
 8433SOL    HW226199   6.512   2.495   6.757
 8434SOL     OW26200   2.918   6.429   5.026
 8434SOL    HW126201   2.833   6.464   5.065
 8434SOL    HW226202   2.901   6.342   4.979
 8435SOL     OW26203   5.137   0.549   0.849
 8435SOL    HW126204   5.209   0.606   0.889
 8435SOL    HW226205   5.147   0.548   0.749
 8436SOL     OW26206   3.227   6.967   4.423
 8436SOL    HW126207   3.224   6.957   4.324
 8436SOL    HW226208   3.310   6.924   4.458
 8437SOL     OW26209   1.659   0.055   2.998
 8437SOL    HW126210   1.605   6.992   2.982
 8437SOL    HW226211   1.658   0.111   2.915
 8438SOL     OW26212   2.805   4.987   2.391
 8438SOL    HW126213   2.782   4.999   2.295
 8438SOL    HW226214   2.808   4.889   2.413
 8439SOL     OW26215   6.778   5.474   1.327
 8439SOL    HW126216   6.823   5.562   1.310
 8439SOL    HW226217   6.735   5.475   1.417
 8440SOL     OW26218   0.427   1.418   3.851
 8440SOL    HW126219   0.403   1.331   3.808
 8440SOL    HW226220   0.490   1.401   3.927
 8441SOL     OW26221   6.414   6.910   6.964
 8441SOL    HW126222   6.382   6.997   6.999
 8441SOL    HW226223   6.356   6.881   6.888
 8442SOL     OW26224   3.517   2.747   6.210
 8442SOL    HW126225   3.529   2.808   6.289
 8442SOL    HW226226   3.577   2.668   6.219
 8443SOL     OW26227   1.177   6.601   3.377
 8443SOL    HW126228   1.225   6.514   3.388
 8443SOL    HW226229   1.212   6.667   3.443
 8444SOL     OW26230   3.440   5.957   3.733
 8444SOL    HW126231   3.357   5.990   3.688
 8444SOL    HW226232   3.426   5.956   3.832
 8445SOL     OW26233   3.475   5.140   1.913
 8445SOL    HW126234   3.525   5.226   1.916
 8445SOL    HW226235   3.384   5.155   1.877
 8446SOL     OW26236   4.481   4.859   0.995
 8446SOL    HW126237   4.382   4.860   1.012
 8446SOL    HW226238   4.498   4.851   0.897
 8447SOL     OW26239   5.857   2.303   2.410
 8447SOL    HW126240   5.799   2.312   2.491
 8447SOL    HW226241   5.805   2.262   2.336
 8448SOL     OW26242   5.739   4.923   4.612
 8448SOL    HW126243   5.677   4.984   4.661
 8448SOL    HW226244   5.700   4.831   4.608
 8449SOL     OW26245   6.789   2.859   4.178
 8449SOL    HW126246   6.806   2.840   4.081
 8449SOL    HW226247   6.778   2.958   4.191
 8450SOL     OW26248   1.603   5.873   1.836
 8450SOL    HW126249   1.604   5.775   1.855
 8450SOL    HW226250   1.530   5.916   1.889
 8451SOL     OW26251   4.987   3.064   0.050
 8451SOL    HW126252   4.889   3.047   0.037
 8451SOL    HW226253   5.001   3.163   0.060
 8452SOL     OW26254   0.189   0.811   2.039
 8452SOL    HW126255   0.267   0.855   1.995
 8452SOL    HW226256   0.207   0.713   2.050
 8453SOL     OW26257   6.489   4.043   6.845
 8453SOL    HW126258   6.451   4.127   6.807
 8453SOL    HW226259   6.423   3.969   6.835
 8454SOL     OW26260   0.442   6.443   0.463
 8454SOL    HW126261   0.442   6.347   0.492
 8454SOL    HW226262   0.438   6.502   0.544
 8455SOL     OW26263   5.150   2.069   0.978
 8455SOL    HW126264   5.127   2.080   1.075
 8455SOL    HW226265   5.112   1.983   0.944
 8456SOL     OW26266   4.764   4.211   3.089
 8456SOL    HW126267   4.740   4.143   3.019
 8456SOL    HW226268   4.852   4.252   3.067
 8457SOL     OW26269   0.174   6.461   5.077
 8457SOL    HW126270   0.079   6.464   5.044
 8457SOL    HW226271   0.185   6.383   5.139
 8458SOL     OW26272   2.243   1.505   6.699
 8458SOL    HW126273   2.296   1.503   6.614
 8458SOL    HW226274   2.293   1.558   6.767
 8459SOL     OW26275   3.102   6.443   1.432
 8459SOL    HW126276   3.120   6.363   1.489
 8459SOL    HW226277   3.189   6.490   1.413
 8460SOL     OW26278   4.178   2.449   5.791
 8460SOL    HW126279   4.164   2.463   5.889
 8460SOL    HW226280   4.267   2.485   5.765
 8461SOL     OW26281   0.270   3.823   2.266
 8461SOL    HW126282   0.251   3.730   2.235
 8461SOL    HW226283   0.201   3.850   2.333
 8462SOL     OW26284   3.741   2.302   0.398
 8462SOL    HW126285   3.786   2.364   0.463
 8462SOL    HW226286   3.710   2.220   0.447
 8463SOL     OW26287   6.514   0.676   0.499
 8463SOL    HW126288   6.422   0.716   0.492
 8463SOL    HW226289   6.575   0.740   0.546
 8464SOL     OW26290   6.131   3.847   5.621
 8464SOL    HW126291   6.128   3.804   5.531
 8464SOL    HW226292   6.100   3.942   5.614
 8465SOL     OW26293   2.375   2.613   0.639
 8465SOL    HW126294   2.280   2.611   0.608
 8465SOL    HW226295   2.377   2.628   0.738
 8466SOL     OW26296   6.485   6.702   6.027
 8466SOL    HW126297   6.516   6.727   6.119
 8466SOL    HW226298   6.410   6.763   6.000
 8467SOL     OW26299   3.978   0.607   1.375
 8467SOL    HW126300   4.057   0.583   1.432
 8467SOL    HW226301   3.977   0.705   1.357
 8468SOL     OW26302   4.924   2.523   0.057
 8468SOL    HW126303   4.882   2.506   0.146
 8468SOL    HW226304   4.933   2.437   0.007
 8469SOL     OW26305   2.458   1.715   5.672
 8469SOL    HW126306   2.525   1.788   5.685
 8469SOL    HW226307   2.434   1.708   5.575
 8470SOL     OW26308   1.070   4.780   0.364
 8470SOL    HW126309   1.158   4.772   0.316
 8470SOL    HW226310   1.079   4.847   0.438
 8471SOL     OW26311   4.127   0.323   5.028
 8471SOL    HW126312   4.226   0.337   5.032
 8471SOL    HW226313   4.083   0.374   5.102
 8472SOL     OW26314   5.895   0.474   5.719
 8472SOL    HW126315   5.946   0.532   5.656
 8472SOL    HW226316   5.952   0.454   5.799
 8473SOL     OW26317   6.671   5.503   1.049
 8473SOL    HW126318   6.732   5.475   1.123
 8473SOL    HW226319   6.702   5.590   1.011
 8474SOL     OW26320   3.531   3.596   2.086
 8474SOL    HW126321   3.466   3.606   2.161
 8474SOL    HW226322   3.586   3.514   2.100
 8475SOL     OW26323   0.166   2.732   3.169
 8475SOL    HW126324   0.168   2.648   3.115
 8475SOL    HW226325   0.235   2.727   3.241
 8476SOL     OW26326   6.129   1.235   0.992
 8476SOL    HW126327   6.041   1.251   0.949
 8476SOL    HW226328   6.143   1.302   1.066
 8477SOL     OW26329   4.519   6.636   2.798
 8477SOL    HW126330   4.477   6.689   2.871
 8477SOL    HW226331   4.598   6.587   2.834
 8478SOL     OW26332   1.352   0.127   5.697
 8478SOL    HW126333   1.436   0.167   5.732
 8478SOL    HW226334   1.373   0.041   5.650
 8479SOL     OW26335   1.803   3.338   0.994
 8479SOL    HW126336   1.715   3.306   0.958
 8479SOL    HW226337   1.875   3.274   0.969
 8480SOL     OW26338   5.278   3.135   0.079
 8480SOL    HW126339   5.349   3.180   0.025
 8480SOL    HW226340   5.237   3.061   0.025
 8481SOL     OW26341   4.488   2.627   5.079
 8481SOL    HW126342   4.414   2.580   5.031
 8481SOL    HW226343   4.574   2.611   5.030
 8482SOL     OW26344   4.957   0.016   2.611
 8482SOL    HW126345   4.960   0.091   2.545
 8482SOL    HW226346   5.049   6.998   2.623
 8483SOL     OW26347   3.488   5.860   1.972
 8483SOL    HW126348   3.441   5.948   1.968
 8483SOL    HW226349   3.562   5.864   2.039
 8484SOL     OW26350   6.992   6.434   3.896
 8484SOL    HW126351   0.009   6.524   3.920
 8484SOL    HW226352   6.986   6.377   3.977
 8485SOL     OW26353   3.956   2.522   0.122
 8485SOL    HW126354   3.974   2.488   0.215
 8485SOL    HW226355   3.875   2.476   0.085
 8486SOL     OW26356   2.450   1.474   2.148
 8486SOL    HW126357   2.391   1.548   2.180
 8486SOL    HW226358   2.394   1.404   2.104
 8487SOL     OW26359   6.084   1.930   5.707
 8487SOL    HW126360   6.112   2.002   5.643
 8487SOL    HW226361   5.996   1.892   5.677
 8488SOL     OW26362   5.617   6.717   1.702
 8488SOL    HW126363   5.660   6.706   1.612
 8488SOL    HW226364   5.535   6.774   1.693
 8489SOL     OW26365   6.386   1.511   1.488
 8489SOL    HW126366   6.346   1.537   1.576
 8489SOL    HW226367   6.359   1.578   1.418
 8490SOL     OW26368   3.662   6.637   5.341
 8490SOL    HW126369   3.717   6.697   5.283
 8490SOL    HW226370   3.569   6.630   5.304
 8491SOL     OW26371   2.019   6.332   1.790
 8491SOL    HW126372   1.940   6.291   1.834
 8491SOL    HW226373   2.100   6.276   1.808
 8492SOL     OW26374   5.597   4.662   5.442
 8492SOL    HW126375   5.666   4.713   5.493
 8492SOL    HW226376   5.635   4.634   5.354
 8493SOL     OW26377   2.256   2.135   6.059
 8493SOL    HW126378   2.198   2.060   6.025
 8493SOL    HW226379   2.330   2.153   5.994
 8494SOL     OW26380   4.110   5.126   1.238
 8494SOL    HW126381   4.011   5.131   1.251
 8494SOL    HW226382   4.152   5.211   1.269
 8495SOL     OW26383   6.845   4.886   1.596
 8495SOL    HW126384   6.814   4.975   1.629
 8495SOL    HW226385   6.911   4.848   1.661
 8496SOL     OW26386   1.329   1.777   2.550
 8496SOL    HW126387   1.339   1.689   2.502
 8496SOL    HW226388   1.366   1.769   2.642
 8497SOL     OW26389   6.967   1.210   3.603
 8497SOL    HW126390   6.923   1.169   3.522
 8497SOL    HW226391   6.900   1.265   3.653
 8498SOL     OW26392   6.377   6.700   2.954
 8498SOL    HW126393   6.377   6.618   2.897
 8498SOL    HW226394   6.310   6.765   2.918
 8499SOL     OW26395   2.143   4.267   6.709
 8499SOL    HW126396   2.098   4.188   6.752
 8499SOL    HW226397   2.107   4.351   6.749
 8500SOL     OW26398   1.429   5.878   5.156
 8500SOL    HW126399   1.453   5.942   5.083
 8500SOL    HW226400   1.331   5.859   5.153
 8501SOL     OW26401   7.015   3.001   5.704
 8501SOL    HW126402   6.916   3.009   5.691
 8501SOL    HW226403   0.019   3.037   5.794
 8502SOL     OW26404   0.338   3.247   1.304
 8502SOL    HW126405   0.432   3.242   1.338
 8502SOL    HW226406   0.332   3.197   1.217
 8503SOL     OW26407   0.286   5.462   4.834
 8503SOL    HW126408   0.350   5.511   4.894
 8503SOL    HW226409   0.199   5.449   4.881
 8504SOL     OW26410   2.262   5.258   2.454
 8504SOL    HW126411   2.198   5.181   2.455
 8504SOL    HW226412   2.232   5.324   2.384
 8505SOL     OW26413   6.652   3.705   2.791
 8505SOL    HW126414   6.649   3.803   2.810
 8505SOL    HW226415   6.614   3.687   2.700
 8506SOL     OW26416   1.409   1.339   6.996
 8506SOL    HW126417   1.361   1.323   0.062
 8506SOL    HW226418   1.481   1.406   7.009
 8507SOL     OW26419   3.598   6.567   4.761
 8507SOL    HW126420   3.510   6.612   4.744
 8507SOL    HW226421   3.585   6.468   4.764
 8508SOL     OW26422   5.156   2.129   4.176
 8508SOL    HW126423   5.074   2.151   4.229
 8508SOL    HW226424   5.234   2.179   4.213
 8509SOL     OW26425   5.012   1.062   3.294
 8509SOL    HW126426   4.998   0.974   3.340
 8509SOL    HW226427   4.981   1.136   3.353
 8510SOL     OW26428   5.960   4.635   2.853
 8510SOL    HW126429   5.898   4.707   2.823
 8510SOL    HW226430   5.933   4.602   2.943
 8511SOL     OW26431   6.160   3.953   2.312
 8511SOL    HW126432   6.128   3.992   2.398
 8511SOL    HW226433   6.257   3.972   2.300
 8512SOL     OW26434   2.594   0.796   2.593
 8512SOL    HW126435   2.554   0.788   2.684
 8512SOL    HW226436   2.680   0.746   2.589
 8513SOL     OW26437   6.532   5.096   0.727
 8513SOL    HW126438   6.566   5.057   0.813
 8513SOL    HW226439   6.537   5.026   0.655
 8514SOL     OW26440   1.813   1.558   3.567
 8514SOL    HW126441   1.829   1.486   3.499
 8514SOL    HW226442   1.760   1.632   3.526
 8515SOL     OW26443   4.708   2.521   1.147
 8515SOL    HW126444   4.783   2.543   1.084
 8515SOL    HW226445   4.744   2.509   1.239
 8516SOL     OW26446   0.754   1.838   2.018
 8516SOL    HW126447   0.685   1.896   2.062
 8516SOL    HW226448   0.842   1.885   2.019
 8517SOL     OW26449   0.850   2.867   5.483
 8517SOL    HW126450   0.876   2.832   5.394
 8517SOL    HW226451   0.926   2.856   5.547
 8518SOL     OW26452   4.766   3.795   6.955
 8518SOL    HW126453   4.765   3.895   6.967
 8518SOL    HW226454   4.729   3.752   0.018
 8519SOL     OW26455   1.801   5.037   1.873
 8519SOL    HW126456   1.855   5.080   1.946
 8519SOL    HW226457   1.722   5.094   1.853
 8520SOL     OW26458   3.442   1.370   1.116
 8520SOL    HW126459   3.488   1.459   1.114
 8520SOL    HW226460   3.395   1.355   1.029
 8521SOL     OW26461   1.543   5.311   5.847
 8521SOL    HW126462   1.475   5.345   5.782
 8521SOL    HW226463   1.620   5.273   5.797
 8522SOL     OW26464   1.283   6.218   2.000
 8522SOL    HW126465   1.265   6.166   2.083
 8522SOL    HW226466   1.208   6.206   1.935
 8523SOL     OW26467   3.226   6.439   6.711
 8523SOL    HW126468   3.176   6.513   6.756
 8523SOL    HW226469   3.192   6.427   6.618
 8524SOL     OW26470   1.008   2.078   4.985
 8524SOL    HW126471   0.988   2.051   4.890
 8524SOL    HW226472   0.923   2.099   5.032
 8525SOL     OW26473   6.237   4.338   3.106
 8525SOL    HW126474   6.296   4.375   3.178
 8525SOL    HW226475   6.221   4.408   3.036
 8526SOL     OW26476   2.892   4.201   0.709
 8526SOL    HW126477   2.904   4.267   0.635
 8526SOL    HW226478   2.891   4.249   0.797
 8527SOL     OW26479   3.057   0.206   5.121
 8527SOL    HW126480   3.057   0.294   5.170
 8527SOL    HW226481   3.006   0.139   5.174
 8528SOL     OW26482   5.200   2.908   5.937
 8528SOL    HW126483   5.231   2.830   5.992
 8528SOL    HW226484   5.257   2.915   5.855
 8529SOL     OW26485   1.222   0.105   6.862
 8529SOL    HW126486   1.220   0.179   6.929
 8529SOL    HW226487   1.309   0.055   6.870
 8530SOL     OW26488   1.704   4.355   5.475
 8530SOL    HW126489   1.772   4.414   5.520
 8530SOL    HW226490   1.697   4.269   5.524
 8531SOL     OW26491   5.493   4.186   2.412
 8531SOL    HW126492   5.404   4.229   2.399
 8531SOL    HW226493   5.481   4.092   2.441
 8532SOL     OW26494   3.683   5.368   4.633
 8532SOL    HW126495   3.688   5.350   4.731
 8532SOL    HW226496   3.619   5.303   4.591
 8533SOL     OW26497   2.076   6.911   5.998
 8533SOL    HW126498   2.050   6.817   5.979
 8533SOL    HW226499   2.101   6.920   6.095
 8534SOL     OW26500   0.237   3.874   3.960
 8534SOL    HW126501   0.261   3.969   3.980
 8534SOL    HW226502   0.211   3.865   3.864
 8535SOL     OW26503   0.583   1.472   5.011
 8535SOL    HW126504   0.613   1.501   4.920
 8535SOL    HW226505   0.622   1.383   5.033
 8536SOL     OW26506   6.101   1.757   4.547
 8536SOL    HW126507   6.089   1.833   4.484
 8536SOL    HW226508   6.038   1.683   4.523
 8537SOL     OW26509   5.710   1.837   1.674
 8537SOL    HW126510   5.778   1.818   1.745
 8537SOL    HW226511   5.684   1.752   1.628
 8538SOL     OW26512   0.158   1.213   5.527
 8538SOL    HW126513   0.174   1.201   5.429
 8538SOL    HW226514   0.061   1.226   5.543
 8539SOL     OW26515   6.634   2.167   2.215
 8539SOL    HW126516   6.585   2.148   2.130
 8539SOL    HW226517   6.704   2.096   2.229
 8540SOL     OW26518   3.302   1.667   0.330
 8540SOL    HW126519   3.214   1.683   0.373
 8540SOL    HW226520   3.289   1.659   0.231
 8541SOL     OW26521   3.057   1.773   4.308
 8541SOL    HW126522   3.155   1.782   4.325
 8541SOL    HW226523   3.029   1.678   4.324
 8542SOL     OW26524   2.666   4.273   5.985
 8542SOL    HW126525   2.642   4.354   6.038
 8542SOL    HW226526   2.704   4.203   6.046
 8543SOL     OW26527   2.787   1.522   5.920
 8543SOL    HW126528   2.783   1.568   5.832
 8543SOL    HW226529   2.724   1.565   5.984
 8544SOL     OW26530   5.647   2.948   4.520
 8544SOL    HW126531   5.690   3.029   4.480
 8544SOL    HW226532   5.676   2.867   4.469
 8545SOL     OW26533   4.041   6.782   4.806
 8545SOL    HW126534   4.072   6.839   4.730
 8545SOL    HW226535   3.941   6.772   4.802
 8546SOL     OW26536   6.634   0.023   2.253
 8546SOL    HW126537   6.612   0.039   2.157
 8546SOL    HW226538   6.603   6.952   2.280
 8547SOL     OW26539   0.843   0.161   5.867
 8547SOL    HW126540   0.929   0.211   5.855
 8547SOL    HW226541   0.771   0.206   5.814
 8548SOL     OW26542   6.865   3.955   5.345
 8548SOL    HW126543   6.857   3.860   5.314
 8548SOL    HW226544   6.961   3.982   5.345
 8549SOL     OW26545   1.112   2.481   4.414
 8549SOL    HW126546   1.067   2.395   4.436
 8549SOL    HW226547   1.190   2.494   4.476
 8550SOL     OW26548   1.528   4.489   6.932
 8550SOL    HW126549   1.512   4.499   6.834
 8550SOL    HW226550   1.607   4.545   6.959
 8551SOL     OW26551   3.085   2.797   6.994
 8551SOL    HW126552   3.009   2.860   6.976
 8551SOL    HW226553   3.104   2.794   0.072
 8552SOL     OW26554   2.051   0.392   2.814
 8552SOL    HW126555   1.992   0.457   2.863
 8552SOL    HW226556   2.145   0.402   2.847
 8553SOL     OW26557   4.339   4.332   6.872
 8553SOL    HW126558   4.434   4.305   6.889
 8553SOL    HW226559   4.277   4.263   6.911
 8554SOL     OW26560   0.384   5.671   0.780
 8554SOL    HW126561   0.419   5.690   0.689
 8554SOL    HW226562   0.298   5.721   0.794
 8555SOL     OW26563   3.810   1.387   3.416
 8555SOL    HW126564   3.780   1.481   3.431
 8555SOL    HW226565   3.846   1.349   3.502
 8556SOL     OW26566   2.221   6.207   5.072
 8556SOL    HW126567   2.147   6.165   5.124
 8556SOL    HW226568   2.305   6.209   5.127
 8557SOL     OW26569   6.705   0.343   2.128
 8557SOL    HW126570   6.665   0.309   2.213
 8557SOL    HW226571   6.681   0.282   2.053
 8558SOL     OW26572   1.953   5.227   3.171
 8558SOL    HW126573   2.044   5.267   3.179
 8558SOL    HW226574   1.883   5.296   3.190
 8559SOL     OW26575   1.781   6.318   2.561
 8559SOL    HW126576   1.693   6.357   2.534
 8559SOL    HW226577   1.829   6.283   2.480
 8560SOL     OW26578   0.974   5.575   1.680
 8560SOL    HW126579   0.912   5.622   1.617
 8560SOL    HW226580   0.956   5.606   1.773
 8561SOL     OW26581   3.135   0.055   3.585
 8561SOL    HW126582   3.049   0.018   3.619
 8561SOL    HW226583   3.121   0.092   3.493
 8562SOL     OW26584   3.633   6.658   0.035
 8562SOL    HW126585   3.586   6.727   0.090
 8562SOL    HW226586   3.585   6.648   6.968
 8563SOL     OW26587   0.743   4.923   1.927
 8563SOL    HW126588   0.659   4.920   1.873
 8563SOL    HW226589   0.818   4.884   1.874
 8564SOL     OW26590   3.439   6.462   5.277
 8564SOL    HW126591   3.406   6.378   5.321
 8564SOL    HW226592   3.399   6.470   5.186
 8565SOL     OW26593   3.632   4.805   0.932
 8565SOL    HW126594   3.677   4.780   0.846
 8565SOL    HW226595   3.559   4.740   0.952
 8566SOL     OW26596   1.109   0.352   1.753
 8566SOL    HW126597   1.206   0.375   1.768
 8566SOL    HW226598   1.081   0.281   1.818
 8567SOL     OW26599   1.047   1.850   2.246
 8567SOL    HW126600   1.018   1.927   2.189
 8567SOL    HW226601   1.147   1.846   2.247
 8568SOL     OW26602   5.573   1.986   0.357
 8568SOL    HW126603   5.636   2.013   0.430
 8568SOL    HW226604   5.622   1.982   0.270
 8569SOL     OW26605   5.449   2.086   5.214
 8569SOL    HW126606   5.533   2.099   5.268
 8569SOL    HW226607   5.447   2.152   5.139
 8570SOL     OW26608   1.341   1.595   4.632
 8570SOL    HW126609   1.294   1.634   4.711
 8570SOL    HW226610   1.433   1.567   4.657
 8571SOL     OW26611   0.869   6.792   5.019
 8571SOL    HW126612   0.805   6.834   4.954
 8571SOL    HW226613   0.961   6.791   4.978
 8572SOL     OW26614   1.658   4.633   5.275
 8572SOL    HW126615   1.754   4.614   5.254
 8572SOL    HW226616   1.653   4.706   5.343
 8573SOL     OW26617   3.355   5.948   6.127
 8573SOL    HW126618   3.289   5.938   6.053
 8573SOL    HW226619   3.390   6.042   6.128
 8574SOL     OW26620   6.082   0.102   6.326
 8574SOL    HW126621   6.094   0.151   6.240
 8574SOL    HW226622   6.140   0.021   6.327
 8575SOL     OW26623   3.021   2.046   3.471
 8575SOL    HW126624   3.066   2.106   3.537
 8575SOL    HW226625   3.055   2.065   3.379
 8576SOL     OW26626   1.531   4.927   4.113
 8576SOL    HW126627   1.572   4.869   4.183
 8576SOL    HW226628   1.592   5.005   4.095
 8577SOL     OW26629   1.854   6.906   6.298
 8577SOL    HW126630   1.837   6.889   6.201
 8577SOL    HW226631   1.937   6.857   6.326
 8578SOL     OW26632   6.586   4.937   5.724
 8578SOL    HW126633   6.630   4.849   5.743
 8578SOL    HW226634   6.534   4.966   5.804
 8579SOL     OW26635   1.487   6.373   1.881
 8579SOL    HW126636   1.542   6.411   1.956
 8579SOL    HW226637   1.410   6.321   1.919
 8580SOL     OW26638   1.825   6.031   0.640
 8580SOL    HW126639   1.772   5.959   0.595
 8580SOL    HW226640   1.776   6.062   0.721
 8581SOL     OW26641   3.477   4.572   1.330
 8581SOL    HW126642   3.431   4.484   1.313
 8581SOL    HW226643   3.448   4.607   1.419
 8582SOL     OW26644   5.024   4.462   4.948
 8582SOL    HW126645   4.977   4.490   5.032
 8582SOL    HW226646   5.043   4.542   4.892
 8583SOL     OW26647   3.440   6.944   2.905
 8583SOL    HW126648   3.484   6.856   2.921
 8583SOL    HW226649   3.502   7.004   2.856
 8584SOL     OW26650   1.080   6.373   5.514
 8584SOL    HW126651   1.092   6.472   5.518
 8584SOL    HW226652   1.048   6.347   5.423
 8585SOL     OW26653   6.193   0.918   0.953
 8585SOL    HW126654   6.183   1.002   1.006
 8585SOL    HW226655   6.107   0.897   0.906
 8586SOL     OW26656   3.779   6.752   1.712
 8586SOL    HW126657   3.697   6.783   1.759
 8586SOL    HW226658   3.757   6.672   1.656
 8587SOL     OW26659   0.975   1.375   5.073
 8587SOL    HW126660   0.942   1.469   5.087
 8587SOL    HW226661   1.038   1.351   5.147
 8588SOL     OW26662   4.344   1.580   0.017
 8588SOL    HW126663   4.415   1.557   0.083
 8588SOL    HW226664   4.370   1.545   6.946
 8589SOL     OW26665   6.550   2.825   4.714
 8589SOL    HW126666   6.575   2.739   4.671
 8589SOL    HW226667   6.628   2.887   4.714
 8590SOL     OW26668   0.651   0.724   2.267
 8590SOL    HW126669   0.693   0.717   2.176
 8590SOL    HW226670   0.695   0.798   2.318
 8591SOL     OW26671   0.284   4.051   0.359
 8591SOL    HW126672   0.286   4.039   0.260
 8591SOL    HW226673   0.216   3.991   0.399
 8592SOL     OW26674   5.911   2.488   6.959
 8592SOL    HW126675   5.972   2.513   6.884
 8592SOL    HW226676   5.831   2.441   6.923
 8593SOL     OW26677   3.361   1.356   6.643
 8593SOL    HW126678   3.460   1.371   6.643
 8593SOL    HW226679   3.315   1.437   6.605
 8594SOL     OW26680   5.560   2.077   5.667
 8594SOL    HW126681   5.614   2.161   5.677
 8594SOL    HW226682   5.539   2.040   5.758
 8595SOL     OW26683   6.048   0.954   4.005
 8595SOL    HW126684   6.047   0.953   4.105
 8595SOL    HW226685   6.029   1.046   3.972
 8596SOL     OW26686   1.424   4.944   2.965
 8596SOL    HW126687   1.494   4.992   3.017
 8596SOL    HW226688   1.441   4.845   2.968
 8597SOL     OW26689   5.261   2.374   1.522
 8597SOL    HW126690   5.291   2.324   1.441
 8597SOL    HW226691   5.198   2.316   1.575
 8598SOL     OW26692   5.701   0.132   6.488
 8598SOL    HW126693   5.662   0.043   6.465
 8598SOL    HW226694   5.797   0.122   6.511
 8599SOL     OW26695   1.402   3.079   5.001
 8599SOL    HW126696   1.309   3.114   5.009
 8599SOL    HW226697   1.420   3.054   4.906
 8600SOL     OW26698   5.521   3.573   6.762
 8600SOL    HW126699   5.577   3.654   6.780
 8600SOL    HW226700   5.566   3.516   6.694
 8601SOL     OW26701   1.137   1.912   4.191
 8601SOL    HW126702   1.091   1.856   4.260
 8601SOL    HW226703   1.073   1.931   4.116
 8602SOL     OW26704   2.241   0.118   2.352
 8602SOL    HW126705   2.328   0.162   2.375
 8602SOL    HW226706   2.258   0.046   2.284
 8603SOL     OW26707   5.146   0.089   1.175
 8603SOL    HW126708   5.134   0.161   1.106
 8603SOL    HW226709   5.205   0.124   1.248
 8604SOL     OW26710   1.410   1.768   5.964
 8604SOL    HW126711   1.459   1.853   5.984
 8604SOL    HW226712   1.331   1.761   6.024
 8605SOL     OW26713   2.059   5.386   3.429
 8605SOL    HW126714   2.009   5.472   3.438
 8605SOL    HW226715   1.996   5.309   3.443
 8606SOL     OW26716   2.481   3.120   6.991
 8606SOL    HW126717   2.402   3.155   0.021
 8606SOL    HW226718   2.527   3.050   0.025
 8607SOL     OW26719   2.531   4.814   6.205
 8607SOL    HW126720   2.534   4.794   6.107
 8607SOL    HW226721   2.445   4.778   6.243
 8608SOL     OW26722   2.294   4.717   2.657
 8608SOL    HW126723   2.361   4.676   2.720
 8608SOL    HW226724   2.251   4.796   2.700
 8609SOL     OW26725   5.182   0.844   3.237
 8609SOL    HW126726   5.282   0.846   3.236
 8609SOL    HW226727   5.149   0.926   3.285
 8610SOL     OW26728   0.454   0.602   2.920
 8610SOL    HW126729   0.379   0.536   2.917
 8610SOL    HW226730   0.512   0.584   2.999
 8611SOL     OW26731   2.989   0.962   4.285
 8611SOL    HW126732   3.083   0.925   4.278
 8611SOL    HW226733   2.943   0.948   4.197
 8612SOL     OW26734   3.056   3.316   1.552
 8612SOL    HW126735   3.106   3.325   1.466
 8612SOL    HW226736   2.969   3.365   1.546
 8613SOL     OW26737   2.913   1.823   1.793
 8613SOL    HW126738   2.940   1.890   1.723
 8613SOL    HW226739   2.816   1.834   1.814
 8614SOL     OW26740   0.824   2.951   3.187
 8614SOL    HW126741   0.856   2.944   3.282
 8614SOL    HW226742   0.764   2.874   3.166
 8615SOL     OW26743   4.591   2.064   5.229
 8615SOL    HW126744   4.650   2.083   5.308
 8615SOL    HW226745   4.647   2.035   5.152
 8616SOL     OW26746   2.948   4.814   2.021
 8616SOL    HW126747   2.887   4.886   2.053
 8616SOL    HW226748   2.894   4.740   1.981
 8617SOL     OW26749   5.994   0.971   4.333
 8617SOL    HW126750   6.073   0.938   4.385
 8617SOL    HW226751   5.910   0.942   4.377
 8618SOL     OW26752   6.473   4.945   1.911
 8618SOL    HW126753   6.465   4.964   2.008
 8618SOL    HW226754   6.519   4.857   1.897
 8619SOL     OW26755   4.150   5.363   2.416
 8619SOL    HW126756   4.117   5.304   2.489
 8619SOL    HW226757   4.146   5.315   2.329
 8620SOL     OW26758   2.243   6.009   3.634
 8620SOL    HW126759   2.305   6.024   3.711
 8620SOL    HW226760   2.195   6.095   3.613
 8621SOL     OW26761   5.129   3.064   2.365
 8621SOL    HW126762   5.203   3.084   2.429
 8621SOL    HW226763   5.070   3.143   2.357
 8622SOL     OW26764   4.902   4.396   1.416
 8622SOL    HW126765   4.825   4.352   1.369
 8622SOL    HW226766   4.886   4.495   1.421
 8623SOL     OW26767   1.048   4.383   5.631
 8623SOL    HW126768   1.114   4.354   5.562
 8623SOL    HW226769   1.085   4.461   5.682
 8624SOL     OW26770   2.031   3.754   5.661
 8624SOL    HW126771   2.062   3.782   5.752
 8624SOL    HW226772   2.048   3.827   5.596
 8625SOL     OW26773   5.042   1.054   5.429
 8625SOL    HW126774   5.014   1.008   5.514
 8625SOL    HW226775   5.121   1.006   5.391
 8626SOL     OW26776   4.313   2.182   6.769
 8626SOL    HW126777   4.267   2.264   6.736
 8626SOL    HW226778   4.248   2.105   6.768
 8627SOL     OW26779   2.292   1.697   2.178
 8627SOL    HW126780   2.193   1.686   2.188
 8627SOL    HW226781   2.312   1.739   2.089
 8628SOL     OW26782   5.771   6.693   0.534
 8628SOL    HW126783   5.691   6.747   0.558
 8628SOL    HW226784   5.745   6.597   0.524
 8629SOL     OW26785   1.732   6.407   5.282
 8629SOL    HW126786   1.659   6.376   5.220
 8629SOL    HW226787   1.706   6.495   5.322
 8630SOL     OW26788   5.181   3.271   3.752
 8630SOL    HW126789   5.137   3.352   3.713
 8630SOL    HW226790   5.278   3.272   3.728
 8631SOL     OW26791   1.131   5.701   6.154
 8631SOL    HW126792   1.212   5.653   6.187
 8631SOL    HW226793   1.157   5.791   6.120
 8632SOL     OW26794   4.240   5.126   5.209
 8632SOL    HW126795   4.166   5.180   5.169
 8632SOL    HW226796   4.311   5.111   5.140
 8633SOL     OW26797   5.798   2.817   5.949
 8633SOL    HW126798   5.865   2.890   5.932
 8633SOL    HW226799   5.707   2.847   5.919
 8634SOL     OW26800   4.792   4.046   6.351
 8634SOL    HW126801   4.824   3.952   6.356
 8634SOL    HW226802   4.823   4.097   6.431
 8635SOL     OW26803   5.499   2.961   6.171
 8635SOL    HW126804   5.505   3.060   6.158
 8635SOL    HW226805   5.454   2.942   6.258
 8636SOL     OW26806   5.709   6.218   0.954
 8636SOL    HW126807   5.609   6.212   0.955
 8636SOL    HW226808   5.742   6.254   1.042
 8637SOL     OW26809   1.858   1.659   6.818
 8637SOL    HW126810   1.918   1.644   6.739
 8637SOL    HW226811   1.798   1.736   6.800
 8638SOL     OW26812   3.886   2.154   4.821
 8638SOL    HW126813   3.946   2.146   4.901
 8638SOL    HW226814   3.791   2.150   4.851
 8639SOL     OW26815   5.117   3.038   6.813
 8639SOL    HW126816   5.072   3.054   6.901
 8639SOL    HW226817   5.049   3.012   6.745
 8640SOL     OW26818   3.820   3.209   0.158
 8640SOL    HW126819   3.810   3.111   0.176
 8640SOL    HW226820   3.737   3.244   0.116
 8641SOL     OW26821   4.172   4.749   4.251
 8641SOL    HW126822   4.180   4.824   4.318
 8641SOL    HW226823   4.076   4.740   4.223
 8642SOL     OW26824   1.025   6.598   4.165
 8642SOL    HW126825   1.115   6.578   4.126
 8642SOL    HW226826   1.026   6.578   4.263
 8643SOL     OW26827   1.501   0.592   0.185
 8643SOL    HW126828   1.444   0.602   0.103
 8643SOL    HW226829   1.490   0.500   0.222
 8644SOL     OW26830   5.643   2.587   5.633
 8644SOL    HW126831   5.730   2.545   5.661
 8644SOL    HW226832   5.655   2.637   5.547
 8645SOL     OW26833   4.291   4.798   1.688
 8645SOL    HW126834   4.279   4.851   1.605
 8645SOL    HW226835   4.307   4.860   1.765
 8646SOL     OW26836   0.156   1.836   6.501
 8646SOL    HW126837   0.133   1.904   6.431
 8646SOL    HW226838   0.123   1.867   6.590
 8647SOL     OW26839   2.616   4.772   7.016
 8647SOL    HW126840   2.664   4.858   6.998
 8647SOL    HW226841   2.652   4.701   6.955
 8648SOL     OW26842   6.679   0.203   2.452
 8648SOL    HW126843   6.759   0.211   2.511
 8648SOL    HW226844   6.682   0.115   2.404
 8649SOL     OW26845   5.914   5.616   0.293
 8649SOL    HW126846   5.910   5.652   0.387
 8649SOL    HW226847   5.872   5.682   0.231
 8650SOL     OW26848   1.494   6.619   4.926
 8650SOL    HW126849   1.446   6.692   4.877
 8650SOL    HW226850   1.478   6.532   4.881
 8651SOL     OW26851   3.828   0.715   0.449
 8651SOL    HW126852   3.795   0.799   0.407
 8651SOL    HW226853   3.863   0.654   0.378
 8652SOL     OW26854   1.094   4.851   3.076
 8652SOL    HW126855   1.160   4.782   3.106
 8652SOL    HW226856   1.065   4.830   2.982
 8653SOL     OW26857   6.961   1.224   6.559
 8653SOL    HW126858   6.907   1.176   6.490
 8653SOL    HW226859   0.036   1.231   6.527
 8654SOL     OW26860   0.685   4.716   1.671
 8654SOL    HW126861   0.625   4.792   1.696
 8654SOL    HW226862   0.780   4.748   1.665
 8655SOL     OW26863   5.716   0.359   4.507
 8655SOL    HW126864   5.771   0.306   4.443
 8655SOL    HW226865   5.760   0.359   4.597
 8656SOL     OW26866   6.408   0.705   2.346
 8656SOL    HW126867   6.413   0.630   2.280
 8656SOL    HW226868   6.331   0.764   2.322
 8657SOL     OW26869   5.315   5.795   0.321
 8657SOL    HW126870   5.395   5.746   0.285
 8657SOL    HW226871   5.233   5.767   0.271
 8658SOL     OW26872   6.590   5.990   0.457
 8658SOL    HW126873   6.660   6.024   0.394
 8658SOL    HW226874   6.634   5.956   0.540
 8659SOL     OW26875   5.185   2.279   2.306
 8659SOL    HW126876   5.149   2.311   2.219
 8659SOL    HW226877   5.112   2.237   2.360
 8660SOL     OW26878   6.568   3.627   1.812
 8660SOL    HW126879   6.531   3.716   1.787
 8660SOL    HW226880   6.493   3.565   1.833
 8661SOL     OW26881   6.325   3.503   1.365
 8661SOL    HW126882   6.256   3.457   1.310
 8661SOL    HW226883   6.283   3.539   1.449
 8662SOL     OW26884   4.262   5.530   1.712
 8662SOL    HW126885   4.284   5.458   1.777
 8662SOL    HW226886   4.198   5.495   1.643
 8663SOL     OW26887   2.210   5.472   2.238
 8663SOL    HW126888   2.266   5.516   2.308
 8663SOL    HW226889   2.240   5.501   2.148
 8664SOL     OW26890   2.270   4.735   1.551
 8664SOL    HW126891   2.240   4.824   1.519
 8664SOL    HW226892   2.309   4.683   1.475
 8665SOL     OW26893   5.780   5.471   4.822
 8665SOL    HW126894   5.836   5.417   4.759
 8665SOL    HW226895   5.744   5.411   4.894
 8666SOL     OW26896   5.721   0.815   4.102
 8666SOL    HW126897   5.745   0.731   4.148
 8666SOL    HW226898   5.802   0.873   4.093
 8667SOL     OW26899   4.829   2.089   4.011
 8667SOL    HW126900   4.826   2.133   4.101
 8667SOL    HW226901   4.875   2.000   4.019
 8668SOL     OW26902   5.304   3.875   3.792
 8668SOL    HW126903   5.390   3.824   3.788
 8668SOL    HW226904   5.243   3.833   3.859
 8669SOL     OW26905   0.322   6.081   6.725
 8669SOL    HW126906   0.363   6.155   6.672
 8669SOL    HW226907   0.264   6.026   6.666
 8670SOL     OW26908   3.673   5.595   6.536
 8670SOL    HW126909   3.753   5.552   6.494
 8670SOL    HW226910   3.605   5.615   6.466
 8671SOL     OW26911   0.565   1.560   3.521
 8671SOL    HW126912   0.491   1.560   3.588
 8671SOL    HW226913   0.538   1.505   3.442
 8672SOL     OW26914   0.510   6.142   3.605
 8672SOL    HW126915   0.505   6.207   3.529
 8672SOL    HW226916   0.434   6.159   3.668
 8673SOL     OW26917   6.135   1.784   0.171
 8673SOL    HW126918   6.131   1.760   0.074
 8673SOL    HW226919   6.042   1.803   0.204
 8674SOL     OW26920   5.780   5.517   3.028
 8674SOL    HW126921   5.782   5.428   3.074
 8674SOL    HW226922   5.783   5.590   3.096
 8675SOL     OW26923   4.533   1.630   4.855
 8675SOL    HW126924   4.491   1.707   4.808
 8675SOL    HW226925   4.621   1.610   4.812
 8676SOL     OW26926   5.277   6.551   3.031
 8676SOL    HW126927   5.366   6.584   3.000
 8676SOL    HW226928   5.277   6.451   3.033
 8677SOL     OW26929   2.188   5.863   5.736
 8677SOL    HW126930   2.280   5.848   5.773
 8677SOL    HW226931   2.179   5.818   5.648
 8678SOL     OW26932   0.933   6.974   0.824
 8678SOL    HW126933   0.951   6.878   0.803
 8678SOL    HW226934   0.881   7.016   0.749
 8679SOL     OW26935   1.485   1.519   3.201
 8679SOL    HW126936   1.450   1.445   3.259
 8679SOL    HW226937   1.408   1.570   3.163
 8680SOL     OW26938   5.788   3.815   0.068
 8680SOL    HW126939   5.794   3.716   0.077
 8680SOL    HW226940   5.753   3.854   0.154
 8681SOL     OW26941   4.799   5.345   1.566
 8681SOL    HW126942   4.723   5.409   1.572
 8681SOL    HW226943   4.789   5.273   1.635
 8682SOL     OW26944   6.071   0.217   2.402
 8682SOL    HW126945   6.132   0.176   2.469
 8682SOL    HW226946   5.978   0.182   2.416
 8683SOL     OW26947   1.832   2.046   5.598
 8683SOL    HW126948   1.865   1.958   5.631
 8683SOL    HW226949   1.743   2.033   5.552
 8684SOL     OW26950   6.260   3.494   4.393
 8684SOL    HW126951   6.215   3.432   4.330
 8684SOL    HW226952   6.268   3.585   4.351
 8685SOL     OW26953   6.079   3.013   6.425
 8685SOL    HW126954   6.016   3.062   6.485
 8685SOL    HW226955   6.163   2.993   6.475
 8686SOL     OW26956   6.703   0.784   1.946
 8686SOL    HW126957   6.790   0.797   1.994
 8686SOL    HW226958   6.628   0.819   2.002
 8687SOL     OW26959   5.315   5.371   2.863
 8687SOL    HW126960   5.382   5.440   2.888
 8687SOL    HW226961   5.310   5.363   2.764
 8688SOL     OW26962   1.404   5.010   6.643
 8688SOL    HW126963   1.413   4.970   6.552
 8688SOL    HW226964   1.363   4.943   6.705
 8689SOL     OW26965   4.268   2.639   0.772
 8689SOL    HW126966   4.202   2.576   0.731
 8689SOL    HW226967   4.353   2.637   0.720
 8690SOL     OW26968   0.975   3.578   4.031
 8690SOL    HW126969   0.916   3.498   4.013
 8690SOL    HW226970   1.065   3.547   4.061
 8691SOL     OW26971   4.266   2.170   6.333
 8691SOL    HW126972   4.206   2.185   6.412
 8691SOL    HW226973   4.210   2.163   6.250
 8692SOL     OW26974   3.628   0.583   4.544
 8692SOL    HW126975   3.617   0.518   4.469
 8692SOL    HW226976   3.693   0.546   4.611
 8693SOL     OW26977   6.072   0.199   0.224
 8693SOL    HW126978   6.131   0.184   0.304
 8693SOL    HW226979   6.077   0.295   0.196
 8694SOL     OW26980   5.602   1.358   5.146
 8694SOL    HW126981   5.542   1.336   5.068
 8694SOL    HW226982   5.687   1.398   5.112
 8695SOL     OW26983   4.145   2.975   6.294
 8695SOL    HW126984   4.188   2.930   6.373
 8695SOL    HW226985   4.068   3.031   6.325
 8696SOL     OW26986   2.746   5.730   5.363
 8696SOL    HW126987   2.749   5.636   5.327
 8696SOL    HW226988   2.790   5.792   5.298
 8697SOL     OW26989   0.579   4.138   6.577
 8697SOL    HW126990   0.607   4.122   6.483
 8697SOL    HW226991   0.481   4.158   6.580
 8698SOL     OW26992   4.779   6.031   4.833
 8698SOL    HW126993   4.876   6.042   4.850
 8698SOL    HW226994   4.748   5.942   4.868
 8699SOL     OW26995   1.711   3.372   5.049
 8699SOL    HW126996   1.794   3.420   5.022
 8699SOL    HW226997   1.734   3.298   5.113
 8700SOL     OW26998   0.412   0.637   4.823
 8700SOL    HW126999   0.496   0.659   4.774
 8700SOL    HW227000   0.385   0.715   4.880
 8701SOL     OW27001   1.457   1.479   0.550
 8701SOL    HW127002   1.462   1.429   0.464
 8701SOL    HW227003   1.508   1.564   0.542
 8702SOL     OW27004   5.232   5.163   1.776
 8702SOL    HW127005   5.167   5.111   1.720
 8702SOL    HW227006   5.187   5.192   1.861
 8703SOL     OW27007   2.687   4.580   6.826
 8703SOL    HW127008   2.768   4.622   6.785
 8703SOL    HW227009   2.616   4.569   6.757
 8704SOL     OW27010   0.128   4.471   3.331
 8704SOL    HW127011   0.050   4.409   3.336
 8704SOL    HW227012   0.173   4.476   3.420
 8705SOL     OW27013   5.067   1.700   6.300
 8705SOL    HW127014   4.979   1.725   6.340
 8705SOL    HW227015   5.116   1.783   6.272
 8706SOL     OW27016   4.577   2.265   0.359
 8706SOL    HW127017   4.561   2.202   0.435
 8706SOL    HW227018   4.522   2.348   0.372
 8707SOL     OW27019   1.325   2.271   4.740
 8707SOL    HW127020   1.398   2.208   4.716
 8707SOL    HW227021   1.329   2.352   4.681
 8708SOL     OW27022   4.104   1.612   3.512
 8708SOL    HW127023   4.091   1.709   3.494
 8708SOL    HW227024   4.016   1.569   3.530
 8709SOL     OW27025   6.719   6.720   6.889
 8709SOL    HW127026   6.653   6.794   6.888
 8709SOL    HW227027   6.775   6.725   6.971
 8710SOL     OW27028   2.314   2.270   4.115
 8710SOL    HW127029   2.226   2.268   4.070
 8710SOL    HW227030   2.303   2.300   4.210
 8711SOL     OW27031   1.863   6.585   3.042
 8711SOL    HW127032   1.925   6.566   2.966
 8711SOL    HW227033   1.911   6.641   3.110
 8712SOL     OW27034   3.602   1.365   4.893
 8712SOL    HW127035   3.701   1.369   4.884
 8712SOL    HW227036   3.571   1.438   4.954
 8713SOL     OW27037   6.879   3.426   1.794
 8713SOL    HW127038   6.945   3.352   1.787
 8713SOL    HW227039   6.787   3.389   1.803
 8714SOL     OW27040   1.522   0.490   6.150
 8714SOL    HW127041   1.576   0.448   6.077
 8714SOL    HW227042   1.556   0.460   6.239
 8715SOL     OW27043   3.909   1.014   0.455
 8715SOL    HW127044   3.856   1.099   0.454
 8715SOL    HW227045   3.952   1.000   0.366
 8716SOL     OW27046   0.099   6.182   0.088
 8716SOL    HW127047   0.093   6.279   0.111
 8716SOL    HW227048   0.046   6.164   0.004
 8717SOL     OW27049   2.712   3.387   5.518
 8717SOL    HW127050   2.798   3.358   5.560
 8717SOL    HW227051   2.664   3.306   5.483
 8718SOL     OW27052   1.488   2.040   6.040
 8718SOL    HW127053   1.484   2.087   6.128
 8718SOL    HW227054   1.583   2.025   6.014
 8719SOL     OW27055   3.466   0.190   0.345
 8719SOL    HW127056   3.439   0.175   0.250
 8719SOL    HW227057   3.513   0.277   0.353
 8720SOL     OW27058   1.002   6.679   5.748
 8720SOL    HW127059   1.024   6.605   5.811
 8720SOL    HW227060   1.074   6.749   5.751
 8721SOL     OW27061   6.412   1.320   0.854
 8721SOL    HW127062   6.350   1.376   0.799
 8721SOL    HW227063   6.361   1.273   0.925
 8722SOL     OW27064   3.179   0.736   1.442
 8722SOL    HW127065   3.121   0.787   1.505
 8722SOL    HW227066   3.190   0.642   1.475
 8723SOL     OW27067   5.452   0.316   1.898
 8723SOL    HW127068   5.368   0.351   1.856
 8723SOL    HW227069   5.457   0.217   1.886
 8724SOL     OW27070   5.836   0.113   4.376
 8724SOL    HW127071   5.873   0.029   4.336
 8724SOL    HW227072   5.736   0.110   4.372
 8725SOL     OW27073   1.268   5.665   5.730
 8725SOL    HW127074   1.213   5.661   5.813
 8725SOL    HW227075   1.246   5.749   5.680
 8726SOL     OW27076   6.976   0.629   1.814
 8726SOL    HW127077   6.908   0.579   1.868
 8726SOL    HW227078   0.047   0.595   1.836
 8727SOL     OW27079   6.112   0.085   0.977
 8727SOL    HW127080   6.014   0.064   0.975
 8727SOL    HW227081   6.132   0.146   1.053
 8728SOL     OW27082   5.555   1.053   2.630
 8728SOL    HW127083   5.514   1.115   2.563
 8728SOL    HW227084   5.544   1.091   2.722
 8729SOL     OW27085   3.690   5.001   5.081
 8729SOL    HW127086   3.640   5.086   5.094
 8729SOL    HW227087   3.694   4.951   5.167
 8730SOL     OW27088   5.091   4.092   3.166
 8730SOL    HW127089   5.007   4.050   3.133
 8730SOL    HW227090   5.070   4.154   3.242
 8731SOL     OW27091   0.857   3.758   2.979
 8731SOL    HW127092   0.934   3.810   3.016
 8731SOL    HW227093   0.782   3.756   3.045
 8732SOL     OW27094   5.737   4.504   2.413
 8732SOL    HW127095   5.747   4.466   2.505
 8732SOL    HW227096   5.705   4.598   2.419
 8733SOL     OW27097   1.102   5.879   0.352
 8733SOL    HW127098   1.024   5.851   0.408
 8733SOL    HW227099   1.078   5.962   0.301
 8734SOL     OW27100   0.597   3.169   3.307
 8734SOL    HW127101   0.663   3.204   3.241
 8734SOL    HW227102   0.547   3.092   3.267
 8735SOL     OW27103   1.332   2.467   5.558
 8735SOL    HW127104   1.337   2.541   5.491
 8735SOL    HW227105   1.406   2.401   5.540
 8736SOL     OW27106   6.718   5.474   2.121
 8736SOL    HW127107   6.681   5.566   2.113
 8736SOL    HW227108   6.795   5.463   2.059
 8737SOL     OW27109   2.361   6.860   6.974
 8737SOL    HW127110   2.434   6.889   0.014
 8737SOL    HW227111   2.396   6.849   6.881
 8738SOL     OW27112   2.428   5.684   3.388
 8738SOL    HW127113   2.427   5.666   3.290
 8738SOL    HW227114   2.377   5.613   3.435
 8739SOL     OW27115   5.458   5.725   6.057
 8739SOL    HW127116   5.557   5.721   6.069
 8739SOL    HW227117   5.437   5.750   5.963
 8740SOL     OW27118   4.296   1.365   3.397
 8740SOL    HW127119   4.243   1.286   3.366
 8740SOL    HW227120   4.233   1.439   3.421
 8741SOL     OW27121   2.208   0.709   2.866
 8741SOL    HW127122   2.244   0.740   2.954
 8741SOL    HW227123   2.115   0.745   2.853
 8742SOL     OW27124   4.786   0.624   1.846
 8742SOL    HW127125   4.864   0.676   1.882
 8742SOL    HW227126   4.766   0.655   1.753
 8743SOL     OW27127   1.690   0.459   1.036
 8743SOL    HW127128   1.627   0.404   1.092
 8743SOL    HW227129   1.703   0.549   1.078
 8744SOL     OW27130   4.157   2.714   1.024
 8744SOL    HW127131   4.072   2.665   1.044
 8744SOL    HW227132   4.185   2.695   0.930
 8745SOL     OW27133   6.134   2.361   5.786
 8745SOL    HW127134   6.123   2.299   5.863
 8745SOL    HW227135   6.056   2.423   5.782
 8746SOL     OW27136   4.978   5.809   3.920
 8746SOL    HW127137   4.903   5.758   3.878
 8746SOL    HW227138   4.958   5.823   4.017
 8747SOL     OW27139   0.571   1.373   2.753
 8747SOL    HW127140   0.507   1.448   2.734
 8747SOL    HW227141   0.604   1.335   2.667
 8748SOL     OW27142   1.049   2.274   4.626
 8748SOL    HW127143   1.118   2.204   4.605
 8748SOL    HW227144   1.071   2.316   4.714
 8749SOL     OW27145   1.848   0.296   5.534
 8749SOL    HW127146   1.942   0.295   5.569
 8749SOL    HW227147   1.794   0.226   5.580
 8750SOL     OW27148   3.212   3.587   5.626
 8750SOL    HW127149   3.203   3.626   5.534
 8750SOL    HW227150   3.122   3.571   5.665
 8751SOL     OW27151   6.879   1.374   2.209
 8751SOL    HW127152   6.974   1.352   2.188
 8751SOL    HW227153   6.861   1.353   2.305
 8752SOL     OW27154   3.963   2.781   0.036
 8752SOL    HW127155   4.001   2.807   6.967
 8752SOL    HW227156   3.978   2.683   0.051
 8753SOL     OW27157   2.464   2.476   6.508
 8753SOL    HW127158   2.381   2.443   6.554
 8753SOL    HW227159   2.508   2.400   6.461
 8754SOL     OW27160   2.449   4.733   5.624
 8754SOL    HW127161   2.507   4.652   5.622
 8754SOL    HW227162   2.505   4.815   5.613
 8755SOL     OW27163   2.082   0.622   1.010
 8755SOL    HW127164   2.112   0.608   0.915
 8755SOL    HW227165   2.066   0.719   1.025
 8756SOL     OW27166   1.828   3.329   3.499
 8756SOL    HW127167   1.740   3.374   3.490
 8756SOL    HW227168   1.837   3.293   3.592
 8757SOL     OW27169   4.896   5.862   0.127
 8757SOL    HW127170   4.975   5.860   0.066
 8757SOL    HW227171   4.815   5.830   0.079
 8758SOL     OW27172   4.693   6.244   2.583
 8758SOL    HW127173   4.610   6.197   2.615
 8758SOL    HW227174   4.673   6.295   2.500
 8759SOL     OW27175   5.570   3.282   6.654
 8759SOL    HW127176   5.537   3.340   6.579
 8759SOL    HW227177   5.494   3.264   6.717
 8760SOL     OW27178   2.989   0.430   4.908
 8760SOL    HW127179   2.955   0.460   4.819
 8760SOL    HW227180   3.041   0.345   4.897
 8761SOL     OW27181   5.949   2.082   1.039
 8761SOL    HW127182   5.958   2.021   0.960
 8761SOL    HW227183   5.963   2.030   1.123
 8762SOL     OW27184   0.533   5.595   4.497
 8762SOL    HW127185   0.554   5.556   4.408
 8762SOL    HW227186   0.439   5.573   4.522
 8763SOL     OW27187   6.033   0.084   5.718
 8763SOL    HW127188   5.985   0.001   5.689
 8763SOL    HW227189   6.047   0.082   5.817
 8764SOL     OW27190   4.571   7.016   6.095
 8764SOL    HW127191   4.521   6.957   6.032
 8764SOL    HW227192   4.562   6.982   6.188
 8765SOL     OW27193   4.943   0.938   4.331
 8765SOL    HW127194   4.913   0.843   4.343
 8765SOL    HW227195   5.035   0.938   4.290
 8766SOL     OW27196   4.099   4.378   5.339
 8766SOL    HW127197   4.130   4.414   5.251
 8766SOL    HW227198   4.026   4.436   5.375
 8767SOL     OW27199   5.093   6.128   3.089
 8767SOL    HW127200   5.039   6.129   3.006
 8767SOL    HW227201   5.054   6.191   3.156
 8768SOL     OW27202   0.782   2.771   1.070
 8768SOL    HW127203   0.859   2.715   1.041
 8768SOL    HW227204   0.720   2.716   1.126
 8769SOL     OW27205   6.594   1.021   2.452
 8769SOL    HW127206   6.555   1.024   2.360
 8769SOL    HW227207   6.651   0.940   2.462
 8770SOL     OW27208   4.603   4.319   2.418
 8770SOL    HW127209   4.618   4.322   2.517
 8770SOL    HW227210   4.659   4.246   2.378
 8771SOL     OW27211   0.885   2.392   6.462
 8771SOL    HW127212   0.798   2.370   6.418
 8771SOL    HW227213   0.960   2.366   6.401
 8772SOL     OW27214   4.694   0.517   6.354
 8772SOL    HW127215   4.792   0.537   6.350
 8772SOL    HW227216   4.677   0.424   6.322
 8773SOL     OW27217   5.324   2.717   3.033
 8773SOL    HW127218   5.268   2.698   3.113
 8773SOL    HW227219   5.403   2.656   3.032
 8774SOL     OW27220   0.783   0.242   0.213
 8774SOL    HW127221   0.788   0.336   0.246
 8774SOL    HW227222   0.807   0.239   0.116
 8775SOL     OW27223   5.434   1.032   5.803
 8775SOL    HW127224   5.452   1.098   5.875
 8775SOL    HW227225   5.343   1.047   5.765
 8776SOL     OW27226   4.898   3.402   0.955
 8776SOL    HW127227   4.806   3.439   0.960
 8776SOL    HW227228   4.904   3.317   1.007
 8777SOL     OW27229   6.797   4.408   3.278
 8777SOL    HW127230   6.815   4.464   3.359
 8777SOL    HW227231   6.722   4.345   3.298
 8778SOL     OW27232   5.379   2.693   5.731
 8778SOL    HW127233   5.306   2.625   5.730
 8778SOL    HW227234   5.467   2.647   5.720
 8779SOL     OW27235   1.980   5.982   2.380
 8779SOL    HW127236   1.891   5.943   2.403
 8779SOL    HW227237   2.013   5.942   2.294
 8780SOL     OW27238   0.619   0.047   2.713
 8780SOL    HW127239   0.570   0.121   2.667
 8780SOL    HW227240   0.564   0.011   2.788
 8781SOL     OW27241   5.186   0.915   3.557
 8781SOL    HW127242   5.156   0.827   3.521
 8781SOL    HW227243   5.189   0.911   3.657
 8782SOL     OW27244   6.293   0.842   1.858
 8782SOL    HW127245   6.303   0.744   1.877
 8782SOL    HW227246   6.378   0.889   1.882
 8783SOL     OW27247   6.831   4.224   3.573
 8783SOL    HW127248   6.851   4.130   3.600
 8783SOL    HW227249   6.913   4.280   3.583
 8784SOL     OW27250   6.867   6.793   6.566
 8784SOL    HW127251   6.781   6.834   6.539
 8784SOL    HW227252   6.868   6.696   6.540
 8785SOL     OW27253   6.574   5.175   6.536
 8785SOL    HW127254   6.615   5.100   6.589
 8785SOL    HW227255   6.629   5.192   6.454
 8786SOL     OW27256   2.949   1.154   1.527
 8786SOL    HW127257   2.994   1.133   1.614
 8786SOL    HW227258   2.853   1.177   1.545
 8787SOL     OW27259   3.613   0.294   2.375
 8787SOL    HW127260   3.634   0.207   2.420
 8787SOL    HW227261   3.628   0.286   2.277
 8788SOL     OW27262   6.972   1.625   5.237
 8788SOL    HW127263   6.948   1.718   5.267
 8788SOL    HW227264   7.009   1.629   5.144
 8789SOL     OW27265   6.419   4.619   5.759
 8789SOL    HW127266   6.399   4.698   5.817
 8789SOL    HW227267   6.342   4.603   5.698
 8790SOL     OW27268   6.053   0.846   6.247
 8790SOL    HW127269   5.998   0.764   6.233
 8790SOL    HW227270   6.141   0.835   6.200
 8791SOL     OW27271   4.913   6.773   4.636
 8791SOL    HW127272   4.916   6.697   4.570
 8791SOL    HW227273   4.847   6.842   4.605
 8792SOL     OW27274   3.185   5.320   3.019
 8792SOL    HW127275   3.196   5.299   3.116
 8792SOL    HW227276   3.276   5.327   2.977
 8793SOL     OW27277   0.874   4.708   2.596
 8793SOL    HW127278   0.800   4.688   2.531
 8793SOL    HW227279   0.954   4.652   2.574
 8794SOL     OW27280   5.745   1.091   3.271
 8794SOL    HW127281   5.645   1.103   3.269
 8794SOL    HW227282   5.784   1.123   3.185
 8795SOL     OW27283   1.087   4.561   5.311
 8795SOL    HW127284   1.121   4.590   5.401
 8795SOL    HW227285   1.116   4.467   5.294
 8796SOL     OW27286   5.710   2.697   2.861
 8796SOL    HW127287   5.790   2.702   2.922
 8796SOL    HW227288   5.684   2.789   2.832
 8797SOL     OW27289   6.913   0.053   5.782
 8797SOL    HW127290   6.936   7.012   5.858
 8797SOL    HW227291   6.961   0.023   5.699
 8798SOL     OW27292   4.431   6.275   6.422
 8798SOL    HW127293   4.501   6.332   6.464
 8798SOL    HW227294   4.414   6.195   6.480
 8799SOL     OW27295   2.513   4.960   3.397
 8799SOL    HW127296   2.566   4.979   3.315
 8799SOL    HW227297   2.509   5.041   3.455
 8800SOL     OW27298   5.339   5.536   6.387
 8800SOL    HW127299   5.364   5.561   6.294
 8800SOL    HW227300   5.303   5.442   6.388
 8801SOL     OW27301   5.902   1.829   4.290
 8801SOL    HW127302   5.931   1.743   4.332
 8801SOL    HW227303   5.980   1.892   4.285
 8802SOL     OW27304   1.564   5.918   5.813
 8802SOL    HW127305   1.555   5.829   5.768
 8802SOL    HW227306   1.650   5.920   5.865
 8803SOL     OW27307   0.111   0.154   6.963
 8803SOL    HW127308   0.090   0.226   6.896
 8803SOL    HW227309   0.028   0.102   6.983
 8804SOL     OW27310   2.502   6.076   1.319
 8804SOL    HW127311   2.496   6.128   1.404
 8804SOL    HW227312   2.585   6.019   1.320
 8805SOL     OW27313   4.347   5.622   3.149
 8805SOL    HW127314   4.390   5.711   3.162
 8805SOL    HW227315   4.378   5.582   3.063
 8806SOL     OW27316   2.470   5.059   0.835
 8806SOL    HW127317   2.553   5.109   0.812
 8806SOL    HW227318   2.494   4.966   0.865
 8807SOL     OW27319   4.212   1.644   0.450
 8807SOL    HW127320   4.210   1.743   0.462
 8807SOL    HW227321   4.307   1.612   0.447
 8808SOL     OW27322   6.864   2.229   5.380
 8808SOL    HW127323   6.861   2.293   5.303
 8808SOL    HW227324   6.779   2.236   5.432
 8809SOL     OW27325   2.569   4.684   4.058
 8809SOL    HW127326   2.560   4.589   4.088
 8809SOL    HW227327   2.554   4.689   3.959
 8810SOL     OW27328   5.819   0.554   5.199
 8810SOL    HW127329   5.862   0.643   5.181
 8810SOL    HW227330   5.889   0.489   5.228
 8811SOL     OW27331   2.854   0.227   2.765
 8811SOL    HW127332   2.844   0.318   2.805
 8811SOL    HW227333   2.937   0.224   2.710
 8812SOL     OW27334   2.227   0.613   0.539
 8812SOL    HW127335   2.242   0.582   0.633
 8812SOL    HW227336   2.138   0.659   0.534
 8813SOL     OW27337   1.794   5.057   3.037
 8813SOL    HW127338   1.859   5.117   3.084
 8813SOL    HW227339   1.703   5.071   3.074
 8814SOL     OW27340   5.843   6.839   0.884
 8814SOL    HW127341   5.908   6.787   0.939
 8814SOL    HW227342   5.766   6.780   0.858
 8815SOL     OW27343   5.634   0.024   1.277
 8815SOL    HW127344   5.666   6.953   1.305
 8815SOL    HW227345   5.622   0.026   1.178
 8816SOL     OW27346   1.022   6.462   6.285
 8816SOL    HW127347   1.003   6.557   6.308
 8816SOL    HW227348   0.978   6.402   6.352
 8817SOL     OW27349   0.298   4.116   4.025
 8817SOL    HW127350   0.201   4.140   4.022
 8817SOL    HW227351   0.347   4.184   4.080
 8818SOL     OW27352   1.112   6.215   3.702
 8818SOL    HW127353   1.074   6.193   3.792
 8818SOL    HW227354   1.210   6.198   3.702
 8819SOL     OW27355   6.329   4.533   6.005
 8819SOL    HW127356   6.300   4.441   6.032
 8819SOL    HW227357   6.327   4.541   5.905
 8820SOL     OW27358   3.478   1.168   4.993
 8820SOL    HW127359   3.531   1.239   4.948
 8820SOL    HW227360   3.441   1.105   4.924
 8821SOL     OW27361   1.087   5.738   0.721
 8821SOL    HW127362   1.025   5.752   0.645
 8821SOL    HW227363   1.083   5.642   0.750
 8822SOL     OW27364   0.590   0.688   3.496
 8822SOL    HW127365   0.658   0.656   3.430
 8822SOL    HW227366   0.504   0.706   3.448
 8823SOL     OW27367   1.991   1.502   2.215
 8823SOL    HW127368   1.897   1.503   2.250
 8823SOL    HW227369   1.989   1.514   2.116
 8824SOL     OW27370   1.623   0.773   0.498
 8824SOL    HW127371   1.651   0.865   0.524
 8824SOL    HW227372   1.677   0.742   0.419
 8825SOL     OW27373   1.292   1.442   1.715
 8825SOL    HW127374   1.289   1.388   1.800
 8825SOL    HW227375   1.215   1.506   1.714
 8826SOL     OW27376   0.984   3.475   1.017
 8826SOL    HW127377   0.919   3.513   0.952
 8826SOL    HW227378   1.072   3.523   1.009
 8827SOL     OW27379   4.133   0.072   3.407
 8827SOL    HW127380   4.141   0.022   3.494
 8827SOL    HW227381   4.089   0.014   3.339
 8828SOL     OW27382   4.283   4.944   6.657
 8828SOL    HW127383   4.273   5.038   6.689
 8828SOL    HW227384   4.193   4.905   6.641
 8829SOL     OW27385   5.668   1.958   1.206
 8829SOL    HW127386   5.746   2.015   1.181
 8829SOL    HW227387   5.700   1.867   1.232
 8830SOL     OW27388   2.103   1.440   2.477
 8830SOL    HW127389   2.178   1.506   2.485
 8830SOL    HW227390   2.078   1.431   2.380
 8831SOL     OW27391   6.126   2.671   2.374
 8831SOL    HW127392   6.058   2.637   2.439
 8831SOL    HW227393   6.084   2.681   2.284
 8832SOL     OW27394   6.423   5.965   4.108
 8832SOL    HW127395   6.397   6.061   4.101
 8832SOL    HW227396   6.354   5.916   4.162
 8833SOL     OW27397   3.993   4.325   6.214
 8833SOL    HW127398   3.905   4.303   6.255
 8833SOL    HW227399   3.981   4.400   6.148
 8834SOL     OW27400   5.549   3.888   4.393
 8834SOL    HW127401   5.505   3.919   4.309
 8834SOL    HW227402   5.566   3.967   4.453
 8835SOL     OW27403   5.343   0.955   6.175
 8835SOL    HW127404   5.387   0.900   6.105
 8835SOL    HW227405   5.361   1.052   6.158
 8836SOL     OW27406   5.025   1.738   1.180
 8836SOL    HW127407   4.990   1.645   1.167
 8836SOL    HW227408   4.971   1.802   1.125
 8837SOL     OW27409   0.325   6.995   2.648
 8837SOL    HW127410   0.345   0.069   2.624
 8837SOL    HW227411   0.390   6.934   2.603
 8838SOL     OW27412   1.716   3.925   3.569
 8838SOL    HW127413   1.804   3.963   3.596
 8838SOL    HW227414   1.731   3.850   3.505
 8839SOL     OW27415   3.838   6.559   2.131
 8839SOL    HW127416   3.904   6.599   2.195
 8839SOL    HW227417   3.863   6.464   2.112
 8840SOL     OW27418   0.033   0.482   2.537
 8840SOL    HW127419   0.008   0.460   2.443
 8840SOL    HW227420   0.019   0.580   2.552
 8841SOL     OW27421   6.433   1.499   3.719
 8841SOL    HW127422   6.415   1.401   3.707
 8841SOL    HW227423   6.349   1.545   3.749
 8842SOL     OW27424   3.329   3.565   3.652
 8842SOL    HW127425   3.334   3.656   3.611
 8842SOL    HW227426   3.377   3.565   3.739
 8843SOL     OW27427   1.607   3.498   4.009
 8843SOL    HW127428   1.677   3.547   3.957
 8843SOL    HW227429   1.548   3.447   3.946
 8844SOL     OW27430   6.703   1.452   4.667
 8844SOL    HW127431   6.628   1.464   4.602
 8844SOL    HW227432   6.720   1.538   4.715
 8845SOL     OW27433   2.854   4.335   0.452
 8845SOL    HW127434   2.888   4.247   0.420
 8845SOL    HW227435   2.754   4.333   0.455
 8846SOL     OW27436   3.873   5.028   4.253
 8846SOL    HW127437   3.861   5.005   4.156
 8846SOL    HW227438   3.970   5.038   4.274
 8847SOL     OW27439   2.408   1.404   3.929
 8847SOL    HW127440   2.415   1.504   3.936
 8847SOL    HW227441   2.430   1.375   3.836
 8848SOL     OW27442   2.926   1.945   2.582
 8848SOL    HW127443   2.884   1.883   2.649
 8848SOL    HW227444   2.866   1.954   2.503
 8849SOL     OW27445   3.351   5.041   3.074
 8849SOL    HW127446   3.359   4.942   3.083
 8849SOL    HW227447   3.269   5.072   3.122
 8850SOL     OW27448   2.827   0.929   0.629
 8850SOL    HW127449   2.818   0.854   0.563
 8850SOL    HW227450   2.830   0.891   0.722
 8851SOL     OW27451   1.116   4.795   1.967
 8851SOL    HW127452   1.123   4.709   1.917
 8851SOL    HW227453   1.190   4.856   1.938
 8852SOL     OW27454   3.988   3.489   5.730
 8852SOL    HW127455   3.895   3.523   5.739
 8852SOL    HW227456   4.044   3.556   5.682
 8853SOL     OW27457   3.041   0.230   5.486
 8853SOL    HW127458   3.040   0.191   5.578
 8853SOL    HW227459   3.136   0.247   5.458
 8854SOL     OW27460   3.049   1.152   6.438
 8854SOL    HW127461   2.970   1.094   6.418
 8854SOL    HW227462   3.123   1.097   6.476
 8855SOL     OW27463   6.903   6.137   0.369
 8855SOL    HW127464   6.887   6.050   0.321
 8855SOL    HW227465   6.873   6.212   0.310
 8856SOL     OW27466   5.980   0.792   5.916
 8856SOL    HW127467   5.965   0.887   5.943
 8856SOL    HW227468   5.951   0.732   5.991
 8857SOL     OW27469   6.486   1.988   3.903
 8857SOL    HW127470   6.437   2.044   3.836
 8857SOL    HW227471   6.421   1.945   3.965
 8858SOL     OW27472   1.338   2.114   5.828
 8858SOL    HW127473   1.311   2.208   5.811
 8858SOL    HW227474   1.392   2.109   5.912
 8859SOL     OW27475   6.967   0.383   4.639
 8859SOL    HW127476   0.009   0.327   4.692
 8859SOL    HW227477   6.971   0.357   4.542
 8860SOL     OW27478   1.315   3.676   2.926
 8860SOL    HW127479   1.310   3.776   2.923
 8860SOL    HW227480   1.224   3.638   2.908
 8861SOL     OW27481   3.876   1.867   5.973
 8861SOL    HW127482   3.794   1.910   5.935
 8861SOL    HW227483   3.878   1.882   6.071
 8862SOL     OW27484   6.200   0.882   3.184
 8862SOL    HW127485   6.141   0.884   3.104
 8862SOL    HW227486   6.161   0.939   3.256
 8863SOL     OW27487   1.632   5.479   4.402
 8863SOL    HW127488   1.598   5.385   4.413
 8863SOL    HW227489   1.732   5.479   4.406
 8864SOL     OW27490   1.966   3.065   6.331
 8864SOL    HW127491   2.045   3.031   6.281
 8864SOL    HW227492   1.992   3.146   6.384
 8865SOL     OW27493   3.462   1.653   5.688
 8865SOL    HW127494   3.441   1.614   5.598
 8865SOL    HW227495   3.532   1.598   5.733
 8866SOL     OW27496   5.213   6.942   4.124
 8866SOL    HW127497   5.256   6.859   4.088
 8866SOL    HW227498   5.114   6.934   4.115
 8867SOL     OW27499   5.132   3.644   3.186
 8867SOL    HW127500   5.172   3.553   3.200
 8867SOL    HW227501   5.203   3.708   3.159
 8868SOL     OW27502   6.512   3.377   0.599
 8868SOL    HW127503   6.520   3.325   0.684
 8868SOL    HW227504   6.419   3.413   0.591
 8869SOL     OW27505   4.218   6.060   4.097
 8869SOL    HW127506   4.150   5.990   4.123
 8869SOL    HW227507   4.309   6.018   4.095
 8870SOL     OW27508   4.522   0.194   0.725
 8870SOL    HW127509   4.435   0.219   0.766
 8870SOL    HW227510   4.561   0.274   0.679
 8871SOL     OW27511   1.547   0.901   3.823
 8871SOL    HW127512   1.466   0.847   3.845
 8871SOL    HW227513   1.604   0.850   3.759
 8872SOL     OW27514   1.182   4.312   5.201
 8872SOL    HW127515   1.277   4.329   5.229
 8872SOL    HW227516   1.170   4.215   5.182
 8873SOL     OW27517   6.960   5.009   1.940
 8873SOL    HW127518   6.912   5.009   2.028
 8873SOL    HW227519   0.017   4.946   1.944
 8874SOL     OW27520   2.739   6.341   1.472
 8874SOL    HW127521   2.801   6.336   1.550
 8874SOL    HW227522   2.656   6.289   1.491
 8875SOL     OW27523   6.428   3.453   4.701
 8875SOL    HW127524   6.519   3.419   4.727
 8875SOL    HW227525   6.432   3.492   4.610
 8876SOL     OW27526   1.777   0.355   4.397
 8876SOL    HW127527   1.688   0.383   4.361
 8876SOL    HW227528   1.850   0.401   4.347
 8877SOL     OW27529   2.279   1.728   4.253
 8877SOL    HW127530   2.342   1.654   4.275
 8877SOL    HW227531   2.185   1.695   4.265
 8878SOL     OW27532   0.136   5.760   0.785
 8878SOL    HW127533   0.083   5.787   0.866
 8878SOL    HW227534   0.143   5.838   0.722
 8879SOL     OW27535   5.036   5.048   1.639
 8879SOL    HW127536   5.066   4.954   1.626
 8879SOL    HW227537   4.987   5.079   1.557
 8880SOL     OW27538   6.050   5.597   4.384
 8880SOL    HW127539   6.133   5.551   4.351
 8880SOL    HW227540   5.998   5.631   4.305
 8881SOL     OW27541   6.298   6.705   4.868
 8881SOL    HW127542   6.388   6.739   4.892
 8881SOL    HW227543   6.296   6.605   4.877
 8882SOL     OW27544   5.239   1.449   0.683
 8882SOL    HW127545   5.188   1.499   0.754
 8882SOL    HW227546   5.174   1.406   0.620
 8883SOL     OW27547   1.573   6.976   5.586
 8883SOL    HW127548   1.644   0.002   5.638
 8883SOL    HW227549   1.572   7.010   5.492
 8884SOL     OW27550   6.012   4.653   6.372
 8884SOL    HW127551   5.987   4.672   6.467
 8884SOL    HW227552   6.091   4.710   6.347
 8885SOL     OW27553   0.308   2.959   0.645
 8885SOL    HW127554   0.379   2.918   0.587
 8885SOL    HW227555   0.250   3.018   0.590
 8886SOL     OW27556   3.719   6.255   5.272
 8886SOL    HW127557   3.666   6.185   5.321
 8886SOL    HW227558   3.695   6.252   5.175
 8887SOL     OW27559   2.955   1.597   1.582
 8887SOL    HW127560   2.983   1.684   1.623
 8887SOL    HW227561   2.969   1.523   1.648
 8888SOL     OW27562   1.253   1.689   0.885
 8888SOL    HW127563   1.350   1.689   0.858
 8888SOL    HW227564   1.215   1.780   0.869
 8889SOL     OW27565   5.542   6.863   5.503
 8889SOL    HW127566   5.521   6.863   5.405
 8889SOL    HW227567   5.511   6.777   5.543
 8890SOL     OW27568   6.145   5.205   3.690
 8890SOL    HW127569   6.224   5.180   3.634
 8890SOL    HW227570   6.145   5.151   3.774
 8891SOL     OW27571   5.089   3.685   5.396
 8891SOL    HW127572   5.170   3.725   5.438
 8891SOL    HW227573   5.010   3.698   5.455
 8892SOL     OW27574   4.078   5.517   2.762
 8892SOL    HW127575   4.011   5.480   2.827
 8892SOL    HW227576   4.141   5.444   2.734
 8893SOL     OW27577   0.750   6.992   2.484
 8893SOL    HW127578   0.840   6.953   2.501
 8893SOL    HW227579   0.700   6.999   2.571
 8894SOL     OW27580   4.279   2.201   5.622
 8894SOL    HW127581   4.367   2.158   5.605
 8894SOL    HW227582   4.271   2.222   5.720
 8895SOL     OW27583   6.255   1.756   1.336
 8895SOL    HW127584   6.301   1.828   1.388
 8895SOL    HW227585   6.252   1.782   1.239
 8896SOL     OW27586   1.845   3.129   5.094
 8896SOL    HW127587   1.938   3.108   5.126
 8896SOL    HW227588   1.794   3.043   5.082
 8897SOL     OW27589   1.826   2.913   3.394
 8897SOL    HW127590   1.732   2.884   3.414
 8897SOL    HW227591   1.824   3.003   3.352
 8898SOL     OW27592   5.820   3.772   4.415
 8898SOL    HW127593   5.881   3.746   4.490
 8898SOL    HW227594   5.728   3.788   4.450
 8899SOL     OW27595   2.333   4.804   6.893
 8899SOL    HW127596   2.426   4.809   6.929
 8899SOL    HW227597   2.315   4.711   6.860
 8900SOL     OW27598   5.544   2.573   2.398
 8900SOL    HW127599   5.497   2.660   2.384
 8900SOL    HW227600   5.583   2.571   2.490
 8901SOL     OW27601   2.194   1.462   4.497
 8901SOL    HW127602   2.280   1.447   4.545
 8901SOL    HW227603   2.140   1.531   4.545
 8902SOL     OW27604   3.446   6.778   0.184
 8902SOL    HW127605   3.492   6.860   0.217
 8902SOL    HW227606   3.435   6.713   0.259
 8903SOL     OW27607   0.549   1.321   4.734
 8903SOL    HW127608   0.593   1.313   4.645
 8903SOL    HW227609   0.618   1.310   4.806
 8904SOL     OW27610   5.883   5.695   3.686
 8904SOL    HW127611   5.916   5.628   3.619
 8904SOL    HW227612   5.914   5.669   3.777
 8905SOL     OW27613   2.185   3.871   4.374
 8905SOL    HW127614   2.224   3.928   4.446
 8905SOL    HW227615   2.192   3.775   4.400
 8906SOL     OW27616   6.717   6.875   0.107
 8906SOL    HW127617   6.657   6.951   0.134
 8906SOL    HW227618   6.696   6.795   0.164
 8907SOL     OW27619   3.376   1.986   4.477
 8907SOL    HW127620   3.364   1.896   4.435
 8907SOL    HW227621   3.291   2.038   4.471
 8908SOL     OW27622   1.266   3.390   6.819
 8908SOL    HW127623   1.313   3.437   6.745
 8908SOL    HW227624   1.331   3.333   6.869
 8909SOL     OW27625   1.991   0.569   5.701
 8909SOL    HW127626   1.949   0.575   5.791
 8909SOL    HW227627   1.992   0.473   5.671
 8910SOL     OW27628   1.251   2.494   6.078
 8910SOL    HW127629   1.245   2.592   6.096
 8910SOL    HW227630   1.275   2.478   5.982
 8911SOL     OW27631   4.343   2.260   4.926
 8911SOL    HW127632   4.320   2.343   4.977
 8911SOL    HW227633   4.267   2.234   4.867
 8912SOL     OW27634   4.098   2.222   0.896
 8912SOL    HW127635   4.185   2.211   0.944
 8912SOL    HW227636   4.030   2.161   0.936
 8913SOL     OW27637   5.026   5.173   7.004
 8913SOL    HW127638   4.991   5.114   6.930
 8913SOL    HW227639   5.033   5.267   6.971
 8914SOL     OW27640   4.071   0.881   5.054
 8914SOL    HW127641   4.032   0.971   5.076
 8914SOL    HW227642   4.157   0.869   5.103
 8915SOL     OW27643   0.758   2.595   3.448
 8915SOL    HW127644   0.823   2.520   3.456
 8915SOL    HW227645   0.730   2.626   3.538
 8916SOL     OW27646   0.032   3.972   0.666
 8916SOL    HW127647   6.968   3.919   0.656
 8916SOL    HW227648   0.095   3.923   0.726
 8917SOL     OW27649   6.301   4.354   6.400
 8917SOL    HW127650   6.379   4.296   6.374
 8917SOL    HW227651   6.262   4.320   6.486
 8918SOL     OW27652   6.816   3.982   1.166
 8918SOL    HW127653   6.770   3.940   1.244
 8918SOL    HW227654   6.761   3.968   1.084
 8919SOL     OW27655   4.087   3.595   1.010
 8919SOL    HW127656   4.025   3.517   1.022
 8919SOL    HW227657   4.113   3.603   0.914
 8920SOL     OW27658   0.882   6.395   6.570
 8920SOL    HW127659   0.809   6.326   6.574
 8920SOL    HW227660   0.969   6.353   6.597
 8921SOL     OW27661   2.556   1.902   2.891
 8921SOL    HW127662   2.506   1.851   2.961
 8921SOL    HW227663   2.586   1.990   2.928
 8922SOL     OW27664   3.794   5.526   1.350
 8922SOL    HW127665   3.751   5.497   1.264
 8922SOL    HW227666   3.741   5.491   1.427
 8923SOL     OW27667   1.215   3.482   5.947
 8923SOL    HW127668   1.307   3.506   5.976
 8923SOL    HW227669   1.152   3.557   5.970
 8924SOL     OW27670   3.150   5.807   5.681
 8924SOL    HW127671   3.088   5.806   5.602
 8924SOL    HW227672   3.156   5.715   5.719
 8925SOL     OW27673   0.969   1.169   2.707
 8925SOL    HW127674   0.965   1.228   2.789
 8925SOL    HW227675   0.895   1.101   2.712
 8926SOL     OW27676   5.521   4.115   6.344
 8926SOL    HW127677   5.498   4.116   6.441
 8926SOL    HW227678   5.616   4.087   6.332
 8927SOL     OW27679   1.183   1.481   4.434
 8927SOL    HW127680   1.228   1.523   4.355
 8927SOL    HW227681   1.217   1.523   4.518
 8928SOL     OW27682   6.555   0.946   5.714
 8928SOL    HW127683   6.638   0.927   5.768
 8928SOL    HW227684   6.581   0.965   5.619
 8929SOL     OW27685   6.904   3.568   4.144
 8929SOL    HW127686   6.949   3.657   4.145
 8929SOL    HW227687   6.973   3.496   4.138
 8930SOL     OW27688   1.836   3.754   4.450
 8930SOL    HW127689   1.838   3.846   4.490
 8930SOL    HW227690   1.903   3.696   4.498
 8931SOL     OW27691   3.131   2.824   1.356
 8931SOL    HW127692   3.145   2.740   1.407
 8931SOL    HW227693   3.046   2.867   1.386
 8932SOL     OW27694   5.552   0.583   0.258
 8932SOL    HW127695   5.606   0.630   0.329
 8932SOL    HW227696   5.611   0.559   0.182
 8933SOL     OW27697   1.412   2.360   6.395
 8933SOL    HW127698   1.345   2.373   6.468
 8933SOL    HW227699   1.449   2.448   6.367
 8934SOL     OW27700   3.273   5.186   4.532
 8934SOL    HW127701   3.238   5.100   4.495
 8934SOL    HW227702   3.204   5.258   4.519
 8935SOL     OW27703   5.342   3.785   1.638
 8935SOL    HW127704   5.340   3.847   1.559
 8935SOL    HW227705   5.307   3.832   1.719
 8936SOL     OW27706   1.274   3.486   1.364
 8936SOL    HW127707   1.206   3.555   1.391
 8936SOL    HW227708   1.339   3.528   1.300
 8937SOL     OW27709   0.231   0.680   4.618
 8937SOL    HW127710   0.277   0.678   4.707
 8937SOL    HW227711   0.133   0.695   4.632
 8938SOL     OW27712   6.997   0.979   0.245
 8938SOL    HW127713   7.006   1.073   0.214
 8938SOL    HW227714   6.901   0.962   0.270
 8939SOL     OW27715   6.322   3.746   4.307
 8939SOL    HW127716   6.384   3.792   4.243
 8939SOL    HW227717   6.229   3.781   4.295
 8940SOL     OW27718   5.950   1.953   1.268
 8940SOL    HW127719   5.953   1.880   1.337
 8940SOL    HW227720   5.939   2.041   1.313
 8941SOL     OW27721   6.809   2.463   2.369
 8941SOL    HW127722   6.745   2.405   2.419
 8941SOL    HW227723   6.765   2.494   2.284
 8942SOL     OW27724   0.577   6.231   4.411
 8942SOL    HW127725   0.641   6.187   4.474
 8942SOL    HW227726   0.625   6.260   4.329
 8943SOL     OW27727   3.826   5.349   0.256
 8943SOL    HW127728   3.837   5.447   0.238
 8943SOL    HW227729   3.798   5.303   0.171
 8944SOL     OW27730   4.964   5.678   4.732
 8944SOL    HW127731   4.887   5.630   4.689
 8944SOL    HW227732   5.018   5.613   4.784
 8945SOL     OW27733   0.033   2.176   4.315
 8945SOL    HW127734   6.979   2.118   4.284
 8945SOL    HW227735   0.113   2.163   4.256
 8946SOL     OW27736   3.679   0.839   3.897
 8946SOL    HW127737   3.667   0.745   3.863
 8946SOL    HW227738   3.609   0.857   3.967
 8947SOL     OW27739   1.935   3.087   5.610
 8947SOL    HW127740   1.998   3.120   5.680
 8947SOL    HW227741   1.846   3.132   5.621
 8948SOL     OW27742   5.990   5.962   3.647
 8948SOL    HW127743   5.962   6.017   3.568
 8948SOL    HW227744   5.948   5.872   3.642
 8949SOL     OW27745   3.898   5.790   0.559
 8949SOL    HW127746   3.888   5.889   0.564
 8949SOL    HW227747   3.994   5.767   0.543
 8950SOL     OW27748   4.023   2.956   1.110
 8950SOL    HW127749   3.973   2.923   1.191
 8950SOL    HW227750   4.085   2.884   1.078
 8951SOL     OW27751   2.122   0.965   5.198
 8951SOL    HW127752   2.029   0.953   5.163
 8951SOL    HW227753   2.163   0.875   5.214
 8952SOL     OW27754   0.508   5.082   3.475
 8952SOL    HW127755   0.596   5.033   3.477
 8952SOL    HW227756   0.472   5.080   3.382
 8953SOL     OW27757   1.042   4.380   1.022
 8953SOL    HW127758   1.005   4.337   0.939
 8953SOL    HW227759   1.005   4.333   1.103
 8954SOL     OW27760   0.066   0.043   3.915
 8954SOL    HW127761   0.039   0.002   3.828
 8954SOL    HW227762   0.120   0.125   3.898
 8955SOL     OW27763   7.000   4.221   3.281
 8955SOL    HW127764   6.987   4.168   3.197
 8955SOL    HW227765   6.926   4.287   3.291
 8956SOL     OW27766   1.693   0.871   5.888
 8956SOL    HW127767   1.619   0.833   5.833
 8956SOL    HW227768   1.656   0.905   5.975
 8957SOL     OW27769   2.283   4.866   1.222
 8957SOL    HW127770   2.377   4.900   1.213
 8957SOL    HW227771   2.222   4.919   1.164
 8958SOL     OW27772   0.872   2.098   5.590
 8958SOL    HW127773   0.897   2.008   5.552
 8958SOL    HW227774   0.919   2.170   5.539
 8959SOL     OW27775   1.722   4.062   3.114
 8959SOL    HW127776   1.771   4.080   3.199
 8959SOL    HW227777   1.623   4.062   3.131
 8960SOL     OW27778   5.722   5.199   3.881
 8960SOL    HW127779   5.627   5.228   3.877
 8960SOL    HW227780   5.727   5.099   3.891
 8961SOL     OW27781   3.608   1.451   3.711
 8961SOL    HW127782   3.679   1.397   3.755
 8961SOL    HW227783   3.518   1.415   3.735
 8962SOL     OW27784   6.550   5.243   1.368
 8962SOL    HW127785   6.572   5.289   1.454
 8962SOL    HW227786   6.504   5.156   1.387
 8963SOL     OW27787   3.819   6.634   5.125
 8963SOL    HW127788   3.777   6.664   5.040
 8963SOL    HW227789   3.918   6.627   5.112
 8964SOL     OW27790   5.662   3.352   2.839
 8964SOL    HW127791   5.661   3.255   2.816
 8964SOL    HW227792   5.753   3.378   2.871
 8965SOL     OW27793   3.104   5.082   6.939
 8965SOL    HW127794   3.154   5.166   6.961
 8965SOL    HW227795   3.131   5.010   7.002
 8966SOL     OW27796   6.622   4.248   0.298
 8966SOL    HW127797   6.605   4.328   0.241
 8966SOL    HW227798   6.720   4.230   0.302
 8967SOL     OW27799   4.353   1.356   2.467
 8967SOL    HW127800   4.282   1.386   2.404
 8967SOL    HW227801   4.430   1.318   2.415
 8968SOL     OW27802   3.769   5.819   2.600
 8968SOL    HW127803   3.741   5.845   2.693
 8968SOL    HW227804   3.818   5.732   2.603
 8969SOL     OW27805   0.212   0.164   3.289
 8969SOL    HW127806   0.249   0.232   3.351
 8969SOL    HW227807   0.117   0.188   3.266
 8970SOL     OW27808   1.588   2.396   6.625
 8970SOL    HW127809   1.560   2.486   6.659
 8970SOL    HW227810   1.529   2.369   6.549
 8971SOL     OW27811   5.555   6.543   1.304
 8971SOL    HW127812   5.482   6.582   1.360
 8971SOL    HW227813   5.607   6.477   1.359
 8972SOL     OW27814   5.062   3.557   0.682
 8972SOL    HW127815   5.078   3.628   0.750
 8972SOL    HW227816   5.084   3.467   0.721
 8973SOL     OW27817   0.099   2.780   2.426
 8973SOL    HW127818   0.028   2.744   2.366
 8973SOL    HW227819   0.105   2.724   2.508
 8974SOL     OW27820   1.777   3.407   3.780
 8974SOL    HW127821   1.695   3.352   3.767
 8974SOL    HW227822   1.858   3.348   3.779
 8975SOL     OW27823   0.534   5.623   6.704
 8975SOL    HW127824   0.534   5.708   6.757
 8975SOL    HW227825   0.521   5.545   6.766
 8976SOL     OW27826   0.179   5.265   0.669
 8976SOL    HW127827   0.159   5.288   0.764
 8976SOL    HW227828   0.123   5.322   0.609
 8977SOL     OW27829   6.668   3.898   6.660
 8977SOL    HW127830   6.617   3.937   6.737
 8977SOL    HW227831   6.697   3.971   6.598
 8978SOL     OW27832   5.895   0.111   4.870
 8978SOL    HW127833   5.831   0.071   4.804
 8978SOL    HW227834   5.876   0.074   4.961
 8979SOL     OW27835   1.454   4.968   5.842
 8979SOL    HW127836   1.483   5.062   5.824
 8979SOL    HW227837   1.494   4.936   5.927
 8980SOL     OW27838   5.440   2.496   6.090
 8980SOL    HW127839   5.475   2.464   6.001
 8980SOL    HW227840   5.346   2.465   6.101
 8981SOL     OW27841   5.006   1.924   5.496
 8981SOL    HW127842   4.936   1.888   5.434
 8981SOL    HW227843   5.043   2.009   5.458
 8982SOL     OW27844   0.182   1.595   0.921
 8982SOL    HW127845   0.120   1.672   0.934
 8982SOL    HW227846   0.130   1.511   0.909
 8983SOL     OW27847   0.703   5.266   0.622
 8983SOL    HW127848   0.615   5.272   0.574
 8983SOL    HW227849   0.709   5.337   0.691
 8984SOL     OW27850   6.535   6.720   4.200
 8984SOL    HW127851   6.497   6.628   4.191
 8984SOL    HW227852   6.477   6.785   4.150
 8985SOL     OW27853   2.463   1.989   1.572
 8985SOL    HW127854   2.518   1.930   1.513
 8985SOL    HW227855   2.519   2.063   1.608
 8986SOL     OW27856   4.695   5.025   2.827
 8986SOL    HW127857   4.743   5.067   2.750
 8986SOL    HW227858   4.651   4.940   2.796
 8987SOL     OW27859   3.058   0.067   1.279
 8987SOL    HW127860   3.120   0.072   1.357
 8987SOL    HW227861   2.968   0.035   1.310
 8988SOL     OW27862   2.393   4.879   0.506
 8988SOL    HW127863   2.411   4.965   0.552
 8988SOL    HW227864   2.297   4.876   0.477
 8989SOL     OW27865   5.126   3.527   2.374
 8989SOL    HW127866   5.033   3.560   2.357
 8989SOL    HW227867   5.146   3.453   2.310
 8990SOL     OW27868   2.583   5.515   1.669
 8990SOL    HW127869   2.641   5.442   1.631
 8990SOL    HW227870   2.547   5.571   1.594
 8991SOL     OW27871   2.475   1.134   1.165
 8991SOL    HW127872   2.488   1.209   1.230
 8991SOL    HW227873   2.522   1.053   1.199
 8992SOL     OW27874   0.079   2.660   6.716
 8992SOL    HW127875   6.999   2.668   6.716
 8992SOL    HW227876   0.119   2.742   6.757
 8993SOL     OW27877   4.483   2.527   2.881
 8993SOL    HW127878   4.549   2.568   2.817
 8993SOL    HW227879   4.392   2.530   2.841
 8994SOL     OW27880   1.002   6.136   3.944
 8994SOL    HW127881   1.067   6.123   4.019
 8994SOL    HW227882   0.940   6.057   3.940
 8995SOL     OW27883   1.187   1.957   5.664
 8995SOL    HW127884   1.103   1.937   5.714
 8995SOL    HW227885   1.243   2.020   5.717
 8996SOL     OW27886   0.563   4.297   1.445
 8996SOL    HW127887   0.500   4.288   1.368
 8996SOL    HW227888   0.549   4.386   1.488
 8997SOL     OW27889   4.612   1.069   6.770
 8997SOL    HW127890   4.547   1.082   6.845
 8997SOL    HW227891   4.563   1.074   6.683
 8998SOL     OW27892   0.795   1.954   4.261
 8998SOL    HW127893   0.740   1.961   4.178
 8998SOL    HW227894   0.786   1.863   4.300
 8999SOL     OW27895   4.110   0.502   0.033
 8999SOL    HW127896   4.062   0.415   0.030
 8999SOL    HW227897   4.105   0.546   6.963
 9000SOL     OW27898   2.431   3.884   6.493
 9000SOL    HW127899   2.414   3.787   6.510
 9000SOL    HW227900   2.470   3.925   6.575
 9001SOL     OW27901   1.750   5.566   2.780
 9001SOL    HW127902   1.694   5.485   2.800
 9001SOL    HW227903   1.720   5.642   2.838
 9002SOL     OW27904   0.275   5.178   5.058
 9002SOL    HW127905   0.241   5.261   5.102
 9002SOL    HW227906   0.199   5.117   5.039
 9003SOL     OW27907   5.604   3.030   1.287
 9003SOL    HW127908   5.634   3.120   1.255
 9003SOL    HW227909   5.581   3.035   1.384
 9004SOL     OW27910   4.338   6.670   1.843
 9004SOL    HW127911   4.291   6.670   1.931
 9004SOL    HW227912   4.414   6.736   1.846
 9005SOL     OW27913   6.141   1.940   4.296
 9005SOL    HW127914   6.173   2.012   4.358
 9005SOL    HW227915   6.215   1.912   4.236
 9006SOL     OW27916   1.412   6.182   0.822
 9006SOL    HW127917   1.347   6.180   0.746
 9006SOL    HW227918   1.426   6.276   0.852
 9007SOL     OW27919   3.359   5.575   3.640
 9007SOL    HW127920   3.363   5.555   3.738
 9007SOL    HW227921   3.289   5.645   3.624
 9008SOL     OW27922   6.776   5.447   3.038
 9008SOL    HW127923   6.727   5.505   3.103
 9008SOL    HW227924   6.866   5.486   3.019
 9009SOL     OW27925   2.852   6.384   0.558
 9009SOL    HW127926   2.792   6.305   0.549
 9009SOL    HW227927   2.935   6.358   0.606
 9010SOL     OW27928   0.824   0.069   4.824
 9010SOL    HW127929   0.750   0.039   4.765
 9010SOL    HW227930   0.845   0.165   4.805
 9011SOL     OW27931   3.921   1.710   1.396
 9011SOL    HW127932   3.845   1.699   1.460
 9011SOL    HW227933   3.930   1.627   1.340
 9012SOL     OW27934   2.767   5.098   1.297
 9012SOL    HW127935   2.712   5.163   1.244
 9012SOL    HW227936   2.839   5.060   1.238
 9013SOL     OW27937   5.936   5.902   4.765
 9013SOL    HW127938   5.972   5.904   4.858
 9013SOL    HW227939   5.998   5.852   4.706
 9014SOL     OW27940   0.954   1.566   0.350
 9014SOL    HW127941   1.042   1.607   0.375
 9014SOL    HW227942   0.904   1.541   0.433
 9015SOL     OW27943   6.094   0.512   0.687
 9015SOL    HW127944   6.031   0.532   0.762
 9015SOL    HW227945   6.160   0.444   0.716
 9016SOL     OW27946   6.665   6.275   6.587
 9016SOL    HW127947   6.640   6.369   6.564
 9016SOL    HW227948   6.765   6.269   6.593
 9017SOL     OW27949   5.552   2.535   3.022
 9017SOL    HW127950   5.535   2.454   2.966
 9017SOL    HW227951   5.602   2.603   2.968
 9018SOL     OW27952   4.481   1.611   5.632
 9018SOL    HW127953   4.452   1.656   5.717
 9018SOL    HW227954   4.581   1.602   5.632
 9019SOL     OW27955   0.964   6.722   0.804
 9019SOL    HW127956   0.962   6.718   0.904
 9019SOL    HW227957   1.012   6.641   0.769
 9020SOL     OW27958   1.555   3.544   1.951
 9020SOL    HW127959   1.532   3.524   1.855
 9020SOL    HW227960   1.518   3.471   2.009
 9021SOL     OW27961   6.504   6.982   3.814
 9021SOL    HW127962   6.492   6.955   3.719
 9021SOL    HW227963   6.421   0.010   3.846
 9022SOL     OW27964   2.786   0.821   1.498
 9022SOL    HW127965   2.718   0.823   1.572
 9022SOL    HW227966   2.742   0.848   1.412
 9023SOL     OW27967   4.110   3.263   3.034
 9023SOL    HW127968   4.076   3.181   2.988
 9023SOL    HW227969   4.037   3.332   3.037
 9024SOL     OW27970   1.375   5.541   6.194
 9024SOL    HW127971   1.393   5.467   6.259
 9024SOL    HW227972   1.429   5.526   6.111
 9025SOL     OW27973   6.607   5.933   1.119
 9025SOL    HW127974   6.512   5.924   1.091
 9025SOL    HW227975   6.661   5.859   1.077
 9026SOL     OW27976   4.047   3.263   3.308
 9026SOL    HW127977   4.103   3.287   3.228
 9026SOL    HW227978   4.085   3.307   3.389
 9027SOL     OW27979   3.015   1.817   3.678
 9027SOL    HW127980   3.002   1.885   3.606
 9027SOL    HW227981   3.086   1.752   3.651
 9028SOL     OW27982   2.574   4.237   5.750
 9028SOL    HW127983   2.591   4.237   5.848
 9028SOL    HW227984   2.605   4.150   5.711
 9029SOL     OW27985   3.479   5.761   5.277
 9029SOL    HW127986   3.483   5.663   5.258
 9029SOL    HW227987   3.498   5.811   5.193
 9030SOL     OW27988   1.948   1.101   2.699
 9030SOL    HW127989   1.897   1.130   2.618
 9030SOL    HW227990   1.976   1.181   2.752
 9031SOL     OW27991   4.531   5.301   5.599
 9031SOL    HW127992   4.495   5.285   5.691
 9031SOL    HW227993   4.617   5.352   5.605
 9032SOL     OW27994   4.021   2.464   0.793
 9032SOL    HW127995   4.051   2.374   0.824
 9032SOL    HW227996   3.964   2.506   0.863
 9033SOL     OW27997   1.669   3.655   3.474
 9033SOL    HW127998   1.750   3.642   3.532
 9033SOL    HW227999   1.588   3.656   3.532
 9034SOL     OW28000   2.833   6.570   4.755
 9034SOL    HW128001   2.734   6.555   4.754
 9034SOL    HW228002   2.872   6.529   4.837
 9035SOL     OW28003   0.537   6.703   5.230
 9035SOL    HW128004   0.443   6.670   5.235
 9035SOL    HW228005   0.546   6.765   5.151
 9036SOL     OW28006   1.429   1.796   4.464
 9036SOL    HW128007   1.365   1.868   4.438
 9036SOL    HW228008   1.387   1.738   4.535
 9037SOL     OW28009   1.488   4.483   6.664
 9037SOL    HW128010   1.448   4.396   6.692
 9037SOL    HW228011   1.418   4.538   6.618
 9038SOL     OW28012   4.608   0.710   5.105
 9038SOL    HW128013   4.591   0.612   5.094
 9038SOL    HW228014   4.575   0.759   5.024
 9039SOL     OW28015   1.382   4.451   4.604
 9039SOL    HW128016   1.396   4.520   4.676
 9039SOL    HW228017   1.469   4.431   4.560
 9040SOL     OW28018   2.588   1.404   3.112
 9040SOL    HW128019   2.579   1.435   3.017
 9040SOL    HW228020   2.683   1.418   3.143
 9041SOL     OW28021   1.080   1.629   1.656
 9041SOL    HW128022   1.065   1.576   1.572
 9041SOL    HW228023   1.108   1.722   1.631
 9042SOL     OW28024   2.990   5.825   4.110
 9042SOL    HW128025   2.966   5.900   4.171
 9042SOL    HW228026   2.981   5.856   4.015
 9043SOL     OW28027   2.126   0.849   5.673
 9043SOL    HW128028   2.225   0.861   5.672
 9043SOL    HW228029   2.101   0.770   5.616
 9044SOL     OW28030   6.296   1.318   1.285
 9044SOL    HW128031   6.239   1.306   1.366
 9044SOL    HW228032   6.371   1.252   1.286
 9045SOL     OW28033   3.565   1.741   2.244
 9045SOL    HW128034   3.546   1.838   2.232
 9045SOL    HW228035   3.643   1.729   2.306
 9046SOL     OW28036   3.283   3.704   4.364
 9046SOL    HW128037   3.192   3.666   4.382
 9046SOL    HW228038   3.349   3.629   4.356
 9047SOL     OW28039   1.683   3.162   5.634
 9047SOL    HW128040   1.687   3.262   5.635
 9047SOL    HW228041   1.593   3.132   5.666
 9048SOL     OW28042   6.183   3.213   6.245
 9048SOL    HW128043   6.151   3.130   6.290
 9048SOL    HW228044   6.189   3.198   6.146
 9049SOL     OW28045   4.414   6.607   6.418
 9049SOL    HW128046   4.508   6.611   6.451
 9049SOL    HW228047   4.408   6.654   6.330
 9050SOL     OW28048   0.590   5.443   5.602
 9050SOL    HW128049   0.657   5.370   5.617
 9050SOL    HW228050   0.528   5.417   5.528
 9051SOL     OW28051   4.432   6.202   1.078
 9051SOL    HW128052   4.444   6.301   1.092
 9051SOL    HW228053   4.474   6.176   0.991
 9052SOL     OW28054   2.089   3.616   3.989
 9052SOL    HW128055   2.090   3.517   4.006
 9052SOL    HW228056   2.043   3.662   4.065
 9053SOL     OW28057   2.415   1.921   3.275
 9053SOL    HW128058   2.485   1.990   3.293
 9053SOL    HW228059   2.409   1.858   3.353
 9054SOL     OW28060   1.547   0.391   2.090
 9054SOL    HW128061   1.455   0.418   2.060
 9054SOL    HW228062   1.575   0.447   2.168
 9055SOL     OW28063   0.130   3.869   3.704
 9055SOL    HW128064   0.113   3.946   3.643
 9055SOL    HW228065   0.209   3.817   3.670
 9056SOL     OW28066   5.412   0.308   2.282
 9056SOL    HW128067   5.452   0.370   2.350
 9056SOL    HW228068   5.359   0.362   2.216
 9057SOL     OW28069   5.719   5.237   5.945
 9057SOL    HW128070   5.735   5.158   5.886
 9057SOL    HW228071   5.637   5.286   5.914
 9058SOL     OW28072   2.092   1.234   3.803
 9058SOL    HW128073   2.126   1.141   3.819
 9058SOL    HW228074   2.101   1.287   3.887
 9059SOL     OW28075   6.929   1.220   4.135
 9059SOL    HW128076   0.007   1.223   4.112
 9059SOL    HW228077   6.897   1.312   4.156
 9060SOL     OW28078   0.173   4.224   1.800
 9060SOL    HW128079   0.196   4.296   1.865
 9060SOL    HW228080   0.094   4.173   1.835
 9061SOL     OW28081   4.224   5.791   2.458
 9061SOL    HW128082   4.148   5.844   2.420
 9061SOL    HW228083   4.219   5.792   2.558
 9062SOL     OW28084   1.443   4.735   2.507
 9062SOL    HW128085   1.494   4.650   2.492
 9062SOL    HW228086   1.376   4.722   2.580
 9063SOL     OW28087   2.229   0.493   2.392
 9063SOL    HW128088   2.294   0.420   2.373
 9063SOL    HW228089   2.277   0.573   2.427
 9064SOL     OW28090   6.178   4.477   4.425
 9064SOL    HW128091   6.266   4.472   4.379
 9064SOL    HW228092   6.169   4.398   4.487
 9065SOL     OW28093   3.298   5.321   6.636
 9065SOL    HW128094   3.387   5.320   6.681
 9065SOL    HW228095   3.299   5.262   6.556
 9066SOL     OW28096   5.761   0.751   0.056
 9066SOL    HW128097   5.813   0.756   0.141
 9066SOL    HW228098   5.737   0.656   0.035
 9067SOL     OW28099   5.819   6.835   5.530
 9067SOL    HW128100   5.724   6.849   5.555
 9067SOL    HW228101   5.829   6.840   5.430
 9068SOL     OW28102   3.202   0.559   5.027
 9068SOL    HW128103   3.166   0.579   5.118
 9068SOL    HW228104   3.128   0.521   4.970
 9069SOL     OW28105   3.620   2.069   1.747
 9069SOL    HW128106   3.616   2.148   1.808
 9069SOL    HW228107   3.711   2.028   1.751
 9070SOL     OW28108   0.726   3.068   5.825
 9070SOL    HW128109   0.673   2.991   5.788
 9070SOL    HW228110   0.711   3.149   5.768
 9071SOL     OW28111   5.256   6.461   1.195
 9071SOL    HW128112   5.179   6.459   1.132
 9071SOL    HW228113   5.340   6.482   1.145
 9072SOL     OW28114   5.207   0.413   1.746
 9072SOL    HW128115   5.163   0.502   1.731
 9072SOL    HW228116   5.174   0.373   1.832
 9073SOL     OW28117   3.679   6.709   1.251
 9073SOL    HW128118   3.655   6.749   1.163
 9073SOL    HW228119   3.694   6.781   1.318
 9074SOL     OW28120   1.640   0.993   0.905
 9074SOL    HW128121   1.560   1.020   0.958
 9074SOL    HW228122   1.713   1.060   0.918
 9075SOL     OW28123   0.746   0.051   1.402
 9075SOL    HW128124   0.671   7.017   1.365
 9075SOL    HW228125   0.788   0.104   1.328
 9076SOL     OW28126   5.439   1.307   4.928
 9076SOL    HW128127   5.423   1.380   4.863
 9076SOL    HW228128   5.480   1.229   4.881
 9077SOL     OW28129   5.158   1.131   6.808
 9077SOL    HW128130   5.189   1.060   6.872
 9077SOL    HW228131   5.233   1.157   6.747
 9078SOL     OW28132   4.950   3.198   0.542
 9078SOL    HW128133   5.002   3.237   0.617
 9078SOL    HW228134   5.011   3.183   0.464
 9079SOL     OW28135   1.831   6.095   3.700
 9079SOL    HW128136   1.801   6.012   3.652
 9079SOL    HW228137   1.758   6.127   3.760
 9080SOL     OW28138   5.844   2.679   6.261
 9080SOL    HW128139   5.932   2.641   6.231
 9080SOL    HW228140   5.859   2.739   6.339
 9081SOL     OW28141   3.089   6.762   2.378
 9081SOL    HW128142   3.141   6.782   2.461
 9081SOL    HW228143   3.017   6.831   2.366
 9082SOL     OW28144   2.444   5.953   5.866
 9082SOL    HW128145   2.473   5.858   5.882
 9082SOL    HW228146   2.501   6.015   5.921
 9083SOL     OW28147   3.703   4.195   5.485
 9083SOL    HW128148   3.610   4.169   5.509
 9083SOL    HW228149   3.767   4.129   5.525
 9084SOL     OW28150   2.111   2.715   6.047
 9084SOL    HW128151   2.019   2.726   6.086
 9084SOL    HW228152   2.118   2.768   5.963
 9085SOL     OW28153   1.687   5.280   0.746
 9085SOL    HW128154   1.588   5.278   0.756
 9085SOL    HW228155   1.724   5.188   0.764
 9086SOL     OW28156   6.675   4.357   1.081
 9086SOL    HW128157   6.661   4.373   0.983
 9086SOL    HW228158   6.772   4.339   1.098
 9087SOL     OW28159   4.899   3.193   2.050
 9087SOL    HW128160   4.848   3.107   2.051
 9087SOL    HW228161   4.882   3.240   1.964
 9088SOL     OW28162   6.700   5.986   0.795
 9088SOL    HW128163   6.625   6.050   0.779
 9088SOL    HW228164   6.758   6.021   0.868
 9089SOL     OW28165   4.481   6.120   5.699
 9089SOL    HW128166   4.530   6.122   5.786
 9089SOL    HW228167   4.390   6.160   5.711
 9090SOL     OW28168   6.179   0.007   3.482
 9090SOL    HW128169   6.196   0.098   3.445
 9090SOL    HW228170   6.165   6.962   3.407
 9091SOL     OW28171   2.813   3.566   0.502
 9091SOL    HW128172   2.756   3.551   0.583
 9091SOL    HW228173   2.846   3.478   0.468
 9092SOL     OW28174   0.079   1.517   0.352
 9092SOL    HW128175   0.173   1.486   0.339
 9092SOL    HW228176   0.050   1.498   0.446
 9093SOL     OW28177   1.345   5.839   6.435
 9093SOL    HW128178   1.386   5.811   6.348
 9093SOL    HW228179   1.332   5.938   6.435
 9094SOL     OW28180   0.092   4.990   3.117
 9094SOL    HW128181   0.148   4.927   3.171
 9094SOL    HW228182   7.017   4.986   3.149
 9095SOL     OW28183   4.105   3.625   6.285
 9095SOL    HW128184   4.071   3.640   6.378
 9095SOL    HW228185   4.036   3.656   6.219
 9096SOL     OW28186   5.522   4.182   1.842
 9096SOL    HW128187   5.532   4.084   1.856
 9096SOL    HW228188   5.492   4.200   1.748
 9097SOL     OW28189   1.116   2.586   6.731
 9097SOL    HW128190   1.149   2.504   6.684
 9097SOL    HW228191   1.156   2.667   6.689
 9098SOL     OW28192   4.187   2.447   6.862
 9098SOL    HW128193   4.247   2.525   6.874
 9098SOL    HW228194   4.175   2.399   6.949
 9099SOL     OW28195   3.575   3.511   0.225
 9099SOL    HW128196   3.545   3.526   0.130
 9099SOL    HW228197   3.672   3.533   0.233
 9100SOL     OW28198   0.944   3.177   3.840
 9100SOL    HW128199   0.880   3.116   3.793
 9100SOL    HW228200   1.027   3.127   3.863
 9101SOL     OW28201   2.645   2.412   3.238
 9101SOL    HW128202   2.602   2.455   3.318
 9101SOL    HW228203   2.722   2.357   3.267
 9102SOL     OW28204   2.600   0.011   1.949
 9102SOL    HW128205   2.557   0.019   2.039
 9102SOL    HW228206   2.575   0.091   1.894
 9103SOL     OW28207   6.301   3.471   0.141
 9103SOL    HW128208   6.317   3.568   0.122
 9103SOL    HW228209   6.206   3.457   0.167
 9104SOL     OW28210   5.919   6.576   2.994
 9104SOL    HW128211   5.972   6.537   3.069
 9104SOL    HW228212   5.896   6.671   3.015
 9105SOL     OW28213   2.000   1.522   0.590
 9105SOL    HW128214   1.972   1.569   0.674
 9105SOL    HW228215   2.012   1.589   0.517
 9106SOL     OW28216   6.607   3.858   0.274
 9106SOL    HW128217   6.544   3.920   0.321
 9106SOL    HW228218   6.658   3.805   0.341
 9107SOL     OW28219   3.193   0.815   6.266
 9107SOL    HW128220   3.199   0.861   6.177
 9107SOL    HW228221   3.222   0.720   6.256
 9108SOL     OW28222   4.876   3.760   5.532
 9108SOL    HW128223   4.843   3.684   5.589
 9108SOL    HW228224   4.798   3.808   5.492
 9109SOL     OW28225   0.414   2.519   2.649
 9109SOL    HW128226   0.482   2.592   2.655
 9109SOL    HW228227   0.416   2.479   2.558
 9110SOL     OW28228   1.556   3.859   3.913
 9110SOL    HW128229   1.546   3.895   3.820
 9110SOL    HW228230   1.632   3.795   3.916
 9111SOL     OW28231   4.130   1.910   0.791
 9111SOL    HW128232   4.166   1.955   0.709
 9111SOL    HW228233   4.128   1.974   0.867
 9112SOL     OW28234   0.673   4.893   4.722
 9112SOL    HW128235   0.636   4.968   4.667
 9112SOL    HW228236   0.635   4.898   4.814
 9113SOL     OW28237   4.892   1.375   2.040
 9113SOL    HW128238   4.836   1.443   1.991
 9113SOL    HW228239   4.957   1.334   1.977
 9114SOL     OW28240   0.741   4.157   1.784
 9114SOL    HW128241   0.753   4.148   1.685
 9114SOL    HW228242   0.760   4.251   1.811
 9115SOL     OW28243   7.018   4.886   5.391
 9115SOL    HW128244   6.967   4.897   5.306
 9115SOL    HW228245   6.958   4.907   5.468
 9116SOL     OW28246   6.560   0.947   1.037
 9116SOL    HW128247   6.622   0.955   0.959
 9116SOL    HW228248   6.484   1.012   1.026
 9117SOL     OW28249   6.285   2.705   6.848
 9117SOL    HW128250   6.350   2.771   6.886
 9117SOL    HW228251   6.332   2.618   6.832
 9118SOL     OW28252   6.433   4.049   0.371
 9118SOL    HW128253   6.353   4.096   0.409
 9118SOL    HW228254   6.494   4.116   0.328
 9119SOL     OW28255   4.779   1.139   1.480
 9119SOL    HW128256   4.742   1.057   1.436
 9119SOL    HW228257   4.745   1.221   1.432
 9120SOL     OW28258   6.234   1.641   5.961
 9120SOL    HW128259   6.280   1.603   6.041
 9120SOL    HW228260   6.208   1.736   5.979
 9121SOL     OW28261   2.738   1.540   5.203
 9121SOL    HW128262   2.710   1.635   5.194
 9121SOL    HW228263   2.833   1.530   5.174
 9122SOL     OW28264   1.658   4.094   2.583
 9122SOL    HW128265   1.614   4.151   2.652
 9122SOL    HW228266   1.603   4.092   2.500
 9123SOL     OW28267   2.378   0.755   4.350
 9123SOL    HW128268   2.313   0.680   4.335
 9123SOL    HW228269   2.337   0.841   4.320
 9124SOL     OW28270   5.836   6.605   0.092
 9124SOL    HW128271   5.842   6.513   0.053
 9124SOL    HW228272   5.757   6.611   0.152
 9125SOL     OW28273   4.880   4.147   1.067
 9125SOL    HW128274   4.953   4.150   0.999
 9125SOL    HW228275   4.910   4.096   1.147
 9126SOL     OW28276   5.729   3.291   1.974
 9126SOL    HW128277   5.640   3.307   2.016
 9126SOL    HW228278   5.728   3.324   1.879
 9127SOL     OW28279   6.569   1.308   6.144
 9127SOL    HW128280   6.516   1.321   6.061
 9127SOL    HW228281   6.549   1.218   6.183
 9128SOL     OW28282   5.826   1.570   5.478
 9128SOL    HW128283   5.778   1.517   5.548
 9128SOL    HW228284   5.764   1.589   5.402
 9129SOL     OW28285   0.835   2.247   0.688
 9129SOL    HW128286   0.862   2.151   0.680
 9129SOL    HW228287   0.769   2.257   0.762
 9130SOL     OW28288   6.956   3.536   6.620
 9130SOL    HW128289   6.944   3.633   6.599
 9130SOL    HW228290   6.867   3.494   6.638
 9131SOL     OW28291   6.380   2.727   4.975
 9131SOL    HW128292   6.377   2.629   4.958
 9131SOL    HW228293   6.460   2.767   4.930
 9132SOL     OW28294   0.529   5.268   4.392
 9132SOL    HW128295   0.440   5.233   4.364
 9132SOL    HW228296   0.547   5.354   4.345
 9133SOL     OW28297   3.793   5.972   1.393
 9133SOL    HW128298   3.746   5.951   1.479
 9133SOL    HW228299   3.868   6.035   1.411
 9134SOL     OW28300   4.564   5.470   0.930
 9134SOL    HW128301   4.501   5.498   1.003
 9134SOL    HW228302   4.514   5.413   0.864
 9135SOL     OW28303   6.550   6.898   1.908
 9135SOL    HW128304   6.620   6.835   1.873
 9135SOL    HW228305   6.469   6.846   1.934
 9136SOL     OW28306   5.118   5.770   6.439
 9136SOL    HW128307   5.153   5.686   6.399
 9136SOL    HW228308   5.194   5.823   6.476
 9137SOL     OW28309   5.650   1.552   0.753
 9137SOL    HW128310   5.661   1.587   0.660
 9137SOL    HW228311   5.595   1.468   0.750
 9138SOL     OW28312   0.350   5.322   6.532
 9138SOL    HW128313   0.295   5.403   6.547
 9138SOL    HW228314   0.433   5.346   6.482
 9139SOL     OW28315   2.849   1.585   3.612
 9139SOL    HW128316   2.921   1.545   3.669
 9139SOL    HW228317   2.889   1.616   3.526
 9140SOL     OW28318   6.651   3.329   2.794
 9140SOL    HW128319   6.606   3.250   2.752
 9140SOL    HW228320   6.608   3.413   2.762
 9141SOL     OW28321   5.786   0.734   0.989
 9141SOL    HW128322   5.821   0.676   1.063
 9141SOL    HW228323   5.863   0.771   0.937
 9142SOL     OW28324   0.503   2.497   0.882
 9142SOL    HW128325   0.431   2.554   0.922
 9142SOL    HW228326   0.556   2.552   0.817
 9143SOL     OW28327   6.062   3.758   6.394
 9143SOL    HW128328   6.044   3.706   6.477
 9143SOL    HW228329   6.061   3.697   6.315
 9144SOL     OW28330   2.335   5.044   4.441
 9144SOL    HW128331   2.361   5.126   4.389
 9144SOL    HW228332   2.361   5.056   4.537
 9145SOL     OW28333   0.124   5.640   0.213
 9145SOL    HW128334   0.144   5.738   0.213
 9145SOL    HW228335   0.191   5.592   0.269
 9146SOL     OW28336   5.313   2.744   3.495
 9146SOL    HW128337   5.283   2.835   3.526
 9146SOL    HW228338   5.234   2.684   3.488
 9147SOL     OW28339   6.235   0.332   5.097
 9147SOL    HW128340   6.293   0.393   5.151
 9147SOL    HW228341   6.140   0.343   5.127
 9148SOL     OW28342   5.219   5.904   1.545
 9148SOL    HW128343   5.212   5.992   1.592
 9148SOL    HW228344   5.285   5.912   1.470
 9149SOL     OW28345   5.963   3.950   3.082
 9149SOL    HW128346   5.870   3.963   3.116
 9149SOL    HW228347   5.966   3.971   2.984
 9150SOL     OW28348   3.367   5.716   1.382
 9150SOL    HW128349   3.357   5.815   1.370
 9150SOL    HW228350   3.409   5.677   1.300
 9151SOL     OW28351   1.927   4.365   3.267
 9151SOL    HW128352   1.946   4.272   3.238
 9151SOL    HW228353   1.976   4.384   3.353
 9152SOL     OW28354   2.173   4.021   4.678
 9152SOL    HW128355   2.225   4.069   4.749
 9152SOL    HW228356   2.140   3.934   4.714
 9153SOL     OW28357   1.211   3.118   6.381
 9153SOL    HW128358   1.117   3.103   6.413
 9153SOL    HW228359   1.270   3.046   6.416
 9154SOL     OW28360   4.863   4.657   0.392
 9154SOL    HW128361   4.911   4.713   0.325
 9154SOL    HW228362   4.910   4.664   0.480
 9155SOL     OW28363   1.810   3.413   2.273
 9155SOL    HW128364   1.878   3.366   2.217
 9155SOL    HW228365   1.851   3.439   2.360
 9156SOL     OW28366   1.243   2.362   6.636
 9156SOL    HW128367   1.294   2.334   6.718
 9156SOL    HW228368   1.155   2.314   6.635
 9157SOL     OW28369   1.170   4.226   6.180
 9157SOL    HW128370   1.230   4.223   6.100
 9157SOL    HW228371   1.207   4.290   6.247
 9158SOL     OW28372   5.332   3.365   4.400
 9158SOL    HW128373   5.398   3.430   4.437
 9158SOL    HW228374   5.381   3.296   4.345
 9159SOL     OW28375   1.887   0.986   1.719
 9159SOL    HW128376   1.937   1.063   1.758
 9159SOL    HW228377   1.815   1.020   1.659
 9160SOL     OW28378   6.336   6.268   5.346
 9160SOL    HW128379   6.396   6.348   5.345
 9160SOL    HW228380   6.241   6.296   5.334
 9161SOL     OW28381   5.291   4.330   4.046
 9161SOL    HW128382   5.193   4.336   4.069
 9161SOL    HW228383   5.307   4.374   3.958
 9162SOL     OW28384   3.867   1.264   3.717
 9162SOL    HW128385   3.956   1.306   3.699
 9162SOL    HW228386   3.876   1.164   3.714
 9163SOL     OW28387   1.415   2.406   5.040
 9163SOL    HW128388   1.392   2.488   4.986
 9163SOL    HW228389   1.335   2.348   5.048
 9164SOL     OW28390   2.818   6.886   6.699
 9164SOL    HW128391   2.875   6.820   6.650
 9164SOL    HW228392   2.836   6.978   6.665
 9165SOL     OW28393   6.438   1.456   5.246
 9165SOL    HW128394   6.359   1.478   5.304
 9165SOL    HW228395   6.413   1.465   5.150
 9166SOL     OW28396   4.123   5.994   1.617
 9166SOL    HW128397   4.175   5.924   1.665
 9166SOL    HW228398   4.029   5.996   1.652
 9167SOL     OW28399   2.040   2.347   6.130
 9167SOL    HW128400   2.017   2.265   6.184
 9167SOL    HW228401   2.130   2.334   6.088
 9168SOL     OW28402   0.251   6.651   6.049
 9168SOL    HW128403   0.259   6.568   6.103
 9168SOL    HW228404   0.217   6.629   5.957
 9169SOL     OW28405   6.345   0.376   6.208
 9169SOL    HW128406   6.360   0.401   6.112
 9169SOL    HW228407   6.430   0.339   6.246
 9170SOL     OW28408   1.303   6.794   6.860
 9170SOL    HW128409   1.293   6.695   6.875
 9170SOL    HW228410   1.216   6.839   6.877
 9171SOL     OW28411   4.278   5.061   0.661
 9171SOL    HW128412   4.365   5.084   0.706
 9171SOL    HW228413   4.247   4.971   0.692
 9172SOL     OW28414   4.921   0.732   2.825
 9172SOL    HW128415   4.957   0.717   2.917
 9172SOL    HW228416   4.882   0.647   2.790
 9173SOL     OW28417   6.054   4.052   6.036
 9173SOL    HW128418   5.977   3.988   6.033
 9173SOL    HW228419   6.066   4.095   5.947
 9174SOL     OW28420   6.443   4.237   1.513
 9174SOL    HW128421   6.432   4.193   1.424
 9174SOL    HW228422   6.539   4.239   1.538
 9175SOL     OW28423   1.010   6.428   6.012
 9175SOL    HW128424   0.966   6.340   5.995
 9175SOL    HW228425   1.044   6.431   6.106
 9176SOL     OW28426   2.252   0.521   3.289
 9176SOL    HW128427   2.234   0.574   3.207
 9176SOL    HW228428   2.274   0.427   3.263
 9177SOL     OW28429   1.031   4.945   4.445
 9177SOL    HW128430   1.048   4.924   4.541
 9177SOL    HW228431   0.984   4.868   4.402
 9178SOL     OW28432   1.938   5.413   0.677
 9178SOL    HW128433   1.852   5.380   0.715
 9178SOL    HW228434   2.011   5.402   0.745
 9179SOL     OW28435   2.039   4.974   3.618
 9179SOL    HW128436   2.013   5.028   3.538
 9179SOL    HW228437   1.957   4.938   3.663
 9180SOL     OW28438   6.691   2.969   3.635
 9180SOL    HW128439   6.692   2.878   3.677
 9180SOL    HW228440   6.708   3.039   3.704
 9181SOL     OW28441   6.279   2.578   4.437
 9181SOL    HW128442   6.214   2.524   4.490
 9181SOL    HW228443   6.266   2.675   4.457
 9182SOL     OW28444   2.330   6.807   3.115
 9182SOL    HW128445   2.406   6.868   3.092
 9182SOL    HW228446   2.363   6.713   3.121
 9183SOL     OW28447   4.499   4.733   0.313
 9183SOL    HW128448   4.493   4.732   0.213
 9183SOL    HW228449   4.558   4.659   0.344
 9184SOL     OW28450   4.464   2.304   0.906
 9184SOL    HW128451   4.438   2.388   0.953
 9184SOL    HW228452   4.465   2.228   0.971
 9185SOL     OW28453   4.741   6.519   5.048
 9185SOL    HW128454   4.747   6.561   5.138
 9185SOL    HW228455   4.742   6.590   4.978
 9186SOL     OW28456   5.789   6.681   5.042
 9186SOL    HW128457   5.820   6.710   4.951
 9186SOL    HW228458   5.692   6.703   5.053
 9187SOL     OW28459   3.290   1.654   0.674
 9187SOL    HW128460   3.280   1.729   0.738
 9187SOL    HW228461   3.386   1.630   0.665
 9188SOL     OW28462   1.758   0.161   1.563
 9188SOL    HW128463   1.724   0.186   1.472
 9188SOL    HW228464   1.712   0.216   1.633
 9189SOL     OW28465   2.987   5.577   2.064
 9189SOL    HW128466   2.961   5.482   2.079
 9189SOL    HW228467   2.905   5.635   2.070
 9190SOL     OW28468   1.815   3.965   5.375
 9190SOL    HW128469   1.727   4.011   5.380
 9190SOL    HW228470   1.864   3.996   5.293
 9191SOL     OW28471   5.480   1.340   0.272
 9191SOL    HW128472   5.478   1.397   0.190
 9191SOL    HW228473   5.416   1.263   0.260
 9192SOL     OW28474   0.252   2.336   6.170
 9192SOL    HW128475   0.157   2.352   6.141
 9192SOL    HW228476   0.252   2.274   6.249
 9193SOL     OW28477   3.708   3.621   5.395
 9193SOL    HW128478   3.677   3.715   5.379
 9193SOL    HW228479   3.651   3.558   5.342
 9194SOL     OW28480   3.458   1.375   3.041
 9194SOL    HW128481   3.404   1.401   2.961
 9194SOL    HW228482   3.495   1.458   3.084
 9195SOL     OW28483   0.704   3.320   2.358
 9195SOL    HW128484   0.613   3.362   2.357
 9195SOL    HW228485   0.749   3.340   2.445
 9196SOL     OW28486   6.053   0.330   3.611
 9196SOL    HW128487   6.134   0.333   3.552
 9196SOL    HW228488   5.983   0.273   3.568
 9197SOL     OW28489   2.810   4.887   1.488
 9197SOL    HW128490   2.787   4.955   1.418
 9197SOL    HW228491   2.730   4.869   1.545
 9198SOL     OW28492   6.235   4.555   6.702
 9198SOL    HW128493   6.138   4.580   6.711
 9198SOL    HW228494   6.290   4.638   6.702
 9199SOL     OW28495   6.987   3.452   5.268
 9199SOL    HW128496   6.989   3.359   5.233
 9199SOL    HW228497   0.047   3.467   5.327
 9200SOL     OW28498   3.320   6.260   6.886
 9200SOL    HW128499   3.393   6.213   6.836
 9200SOL    HW228500   3.262   6.310   6.822
 9201SOL     OW28501   6.964   3.415   0.201
 9201SOL    HW128502   0.008   3.338   0.201
 9201SOL    HW228503   6.873   3.382   0.227
 9202SOL     OW28504   0.933   6.184   3.343
 9202SOL    HW128505   0.886   6.102   3.377
 9202SOL    HW228506   0.933   6.254   3.415
 9203SOL     OW28507   6.387   2.837   5.999
 9203SOL    HW128508   6.299   2.829   5.952
 9203SOL    HW228509   6.392   2.769   6.072
 9204SOL     OW28510   4.818   3.009   4.836
 9204SOL    HW128511   4.875   3.036   4.913
 9204SOL    HW228512   4.825   3.077   4.763
 9205SOL     OW28513   5.428   5.482   3.883
 9205SOL    HW128514   5.502   5.545   3.907
 9205SOL    HW228515   5.425   5.469   3.784
 9206SOL     OW28516   3.217   5.195   3.561
 9206SOL    HW128517   3.217   5.293   3.543
 9206SOL    HW228518   3.142   5.173   3.623
 9207SOL     OW28519   5.108   4.086   6.831
 9207SOL    HW128520   5.140   4.136   6.751
 9207SOL    HW228521   5.149   3.995   6.832
 9208SOL     OW28522   5.447   4.790   3.448
 9208SOL    HW128523   5.515   4.819   3.516
 9208SOL    HW228524   5.416   4.697   3.470
 9209SOL     OW28525   4.907   0.959   0.224
 9209SOL    HW128526   4.816   0.996   0.244
 9209SOL    HW228527   4.953   1.018   0.158
 9210SOL     OW28528   1.217   2.001   1.622
 9210SOL    HW128529   1.256   2.085   1.661
 9210SOL    HW228530   1.118   2.002   1.632
 9211SOL     OW28531   5.962   3.019   5.813
 9211SOL    HW128532   6.038   2.956   5.824
 9211SOL    HW228533   5.975   3.072   5.729
 9212SOL     OW28534   4.569   5.706   4.319
 9212SOL    HW128535   4.644   5.728   4.381
 9212SOL    HW228536   4.524   5.623   4.349
 9213SOL     OW28537   5.400   4.651   4.824
 9213SOL    HW128538   5.452   4.657   4.909
 9213SOL    HW228539   5.312   4.607   4.843
 9214SOL     OW28540   6.675   3.522   5.575
 9214SOL    HW128541   6.673   3.622   5.567
 9214SOL    HW228542   6.615   3.482   5.506
 9215SOL     OW28543   2.014   3.311   2.078
 9215SOL    HW128544   1.953   3.290   2.002
 9215SOL    HW228545   2.101   3.343   2.043
 9216SOL     OW28546   2.456   6.948   3.689
 9216SOL    HW128547   2.467   6.991   3.778
 9216SOL    HW228548   2.443   6.850   3.701
 9217SOL     OW28549   6.228   3.513   6.234
 9217SOL    HW128550   6.212   3.414   6.231
 9217SOL    HW228551   6.321   3.531   6.268
 9218SOL     OW28552   2.693   0.859   0.177
 9218SOL    HW128553   2.775   0.806   0.199
 9218SOL    HW228554   2.686   0.870   0.078
 9219SOL     OW28555   5.474   3.842   6.322
 9219SOL    HW128556   5.494   3.940   6.319
 9219SOL    HW228557   5.380   3.827   6.294
 9220SOL     OW28558   0.793   5.913   1.543
 9220SOL    HW128559   0.772   6.009   1.558
 9220SOL    HW228560   0.888   5.896   1.569
 9221SOL     OW28561   1.955   0.828   2.763
 9221SOL    HW128562   1.972   0.920   2.729
 9221SOL    HW228563   1.860   0.820   2.794
 9222SOL     OW28564   2.233   5.637   6.081
 9222SOL    HW128565   2.254   5.547   6.120
 9222SOL    HW228566   2.309   5.666   6.023
 9223SOL     OW28567   1.365   2.077   4.208
 9223SOL    HW128568   1.271   2.046   4.222
 9223SOL    HW228569   1.374   2.172   4.238
 9224SOL     OW28570   1.022   5.399   4.480
 9224SOL    HW128571   0.964   5.465   4.528
 9224SOL    HW228572   0.980   5.309   4.486
 9225SOL     OW28573   3.510   5.822   6.300
 9225SOL    HW128574   3.465   5.877   6.230
 9225SOL    HW228575   3.597   5.864   6.325
 9226SOL     OW28576   7.019   6.489   1.340
 9226SOL    HW128577   6.977   6.404   1.308
 9226SOL    HW228578   7.012   6.559   1.268
 9227SOL     OW28579   1.829   5.940   1.383
 9227SOL    HW128580   1.807   6.036   1.372
 9227SOL    HW228581   1.841   5.919   1.480
 9228SOL     OW28582   2.744   1.320   6.392
 9228SOL    HW128583   2.725   1.395   6.328
 9228SOL    HW228584   2.823   1.343   6.449
 9229SOL     OW28585   1.306   5.451   5.111
 9229SOL    HW128586   1.252   5.405   5.181
 9229SOL    HW228587   1.352   5.530   5.151
 9230SOL     OW28588   5.289   2.998   3.598
 9230SOL    HW128589   5.194   2.990   3.629
 9230SOL    HW228590   5.307   3.093   3.572
 9231SOL     OW28591   1.099   3.095   4.747
 9231SOL    HW128592   1.112   3.170   4.683
 9231SOL    HW228593   1.105   3.129   4.841
 9232SOL     OW28594   3.592   5.425   6.870
 9232SOL    HW128595   3.662   5.372   6.918
 9232SOL    HW228596   3.589   5.395   6.774
 9233SOL     OW28597   5.982   6.260   2.087
 9233SOL    HW128598   6.077   6.240   2.109
 9233SOL    HW228599   5.922   6.209   2.149
 9234SOL     OW28600   4.039   5.428   6.711
 9234SOL    HW128601   4.103   5.366   6.666
 9234SOL    HW228602   3.947   5.387   6.711
 9235SOL     OW28603   1.733   2.543   4.030
 9235SOL    HW128604   1.823   2.545   4.074
 9235SOL    HW228605   1.732   2.610   3.956
 9236SOL     OW28606   1.673   4.629   6.268
 9236SOL    HW128607   1.658   4.578   6.353
 9236SOL    HW228608   1.770   4.650   6.258
 9237SOL     OW28609   0.104   6.385   3.637
 9237SOL    HW128610   0.085   6.296   3.596
 9237SOL    HW228611   0.044   6.399   3.716
 9238SOL     OW28612   2.096   2.050   0.048
 9238SOL    HW128613   2.173   2.104   0.015
 9238SOL    HW228614   2.012   2.080   0.002
 9239SOL     OW28615   6.908   3.861   6.968
 9239SOL    HW128616   6.825   3.906   7.002
 9239SOL    HW228617   6.953   3.920   6.901
 9240SOL     OW28618   5.006   2.722   2.066
 9240SOL    HW128619   5.007   2.624   2.048
 9240SOL    HW228620   4.940   2.766   2.005
 9241SOL     OW28621   0.794   5.287   5.653
 9241SOL    HW128622   0.783   5.212   5.717
 9241SOL    HW228623   0.880   5.334   5.671
 9242SOL     OW28624   1.402   5.009   0.279
 9242SOL    HW128625   1.386   4.996   0.182
 9242SOL    HW228626   1.325   5.058   0.320
 9243SOL     OW28627   0.288   6.936   1.619
 9243SOL    HW128628   0.294   6.932   1.719
 9243SOL    HW228629   0.352   7.004   1.584
 9244SOL     OW28630   3.675   5.424   6.004
 9244SOL    HW128631   3.634   5.481   6.075
 9244SOL    HW228632   3.754   5.471   5.965
 9245SOL     OW28633   1.066   5.534   3.759
 9245SOL    HW128634   1.012   5.539   3.675
 9245SOL    HW228635   1.134   5.461   3.749
 9246SOL     OW28636   6.331   6.482   1.931
 9246SOL    HW128637   6.426   6.472   1.902
 9246SOL    HW228638   6.314   6.576   1.960
 9247SOL     OW28639   2.071   6.215   3.550
 9247SOL    HW128640   1.994   6.255   3.600
 9247SOL    HW228641   2.075   6.255   3.458
 9248SOL     OW28642   2.512   2.030   4.898
 9248SOL    HW128643   2.547   2.081   4.977
 9248SOL    HW228644   2.564   2.058   4.816
 9249SOL     OW28645   3.582   4.092   0.933
 9249SOL    HW128646   3.506   4.068   0.873
 9249SOL    HW228647   3.547   4.114   1.024
 9250SOL     OW28648   6.158   3.129   3.944
 9250SOL    HW128649   6.077   3.174   3.906
 9250SOL    HW228650   6.241   3.171   3.906
 9251SOL     OW28651   3.596   1.700   2.616
 9251SOL    HW128652   3.621   1.755   2.696
 9251SOL    HW228653   3.499   1.712   2.596
 9252SOL     OW28654   5.062   0.447   3.753
 9252SOL    HW128655   5.120   0.526   3.773
 9252SOL    HW228656   5.089   0.407   3.665
 9253SOL     OW28657   5.399   5.805   5.769
 9253SOL    HW128658   5.410   5.894   5.723
 9253SOL    HW228659   5.488   5.761   5.778
 9254SOL     OW28660   5.603   5.169   2.991
 9254SOL    HW128661   5.604   5.214   2.902
 9254SOL    HW228662   5.508   5.159   3.022
 9255SOL     OW28663   4.483   4.342   0.314
 9255SOL    HW128664   4.422   4.262   0.318
 9255SOL    HW228665   4.504   4.373   0.406
 9256SOL     OW28666   2.753   0.430   2.530
 9256SOL    HW128667   2.818   0.368   2.486
 9256SOL    HW228668   2.784   0.524   2.521
 9257SOL     OW28669   0.454   4.156   3.223
 9257SOL    HW128670   0.502   4.084   3.173
 9257SOL    HW228671   0.482   4.153   3.319
 9258SOL     OW28672   2.978   3.320   3.115
 9258SOL    HW128673   2.929   3.373   3.184
 9258SOL    HW228674   3.070   3.301   3.148
 9259SOL     OW28675   0.863   2.600   0.190
 9259SOL    HW128676   0.918   2.683   0.185
 9259SOL    HW228677   0.901   2.531   0.128
 9260SOL     OW28678   5.824   1.231   4.905
 9260SOL    HW128679   5.778   1.175   4.975
 9260SOL    HW228680   5.835   1.324   4.939
 9261SOL     OW28681   2.616   1.529   0.451
 9261SOL    HW128682   2.583   1.436   0.436
 9261SOL    HW228683   2.716   1.529   0.452
 9262SOL     OW28684   6.754   5.005   5.416
 9262SOL    HW128685   6.664   4.966   5.400
 9262SOL    HW228686   6.776   5.000   5.513
 9263SOL     OW28687   5.201   0.134   1.663
 9263SOL    HW128688   5.131   0.203   1.650
 9263SOL    HW228689   5.158   0.043   1.667
 9264SOL     OW28690   4.986   4.949   0.475
 9264SOL    HW128691   4.984   4.897   0.390
 9264SOL    HW228692   4.904   4.928   0.529
 9265SOL     OW28693   3.526   1.927   0.820
 9265SOL    HW128694   3.613   1.976   0.807
 9265SOL    HW228695   3.536   1.834   0.785
 9266SOL     OW28696   1.779   6.740   1.140
 9266SOL    HW128697   1.772   6.836   1.112
 9266SOL    HW228698   1.729   6.683   1.074
 9267SOL     OW28699   0.073   3.021   4.644
 9267SOL    HW128700   0.080   2.965   4.562
 9267SOL    HW228701   0.073   3.118   4.619
 9268SOL     OW28702   1.167   5.238   2.641
 9268SOL    HW128703   1.219   5.153   2.654
 9268SOL    HW228704   1.072   5.224   2.669
 9269SOL     OW28705   3.863   1.588   6.415
 9269SOL    HW128706   3.863   1.575   6.514
 9269SOL    HW228707   3.872   1.500   6.370
 9270SOL     OW28708   4.532   0.098   6.538
 9270SOL    HW128709   4.557   0.171   6.475
 9270SOL    HW228710   4.433   0.087   6.541
 9271SOL     OW28711   5.410   0.453   0.777
 9271SOL    HW128712   5.441   0.449   0.872
 9271SOL    HW228713   5.487   0.433   0.716
 9272SOL     OW28714   1.015   5.832   4.647
 9272SOL    HW128715   1.115   5.836   4.650
 9272SOL    HW228716   0.983   5.860   4.556
 9273SOL     OW28717   5.517   6.918   2.818
 9273SOL    HW128718   5.522   6.818   2.828
 9273SOL    HW228719   5.441   6.954   2.872
 9274SOL     OW28720   6.097   1.712   6.932
 9274SOL    HW128721   6.106   1.616   6.904
 9274SOL    HW228722   6.159   1.768   6.877
 9275SOL     OW28723   6.228   0.723   0.554
 9275SOL    HW128724   6.170   0.670   0.617
 9275SOL    HW228725   6.170   0.779   0.495
 9276SOL     OW28726   2.064   3.461   1.304
 9276SOL    HW128727   2.030   3.540   1.355
 9276SOL    HW228728   2.123   3.406   1.363
 9277SOL     OW28729   4.486   3.541   0.322
 9277SOL    HW128730   4.434   3.483   0.385
 9277SOL    HW228731   4.426   3.613   0.287
 9278SOL     OW28732   1.991   0.150   5.901
 9278SOL    HW128733   2.020   0.056   5.919
 9278SOL    HW228734   2.030   0.211   5.970
 9279SOL     OW28735   4.256   1.104   2.206
 9279SOL    HW128736   4.325   1.177   2.211
 9279SOL    HW228737   4.165   1.144   2.199
 9280SOL     OW28738   2.185   2.039   3.156
 9280SOL    HW128739   2.275   2.018   3.193
 9280SOL    HW228740   2.115   2.006   3.219
 9281SOL     OW28741   2.427   3.558   6.647
 9281SOL    HW128742   2.390   3.528   6.735
 9281SOL    HW228743   2.449   3.478   6.591
 9282SOL     OW28744   4.973   0.790   3.873
 9282SOL    HW128745   5.054   0.742   3.840
 9282SOL    HW228746   4.902   0.787   3.802
 9283SOL     OW28747   5.481   0.484   3.949
 9283SOL    HW128748   5.574   0.499   3.983
 9283SOL    HW228749   5.419   0.475   4.027
 9284SOL     OW28750   2.869   3.211   5.230
 9284SOL    HW128751   2.836   3.305   5.229
 9284SOL    HW228752   2.807   3.155   5.285
 9285SOL     OW28753   5.060   2.316   0.951
 9285SOL    HW128754   5.117   2.238   0.926
 9285SOL    HW228755   4.967   2.286   0.971
 9286SOL     OW28756   5.311   5.645   1.210
 9286SOL    HW128757   5.303   5.622   1.307
 9286SOL    HW228758   5.408   5.650   1.185
 9287SOL     OW28759   2.933   4.696   6.817
 9287SOL    HW128760   3.005   4.699   6.748
 9287SOL    HW228761   2.974   4.677   6.907
 9288SOL     OW28762   4.921   1.618   3.139
 9288SOL    HW128763   4.943   1.593   3.234
 9288SOL    HW228764   4.831   1.579   3.116
 9289SOL     OW28765   3.648   0.960   2.462
 9289SOL    HW128766   3.637   1.059   2.476
 9289SOL    HW228767   3.599   0.932   2.380
 9290SOL     OW28768   5.925   1.474   2.932
 9290SOL    HW128769   5.911   1.554   2.991
 9290SOL    HW228770   5.995   1.495   2.864
 9291SOL     OW28771   0.962   6.057   4.427
 9291SOL    HW128772   0.879   6.072   4.481
 9291SOL    HW228773   1.034   6.119   4.458
 9292SOL     OW28774   1.870   2.981   6.763
 9292SOL    HW128775   1.825   2.938   6.841
 9292SOL    HW228776   1.958   3.019   6.791
 9293SOL     OW28777   5.336   2.842   6.406
 9293SOL    HW128778   5.238   2.860   6.402
 9293SOL    HW228779   5.370   2.859   6.498
 9294SOL     OW28780   4.246   0.747   5.511
 9294SOL    HW128781   4.343   0.771   5.509
 9294SOL    HW228782   4.191   0.830   5.503
 9295SOL     OW28783   5.428   1.565   4.494
 9295SOL    HW128784   5.453   1.634   4.426
 9295SOL    HW228785   5.447   1.601   4.586
 9296SOL     OW28786   1.335   5.827   6.994
 9296SOL    HW128787   1.395   5.842   6.916
 9296SOL    HW228788   1.242   5.808   6.962
 9297SOL     OW28789   0.046   0.104   2.255
 9297SOL    HW128790   7.009   0.063   2.184
 9297SOL    HW228791   0.069   0.034   2.323
 9298SOL     OW28792   1.056   6.236   5.769
 9298SOL    HW128793   1.083   6.288   5.688
 9298SOL    HW228794   1.061   6.294   5.850
 9299SOL     OW28795   0.462   2.288   5.156
 9299SOL    HW128796   0.436   2.215   5.093
 9299SOL    HW228797   0.511   2.249   5.234
 9300SOL     OW28798   0.059   4.691   5.597
 9300SOL    HW128799   0.148   4.731   5.619
 9300SOL    HW228800   0.041   4.705   5.499
 9301SOL     OW28801   5.560   5.133   4.173
 9301SOL    HW128802   5.561   5.165   4.268
 9301SOL    HW228803   5.468   5.143   4.135
 9302SOL     OW28804   2.561   2.437   4.130
 9302SOL    HW128805   2.483   2.378   4.107
 9302SOL    HW228806   2.533   2.533   4.125
 9303SOL     OW28807   2.621   4.141   0.764
 9303SOL    HW128808   2.609   4.081   0.685
 9303SOL    HW228809   2.718   4.150   0.786
 9304SOL     OW28810   4.024   4.711   1.758
 9304SOL    HW128811   4.112   4.760   1.762
 9304SOL    HW228812   3.967   4.739   1.835
 9305SOL     OW28813   3.217   1.190   0.772
 9305SOL    HW128814   3.253   1.273   0.816
 9305SOL    HW228815   3.159   1.216   0.695
 9306SOL     OW28816   0.071   5.719   5.121
 9306SOL    HW128817   0.047   5.712   5.024
 9306SOL    HW228818   0.161   5.762   5.131
 9307SOL     OW28819   1.621   3.255   1.322
 9307SOL    HW128820   1.626   3.214   1.231
 9307SOL    HW228821   1.581   3.189   1.386
 9308SOL     OW28822   2.692   3.222   0.540
 9308SOL    HW128823   2.689   3.199   0.443
 9308SOL    HW228824   2.603   3.257   0.569
 9309SOL     OW28825   3.790   4.457   5.550
 9309SOL    HW128826   3.757   4.365   5.528
 9309SOL    HW228827   3.859   4.452   5.621
 9310SOL     OW28828   4.642   5.163   6.534
 9310SOL    HW128829   4.649   5.079   6.587
 9310SOL    HW228830   4.704   5.158   6.455
 9311SOL     OW28831   4.428   4.687   1.491
 9311SOL    HW128832   4.446   4.589   1.493
 9311SOL    HW228833   4.391   4.716   1.579
 9312SOL     OW28834   1.169   3.679   0.961
 9312SOL    HW128835   1.132   3.699   0.870
 9312SOL    HW228836   1.176   3.764   1.013
 9313SOL     OW28837   0.532   0.850   0.815
 9313SOL    HW128838   0.546   0.835   0.913
 9313SOL    HW228839   0.434   0.848   0.794
 9314SOL     OW28840   5.331   4.597   6.971
 9314SOL    HW128841   5.316   4.603   0.050
 9314SOL    HW228842   5.430   4.595   6.953
 9315SOL     OW28843   6.270   0.103   4.968
 9315SOL    HW128844   6.225   0.030   5.020
 9315SOL    HW228845   6.237   0.192   5.000
 9316SOL     OW28846   5.657   6.445   5.978
 9316SOL    HW128847   5.700   6.381   5.915
 9316SOL    HW228848   5.561   6.419   5.990
 9317SOL     OW28849   5.308   5.013   3.405
 9317SOL    HW128850   5.244   5.030   3.480
 9317SOL    HW228851   5.360   4.929   3.424
 9318SOL     OW28852   5.564   0.630   6.084
 9318SOL    HW128853   5.581   0.652   6.180
 9318SOL    HW228854   5.595   0.706   6.027
 9319SOL     OW28855   2.738   2.540   6.725
 9319SOL    HW128856   2.652   2.518   6.772
 9319SOL    HW228857   2.742   2.638   6.707
 9320SOL     OW28858   3.609   0.441   5.359
 9320SOL    HW128859   3.569   0.492   5.435
 9320SOL    HW228860   3.626   0.503   5.282
 9321SOL     OW28861   0.136   0.510   4.189
 9321SOL    HW128862   0.126   0.606   4.161
 9321SOL    HW228863   0.221   0.474   4.150
 9322SOL     OW28864   6.768   3.617   5.845
 9322SOL    HW128865   6.674   3.624   5.877
 9322SOL    HW228866   6.769   3.579   5.753
 9323SOL     OW28867   1.454   0.772   5.753
 9323SOL    HW128868   1.422   0.678   5.763
 9323SOL    HW228869   1.417   0.811   5.669
 9324SOL     OW28870   1.281   4.229   1.074
 9324SOL    HW128871   1.284   4.219   1.173
 9324SOL    HW228872   1.197   4.277   1.048
 9325SOL     OW28873   6.056   0.927   0.217
 9325SOL    HW128874   6.062   0.958   0.122
 9325SOL    HW228875   5.966   0.948   0.254
 9326SOL     OW28876   2.238   5.160   0.730
 9326SOL    HW128877   2.312   5.103   0.767
 9326SOL    HW228878   2.273   5.214   0.653
 9327SOL     OW28879   5.303   0.259   2.749
 9327SOL    HW128880   5.226   0.233   2.807
 9327SOL    HW228881   5.301   0.206   2.664
 9328SOL     OW28882   2.761   1.095   5.029
 9328SOL    HW128883   2.847   1.090   5.079
 9328SOL    HW228884   2.714   1.181   5.050
 9329SOL     OW28885   5.957   3.802   0.724
 9329SOL    HW128886   6.004   3.719   0.756
 9329SOL    HW228887   5.899   3.779   0.647
 9330SOL     OW28888   6.455   0.253   5.702
 9330SOL    HW128889   6.390   0.325   5.676
 9330SOL    HW228890   6.545   0.275   5.664
 9331SOL     OW28891   2.159   1.045   0.373
 9331SOL    HW128892   2.059   1.038   0.365
 9331SOL    HW228893   2.192   1.121   0.318
 9332SOL     OW28894   4.101   4.344   0.849
 9332SOL    HW128895   4.086   4.271   0.915
 9332SOL    HW228896   4.052   4.426   0.879
 9333SOL     OW28897   3.984   3.874   6.880
 9333SOL    HW128898   4.066   3.851   6.829
 9333SOL    HW228899   3.930   3.941   6.829
 9334SOL     OW28900   5.524   6.138   3.612
 9334SOL    HW128901   5.479   6.191   3.540
 9334SOL    HW228902   5.512   6.040   3.592
 9335SOL     OW28903   0.957   0.960   0.054
 9335SOL    HW128904   0.965   1.043   0.109
 9335SOL    HW228905   0.922   0.982   6.983
 9336SOL     OW28906   3.350   6.089   5.425
 9336SOL    HW128907   3.303   6.001   5.437
 9336SOL    HW228908   3.283   6.161   5.410
 9337SOL     OW28909   4.020   1.617   4.707
 9337SOL    HW128910   4.115   1.589   4.721
 9337SOL    HW228911   3.984   1.655   4.792
 9338SOL     OW28912   6.328   0.190   1.631
 9338SOL    HW128913   6.234   0.210   1.606
 9338SOL    HW228914   6.377   0.154   1.552
 9339SOL     OW28915   6.170   6.299   1.085
 9339SOL    HW128916   6.110   6.219   1.091
 9339SOL    HW228917   6.148   6.351   1.002
 9340SOL     OW28918   4.826   4.674   2.915
 9340SOL    HW128919   4.769   4.618   2.855
 9340SOL    HW228920   4.891   4.726   2.859
 9341SOL     OW28921   0.003   4.968   1.083
 9341SOL    HW128922   6.957   5.033   1.120
 9341SOL    HW228923   6.994   4.875   1.105
 9342SOL     OW28924   3.408   6.497   3.285
 9342SOL    HW128925   3.315   6.507   3.320
 9342SOL    HW228926   3.473   6.513   3.360
 9343SOL     OW28927   5.151   4.327   1.604
 9343SOL    HW128928   5.107   4.276   1.530
 9343SOL    HW228929   5.090   4.400   1.635
 9344SOL     OW28930   5.204   6.893   2.592
 9344SOL    HW128931   5.200   6.850   2.682
 9344SOL    HW228932   5.192   6.824   2.521
 9345SOL     OW28933   6.720   5.944   1.738
 9345SOL    HW128934   6.755   6.038   1.733
 9345SOL    HW228935   6.620   5.945   1.731
 9346SOL     OW28936   5.844   1.084   1.036
 9346SOL    HW128937   5.859   1.130   1.124
 9346SOL    HW228938   5.846   1.152   0.962
 9347SOL     OW28939   3.381   4.014   0.241
 9347SOL    HW128940   3.342   3.930   0.280
 9347SOL    HW228941   3.420   4.069   0.315
 9348SOL     OW28942   2.427   6.319   2.923
 9348SOL    HW128943   2.390   6.226   2.931
 9348SOL    HW228944   2.479   6.326   2.838
 9349SOL     OW28945   6.888   5.105   2.399
 9349SOL    HW128946   6.871   5.015   2.358
 9349SOL    HW228947   6.927   5.166   2.330
 9350SOL     OW28948   6.984   2.845   5.368
 9350SOL    HW128949   6.953   2.939   5.355
 9350SOL    HW228950   6.961   2.791   5.287
 9351SOL     OW28951   3.304   6.457   6.216
 9351SOL    HW128952   3.295   6.427   6.311
 9351SOL    HW228953   3.314   6.556   6.213
 9352SOL     OW28954   4.041   1.772   6.326
 9352SOL    HW128955   3.963   1.714   6.350
 9352SOL    HW228956   4.008   1.858   6.288
 9353SOL     OW28957   1.142   4.039   0.893
 9353SOL    HW128958   1.205   4.107   0.931
 9353SOL    HW228959   1.110   3.979   0.966
 9354SOL     OW28960   0.124   2.089   6.039
 9354SOL    HW128961   0.139   1.991   6.030
 9354SOL    HW228962   0.065   2.120   5.965
 9355SOL     OW28963   0.229   1.896   4.383
 9355SOL    HW128964   0.260   1.985   4.414
 9355SOL    HW228965   0.132   1.885   4.406
 9356SOL     OW28966   4.626   6.679   2.212
 9356SOL    HW128967   4.601   6.587   2.244
 9356SOL    HW228968   4.604   6.746   2.284
 9357SOL     OW28969   1.575   3.831   6.444
 9357SOL    HW128970   1.591   3.892   6.367
 9357SOL    HW228971   1.627   3.747   6.431
 9358SOL     OW28972   0.116   2.934   1.580
 9358SOL    HW128973   0.146   2.956   1.673
 9358SOL    HW228974   0.091   3.018   1.532
 9359SOL     OW28975   1.736   3.900   5.667
 9359SOL    HW128976   1.753   3.811   5.626
 9359SOL    HW228977   1.820   3.954   5.665
 9360SOL     OW28978   1.091   4.860   6.602
 9360SOL    HW128979   1.084   4.939   6.541
 9360SOL    HW228980   1.131   4.890   6.689
 9361SOL     OW28981   1.549   5.383   2.819
 9361SOL    HW128982   1.524   5.290   2.792
 9361SOL    HW228983   1.514   5.402   2.911
 9362SOL     OW28984   2.119   2.670   3.072
 9362SOL    HW128985   2.141   2.576   3.097
 9362SOL    HW228986   2.200   2.728   3.083
 9363SOL     OW28987   3.358   6.512   2.061
 9363SOL    HW128988   3.424   6.586   2.046
 9363SOL    HW228989   3.327   6.476   1.974
 9364SOL     OW28990   3.226   3.020   6.281
 9364SOL    HW128991   3.209   3.077   6.200
 9364SOL    HW228992   3.310   3.050   6.326
 9365SOL     OW28993   2.536   2.066   3.975
 9365SOL    HW128994   2.449   2.102   4.009
 9365SOL    HW228995   2.521   1.974   3.937
 9366SOL     OW28996   3.655   5.850   5.929
 9366SOL    HW128997   3.578   5.790   5.908
 9366SOL    HW228998   3.720   5.803   5.989
 9367SOL     OW28999   0.117   6.569   2.733
 9367SOL    HW129000   0.194   6.534   2.680
 9367SOL    HW229001   0.042   6.592   2.672
 9368SOL     OW29002   2.921   0.771   2.783
 9368SOL    HW129003   2.889   0.703   2.848
 9368SOL    HW229004   3.009   0.743   2.746
 9369SOL     OW29005   6.674   6.343   4.110
 9369SOL    HW129006   6.632   6.373   4.024
 9369SOL    HW229007   6.629   6.389   4.187
 9370SOL     OW29008   5.587   0.246   3.642
 9370SOL    HW129009   5.554   0.229   3.735
 9370SOL    HW229010   5.668   0.190   3.623
 9371SOL     OW29011   2.727   5.161   0.849
 9371SOL    HW129012   2.766   5.076   0.886
 9371SOL    HW229013   2.777   5.239   0.886
 9372SOL     OW29014   4.816   0.744   1.583
 9372SOL    HW129015   4.910   0.779   1.584
 9372SOL    HW229016   4.756   0.810   1.539
 9373SOL     OW29017   4.711   1.980   1.892
 9373SOL    HW129018   4.720   2.042   1.814
 9373SOL    HW229019   4.694   2.034   1.975
 9374SOL     OW29020   0.405   3.422   0.348
 9374SOL    HW129021   0.336   3.376   0.293
 9374SOL    HW229022   0.415   3.516   0.317
 9375SOL     OW29023   1.038   1.420   1.456
 9375SOL    HW129024   1.126   1.422   1.410
 9375SOL    HW229025   1.029   1.335   1.509
 9376SOL     OW29026   2.276   4.041   1.349
 9376SOL    HW129027   2.366   4.056   1.390
 9376SOL    HW229028   2.211   4.107   1.387
 9377SOL     OW29029   1.920   5.122   3.411
 9377SOL    HW129030   1.828   5.138   3.448
 9377SOL    HW229031   1.920   5.141   3.313
 9378SOL     OW29032   2.154   1.005   3.509
 9378SOL    HW129033   2.172   1.088   3.455
 9378SOL    HW229034   2.192   0.926   3.461
 9379SOL     OW29035   4.782   0.184   5.089
 9379SOL    HW129036   4.760   0.230   5.003
 9379SOL    HW229037   4.744   0.091   5.088
 9380SOL     OW29038   4.170   5.907   5.925
 9380SOL    HW129039   4.091   5.914   5.986
 9380SOL    HW229040   4.229   5.987   5.937
 9381SOL     OW29041   4.599   3.145   5.808
 9381SOL    HW129042   4.652   3.219   5.850
 9381SOL    HW229043   4.644   3.116   5.723
 9382SOL     OW29044   3.656   0.474   4.084
 9382SOL    HW129045   3.659   0.433   4.175
 9382SOL    HW229046   3.745   0.463   4.040
 9383SOL     OW29047   5.592   5.675   4.344
 9383SOL    HW129048   5.552   5.766   4.360
 9383SOL    HW229049   5.605   5.629   4.432
 9384SOL     OW29050   4.485   0.554   2.191
 9384SOL    HW129051   4.448   0.551   2.099
 9384SOL    HW229052   4.429   0.614   2.248
 9385SOL     OW29053   3.910   1.517   3.881
 9385SOL    HW129054   3.927   1.435   3.827
 9385SOL    HW229055   3.896   1.491   3.977
 9386SOL     OW29056   3.454   6.163   5.133
 9386SOL    HW129057   3.371   6.205   5.097
 9386SOL    HW229058   3.448   6.063   5.126
 9387SOL     OW29059   2.772   2.065   0.265
 9387SOL    HW129060   2.752   1.997   0.194
 9387SOL    HW229061   2.716   2.046   0.346
 9388SOL     OW29062   2.772   5.769   3.205
 9388SOL    HW129063   2.759   5.710   3.285
 9388SOL    HW229064   2.709   5.846   3.208
 9389SOL     OW29065   2.233   0.322   3.512
 9389SOL    HW129066   2.243   0.404   3.456
 9389SOL    HW229067   2.320   0.274   3.517
 9390SOL     OW29068   5.246   4.848   6.443
 9390SOL    HW129069   5.263   4.883   6.536
 9390SOL    HW229070   5.251   4.924   6.378
 9391SOL     OW29071   1.668   0.887   5.493
 9391SOL    HW129072   1.725   0.807   5.474
 9391SOL    HW229073   1.720   0.970   5.476
 9392SOL     OW29074   5.267   5.546   5.654
 9392SOL    HW129075   5.340   5.482   5.630
 9392SOL    HW229076   5.306   5.627   5.697
 9393SOL     OW29077   3.016   6.682   6.264
 9393SOL    HW129078   3.031   6.716   6.172
 9393SOL    HW229079   2.956   6.602   6.261
 9394SOL     OW29080   6.599   0.773   1.704
 9394SOL    HW129081   6.627   0.762   1.800
 9394SOL    HW229082   6.672   0.817   1.653
 9395SOL     OW29083   3.277   0.946   1.306
 9395SOL    HW129084   3.234   0.860   1.332
 9395SOL    HW229085   3.222   0.991   1.235
 9396SOL     OW29086   2.223   4.122   4.209
 9396SOL    HW129087   2.203   4.028   4.238
 9396SOL    HW229088   2.218   4.128   4.110
 9397SOL     OW29089   3.575   6.503   6.490
 9397SOL    HW129090   3.597   6.425   6.549
 9397SOL    HW229091   3.507   6.475   6.422
 9398SOL     OW29092   5.956   0.808   5.244
 9398SOL    HW129093   5.981   0.748   5.320
 9398SOL    HW229094   6.011   0.892   5.248
 9399SOL     OW29095   1.047   2.737   5.301
 9399SOL    HW129096   1.107   2.716   5.379
 9399SOL    HW229097   1.079   2.820   5.256
 9400SOL     OW29098   5.541   1.048   1.046
 9400SOL    HW129099   5.507   1.013   0.959
 9400SOL    HW229100   5.640   1.060   1.041
 9401SOL     OW29101   6.500   1.457   2.949
 9401SOL    HW129102   6.541   1.413   2.869
 9401SOL    HW229103   6.572   1.484   3.012
 9402SOL     OW29104   1.560   5.097   3.151
 9402SOL    HW129105   1.562   5.084   3.250
 9402SOL    HW229106   1.503   5.176   3.129
 9403SOL     OW29107   6.379   1.313   1.763
 9403SOL    HW129108   6.474   1.283   1.756
 9403SOL    HW229109   6.341   1.324   1.671
 9404SOL     OW29110   1.199   2.323   0.673
 9404SOL    HW129111   1.284   2.318   0.620
 9404SOL    HW229112   1.144   2.242   0.653
 9405SOL     OW29113   2.233   4.119   3.941
 9405SOL    HW129114   2.278   4.164   3.863
 9405SOL    HW229115   2.207   4.026   3.915
 9406SOL     OW29116   0.834   2.575   6.676
 9406SOL    HW129117   0.831   2.578   6.576
 9406SOL    HW229118   0.929   2.573   6.707
 9407SOL     OW29119   2.542   4.565   3.128
 9407SOL    HW129120   2.510   4.481   3.084
 9407SOL    HW229121   2.519   4.562   3.225
 9408SOL     OW29122   6.729   2.993   6.051
 9408SOL    HW129123   6.829   2.990   6.048
 9408SOL    HW229124   6.699   3.088   6.064
 9409SOL     OW29125   6.407   5.596   1.104
 9409SOL    HW129126   6.504   5.570   1.096
 9409SOL    HW229127   6.361   5.536   1.169
 9410SOL     OW29128   1.706   0.815   2.471
 9410SOL    HW129129   1.777   0.776   2.531
 9410SOL    HW229130   1.617   0.807   2.516
 9411SOL     OW29131   3.768   3.979   3.146
 9411SOL    HW129132   3.727   3.977   3.237
 9411SOL    HW229133   3.793   4.073   3.123
 9412SOL     OW29134   1.761   1.151   2.245
 9412SOL    HW129135   1.669   1.191   2.250
 9412SOL    HW229136   1.772   1.105   2.157
 9413SOL     OW29137   4.198   5.102   3.721
 9413SOL    HW129138   4.195   5.088   3.622
 9413SOL    HW229139   4.292   5.102   3.752
 9414SOL     OW29140   2.918   1.210   3.274
 9414SOL    HW129141   2.868   1.124   3.268
 9414SOL    HW229142   3.009   1.199   3.234
 9415SOL     OW29143   1.724   6.993   2.675
 9415SOL    HW129144   1.792   6.933   2.718
 9415SOL    HW229145   1.752   0.068   2.684
 9416SOL     OW29146   0.203   1.093   6.141
 9416SOL    HW129147   0.124   1.147   6.169
 9416SOL    HW229148   0.226   1.115   6.046
 9417SOL     OW29149   3.598   0.730   0.947
 9417SOL    HW129150   3.625   0.805   0.886
 9417SOL    HW229151   3.679   0.679   0.975
 9418SOL     OW29152   2.273   1.009   1.602
 9418SOL    HW129153   2.256   1.017   1.700
 9418SOL    HW229154   2.201   0.955   1.559
 9419SOL     OW29155   2.125   3.719   6.716
 9419SOL    HW129156   2.182   3.638   6.725
 9419SOL    HW229157   2.120   3.746   6.619
 9420SOL     OW29158   5.527   4.849   1.046
 9420SOL    HW129159   5.569   4.848   0.955
 9420SOL    HW229160   5.428   4.838   1.037
 9421SOL     OW29161   2.783   5.998   4.704
 9421SOL    HW129162   2.875   6.000   4.665
 9421SOL    HW229163   2.715   5.995   4.630
 9422SOL     OW29164   2.805   5.692   2.923
 9422SOL    HW129165   2.851   5.737   3.000
 9422SOL    HW229166   2.840   5.599   2.912
 9423SOL     OW29167   3.522   6.253   3.597
 9423SOL    HW129168   3.600   6.190   3.597
 9423SOL    HW229169   3.556   6.347   3.591
 9424SOL     OW29170   4.799   2.460   4.297
 9424SOL    HW129171   4.749   2.536   4.255
 9424SOL    HW229172   4.897   2.479   4.293
 9425SOL     OW29173   5.222   4.016   1.378
 9425SOL    HW129174   5.124   4.021   1.357
 9425SOL    HW229175   5.263   3.942   1.325
 9426SOL     OW29176   3.295   1.808   6.220
 9426SOL    HW129177   3.291   1.759   6.307
 9426SOL    HW229178   3.204   1.841   6.196
 9427SOL     OW29179   2.891   5.237   3.305
 9427SOL    HW129180   2.834   5.318   3.298
 9427SOL    HW229181   2.856   5.177   3.377
 9428SOL     OW29182   0.256   6.929   1.135
 9428SOL    HW129183   0.326   6.883   1.081
 9428SOL    HW229184   0.172   6.937   1.082
 9429SOL     OW29185   1.860   3.640   3.671
 9429SOL    HW129186   1.830   3.557   3.718
 9429SOL    HW229187   1.956   3.631   3.645
 9430SOL     OW29188   0.357   2.802   5.204
 9430SOL    HW129189   0.271   2.806   5.153
 9430SOL    HW229190   0.398   2.712   5.193
 9431SOL     OW29191   6.626   4.603   1.232
 9431SOL    HW129192   6.680   4.679   1.197
 9431SOL    HW229193   6.635   4.524   1.171
 9432SOL     OW29194   6.101   0.481   4.224
 9432SOL    HW129195   6.167   0.525   4.164
 9432SOL    HW229196   6.135   0.391   4.252
 9433SOL     OW29197   3.281   6.327   2.792
 9433SOL    HW129198   3.230   6.290   2.870
 9433SOL    HW229199   3.342   6.257   2.756
 9434SOL     OW29200   5.700   5.701   2.000
 9434SOL    HW129201   5.647   5.637   2.056
 9434SOL    HW229202   5.695   5.674   1.904
 9435SOL     OW29203   6.784   2.464   3.365
 9435SOL    HW129204   6.809   2.373   3.332
 9435SOL    HW229205   6.838   2.534   3.318
 9436SOL     OW29206   1.663   2.441   2.020
 9436SOL    HW129207   1.718   2.495   1.956
 9436SOL    HW229208   1.573   2.484   2.030
 9437SOL     OW29209   0.124   6.007   3.104
 9437SOL    HW129210   0.214   5.984   3.140
 9437SOL    HW229211   0.095   5.937   3.038
 9438SOL     OW29212   0.784   0.440   1.939
 9438SOL    HW129213   0.685   0.441   1.952
 9438SOL    HW229214   0.814   0.347   1.917
 9439SOL     OW29215   0.755   3.199   0.505
 9439SOL    HW129216   0.699   3.233   0.430
 9439SOL    HW229217   0.719   3.111   0.536
 9440SOL     OW29218   3.472   4.927   3.548
 9440SOL    HW129219   3.519   4.998   3.601
 9440SOL    HW229220   3.452   4.961   3.456
 9441SOL     OW29221   6.198   4.834   6.043
 9441SOL    HW129222   6.127   4.772   6.011
 9441SOL    HW229223   6.178   4.863   6.137
 9442SOL     OW29224   5.538   3.915   1.889
 9442SOL    HW129225   5.439   3.933   1.890
 9442SOL    HW229226   5.562   3.857   1.967
 9443SOL     OW29227   2.521   5.557   0.099
 9443SOL    HW129228   2.595   5.491   0.112
 9443SOL    HW229229   2.493   5.593   0.188
 9444SOL     OW29230   2.281   3.832   0.568
 9444SOL    HW129231   2.277   3.790   0.659
 9444SOL    HW229232   2.328   3.771   0.505
 9445SOL     OW29233   6.391   3.676   3.734
 9445SOL    HW129234   6.444   3.654   3.816
 9445SOL    HW229235   6.316   3.611   3.724
 9446SOL     OW29236   6.355   5.802   5.074
 9446SOL    HW129237   6.375   5.874   5.141
 9446SOL    HW229238   6.440   5.755   5.049
 9447SOL     OW29239   5.602   4.404   3.696
 9447SOL    HW129240   5.697   4.418   3.723
 9447SOL    HW229241   5.587   4.307   3.677
 9448SOL     OW29242   6.427   0.468   5.951
 9448SOL    HW129243   6.480   0.430   5.876
 9448SOL    HW229244   6.471   0.551   5.986
 9449SOL     OW29245   5.459   6.829   0.312
 9449SOL    HW129246   5.453   6.897   0.239
 9449SOL    HW229247   5.502   6.746   0.276
 9450SOL     OW29248   2.398   5.699   3.051
 9450SOL    HW129249   2.334   5.776   3.039
 9450SOL    HW229250   2.467   5.702   2.979
 9451SOL     OW29251   4.841   5.834   5.391
 9451SOL    HW129252   4.879   5.871   5.306
 9451SOL    HW229253   4.785   5.754   5.370
 9452SOL     OW29254   1.412   4.265   0.363
 9452SOL    HW129255   1.501   4.254   0.406
 9452SOL    HW229256   1.344   4.289   0.433
 9453SOL     OW29257   3.081   5.743   2.823
 9453SOL    HW129258   3.136   5.734   2.740
 9453SOL    HW229259   3.017   5.667   2.830
 9454SOL     OW29260   3.576   3.316   6.888
 9454SOL    HW129261   3.617   3.379   6.822
 9454SOL    HW229262   3.560   3.228   6.843
 9455SOL     OW29263   3.357   1.994   3.718
 9455SOL    HW129264   3.290   2.058   3.680
 9455SOL    HW229265   3.353   1.997   3.818
 9456SOL     OW29266   6.743   3.524   0.627
 9456SOL    HW129267   6.669   3.463   0.652
 9456SOL    HW229268   6.828   3.494   0.669
 9457SOL     OW29269   1.124   4.588   4.037
 9457SOL    HW129270   1.035   4.557   4.070
 9457SOL    HW229271   1.137   4.557   3.942
 9458SOL     OW29272   0.395   3.697   6.344
 9458SOL    HW129273   0.419   3.748   6.262
 9458SOL    HW229274   0.324   3.630   6.322
 9459SOL     OW29275   5.620   4.551   3.966
 9459SOL    HW129276   5.592   4.467   3.919
 9459SOL    HW229277   5.576   4.554   4.056
 9460SOL     OW29278   2.026   3.701   5.111
 9460SOL    HW129279   2.076   3.712   5.197
 9460SOL    HW229280   2.011   3.604   5.093
 9461SOL     OW29281   0.438   1.883   1.320
 9461SOL    HW129282   0.430   1.814   1.391
 9461SOL    HW229283   0.466   1.840   1.234
 9462SOL     OW29284   1.370   2.554   3.552
 9462SOL    HW129285   1.427   2.632   3.578
 9462SOL    HW229286   1.384   2.479   3.617
 9463SOL     OW29287   6.029   0.453   1.375
 9463SOL    HW129288   5.962   0.410   1.435
 9463SOL    HW229289   6.112   0.473   1.427
 9464SOL     OW29290   5.882   0.402   0.900
 9464SOL    HW129291   5.889   0.304   0.919
 9464SOL    HW229292   5.792   0.436   0.930
 9465SOL     OW29293   0.008   3.834   1.878
 9465SOL    HW129294   0.041   3.776   1.804
 9465SOL    HW229295   6.944   3.796   1.916
 9466SOL     OW29296   3.364   4.731   5.297
 9466SOL    HW129297   3.422   4.663   5.253
 9466SOL    HW229298   3.278   4.740   5.246
 9467SOL     OW29299   0.791   3.284   1.107
 9467SOL    HW129300   0.764   3.238   1.022
 9467SOL    HW229301   0.874   3.337   1.091
 9468SOL     OW29302   5.332   4.288   6.240
 9468SOL    HW129303   5.235   4.266   6.246
 9468SOL    HW229304   5.386   4.204   6.249
 9469SOL     OW29305   0.651   5.693   1.523
 9469SOL    HW129306   0.664   5.677   1.425
 9469SOL    HW229307   0.695   5.779   1.548
 9470SOL     OW29308   5.160   3.399   0.225
 9470SOL    HW129309   5.118   3.485   0.255
 9470SOL    HW229310   5.256   3.399   0.250
 9471SOL     OW29311   6.997   2.444   4.500
 9471SOL    HW129312   0.030   2.447   4.415
 9471SOL    HW229313   6.908   2.401   4.483
 9472SOL     OW29314   0.017   3.118   5.423
 9472SOL    HW129315   0.065   3.206   5.429
 9472SOL    HW229316   0.010   3.077   5.514
 9473SOL     OW29317   3.325   4.860   0.317
 9473SOL    HW129318   3.352   4.946   0.360
 9473SOL    HW229319   3.396   4.791   0.333
 9474SOL     OW29320   6.627   3.486   1.030
 9474SOL    HW129321   6.613   3.482   1.129
 9474SOL    HW229322   6.571   3.560   0.992
 9475SOL     OW29323   4.068   3.351   0.702
 9475SOL    HW129324   4.097   3.289   0.776
 9475SOL    HW229325   3.969   3.340   0.687
 9476SOL     OW29326   3.995   3.926   4.605
 9476SOL    HW129327   4.013   3.884   4.693
 9476SOL    HW229328   3.996   3.856   4.533
 9477SOL     OW29329   0.444   2.822   1.072
 9477SOL    HW129330   0.363   2.771   1.102
 9477SOL    HW229331   0.519   2.805   1.137
 9478SOL     OW29332   5.248   3.389   1.390
 9478SOL    HW129333   5.177   3.443   1.436
 9478SOL    HW229334   5.205   3.318   1.334
 9479SOL     OW29335   4.344   6.544   0.504
 9479SOL    HW129336   4.434   6.573   0.535
 9479SOL    HW229337   4.323   6.453   0.540
 9480SOL     OW29338   6.119   5.329   0.485
 9480SOL    HW129339   6.135   5.336   0.583
 9480SOL    HW229340   6.020   5.320   0.468
 9481SOL     OW29341   4.849   2.906   2.486
 9481SOL    HW129342   4.916   2.834   2.504
 9481SOL    HW229343   4.784   2.874   2.415
 9482SOL     OW29344   0.629   0.500   2.702
 9482SOL    HW129345   0.693   0.422   2.709
 9482SOL    HW229346   0.588   0.518   2.791
 9483SOL     OW29347   1.146   0.231   0.931
 9483SOL    HW129348   1.131   0.307   0.994
 9483SOL    HW229349   1.232   0.244   0.883
 9484SOL     OW29350   3.903   0.041   4.542
 9484SOL    HW129351   3.847   0.123   4.551
 9484SOL    HW229352   3.991   0.055   4.588
 9485SOL     OW29353   0.309   1.130   0.964
 9485SOL    HW129354   0.305   1.054   1.030
 9485SOL    HW229355   0.365   1.203   1.002
 9486SOL     OW29356   4.250   6.129   0.813
 9486SOL    HW129357   4.344   6.109   0.839
 9486SOL    HW229358   4.194   6.046   0.824
 9487SOL     OW29359   3.282   4.103   3.942
 9487SOL    HW129360   3.284   4.032   4.013
 9487SOL    HW229361   3.209   4.082   3.876
 9488SOL     OW29362   2.813   0.021   1.042
 9488SOL    HW129363   2.734   6.990   1.008
 9488SOL    HW229364   2.810   0.025   1.142
 9489SOL     OW29365   5.194   4.836   1.644
 9489SOL    HW129366   5.191   4.777   1.564
 9489SOL    HW229367   5.227   4.784   1.723
 9490SOL     OW29368   6.357   5.592   3.275
 9490SOL    HW129369   6.265   5.620   3.249
 9490SOL    HW229370   6.410   5.672   3.303
 9491SOL     OW29371   5.097   4.788   3.804
 9491SOL    HW129372   5.133   4.798   3.896
 9491SOL    HW229373   5.124   4.698   3.767
 9492SOL     OW29374   3.748   3.575   4.536
 9492SOL    HW129375   3.820   3.609   4.596
 9492SOL    HW229376   3.789   3.533   4.455
 9493SOL     OW29377   2.918   6.025   4.271
 9493SOL    HW129378   2.937   6.042   4.367
 9493SOL    HW229379   2.971   6.089   4.215
 9494SOL     OW29380   5.295   2.973   3.017
 9494SOL    HW129381   5.204   2.982   2.977
 9494SOL    HW229382   5.327   2.879   3.008
 9495SOL     OW29383   7.005   2.351   2.926
 9495SOL    HW129384   0.007   2.258   2.955
 9495SOL    HW229385   6.912   2.352   2.888
 9496SOL     OW29386   6.224   3.631   1.642
 9496SOL    HW129387   6.127   3.636   1.668
 9496SOL    HW229388   6.272   3.569   1.704
 9497SOL     OW29389   5.205   5.870   5.395
 9497SOL    HW129390   5.174   5.776   5.412
 9497SOL    HW229391   5.294   5.869   5.351
 9498SOL     OW29392   5.554   5.534   4.578
 9498SOL    HW129393   5.596   5.587   4.651
 9498SOL    HW229394   5.516   5.449   4.615
 9499SOL     OW29395   1.575   5.551   5.994
 9499SOL    HW129396   1.579   5.469   5.937
 9499SOL    HW229397   1.655   5.555   6.053
 9500SOL     OW29398   4.639   6.758   0.298
 9500SOL    HW129399   4.716   6.767   0.234
 9500SOL    HW229400   4.577   6.836   0.287
 9501SOL     OW29401   2.619   1.313   5.101
 9501SOL    HW129402   2.679   1.390   5.123
 9501SOL    HW229403   2.525   1.336   5.124
 9502SOL     OW29404   5.812   2.827   4.723
 9502SOL    HW129405   5.728   2.863   4.683
 9502SOL    HW229406   5.820   2.729   4.702
 9503SOL     OW29407   0.335   1.797   0.289
 9503SOL    HW129408   0.391   1.724   0.249
 9503SOL    HW229409   0.250   1.806   0.238
 9504SOL     OW29410   6.895   3.338   0.991
 9504SOL    HW129411   6.862   3.244   1.007
 9504SOL    HW229412   6.820   3.402   1.004
 9505SOL     OW29413   5.530   4.700   5.058
 9505SOL    HW129414   5.491   4.636   5.124
 9505SOL    HW229415   5.617   4.735   5.092
 9506SOL     OW29416   1.576   2.659   0.207
 9506SOL    HW129417   1.486   2.666   0.249
 9506SOL    HW229418   1.640   2.719   0.256
 9507SOL     OW29419   0.637   1.086   2.073
 9507SOL    HW129420   0.659   1.123   2.163
 9507SOL    HW229421   0.715   1.100   2.011
 9508SOL     OW29422   6.014   2.307   2.165
 9508SOL    HW129423   5.995   2.294   2.263
 9508SOL    HW229424   5.930   2.333   2.118
 9509SOL     OW29425   0.281   1.018   4.204
 9509SOL    HW129426   0.294   0.954   4.280
 9509SOL    HW229427   0.352   1.002   4.135
 9510SOL     OW29428   1.301   3.675   3.887
 9510SOL    HW129429   1.373   3.721   3.939
 9510SOL    HW229430   1.212   3.702   3.923
 9511SOL     OW29431   2.091   0.018   1.056
 9511SOL    HW129432   2.172   0.070   1.029
 9511SOL    HW229433   2.011   0.079   1.057
 9512SOL     OW29434   6.347   1.731   0.988
 9512SOL    HW129435   6.261   1.775   0.964
 9512SOL    HW229436   6.344   1.635   0.959
 9513SOL     OW29437   2.301   4.278   5.889
 9513SOL    HW129438   2.239   4.302   5.814
 9513SOL    HW229439   2.396   4.293   5.860
 9514SOL     OW29440   2.159   5.200   6.031
 9514SOL    HW129441   2.077   5.245   5.997
 9514SOL    HW229442   2.209   5.263   6.090
 9515SOL     OW29443   1.963   5.667   1.400
 9515SOL    HW129444   1.986   5.626   1.312
 9515SOL    HW229445   1.900   5.743   1.386
 9516SOL     OW29446   5.568   5.057   6.935
 9516SOL    HW129447   5.563   4.989   6.863
 9516SOL    HW229448   5.647   5.117   6.920
 9517SOL     OW29449   1.707   3.821   1.531
 9517SOL    HW129450   1.786   3.780   1.486
 9517SOL    HW229451   1.623   3.784   1.493
 9518SOL     OW29452   1.749   1.891   0.220
 9518SOL    HW129453   1.761   1.804   0.269
 9518SOL    HW229454   1.821   1.955   0.247
 9519SOL     OW29455   3.441   3.190   5.607
 9519SOL    HW129456   3.458   3.093   5.621
 9519SOL    HW229457   3.518   3.243   5.642
 9520SOL     OW29458   2.555   1.497   2.857
 9520SOL    HW129459   2.629   1.564   2.862
 9520SOL    HW229460   2.570   1.436   2.779
 9521SOL     OW29461   5.001   5.684   2.377
 9521SOL    HW129462   4.925   5.748   2.390
 9521SOL    HW229463   5.080   5.717   2.429
 9522SOL     OW29464   2.786   5.617   1.109
 9522SOL    HW129465   2.760   5.552   1.037
 9522SOL    HW229466   2.758   5.581   1.198
 9523SOL     OW29467   3.901   5.309   4.870
 9523SOL    HW129468   3.814   5.353   4.893
 9523SOL    HW229469   3.884   5.213   4.848
 9524SOL     OW29470   3.681   1.984   1.149
 9524SOL    HW129471   3.629   1.960   1.231
 9524SOL    HW229472   3.649   2.072   1.113
 9525SOL     OW29473   2.556   2.584   5.858
 9525SOL    HW129474   2.587   2.504   5.909
 9525SOL    HW229475   2.589   2.578   5.764
 9526SOL     OW29476   4.746   5.392   2.044
 9526SOL    HW129477   4.770   5.422   2.136
 9526SOL    HW229478   4.688   5.461   2.001
 9527SOL     OW29479   0.993   0.463   2.773
 9527SOL    HW129480   0.941   0.515   2.841
 9527SOL    HW229481   0.973   0.365   2.784
 9528SOL     OW29482   6.593   0.414   0.528
 9528SOL    HW129483   6.562   0.509   0.530
 9528SOL    HW229484   6.588   0.375   0.619
 9529SOL     OW29485   6.250   3.035   5.500
 9529SOL    HW129486   6.217   2.945   5.525
 9529SOL    HW229487   6.185   3.105   5.530
 9530SOL     OW29488   1.782   3.031   2.441
 9530SOL    HW129489   1.863   2.988   2.480
 9530SOL    HW229490   1.719   2.960   2.409
 9531SOL     OW29491   4.575   6.112   3.023
 9531SOL    HW129492   4.619   6.190   2.977
 9531SOL    HW229493   4.590   6.030   2.969
 9532SOL     OW29494   0.321   6.340   2.102
 9532SOL    HW129495   0.367   6.425   2.076
 9532SOL    HW229496   0.383   6.284   2.156
 9533SOL     OW29497   6.761   0.507   5.105
 9533SOL    HW129498   6.729   0.429   5.160
 9533SOL    HW229499   6.683   0.548   5.059
 9534SOL     OW29500   5.931   3.102   5.106
 9534SOL    HW129501   5.885   3.187   5.131
 9534SOL    HW229502   6.026   3.120   5.082
 9535SOL     OW29503   2.318   1.263   5.767
 9535SOL    HW129504   2.377   1.343   5.781
 9535SOL    HW229505   2.286   1.262   5.672
 9536SOL     OW29506   3.131   4.787   5.144
 9536SOL    HW129507   3.068   4.818   5.072
 9536SOL    HW229508   3.079   4.761   5.225
 9537SOL     OW29509   2.331   6.811   2.230
 9537SOL    HW129510   2.320   6.774   2.137
 9537SOL    HW229511   2.428   6.814   2.254
 9538SOL     OW29512   6.591   2.051   3.563
 9538SOL    HW129513   6.508   2.046   3.619
 9538SOL    HW229514   6.589   2.134   3.508
 9539SOL     OW29515   1.979   3.484   5.661
 9539SOL    HW129516   1.998   3.582   5.673
 9539SOL    HW229517   1.925   3.471   5.578
 9540SOL     OW29518   4.896   3.660   4.249
 9540SOL    HW129519   4.887   3.582   4.311
 9540SOL    HW229520   4.975   3.715   4.277
 9541SOL     OW29521   3.027   2.028   5.672
 9541SOL    HW129522   3.105   2.074   5.715
 9541SOL    HW229523   3.060   1.954   5.614
 9542SOL     OW29524   5.093   3.832   4.722
 9542SOL    HW129525   5.038   3.836   4.805
 9542SOL    HW229526   5.037   3.858   4.643
 9543SOL     OW29527   3.363   0.646   4.651
 9543SOL    HW129528   3.453   0.647   4.607
 9543SOL    HW229529   3.292   0.653   4.582
 9544SOL     OW29530   6.893   1.504   2.631
 9544SOL    HW129531   6.952   1.546   2.563
 9544SOL    HW229532   6.948   1.470   2.708
 9545SOL     OW29533   6.605   4.685   3.614
 9545SOL    HW129534   6.654   4.762   3.654
 9545SOL    HW229535   6.548   4.642   3.684
 9546SOL     OW29536   2.606   2.562   5.589
 9546SOL    HW129537   2.545   2.483   5.594
 9546SOL    HW229538   2.653   2.562   5.501
 9547SOL     OW29539   1.854   5.467   3.732
 9547SOL    HW129540   1.855   5.498   3.637
 9547SOL    HW229541   1.947   5.442   3.760
 9548SOL     OW29542   6.019   6.205   4.763
 9548SOL    HW129543   5.981   6.115   4.741
 9548SOL    HW229544   6.064   6.243   4.682
 9549SOL     OW29545   3.087   3.901   1.243
 9549SOL    HW129546   3.041   3.813   1.255
 9549SOL    HW229547   3.106   3.916   1.146
 9550SOL     OW29548   0.006   1.213   0.114
 9550SOL    HW129549   0.100   1.236   0.142
 9550SOL    HW229550   7.018   1.220   0.015
 9551SOL     OW29551   6.763   0.792   4.545
 9551SOL    HW129552   6.840   0.829   4.493
 9551SOL    HW229553   6.692   0.762   4.482
 9552SOL     OW29554   1.036   5.975   2.116
 9552SOL    HW129555   1.001   6.035   2.188
 9552SOL    HW229556   1.100   5.909   2.155
 9553SOL     OW29557   5.960   4.300   6.659
 9553SOL    HW129558   6.040   4.243   6.679
 9553SOL    HW229559   5.939   4.294   6.561
 9554SOL     OW29560   2.687   0.382   1.715
 9554SOL    HW129561   2.767   0.338   1.674
 9554SOL    HW229562   2.669   0.469   1.669
 9555SOL     OW29563   0.331   0.918   1.126
 9555SOL    HW129564   0.253   0.863   1.094
 9555SOL    HW229565   0.416   0.870   1.105
 9556SOL     OW29566   2.668   2.317   0.861
 9556SOL    HW129567   2.575   2.351   0.851
 9556SOL    HW229568   2.675   2.261   0.944
 9557SOL     OW29569   6.186   0.969   2.883
 9557SOL    HW129570   6.165   1.040   2.951
 9557SOL    HW229571   6.256   0.908   2.919
 9558SOL     OW29572   5.557   5.567   4.098
 9558SOL    HW129573   5.548   5.623   4.180
 9558SOL    HW229574   5.643   5.516   4.102
 9559SOL     OW29575   0.124   3.708   1.421
 9559SOL    HW129576   0.039   3.689   1.373
 9559SOL    HW229577   0.174   3.623   1.435
 9560SOL     OW29578   1.308   1.882   2.308
 9560SOL    HW129579   1.322   1.837   2.396
 9560SOL    HW229580   1.372   1.958   2.299
 9561SOL     OW29581   1.516   6.892   0.566
 9561SOL    HW129582   1.586   6.964   0.566
 9561SOL    HW229583   1.555   6.807   0.531
 9562SOL     OW29584   3.125   6.621   4.747
 9562SOL    HW129585   3.131   6.532   4.793
 9562SOL    HW229586   3.029   6.642   4.729
 9563SOL     OW29587   6.191   6.273   0.566
 9563SOL    HW129588   6.184   6.369   0.541
 9563SOL    HW229589   6.165   6.216   0.488
 9564SOL     OW29590   2.720   6.581   6.510
 9564SOL    HW129591   2.647   6.581   6.579
 9564SOL    HW229592   2.799   6.632   6.545
 9565SOL     OW29593   4.232   6.452   5.053
 9565SOL    HW129594   4.244   6.352   5.055
 9565SOL    HW229595   4.195   6.479   4.964
 9566SOL     OW29596   3.601   4.509   0.146
 9566SOL    HW129597   3.576   4.591   0.198
 9566SOL    HW229598   3.538   4.499   0.069
 9567SOL     OW29599   6.409   5.531   6.405
 9567SOL    HW129600   6.325   5.524   6.459
 9567SOL    HW229601   6.426   5.444   6.359
 9568SOL     OW29602   4.608   2.880   6.743
 9568SOL    HW129603   4.671   2.816   6.786
 9568SOL    HW229604   4.537   2.906   6.809
 9569SOL     OW29605   0.234   0.118   1.943
 9569SOL    HW129606   0.206   0.039   1.888
 9569SOL    HW229607   0.196   0.110   2.035
 9570SOL     OW29608   1.109   2.318   1.907
 9570SOL    HW129609   1.190   2.276   1.867
 9570SOL    HW229610   1.027   2.283   1.862
 9571SOL     OW29611   3.038   3.659   0.040
 9571SOL    HW129612   2.973   3.585   0.019
 9571SOL    HW229613   3.087   3.685   6.977
 9572SOL     OW29614   2.123   5.370   0.851
 9572SOL    HW129615   2.184   5.303   0.808
 9572SOL    HW229616   2.175   5.425   0.916
 9573SOL     OW29617   0.738   1.685   6.468
 9573SOL    HW129618   0.656   1.709   6.416
 9573SOL    HW229619   0.817   1.686   6.407
 9574SOL     OW29620   3.917   3.135   4.698
 9574SOL    HW129621   3.989   3.198   4.727
 9574SOL    HW229622   3.862   3.108   4.777
 9575SOL     OW29623   5.264   0.620   0.621
 9575SOL    HW129624   5.270   0.599   0.523
 9575SOL    HW229625   5.335   0.570   0.670
 9576SOL     OW29626   3.369   1.139   2.590
 9576SOL    HW129627   3.300   1.211   2.592
 9576SOL    HW229628   3.352   1.079   2.512
 9577SOL     OW29629   1.365   0.596   3.176
 9577SOL    HW129630   1.407   0.671   3.229
 9577SOL    HW229631   1.368   0.512   3.230
 9578SOL     OW29632   6.747   3.790   3.347
 9578SOL    HW129633   6.845   3.797   3.366
 9578SOL    HW229634   6.733   3.785   3.248
 9579SOL     OW29635   1.448   6.124   2.933
 9579SOL    HW129636   1.398   6.149   3.016
 9579SOL    HW229637   1.532   6.178   2.927
 9580SOL     OW29638   5.348   3.291   0.586
 9580SOL    HW129639   5.331   3.386   0.612
 9580SOL    HW229640   5.368   3.286   0.488
 9581SOL     OW29641   1.477   5.074   6.170
 9581SOL    HW129642   1.414   5.019   6.224
 9581SOL    HW229643   1.536   5.014   6.115
 9582SOL     OW29644   4.337   4.630   4.707
 9582SOL    HW129645   4.327   4.600   4.801
 9582SOL    HW229646   4.287   4.568   4.646
 9583SOL     OW29647   2.801   3.443   1.498
 9583SOL    HW129648   2.722   3.450   1.559
 9583SOL    HW229649   2.813   3.528   1.447
 9584SOL     OW29650   5.963   5.924   0.070
 9584SOL    HW129651   5.882   5.883   0.111
 9584SOL    HW229652   6.041   5.863   0.083
 9585SOL     OW29653   6.617   0.644   2.903
 9585SOL    HW129654   6.604   0.570   2.837
 9585SOL    HW229655   6.578   0.728   2.867
 9586SOL     OW29656   5.853   4.180   2.238
 9586SOL    HW129657   5.808   4.126   2.308
 9586SOL    HW229658   5.785   4.220   2.177
 9587SOL     OW29659   6.294   0.279   2.255
 9587SOL    HW129660   6.309   0.215   2.180
 9587SOL    HW229661   6.204   0.262   2.296
 9588SOL     OW29662   0.497   1.430   1.912
 9588SOL    HW129663   0.539   1.344   1.943
 9588SOL    HW229664   0.569   1.496   1.890
 9589SOL     OW29665   2.813   5.577   6.428
 9589SOL    HW129666   2.887   5.559   6.493
 9589SOL    HW229667   2.762   5.492   6.412
 9590SOL     OW29668   0.066   4.705   2.286
 9590SOL    HW129669   0.033   4.616   2.318
 9590SOL    HW229670   0.165   4.703   2.278
 9591SOL     OW29671   3.443   5.989   0.090
 9591SOL    HW129672   3.356   5.962   0.050
 9591SOL    HW229673   3.430   6.014   0.186
 9592SOL     OW29674   3.789   5.141   2.048
 9592SOL    HW129675   3.726   5.066   2.069
 9592SOL    HW229676   3.786   5.209   2.121
 9593SOL     OW29677   5.258   1.388   4.651
 9593SOL    HW129678   5.288   1.452   4.581
 9593SOL    HW229679   5.329   1.318   4.665
 9594SOL     OW29680   0.114   5.926   3.892
 9594SOL    HW129681   0.126   5.842   3.945
 9594SOL    HW229682   0.020   5.930   3.857
 9595SOL     OW29683   1.693   4.620   4.701
 9595SOL    HW129684   1.628   4.682   4.657
 9595SOL    HW229685   1.661   4.597   4.793
 9596SOL     OW29686   0.226   4.754   6.996
 9596SOL    HW129687   0.143   4.746   6.941
 9596SOL    HW229688   0.305   4.766   6.936
 9597SOL     OW29689   0.409   4.062   0.841
 9597SOL    HW129690   0.405   4.087   0.744
 9597SOL    HW229691   0.359   3.976   0.855
 9598SOL     OW29692   0.429   4.356   5.350
 9598SOL    HW129693   0.461   4.406   5.270
 9598SOL    HW229694   0.471   4.265   5.351
 9599SOL     OW29695   3.671   0.575   5.114
 9599SOL    HW129696   3.750   0.631   5.140
 9599SOL    HW229697   3.600   0.634   5.076
 9600SOL     OW29698   2.452   0.026   5.951
 9600SOL    HW129699   2.530   7.019   6.007
 9600SOL    HW229700   2.368   0.018   6.005
 9601SOL     OW29701   6.303   4.283   6.056
 9601SOL    HW129702   6.333   4.188   6.047
 9601SOL    HW229703   6.238   4.290   6.132
 9602SOL     OW29704   6.747   4.926   6.650
 9602SOL    HW129705   6.830   4.952   6.701
 9602SOL    HW229706   6.675   4.901   6.714
 9603SOL     OW29707   2.232   6.937   4.435
 9603SOL    HW129708   2.269   6.848   4.464
 9603SOL    HW229709   2.298   7.009   4.458
 9604SOL     OW29710   5.533   0.904   0.333
 9604SOL    HW129711   5.485   0.819   0.308
 9604SOL    HW229712   5.479   0.983   0.302
 9605SOL     OW29713   0.444   5.186   5.755
 9605SOL    HW129714   0.348   5.195   5.730
 9605SOL    HW229715   0.468   5.257   5.821
 9606SOL     OW29716   1.174   0.144   4.138
 9606SOL    HW129717   1.211   0.053   4.154
 9606SOL    HW229718   1.089   0.155   4.190
 9607SOL     OW29719   1.291   1.811   1.383
 9607SOL    HW129720   1.290   1.847   1.477
 9607SOL    HW229721   1.326   1.881   1.321
 9608SOL     OW29722   0.253   6.800   2.837
 9608SOL    HW129723   0.187   6.739   2.791
 9608SOL    HW229724   0.291   6.864   2.771
 9609SOL     OW29725   1.264   3.419   5.122
 9609SOL    HW129726   1.279   3.498   5.062
 9609SOL    HW229727   1.238   3.451   5.213
 9610SOL     OW29728   1.095   3.263   5.330
 9610SOL    HW129729   1.089   3.261   5.430
 9610SOL    HW229730   1.190   3.259   5.301
 9611SOL     OW29731   0.007   6.676   1.132
 9611SOL    HW129732   6.934   6.711   1.118
 9611SOL    HW229733   0.049   6.657   1.043
 9612SOL     OW29734   6.502   2.815   0.172
 9612SOL    HW129735   6.498   2.834   0.074
 9612SOL    HW229736   6.577   2.867   0.213
 9613SOL     OW29737   5.586   6.156   4.281
 9613SOL    HW129738   5.521   6.185   4.352
 9613SOL    HW229739   5.538   6.099   4.215
 9614SOL     OW29740   4.264   3.652   1.443
 9614SOL    HW129741   4.211   3.632   1.361
 9614SOL    HW229742   4.203   3.681   1.516
 9615SOL     OW29743   2.185   6.033   2.970
 9615SOL    HW129744   2.155   5.971   3.043
 9615SOL    HW229745   2.196   5.982   2.885
 9616SOL     OW29746   4.551   3.250   0.977
 9616SOL    HW129747   4.600   3.336   0.993
 9616SOL    HW229748   4.454   3.269   0.966
 9617SOL     OW29749   1.213   3.959   3.960
 9617SOL    HW129750   1.120   3.972   3.994
 9617SOL    HW229751   1.276   3.949   4.038
 9618SOL     OW29752   3.251   0.437   6.896
 9618SOL    HW129753   3.217   0.481   6.813
 9618SOL    HW229754   3.351   0.430   6.892
 9619SOL     OW29755   0.739   6.841   1.098
 9619SOL    HW129756   0.807   6.886   1.040
 9619SOL    HW229757   0.756   6.865   1.194
 9620SOL     OW29758   4.231   1.721   6.530
 9620SOL    HW129759   4.289   1.799   6.555
 9620SOL    HW229760   4.167   1.748   6.458
 9621SOL     OW29761   1.671   1.102   1.585
 9621SOL    HW129762   1.706   1.189   1.620
 9621SOL    HW229763   1.610   1.061   1.653
 9622SOL     OW29764   6.387   1.292   6.855
 9622SOL    HW129765   6.427   1.383   6.857
 9622SOL    HW229766   6.434   1.233   6.922
 9623SOL     OW29767   4.720   5.295   6.741
 9623SOL    HW129768   4.815   5.307   6.709
 9623SOL    HW229769   4.669   5.243   6.672
 9624SOL     OW29770   4.957   4.848   5.310
 9624SOL    HW129771   5.034   4.830   5.248
 9624SOL    HW229772   4.939   4.767   5.365
 9625SOL     OW29773   4.530   4.557   6.680
 9625SOL    HW129774   4.561   4.528   6.770
 9625SOL    HW229775   4.431   4.542   6.672
 9626SOL     OW29776   1.844   5.182   4.348
 9626SOL    HW129777   1.753   5.146   4.326
 9626SOL    HW229778   1.889   5.122   4.413
 9627SOL     OW29779   0.777   4.632   4.715
 9627SOL    HW129780   0.738   4.566   4.778
 9627SOL    HW229781   0.734   4.721   4.730
 9628SOL     OW29782   5.729   4.072   0.741
 9628SOL    HW129783   5.669   4.117   0.806
 9628SOL    HW229784   5.822   4.069   0.778
 9629SOL     OW29785   6.815   6.193   3.358
 9629SOL    HW129786   6.764   6.239   3.285
 9629SOL    HW229787   6.913   6.195   3.337
 9630SOL     OW29788   5.964   5.925   5.509
 9630SOL    HW129789   5.953   6.022   5.489
 9630SOL    HW229790   5.876   5.887   5.537
 9631SOL     OW29791   4.472   1.487   1.396
 9631SOL    HW129792   4.490   1.532   1.309
 9631SOL    HW229793   4.375   1.464   1.403
 9632SOL     OW29794   1.990   5.240   1.369
 9632SOL    HW129795   2.066   5.260   1.308
 9632SOL    HW229796   1.957   5.325   1.410
 9633SOL     OW29797   3.889   3.401   0.995
 9633SOL    HW129798   3.828   3.474   1.024
 9633SOL    HW229799   3.872   3.319   1.049
 9634SOL     OW29800   5.816   5.647   3.324
 9634SOL    HW129801   5.738   5.584   3.329
 9634SOL    HW229802   5.896   5.605   3.366
 9635SOL     OW29803   0.311   4.710   5.317
 9635SOL    HW129804   0.379   4.646   5.352
 9635SOL    HW229805   0.219   4.674   5.335
 9636SOL     OW29806   3.614   1.511   6.018
 9636SOL    HW129807   3.653   1.462   6.096
 9636SOL    HW229808   3.539   1.458   5.980
 9637SOL     OW29809   3.227   3.129   1.658
 9637SOL    HW129810   3.174   3.060   1.706
 9637SOL    HW229811   3.166   3.186   1.603
 9638SOL     OW29812   0.074   3.966   6.390
 9638SOL    HW129813   0.103   3.921   6.306
 9638SOL    HW229814   0.141   4.035   6.417
 9639SOL     OW29815   4.505   2.899   1.661
 9639SOL    HW129816   4.546   2.940   1.743
 9639SOL    HW229817   4.547   2.811   1.643
 9640SOL     OW29818   3.961   1.169   2.262
 9640SOL    HW129819   3.955   1.071   2.278
 9640SOL    HW229820   3.936   1.189   2.167
 9641SOL     OW29821   5.175   6.178   2.484
 9641SOL    HW129822   5.271   6.152   2.495
 9641SOL    HW229823   5.141   6.147   2.396
 9642SOL     OW29824   1.184   0.386   3.986
 9642SOL    HW129825   1.268   0.438   4.003
 9642SOL    HW229826   1.184   0.303   4.042
 9643SOL     OW29827   5.214   3.720   3.570
 9643SOL    HW129828   5.232   3.770   3.655
 9643SOL    HW229829   5.263   3.634   3.571
 9644SOL     OW29830   1.958   5.822   4.811
 9644SOL    HW129831   2.017   5.855   4.737
 9644SOL    HW229832   1.898   5.750   4.777
 9645SOL     OW29833   1.452   4.171   5.091
 9645SOL    HW129834   1.380   4.145   5.027
 9645SOL    HW229835   1.461   4.101   5.161
 9646SOL     OW29836   2.808   6.032   2.977
 9646SOL    HW129837   2.737   6.032   3.048
 9646SOL    HW229838   2.892   5.992   3.014
 9647SOL     OW29839   0.349   6.617   3.020
 9647SOL    HW129840   0.309   6.683   2.956
 9647SOL    HW229841   0.445   6.601   2.995
 9648SOL     OW29842   5.358   2.766   1.025
 9648SOL    HW129843   5.422   2.783   1.100
 9648SOL    HW229844   5.270   2.736   1.063
 9649SOL     OW29845   2.518   3.988   6.729
 9649SOL    HW129846   2.607   3.979   6.776
 9649SOL    HW229847   2.487   4.083   6.735
 9650SOL     OW29848   5.190   4.329   3.468
 9650SOL    HW129849   5.101   4.301   3.432
 9650SOL    HW229850   5.213   4.274   3.547
 9651SOL     OW29851   3.843   0.884   1.083
 9651SOL    HW129852   3.850   0.805   1.022
 9651SOL    HW229853   3.750   0.920   1.080
 9652SOL     OW29854   0.648   4.703   1.054
 9652SOL    HW129855   0.743   4.679   1.038
 9652SOL    HW229856   0.605   4.635   1.113
 9653SOL     OW29857   4.694   4.581   5.796
 9653SOL    HW129858   4.711   4.484   5.811
 9653SOL    HW229859   4.656   4.621   5.880
 9654SOL     OW29860   3.044   3.079   3.291
 9654SOL    HW129861   2.970   3.141   3.320
 9654SOL    HW229862   3.048   3.002   3.354
 9655SOL     OW29863   0.084   1.781   0.147
 9655SOL    HW129864   0.136   1.838   0.084
 9655SOL    HW229865   0.091   1.685   0.119
 9656SOL     OW29866   4.704   1.862   0.795
 9656SOL    HW129867   4.768   1.885   0.722
 9656SOL    HW229868   4.614   1.843   0.756
 9657SOL     OW29869   5.861   4.304   3.033
 9657SOL    HW129870   5.946   4.356   3.031
 9657SOL    HW229871   5.866   4.229   2.967
 9658SOL     OW29872   5.735   2.305   2.675
 9658SOL    HW129873   5.728   2.334   2.770
 9658SOL    HW229874   5.659   2.245   2.652
 9659SOL     OW29875   1.157   2.531   0.321
 9659SOL    HW129876   1.207   2.458   0.275
 9659SOL    HW229877   1.090   2.491   0.384
 9660SOL     OW29878   0.514   0.453   1.986
 9660SOL    HW129879   0.424   0.423   1.956
 9660SOL    HW229880   0.521   0.446   2.085
 9661SOL     OW29881   4.386   5.936   1.084
 9661SOL    HW129882   4.410   6.032   1.075
 9661SOL    HW229883   4.468   5.882   1.104
 9662SOL     OW29884   5.038   3.604   0.408
 9662SOL    HW129885   5.019   3.571   0.500
 9662SOL    HW229886   5.039   3.704   0.408
 9663SOL     OW29887   0.365   5.639   2.560
 9663SOL    HW129888   0.410   5.727   2.576
 9663SOL    HW229889   0.408   5.593   2.483
 9664SOL     OW29890   5.376   4.396   5.025
 9664SOL    HW129891   5.339   4.304   5.028
 9664SOL    HW229892   5.434   4.406   4.944
 9665SOL     OW29893   6.297   6.428   5.943
 9665SOL    HW129894   6.262   6.410   5.851
 9665SOL    HW229895   6.360   6.506   5.940
 9666SOL     OW29896   6.353   3.433   1.837
 9666SOL    HW129897   6.257   3.421   1.863
 9666SOL    HW229898   6.376   3.368   1.765
 9667SOL     OW29899   4.343   3.589   1.082
 9667SOL    HW129900   4.244   3.592   1.068
 9667SOL    HW229901   4.389   3.602   0.994
 9668SOL     OW29902   1.369   0.927   6.741
 9668SOL    HW129903   1.337   1.021   6.753
 9668SOL    HW229904   1.294   0.863   6.756
 9669SOL     OW29905   1.850   6.863   1.379
 9669SOL    HW129906   1.804   6.788   1.332
 9669SOL    HW229907   1.808   6.950   1.353
 9670SOL     OW29908   6.988   5.468   5.168
 9670SOL    HW129909   6.890   5.474   5.187
 9670SOL    HW229910   0.003   5.558   5.144
 9671SOL     OW29911   6.604   4.420   0.821
 9671SOL    HW129912   6.507   4.437   0.808
 9671SOL    HW229913   6.639   4.364   0.745
 9672SOL     OW29914   1.265   4.866   3.408
 9672SOL    HW129915   1.226   4.940   3.352
 9672SOL    HW229916   1.365   4.876   3.410
 9673SOL     OW29917   3.682   3.679   1.118
 9673SOL    HW129918   3.602   3.653   1.172
 9673SOL    HW229919   3.655   3.690   1.023
 9674SOL     OW29920   3.782   6.540   3.242
 9674SOL    HW129921   3.852   6.585   3.186
 9674SOL    HW229922   3.734   6.609   3.298
 9675SOL     OW29923   5.275   2.602   6.711
 9675SOL    HW129924   5.213   2.608   6.789
 9675SOL    HW229925   5.288   2.693   6.671
 9676SOL     OW29926   1.448   3.851   6.015
 9676SOL    HW129927   1.499   3.823   5.933
 9676SOL    HW229928   1.359   3.887   5.988
 9677SOL     OW29929   0.116   5.003   5.995
 9677SOL    HW129930   0.213   4.982   6.003
 9677SOL    HW229931   0.087   5.059   6.074
 9678SOL     OW29932   3.009   3.644   4.351
 9678SOL    HW129933   2.979   3.572   4.414
 9678SOL    HW229934   2.946   3.649   4.273
 9679SOL     OW29935   2.454   0.066   3.958
 9679SOL    HW129936   2.481   0.018   4.042
 9679SOL    HW229937   2.356   0.085   3.961
 9680SOL     OW29938   4.496   0.448   5.231
 9680SOL    HW129939   4.507   0.381   5.305
 9680SOL    HW229940   4.413   0.502   5.248
 9681SOL     OW29941   3.469   2.228   0.522
 9681SOL    HW129942   3.432   2.139   0.496
 9681SOL    HW229943   3.461   2.292   0.446
 9682SOL     OW29944   4.998   3.892   3.557
 9682SOL    HW129945   4.953   3.882   3.468
 9682SOL    HW229946   5.079   3.834   3.559
 9683SOL     OW29947   3.391   6.415   1.149
 9683SOL    HW129948   3.333   6.381   1.074
 9683SOL    HW229949   3.446   6.340   1.185
 9684SOL     OW29950   0.662   4.401   4.812
 9684SOL    HW129951   0.573   4.412   4.855
 9684SOL    HW229952   0.672   4.306   4.780
 9685SOL     OW29953   4.954   3.635   1.115
 9685SOL    HW129954   4.915   3.547   1.091
 9685SOL    HW229955   4.896   3.708   1.080
 9686SOL     OW29956   0.749   3.275   6.437
 9686SOL    HW129957   0.786   3.360   6.475
 9686SOL    HW229958   0.823   3.209   6.425
 9687SOL     OW29959   6.516   0.907   2.862
 9687SOL    HW129960   6.567   0.950   2.937
 9687SOL    HW229961   6.489   0.977   2.796
 9688SOL     OW29962   1.231   3.335   0.669
 9688SOL    HW129963   1.214   3.262   0.602
 9688SOL    HW229964   1.181   3.315   0.753
 9689SOL     OW29965   0.724   4.413   6.908
 9689SOL    HW129966   0.748   4.388   6.814
 9689SOL    HW229967   0.697   4.331   6.959
 9690SOL     OW29968   5.401   6.735   5.803
 9690SOL    HW129969   5.494   6.745   5.837
 9690SOL    HW229970   5.336   6.763   5.874
 9691SOL     OW29971   3.036   3.997   1.824
 9691SOL    HW129972   2.957   4.018   1.767
 9691SOL    HW229973   3.096   4.077   1.829
 9692SOL     OW29974   4.649   5.845   1.113
 9692SOL    HW129975   4.741   5.880   1.134
 9692SOL    HW229976   4.651   5.797   1.026
 9693SOL     OW29977   6.272   4.064   3.050
 9693SOL    HW129978   6.287   4.030   2.957
 9693SOL    HW229979   6.240   4.158   3.047
 9694SOL     OW29980   3.086   0.742   2.251
 9694SOL    HW129981   3.094   0.812   2.322
 9694SOL    HW229982   3.048   0.783   2.168
 9695SOL     OW29983   6.542   2.982   3.277
 9695SOL    HW129984   6.543   2.889   3.241
 9695SOL    HW229985   6.461   3.030   3.243
 9696SOL     OW29986   5.866   2.677   1.482
 9696SOL    HW129987   5.952   2.648   1.523
 9696SOL    HW229988   5.823   2.746   1.540
 9697SOL     OW29989   0.710   6.458   0.400
 9697SOL    HW129990   0.612   6.469   0.413
 9697SOL    HW229991   0.727   6.401   0.320
 9698SOL     OW29992   5.572   2.431   5.851
 9698SOL    HW129993   5.609   2.516   5.814
 9698SOL    HW229994   5.616   2.353   5.806
 9699SOL     OW29995   6.911   5.575   0.349
 9699SOL    HW129996   6.999   5.602   0.310
 9699SOL    HW229997   6.852   5.539   0.277
 9700SOL     OW29998   5.978   4.905   4.825
 9700SOL    HW129999   6.078   4.908   4.826
 9700SOL    HW230000   5.948   4.838   4.757
 9701SOL     OW30001   4.285   4.530   5.777
 9701SOL    HW130002   4.309   4.437   5.753
 9701SOL    HW230003   4.359   4.592   5.750
 9702SOL     OW30004   3.954   1.878   0.500
 9702SOL    HW130005   3.901   1.875   0.415
 9702SOL    HW230006   4.051   1.865   0.480
 9703SOL     OW30007   4.969   3.509   3.793
 9703SOL    HW130008   4.965   3.418   3.835
 9703SOL    HW230009   4.968   3.500   3.693
 9704SOL     OW30010   3.369   5.874   1.717
 9704SOL    HW130011   3.369   5.835   1.809
 9704SOL    HW230012   3.459   5.915   1.698
 9705SOL     OW30013   5.089   4.460   6.008
 9705SOL    HW130014   5.168   4.520   6.013
 9705SOL    HW230015   5.072   4.419   6.098
 9706SOL     OW30016   2.885   1.993   1.119
 9706SOL    HW130017   2.834   1.907   1.110
 9706SOL    HW230018   2.948   2.002   1.042
 9707SOL     OW30019   6.157   4.885   2.700
 9707SOL    HW130020   6.184   4.789   2.692
 9707SOL    HW230021   6.216   4.931   2.766
 9708SOL     OW30022   0.690   1.312   3.384
 9708SOL    HW130023   0.742   1.378   3.330
 9708SOL    HW230024   0.592   1.321   3.363
 9709SOL     OW30025   5.588   5.286   2.542
 9709SOL    HW130026   5.576   5.188   2.525
 9709SOL    HW230027   5.621   5.300   2.635
 9710SOL     OW30028   6.821   1.354   1.436
 9710SOL    HW130029   6.771   1.369   1.351
 9710SOL    HW230030   6.780   1.409   1.509
 9711SOL     OW30031   4.675   5.360   6.299
 9711SOL    HW130032   4.660   5.290   6.228
 9711SOL    HW230033   4.610   5.345   6.374
 9712SOL     OW30034   5.701   3.786   6.826
 9712SOL    HW130035   5.628   3.847   6.797
 9712SOL    HW230036   5.725   3.804   6.921
 9713SOL     OW30037   2.087   4.465   3.480
 9713SOL    HW130038   2.073   4.561   3.504
 9713SOL    HW230039   2.123   4.416   3.559
 9714SOL     OW30040   4.287   6.450   6.181
 9714SOL    HW130041   4.377   6.468   6.140
 9714SOL    HW230042   4.293   6.460   6.281
 9715SOL     OW30043   5.663   4.227   6.902
 9715SOL    HW130044   5.731   4.300   6.896
 9715SOL    HW230045   5.626   4.224   6.996
 9716SOL     OW30046   3.469   4.202   6.666
 9716SOL    HW130047   3.533   4.275   6.691
 9716SOL    HW230048   3.493   4.166   6.576
 9717SOL     OW30049   4.986   6.774   5.928
 9717SOL    HW130050   4.887   6.785   5.936
 9717SOL    HW230051   5.033   6.852   5.970
 9718SOL     OW30052   5.178   3.185   1.259
 9718SOL    HW130053   5.108   3.199   1.188
 9718SOL    HW230054   5.158   3.100   1.308
 9719SOL     OW30055   5.646   0.375   6.153
 9719SOL    HW130056   5.628   0.289   6.105
 9719SOL    HW230057   5.598   0.449   6.106
 9720SOL     OW30058   0.842   3.883   2.358
 9720SOL    HW130059   0.793   3.886   2.445
 9720SOL    HW230060   0.833   3.971   2.312
 9721SOL     OW30061   0.282   1.278   0.088
 9721SOL    HW130062   0.322   1.202   0.036
 9721SOL    HW230063   0.257   1.352   0.025
 9722SOL     OW30064   3.377   1.238   5.260
 9722SOL    HW130065   3.349   1.145   5.284
 9722SOL    HW230066   3.427   1.236   5.173
 9723SOL     OW30067   3.782   6.171   3.703
 9723SOL    HW130068   3.849   6.099   3.681
 9723SOL    HW230069   3.798   6.205   3.795
 9724SOL     OW30070   1.300   4.730   0.215
 9724SOL    HW130071   1.345   4.817   0.196
 9724SOL    HW230072   1.273   4.688   0.129
 9725SOL     OW30073   4.476   6.085   6.232
 9725SOL    HW130074   4.559   6.032   6.250
 9725SOL    HW230075   4.475   6.167   6.289
 9726SOL     OW30076   4.303   1.589   3.715
 9726SOL    HW130077   4.250   1.607   3.632
 9726SOL    HW230078   4.269   1.646   3.789
 9727SOL     OW30079   0.999   2.242   6.660
 9727SOL    HW130080   0.968   2.220   6.752
 9727SOL    HW230081   0.950   2.323   6.627
 9728SOL     OW30082   0.482   1.148   5.125
 9728SOL    HW130083   0.498   1.156   5.223
 9728SOL    HW230084   0.516   1.059   5.093
 9729SOL     OW30085   1.136   4.875   4.031
 9729SOL    HW130086   1.172   4.785   4.053
 9729SOL    HW230087   1.038   4.878   4.051
 9730SOL     OW30088   0.903   4.637   3.487
 9730SOL    HW130089   0.918   4.551   3.438
 9730SOL    HW230090   0.844   4.696   3.432
 9731SOL     OW30091   4.951   5.385   1.886
 9731SOL    HW130092   4.984   5.479   1.884
 9731SOL    HW230093   4.871   5.379   1.945
 9732SOL     OW30094   1.419   3.769   2.515
 9732SOL    HW130095   1.459   3.736   2.600
 9732SOL    HW230096   1.430   3.869   2.510
 9733SOL     OW30097   5.098   5.630   0.178
 9733SOL    HW130098   5.090   5.536   0.147
 9733SOL    HW230099   5.031   5.647   0.251
 9734SOL     OW30100   6.656   0.158   0.388
 9734SOL    HW130101   6.595   0.083   0.414
 9734SOL    HW230102   6.643   0.235   0.451
 9735SOL     OW30103   1.928   3.176   3.683
 9735SOL    HW130104   1.953   3.080   3.673
 9735SOL    HW230105   2.008   3.228   3.713
 9736SOL     OW30106   5.021   1.301   5.892
 9736SOL    HW130107   4.937   1.330   5.847
 9736SOL    HW230108   5.100   1.343   5.846
 9737SOL     OW30109   5.085   2.359   2.970
 9737SOL    HW130110   5.011   2.393   3.028
 9737SOL    HW230111   5.069   2.263   2.950
 9738SOL     OW30112   2.287   6.548   0.677
 9738SOL    HW130113   2.365   6.610   0.671
 9738SOL    HW230114   2.235   6.568   0.759
 9739SOL     OW30115   5.189   5.739   0.930
 9739SOL    HW130116   5.247   5.681   0.872
 9739SOL    HW230117   5.219   5.732   1.025
 9740SOL     OW30118   0.449   1.057   3.430
 9740SOL    HW130119   0.527   1.003   3.398
 9740SOL    HW230120   0.377   0.996   3.463
 9741SOL     OW30121   2.620   1.046   2.443
 9741SOL    HW130122   2.591   0.963   2.491
 9741SOL    HW230123   2.714   1.068   2.468
 9742SOL     OW30124   3.534   0.934   0.532
 9742SOL    HW130125   3.537   1.034   0.538
 9742SOL    HW230126   3.571   0.895   0.617
 9743SOL     OW30127   6.643   4.206   3.351
 9743SOL    HW130128   6.704   4.212   3.431
 9743SOL    HW230129   6.600   4.116   3.349
 9744SOL     OW30130   1.391   0.124   1.898
 9744SOL    HW130131   1.386   0.131   1.998
 9744SOL    HW230132   1.454   0.051   1.872
 9745SOL     OW30133   4.459   2.933   6.533
 9745SOL    HW130134   4.526   2.921   6.606
 9745SOL    HW230135   4.369   2.905   6.565
 9746SOL     OW30136   5.831   0.224   5.596
 9746SOL    HW130137   5.892   0.171   5.655
 9746SOL    HW230138   5.835   0.321   5.623
 9747SOL     OW30139   2.761   2.074   2.009
 9747SOL    HW130140   2.729   2.058   1.916
 9747SOL    HW230141   2.812   2.161   2.012
 9748SOL     OW30142   6.127   6.705   3.903
 9748SOL    HW130143   6.065   6.761   3.958
 9748SOL    HW230144   6.083   6.683   3.816
 9749SOL     OW30145   1.109   0.737   4.087
 9749SOL    HW130146   1.142   0.716   4.179
 9749SOL    HW230147   1.026   0.793   4.094
 9750SOL     OW30148   5.795   5.270   3.146
 9750SOL    HW130149   5.716   5.244   3.090
 9750SOL    HW230150   5.825   5.192   3.201
 9751SOL     OW30151   2.651   0.309   1.165
 9751SOL    HW130152   2.640   0.235   1.231
 9751SOL    HW230153   2.693   0.273   1.081
 9752SOL     OW30154   4.358   1.774   5.060
 9752SOL    HW130155   4.370   1.846   5.128
 9752SOL    HW230156   4.415   1.794   4.980
 9753SOL     OW30157   0.217   5.423   5.624
 9753SOL    HW130158   0.172   5.347   5.673
 9753SOL    HW230159   0.312   5.398   5.605
 9754SOL     OW30160   2.248   0.497   0.776
 9754SOL    HW130161   2.167   0.439   0.789
 9754SOL    HW230162   2.328   0.450   0.813
 9755SOL     OW30163   3.466   3.481   4.410
 9755SOL    HW130164   3.492   3.385   4.400
 9755SOL    HW230165   3.543   3.533   4.448
 9756SOL     OW30166   5.704   1.773   5.814
 9756SOL    HW130167   5.618   1.746   5.770
 9756SOL    HW230168   5.773   1.791   5.744
 9757SOL     OW30169   5.630   4.633   4.681
 9757SOL    HW130170   5.700   4.575   4.722
 9757SOL    HW230171   5.552   4.640   4.744
 9758SOL     OW30172   1.837   0.937   0.372
 9758SOL    HW130173   1.860   0.841   0.357
 9758SOL    HW230174   1.862   0.990   0.291
 9759SOL     OW30175   1.046   0.844   0.656
 9759SOL    HW130176   1.036   0.746   0.675
 9759SOL    HW230177   1.120   0.858   0.589
 9760SOL     OW30178   4.775   3.297   5.585
 9760SOL    HW130179   4.780   3.306   5.486
 9760SOL    HW230180   4.861   3.259   5.620
 9761SOL     OW30181   0.470   2.150   1.400
 9761SOL    HW130182   0.469   2.052   1.380
 9761SOL    HW230183   0.487   2.164   1.497
 9762SOL     OW30184   3.593   2.069   4.785
 9762SOL    HW130185   3.587   2.109   4.694
 9762SOL    HW230186   3.511   2.093   4.838
 9763SOL     OW30187   5.336   1.786   2.971
 9763SOL    HW130188   5.263   1.746   2.915
 9763SOL    HW230189   5.358   1.877   2.938
 9764SOL     OW30190   6.799   2.714   2.490
 9764SOL    HW130191   6.826   2.632   2.439
 9764SOL    HW230192   6.756   2.686   2.576
 9765SOL     OW30193   6.682   6.382   3.190
 9765SOL    HW130194   6.722   6.464   3.231
 9765SOL    HW230195   6.583   6.395   3.179
 9766SOL     OW30196   2.110   6.616   2.124
 9766SOL    HW130197   2.132   6.625   2.221
 9766SOL    HW230198   2.190   6.642   2.070
 9767SOL     OW30199   2.593   1.950   5.713
 9767SOL    HW130200   2.651   1.972   5.791
 9767SOL    HW230201   2.506   1.999   5.722
 9768SOL     OW30202   5.523   1.207   1.443
 9768SOL    HW130203   5.436   1.208   1.492
 9768SOL    HW230204   5.594   1.170   1.502
 9769SOL     OW30205   3.897   1.037   4.716
 9769SOL    HW130206   3.932   1.121   4.675
 9769SOL    HW230207   3.945   1.019   4.802
 9770SOL     OW30208   3.832   1.187   5.888
 9770SOL    HW130209   3.868   1.114   5.945
 9770SOL    HW230210   3.733   1.196   5.903
 9771SOL     OW30211   2.715   5.460   0.911
 9771SOL    HW130212   2.627   5.506   0.909
 9771SOL    HW230213   2.749   5.449   0.817
 9772SOL     OW30214   1.154   6.144   1.737
 9772SOL    HW130215   1.165   6.140   1.638
 9772SOL    HW230216   1.074   6.091   1.764
 9773SOL     OW30217   5.325   5.376   4.106
 9773SOL    HW130218   5.396   5.405   4.169
 9773SOL    HW230219   5.341   5.416   4.016
 9774SOL     OW30220   6.714   5.058   1.756
 9774SOL    HW130221   6.782   5.085   1.825
 9774SOL    HW230222   6.623   5.055   1.798
 9775SOL     OW30223   2.861   0.404   3.531
 9775SOL    HW130224   2.930   0.372   3.596
 9775SOL    HW230225   2.794   0.332   3.515
 9776SOL     OW30226   0.135   5.140   5.474
 9776SOL    HW130227   0.170   5.089   5.552
 9776SOL    HW230228   0.089   5.077   5.411
 9777SOL     OW30229   6.028   4.732   0.714
 9777SOL    HW130230   6.062   4.647   0.675
 9777SOL    HW230231   6.093   4.766   0.782
 9778SOL     OW30232   0.382   1.714   4.274
 9778SOL    HW130233   0.339   1.791   4.320
 9778SOL    HW230234   0.390   1.637   4.338
 9779SOL     OW30235   0.627   1.714   4.175
 9779SOL    HW130236   0.543   1.695   4.226
 9779SOL    HW230237   0.612   1.790   4.112
 9780SOL     OW30238   2.016   2.604   0.125
 9780SOL    HW130239   2.076   2.683   0.133
 9780SOL    HW230240   2.020   2.551   0.210
 9781SOL     OW30241   2.113   2.274   4.995
 9781SOL    HW130242   2.017   2.247   4.998
 9781SOL    HW230243   2.147   2.286   5.089
 9782SOL     OW30244   0.573   1.917   0.453
 9782SOL    HW130245   0.561   1.995   0.514
 9782SOL    HW230246   0.496   1.913   0.389
 9783SOL     OW30247   4.746   2.615   3.742
 9783SOL    HW130248   4.817   2.546   3.726
 9783SOL    HW230249   4.692   2.628   3.659
 9784SOL     OW30250   3.517   1.120   6.075
 9784SOL    HW130251   3.571   1.192   6.117
 9784SOL    HW230252   3.480   1.060   6.146
 9785SOL     OW30253   0.237   2.084   5.762
 9785SOL    HW130254   0.259   2.110   5.856
 9785SOL    HW230255   0.177   2.003   5.763
 9786SOL     OW30256   2.628   4.028   0.394
 9786SOL    HW130257   2.607   4.125   0.408
 9786SOL    HW230258   2.651   3.986   0.481
 9787SOL     OW30259   3.295   3.062   2.778
 9787SOL    HW130260   3.220   3.051   2.843
 9787SOL    HW230261   3.361   3.129   2.815
 9788SOL     OW30262   0.847   6.956   2.934
 9788SOL    HW130263   0.755   6.944   2.898
 9788SOL    HW230264   0.872   6.877   2.990
 9789SOL     OW30265   1.691   5.480   0.491
 9789SOL    HW130266   1.715   5.390   0.529
 9789SOL    HW230267   1.690   5.548   0.564
 9790SOL     OW30268   6.338   4.835   6.631
 9790SOL    HW130269   6.403   4.801   6.562
 9790SOL    HW230270   6.386   4.895   6.695
 9791SOL     OW30271   0.711   6.609   6.578
 9791SOL    HW130272   0.773   6.531   6.578
 9791SOL    HW230273   0.702   6.646   6.670
 9792SOL     OW30274   3.143   4.087   0.623
 9792SOL    HW130275   3.161   4.149   0.546
 9792SOL    HW230276   3.047   4.098   0.651
 9793SOL     OW30277   4.614   0.285   2.578
 9793SOL    HW130278   4.521   0.317   2.591
 9793SOL    HW230279   4.677   0.342   2.631
 9794SOL     OW30280   6.809   4.477   6.538
 9794SOL    HW130281   6.835   4.418   6.461
 9794SOL    HW230282   6.723   4.445   6.576
 9795SOL     OW30283   1.128   1.915   4.682
 9795SOL    HW130284   1.033   1.943   4.699
 9795SOL    HW230285   1.135   1.816   4.691
 9796SOL     OW30286   4.086   3.578   2.289
 9796SOL    HW130287   4.136   3.609   2.208
 9796SOL    HW230288   4.058   3.483   2.277
 9797SOL     OW30289   1.984   5.619   0.472
 9797SOL    HW130290   1.894   5.602   0.433
 9797SOL    HW230291   2.004   5.548   0.541
 9798SOL     OW30292   3.527   0.515   2.479
 9798SOL    HW130293   3.429   0.516   2.497
 9798SOL    HW230294   3.554   0.424   2.447
 9799SOL     OW30295   2.549   4.402   5.529
 9799SOL    HW130296   2.628   4.414   5.469
 9799SOL    HW230297   2.576   4.352   5.611
 9800SOL     OW30298   4.797   5.145   5.289
 9800SOL    HW130299   4.723   5.183   5.232
 9800SOL    HW230300   4.885   5.160   5.243
 9801SOL     OW30301   4.480   3.885   6.824
 9801SOL    HW130302   4.572   3.877   6.784
 9801SOL    HW230303   4.415   3.833   6.768
 9802SOL     OW30304   5.842   4.211   1.907
 9802SOL    HW130305   5.866   4.292   1.961
 9802SOL    HW230306   5.863   4.128   1.960
 9803SOL     OW30307   1.957   2.475   6.396
 9803SOL    HW130308   1.973   2.495   6.299
 9803SOL    HW230309   2.024   2.524   6.451
 9804SOL     OW30310   0.506   6.312   2.853
 9804SOL    HW130311   0.552   6.238   2.902
 9804SOL    HW230312   0.445   6.273   2.784
 9805SOL     OW30313   0.839   6.710   3.042
 9805SOL    HW130314   0.752   6.661   3.052
 9805SOL    HW230315   0.865   6.710   2.945
 9806SOL     OW30316   1.614   1.543   7.003
 9806SOL    HW130317   1.709   1.540   6.971
 9806SOL    HW230318   1.558   1.588   6.935
 9807SOL     OW30319   3.317   3.627   1.624
 9807SOL    HW130320   3.329   3.726   1.617
 9807SOL    HW230321   3.396   3.581   1.583
 9808SOL     OW30322   4.128   6.766   5.123
 9808SOL    HW130323   4.125   6.713   5.038
 9808SOL    HW230324   4.063   6.842   5.116
 9809SOL     OW30325   0.917   3.720   6.559
 9809SOL    HW130326   1.006   3.749   6.524
 9809SOL    HW230327   0.898   3.627   6.529
 9810SOL     OW30328   2.914   2.255   4.087
 9810SOL    HW130329   3.008   2.251   4.120
 9810SOL    HW230330   2.857   2.194   4.142
 9811SOL     OW30331   5.402   4.850   3.148
 9811SOL    HW130332   5.322   4.907   3.132
 9811SOL    HW230333   5.406   4.824   3.245
 9812SOL     OW30334   3.880   1.706   5.591
 9812SOL    HW130335   3.856   1.626   5.646
 9812SOL    HW230336   3.956   1.754   5.635
 9813SOL     OW30337   4.458   1.689   0.804
 9813SOL    HW130338   4.490   1.666   0.896
 9813SOL    HW230339   4.433   1.605   0.756
 9814SOL     OW30340   6.800   0.143   6.684
 9814SOL    HW130341   6.849   0.118   6.768
 9814SOL    HW230342   6.758   0.233   6.695
 9815SOL     OW30343   4.896   3.448   4.408
 9815SOL    HW130344   4.853   3.362   4.382
 9815SOL    HW230345   4.975   3.430   4.467
 9816SOL     OW30346   1.141   0.894   6.343
 9816SOL    HW130347   1.055   0.851   6.370
 9816SOL    HW230348   1.183   0.840   6.270
 9817SOL     OW30349   2.644   6.327   3.374
 9817SOL    HW130350   2.706   6.265   3.422
 9817SOL    HW230351   2.680   6.347   3.283
 9818SOL     OW30352   0.385   0.632   3.875
 9818SOL    HW130353   0.288   0.657   3.867
 9818SOL    HW230354   0.429   0.693   3.941
 9819SOL     OW30355   5.382   3.746   3.356
 9819SOL    HW130356   5.432   3.659   3.355
 9819SOL    HW230357   5.301   3.737   3.414
 9820SOL     OW30358   3.635   2.752   6.613
 9820SOL    HW130359   3.721   2.786   6.653
 9820SOL    HW230360   3.649   2.659   6.580
 9821SOL     OW30361   5.189   1.497   0.091
 9821SOL    HW130362   5.101   1.486   0.045
 9821SOL    HW230363   5.173   1.536   0.182
 9822SOL     OW30364   2.208   0.050   3.276
 9822SOL    HW130365   2.203   7.007   3.198
 9822SOL    HW230366   2.116   0.078   3.303
 9823SOL     OW30367   2.295   0.319   6.894
 9823SOL    HW130368   2.324   0.392   6.831
 9823SOL    HW230369   2.310   0.348   6.988
 9824SOL     OW30370   1.957   4.967   4.553
 9824SOL    HW130371   2.038   4.911   4.537
 9824SOL    HW230372   1.900   4.923   4.623
 9825SOL     OW30373   4.682   5.609   5.335
 9825SOL    HW130374   4.616   5.538   5.359
 9825SOL    HW230375   4.769   5.568   5.308
 9826SOL     OW30376   5.157   5.288   6.405
 9826SOL    HW130377   5.212   5.217   6.362
 9826SOL    HW230378   5.117   5.253   6.489
 9827SOL     OW30379   2.136   3.853   3.573
 9827SOL    HW130380   2.165   3.842   3.478
 9827SOL    HW230381   2.089   3.941   3.583
 9828SOL     OW30382   2.397   2.782   5.680
 9828SOL    HW130383   2.410   2.775   5.581
 9828SOL    HW230384   2.447   2.709   5.726
 9829SOL     OW30385   4.089   5.078   0.163
 9829SOL    HW130386   3.996   5.101   0.192
 9829SOL    HW230387   4.152   5.096   0.238
 9830SOL     OW30388   5.759   2.782   1.868
 9830SOL    HW130389   5.770   2.831   1.782
 9830SOL    HW230390   5.747   2.684   1.849
 9831SOL     OW30391   2.139   5.049   1.041
 9831SOL    HW130392   2.210   5.083   0.979
 9831SOL    HW230393   2.066   5.116   1.048
 9832SOL     OW30394   4.709   5.280   2.944
 9832SOL    HW130395   4.797   5.321   2.921
 9832SOL    HW230396   4.707   5.184   2.916
 9833SOL     OW30397   3.610   3.868   5.334
 9833SOL    HW130398   3.664   3.889   5.253
 9833SOL    HW230399   3.533   3.931   5.341
 9834SOL     OW30400   2.853   4.882   5.197
 9834SOL    HW130401   2.761   4.917   5.219
 9834SOL    HW230402   2.846   4.787   5.167
 9835SOL     OW30403   3.267   3.386   5.770
 9835SOL    HW130404   3.314   3.315   5.718
 9835SOL    HW230405   3.263   3.470   5.716
 9836SOL     OW30406   6.723   4.888   3.733
 9836SOL    HW130407   6.758   4.947   3.661
 9836SOL    HW230408   6.680   4.945   3.804
 9837SOL     OW30409   3.071   0.153   3.328
 9837SOL    HW130410   3.070   0.253   3.327
 9837SOL    HW230411   3.120   0.120   3.248
 9838SOL     OW30412   1.878   6.874   6.691
 9838SOL    HW130413   1.977   6.887   6.695
 9838SOL    HW230414   1.842   6.863   6.783
 9839SOL     OW30415   5.721   0.757   3.694
 9839SOL    HW130416   5.710   0.819   3.617
 9839SOL    HW230417   5.716   0.662   3.661
 9840SOL     OW30418   6.216   1.493   1.067
 9840SOL    HW130419   6.147   1.546   1.114
 9840SOL    HW230420   6.267   1.437   1.133
 9841SOL     OW30421   1.659   4.274   4.954
 9841SOL    HW130422   1.706   4.194   4.917
 9841SOL    HW230423   1.571   4.246   4.991
 9842SOL     OW30424   4.052   3.315   2.219
 9842SOL    HW130425   4.098   3.259   2.151
 9842SOL    HW230426   3.964   3.273   2.243
 9843SOL     OW30427   6.037   0.948   1.198
 9843SOL    HW130428   5.981   0.973   1.119
 9843SOL    HW230429   6.134   0.951   1.173
 9844SOL     OW30430   6.388   0.515   2.148
 9844SOL    HW130431   6.482   0.493   2.122
 9844SOL    HW230432   6.343   0.431   2.181
 9845SOL     OW30433   2.372   2.727   3.849
 9845SOL    HW130434   2.363   2.697   3.943
 9845SOL    HW230435   2.444   2.674   3.803
 9846SOL     OW30436   3.974   3.515   1.386
 9846SOL    HW130437   3.915   3.563   1.322
 9846SOL    HW230438   4.013   3.434   1.343
 9847SOL     OW30439   3.381   2.888   4.044
 9847SOL    HW130440   3.409   2.913   4.136
 9847SOL    HW230441   3.382   2.788   4.034
 9848SOL     OW30442   3.509   3.498   5.228
 9848SOL    HW130443   3.447   3.470   5.301
 9848SOL    HW230444   3.457   3.509   5.143
 9849SOL     OW30445   0.120   6.518   6.467
 9849SOL    HW130446   0.124   6.588   6.396
 9849SOL    HW230447   0.027   6.482   6.474
 9850SOL     OW30448   5.592   0.072   3.867
 9850SOL    HW130449   5.606   0.121   3.953
 9850SOL    HW230450   5.677   0.069   3.815
 9851SOL     OW30451   5.171   0.444   4.604
 9851SOL    HW130452   5.223   0.375   4.553
 9851SOL    HW230453   5.219   0.466   4.689
 9852SOL     OW30454   4.263   2.260   3.321
 9852SOL    HW130455   4.320   2.337   3.291
 9852SOL    HW230456   4.177   2.262   3.270
 9853SOL     OW30457   5.265   3.702   4.894
 9853SOL    HW130458   5.220   3.724   4.980
 9853SOL    HW230459   5.225   3.756   4.820
 9854SOL     OW30460   0.175   6.071   4.946
 9854SOL    HW130461   0.115   6.047   4.870
 9854SOL    HW230462   0.246   6.134   4.914
 9855SOL     OW30463   2.649   3.272   1.057
 9855SOL    HW130464   2.723   3.319   1.010
 9855SOL    HW230465   2.588   3.339   1.100
 9856SOL     OW30466   5.280   4.864   5.209
 9856SOL    HW130467   5.230   4.892   5.127
 9856SOL    HW230468   5.321   4.774   5.194
 9857SOL     OW30469   4.644   2.599   3.299
 9857SOL    HW130470   4.632   2.698   3.293
 9857SOL    HW230471   4.663   2.562   3.208
 9858SOL     OW30472   0.158   0.673   1.141
 9858SOL    HW130473   0.230   0.610   1.171
 9858SOL    HW230474   0.125   0.726   1.220
 9859SOL     OW30475   6.396   0.156   2.004
 9859SOL    HW130476   6.321   0.102   1.966
 9859SOL    HW230477   6.423   0.226   1.938
 9860SOL     OW30478   1.342   1.255   3.847
 9860SOL    HW130479   1.293   1.168   3.844
 9860SOL    HW230480   1.395   1.261   3.931
 9861SOL     OW30481   2.737   0.157   3.506
 9861SOL    HW130482   2.734   0.080   3.442
 9861SOL    HW230483   2.777   0.128   3.593
 9862SOL     OW30484   4.112   3.006   0.083
 9862SOL    HW130485   4.048   3.083   0.088
 9862SOL    HW230486   4.061   2.921   0.075
 9863SOL     OW30487   3.174   6.758   3.033
 9863SOL    HW130488   3.250   6.768   3.097
 9863SOL    HW230489   3.202   6.700   2.956
 9864SOL     OW30490   3.856   6.867   3.860
 9864SOL    HW130491   3.915   6.804   3.810
 9864SOL    HW230492   3.761   6.837   3.854
 9865SOL     OW30493   1.413   0.641   4.590
 9865SOL    HW130494   1.440   0.729   4.627
 9865SOL    HW230495   1.493   0.580   4.587
 9866SOL     OW30496   5.288   5.080   6.267
 9866SOL    HW130497   5.215   5.091   6.200
 9866SOL    HW230498   5.377   5.085   6.221
 9867SOL     OW30499   6.357   0.772   0.790
 9867SOL    HW130500   6.309   0.779   0.703
 9867SOL    HW230501   6.321   0.840   0.854
 9868SOL     OW30502   0.109   3.784   6.169
 9868SOL    HW130503   0.056   3.783   6.085
 9868SOL    HW230504   0.108   3.693   6.211
 9869SOL     OW30505   1.558   3.456   2.242
 9869SOL    HW130506   1.548   3.555   2.226
 9869SOL    HW230507   1.654   3.434   2.254
 9870SOL     OW30508   3.730   5.526   2.277
 9870SOL    HW130509   3.769   5.542   2.368
 9870SOL    HW230510   3.651   5.465   2.285
 9871SOL     OW30511   0.408   5.966   6.116
 9871SOL    HW130512   0.477   5.977   6.045
 9871SOL    HW230513   0.449   5.919   6.195
 9872SOL     OW30514   2.305   5.191   4.016
 9872SOL    HW130515   2.266   5.118   4.071
 9872SOL    HW230516   2.239   5.266   4.007
 9873SOL     OW30517   2.683   2.385   0.236
 9873SOL    HW130518   2.778   2.371   0.264
 9873SOL    HW230519   2.666   2.482   0.222
 9874SOL     OW30520   6.528   3.144   4.361
 9874SOL    HW130521   6.604   3.090   4.398
 9874SOL    HW230522   6.445   3.123   4.412
 9875SOL     OW30523   6.434   6.049   2.324
 9875SOL    HW130524   6.497   6.014   2.394
 9875SOL    HW230525   6.483   6.111   2.263
 9876SOL     OW30526   6.268   0.290   3.442
 9876SOL    HW130527   6.236   0.309   3.349
 9876SOL    HW230528   6.341   0.354   3.466
 9877SOL     OW30529   6.926   6.277   4.115
 9877SOL    HW130530   6.828   6.294   4.116
 9877SOL    HW230531   6.948   6.205   4.181
 9878SOL     OW30532   2.604   4.619   5.122
 9878SOL    HW130533   2.552   4.688   5.071
 9878SOL    HW230534   2.697   4.614   5.087
 9879SOL     OW30535   5.468   5.419   4.974
 9879SOL    HW130536   5.555   5.389   5.014
 9879SOL    HW230537   5.469   5.401   4.876
 9880SOL     OW30538   3.805   0.895   6.731
 9880SOL    HW130539   3.858   0.980   6.734
 9880SOL    HW230540   3.837   0.839   6.655
 9881SOL     OW30541   0.752   1.018   5.126
 9881SOL    HW130542   0.722   0.934   5.080
 9881SOL    HW230543   0.815   0.994   5.201
 9882SOL     OW30544   1.183   3.425   4.109
 9882SOL    HW130545   1.240   3.463   4.182
 9882SOL    HW230546   1.137   3.343   4.142
 9883SOL     OW30547   1.449   6.372   0.544
 9883SOL    HW130548   1.422   6.466   0.522
 9883SOL    HW230549   1.527   6.374   0.607
 9884SOL     OW30550   5.088   2.578   1.488
 9884SOL    HW130551   5.134   2.665   1.472
 9884SOL    HW230552   5.156   2.508   1.509
 9885SOL     OW30553   6.749   2.003   4.893
 9885SOL    HW130554   6.721   1.987   4.988
 9885SOL    HW230555   6.849   1.996   4.886
 9886SOL     OW30556   1.149   4.503   2.129
 9886SOL    HW130557   1.153   4.545   2.220
 9886SOL    HW230558   1.192   4.565   2.062
 9887SOL     OW30559   4.224   0.478   6.262
 9887SOL    HW130560   4.219   0.576   6.239
 9887SOL    HW230561   4.280   0.467   6.344
 9888SOL     OW30562   5.972   4.711   2.215
 9888SOL    HW130563   6.011   4.685   2.304
 9888SOL    HW230564   6.043   4.703   2.145
 9889SOL     OW30565   6.539   4.877   1.204
 9889SOL    HW130566   6.634   4.896   1.228
 9889SOL    HW230567   6.492   4.837   1.283
 9890SOL     OW30568   1.372   3.066   0.848
 9890SOL    HW130569   1.348   2.981   0.801
 9890SOL    HW230570   1.312   3.077   0.928
 9891SOL     OW30571   5.472   3.387   2.056
 9891SOL    HW130572   5.443   3.413   1.964
 9891SOL    HW230573   5.453   3.290   2.071
 9892SOL     OW30574   0.909   4.920   1.207
 9892SOL    HW130575   1.005   4.908   1.182
 9892SOL    HW230576   0.883   5.015   1.192
 9893SOL     OW30577   0.570   0.886   1.554
 9893SOL    HW130578   0.545   0.863   1.648
 9893SOL    HW230579   0.490   0.925   1.508
 9894SOL     OW30580   3.334   2.587   0.439
 9894SOL    HW130581   3.388   2.548   0.365
 9894SOL    HW230582   3.241   2.604   0.407
 9895SOL     OW30583   5.787   4.275   5.178
 9895SOL    HW130584   5.812   4.200   5.239
 9895SOL    HW230585   5.723   4.242   5.108
 9896SOL     OW30586   6.126   1.077   0.566
 9896SOL    HW130587   6.146   1.147   0.498
 9896SOL    HW230588   6.206   1.060   0.622
 9897SOL     OW30589   5.493   6.264   2.552
 9897SOL    HW130590   5.529   6.357   2.545
 9897SOL    HW230591   5.437   6.256   2.635
 9898SOL     OW30592   0.991   5.245   5.385
 9898SOL    HW130593   0.937   5.244   5.301
 9898SOL    HW230594   0.978   5.332   5.433
 9899SOL     OW30595   1.845   5.700   0.923
 9899SOL    HW130596   1.864   5.767   0.995
 9899SOL    HW230597   1.906   5.716   0.846
 9900SOL     OW30598   1.266   2.751   2.724
 9900SOL    HW130599   1.222   2.775   2.810
 9900SOL    HW230600   1.298   2.657   2.728
 9901SOL     OW30601   3.046   0.821   6.865
 9901SOL    HW130602   2.999   0.862   6.787
 9901SOL    HW230603   3.061   0.890   6.935
 9902SOL     OW30604   2.913   4.705   1.317
 9902SOL    HW130605   2.906   4.777   1.385
 9902SOL    HW230606   2.822   4.683   1.282
 9903SOL     OW30607   5.648   2.251   1.815
 9903SOL    HW130608   5.728   2.216   1.766
 9903SOL    HW230609   5.578   2.179   1.820
 9904SOL     OW30610   0.784   4.107   0.364
 9904SOL    HW130611   0.803   4.163   0.445
 9904SOL    HW230612   0.859   4.118   0.298
 9905SOL     OW30613   2.517   0.708   6.038
 9905SOL    HW130614   2.518   0.633   6.104
 9905SOL    HW230615   2.506   0.795   6.086
 9906SOL     OW30616   1.773   3.298   0.614
 9906SOL    HW130617   1.688   3.249   0.634
 9906SOL    HW230618   1.783   3.308   0.515
 9907SOL     OW30619   0.929   0.277   1.286
 9907SOL    HW130620   0.923   0.242   1.193
 9907SOL    HW230621   0.845   0.326   1.309
 9908SOL     OW30622   6.216   1.776   4.955
 9908SOL    HW130623   6.268   1.849   4.910
 9908SOL    HW230624   6.279   1.708   4.992
 9909SOL     OW30625   4.304   1.085   2.796
 9909SOL    HW130626   4.372   1.012   2.790
 9909SOL    HW230627   4.255   1.077   2.883
 9910SOL     OW30628   1.359   4.911   1.917
 9910SOL    HW130629   1.408   4.977   1.860
 9910SOL    HW230630   1.418   4.832   1.935
 9911SOL     OW30631   2.620   6.333   2.713
 9911SOL    HW130632   2.643   6.426   2.741
 9911SOL    HW230633   2.695   6.295   2.658
 9912SOL     OW30634   3.548   1.023   1.369
 9912SOL    HW130635   3.452   0.993   1.372
 9912SOL    HW230636   3.581   1.021   1.275
 9913SOL     OW30637   6.446   3.610   0.442
 9913SOL    HW130638   6.381   3.562   0.382
 9913SOL    HW230639   6.516   3.546   0.473
 9914SOL     OW30640   5.859   1.020   4.715
 9914SOL    HW130641   5.817   1.097   4.764
 9914SOL    HW230642   5.956   1.014   4.738
 9915SOL     OW30643   6.042   0.959   3.398
 9915SOL    HW130644   6.061   0.944   3.495
 9915SOL    HW230645   5.967   1.024   3.388
 9916SOL     OW30646   2.248   2.298   3.368
 9916SOL    HW130647   2.170   2.357   3.386
 9916SOL    HW230648   2.255   2.281   3.269
 9917SOL     OW30649   4.091   4.031   6.188
 9917SOL    HW130650   4.190   4.015   6.195
 9917SOL    HW230651   4.069   4.122   6.222
 9918SOL     OW30652   1.490   2.474   2.674
 9918SOL    HW130653   1.557   2.399   2.669
 9918SOL    HW230654   1.467   2.491   2.769
 9919SOL     OW30655   1.170   5.547   0.965
 9919SOL    HW130656   1.078   5.543   1.004
 9919SOL    HW230657   1.190   5.640   0.935
 9920SOL     OW30658   5.229   0.636   2.388
 9920SOL    HW130659   5.260   0.589   2.471
 9920SOL    HW230660   5.266   0.590   2.307
 9921SOL     OW30661   4.434   6.460   4.317
 9921SOL    HW130662   4.431   6.360   4.328
 9921SOL    HW230663   4.504   6.498   4.378
 9922SOL     OW30664   3.445   4.054   1.181
 9922SOL    HW130665   3.346   4.056   1.196
 9922SOL    HW230666   3.491   4.092   1.261
 9923SOL     OW30667   5.946   4.653   6.684
 9923SOL    HW130668   5.934   4.748   6.713
 9923SOL    HW230669   5.872   4.597   6.720
 9924SOL     OW30670   6.113   1.835   3.145
 9924SOL    HW130671   6.070   1.847   3.056
 9924SOL    HW230672   6.163   1.749   3.147
 9925SOL     OW30673   0.583   5.412   3.881
 9925SOL    HW130674   0.569   5.393   3.784
 9925SOL    HW230675   0.495   5.412   3.928
 9926SOL     OW30676   4.109   2.372   1.524
 9926SOL    HW130677   4.171   2.347   1.450
 9926SOL    HW230678   4.056   2.292   1.553
 9927SOL     OW30679   1.419   0.381   1.063
 9927SOL    HW130680   1.340   0.385   1.124
 9927SOL    HW230681   1.404   0.442   0.985
 9928SOL     OW30682   5.003   5.009   3.344
 9928SOL    HW130683   4.973   5.101   3.369
 9928SOL    HW230684   5.075   5.015   3.274
 9929SOL     OW30685   3.223   3.908   4.760
 9929SOL    HW130686   3.126   3.935   4.765
 9929SOL    HW230687   3.279   3.975   4.809
 9930SOL     OW30688   0.143   6.631   5.507
 9930SOL    HW130689   0.187   6.709   5.552
 9930SOL    HW230690   0.166   6.547   5.555
 9931SOL     OW30691   6.974   5.351   4.587
 9931SOL    HW130692   0.025   5.285   4.561
 9931SOL    HW230693   6.896   5.342   4.524
 9932SOL     OW30694   2.333   2.992   5.971
 9932SOL    HW130695   2.278   2.984   5.888
 9932SOL    HW230696   2.366   2.902   5.998
 9933SOL     OW30697   1.912   6.814   4.120
 9933SOL    HW130698   1.909   6.898   4.067
 9933SOL    HW230699   1.826   6.764   4.109
 9934SOL     OW30700   6.865   2.475   5.666
 9934SOL    HW130701   6.887   2.540   5.593
 9934SOL    HW230702   6.939   2.473   5.733
 9935SOL     OW30703   3.065   6.984   0.905
 9935SOL    HW130704   2.986   0.023   0.919
 9935SOL    HW230705   3.115   6.973   0.991
 9936SOL     OW30706   6.315   4.423   0.875
 9936SOL    HW130707   6.336   4.468   0.962
 9936SOL    HW230708   6.229   4.373   0.884
 9937SOL     OW30709   0.236   2.051   1.189
 9937SOL    HW130710   0.291   2.100   1.122
 9937SOL    HW230711   0.295   1.991   1.243
 9938SOL     OW30712   5.825   4.750   3.582
 9938SOL    HW130713   5.769   4.831   3.563
 9938SOL    HW230714   5.868   4.761   3.672
 9939SOL     OW30715   4.748   3.196   1.319
 9939SOL    HW130716   4.695   3.111   1.327
 9939SOL    HW230717   4.813   3.188   1.243
 9940SOL     OW30718   1.312   0.819   1.953
 9940SOL    HW130719   1.267   0.845   2.038
 9940SOL    HW230720   1.245   0.781   1.889
 9941SOL     OW30721   3.300   3.090   5.247
 9941SOL    HW130722   3.276   3.024   5.318
 9941SOL    HW230723   3.392   3.127   5.265
 9942SOL     OW30724   3.145   5.267   2.405
 9942SOL    HW130725   3.113   5.172   2.416
 9942SOL    HW230726   3.224   5.268   2.344
 9943SOL     OW30727   0.806   4.440   6.422
 9943SOL    HW130728   0.903   4.467   6.419
 9943SOL    HW230729   0.749   4.522   6.414
 9944SOL     OW30730   0.689   4.685   6.627
 9944SOL    HW130731   0.776   4.684   6.677
 9944SOL    HW230732   0.706   4.707   6.531
 9945SOL     OW30733   4.420   6.130   0.047
 9945SOL    HW130734   4.439   6.159   0.141
 9945SOL    HW230735   4.333   6.170   0.016
 9946SOL     OW30736   6.045   0.676   3.372
 9946SOL    HW130737   5.981   0.649   3.444
 9946SOL    HW230738   6.028   0.771   3.346
 9947SOL     OW30739   2.676   2.134   4.685
 9947SOL    HW130740   2.674   2.232   4.665
 9947SOL    HW230741   2.769   2.108   4.712
 9948SOL     OW30742   6.988   4.992   6.419
 9948SOL    HW130743   7.015   5.086   6.440
 9948SOL    HW230744   6.894   4.978   6.447
 9949SOL     OW30745   6.495   4.699   4.002
 9949SOL    HW130746   6.469   4.657   3.915
 9949SOL    HW230747   6.592   4.680   4.020
 9950SOL     OW30748   5.628   6.082   6.344
 9950SOL    HW130749   5.634   6.043   6.436
 9950SOL    HW230750   5.597   6.012   6.280
 9951SOL     OW30751   1.664   2.193   3.781
 9951SOL    HW130752   1.588   2.153   3.832
 9951SOL    HW230753   1.643   2.192   3.684
 9952SOL     OW30754   1.408   4.600   0.422
 9952SOL    HW130755   1.331   4.593   0.485
 9952SOL    HW230756   1.378   4.643   0.337
 9953SOL     OW30757   6.460   2.324   3.799
 9953SOL    HW130758   6.389   2.274   3.848
 9953SOL    HW230759   6.548   2.279   3.811
 9954SOL     OW30760   1.017   0.810   5.770
 9954SOL    HW130761   1.079   0.862   5.711
 9954SOL    HW230762   1.012   0.854   5.860
 9955SOL     OW30763   5.049   4.109   5.977
 9955SOL    HW130764   5.133   4.061   5.951
 9955SOL    HW230765   4.981   4.100   5.904
 9956SOL     OW30766   0.548   5.603   3.094
 9956SOL    HW130767   0.588   5.603   3.002
 9956SOL    HW230768   0.526   5.697   3.120
 9957SOL     OW30769   5.860   0.234   1.820
 9957SOL    HW130770   5.809   0.163   1.771
 9957SOL    HW230771   5.931   0.271   1.760
 9958SOL     OW30772   1.907   5.665   6.639
 9958SOL    HW130773   1.972   5.662   6.563
 9958SOL    HW230774   1.847   5.744   6.627
 9959SOL     OW30775   4.110   3.637   4.185
 9959SOL    HW130776   4.094   3.601   4.093
 9959SOL    HW230777   4.199   3.683   4.187
 9960SOL     OW30778   6.957   0.363   2.220
 9960SOL    HW130779   6.861   0.354   2.191
 9960SOL    HW230780   6.989   0.275   2.256
 9961SOL     OW30781   1.603   5.116   4.647
 9961SOL    HW130782   1.536   5.047   4.620
 9961SOL    HW230783   1.614   5.115   4.747
 9962SOL     OW30784   4.426   0.249   2.258
 9962SOL    HW130785   4.349   0.188   2.277
 9962SOL    HW230786   4.393   0.344   2.253
 9963SOL     OW30787   2.649   2.383   6.023
 9963SOL    HW130788   2.626   2.334   6.107
 9963SOL    HW230789   2.742   2.421   6.032
 9964SOL     OW30790   4.549   3.765   5.586
 9964SOL    HW130791   4.497   3.729   5.508
 9964SOL    HW230792   4.608   3.693   5.622
 9965SOL     OW30793   4.057   4.869   6.246
 9965SOL    HW130794   4.054   4.895   6.149
 9965SOL    HW230795   4.110   4.786   6.257
 9966SOL     OW30796   2.308   6.087   2.172
 9966SOL    HW130797   2.263   6.010   2.217
 9966SOL    HW230798   2.293   6.170   2.225
 9967SOL     OW30799   5.784   6.516   2.049
 9967SOL    HW130800   5.818   6.589   1.989
 9967SOL    HW230801   5.840   6.434   2.038
 9968SOL     OW30802   3.255   3.580   6.626
 9968SOL    HW130803   3.211   3.667   6.606
 9968SOL    HW230804   3.354   3.590   6.615
 9969SOL     OW30805   1.327   2.486   4.580
 9969SOL    HW130806   1.400   2.500   4.514
 9969SOL    HW230807   1.350   2.532   4.666
 9970SOL     OW30808   5.683   4.291   2.613
 9970SOL    HW130809   5.659   4.209   2.665
 9970SOL    HW230810   5.645   4.285   2.521
 9971SOL     OW30811   2.896   3.840   0.360
 9971SOL    HW130812   2.817   3.820   0.418
 9971SOL    HW230813   2.947   3.756   0.342
 9972SOL     OW30814   3.761   4.501   0.459
 9972SOL    HW130815   3.856   4.532   0.447
 9972SOL    HW230816   3.738   4.437   0.386
 9973SOL     OW30817   3.979   1.784   3.870
 9973SOL    HW130818   4.048   1.831   3.815
 9973SOL    HW230819   3.976   1.687   3.845
 9974SOL     OW30820   6.494   3.894   3.417
 9974SOL    HW130821   6.572   3.839   3.388
 9974SOL    HW230822   6.418   3.834   3.441
 9975SOL     OW30823   6.507   4.408   0.494
 9975SOL    HW130824   6.542   4.501   0.481
 9975SOL    HW230825   6.567   4.343   0.448
 9976SOL     OW30826   0.397   5.860   5.444
 9976SOL    HW130827   0.326   5.789   5.446
 9976SOL    HW230828   0.353   5.950   5.445
 9977SOL     OW30829   0.386   4.980   6.040
 9977SOL    HW130830   0.450   5.055   6.057
 9977SOL    HW230831   0.403   4.907   6.106
 9978SOL     OW30832   6.484   3.317   3.441
 9978SOL    HW130833   6.554   3.249   3.418
 9978SOL    HW230834   6.398   3.292   3.398
 9979SOL     OW30835   6.269   5.143   5.555
 9979SOL    HW130836   6.343   5.094   5.509
 9979SOL    HW230837   6.259   5.234   5.514
 9980SOL     OW30838   1.724   1.373   6.403
 9980SOL    HW130839   1.656   1.353   6.474
 9980SOL    HW230840   1.734   1.294   6.343
 9981SOL     OW30841   2.224   1.770   1.288
 9981SOL    HW130842   2.142   1.782   1.232
 9981SOL    HW230843   2.290   1.842   1.268
 9982SOL     OW30844   0.481   0.849   4.048
 9982SOL    HW130845   0.565   0.833   4.100
 9982SOL    HW230846   0.503   0.891   3.960
 9983SOL     OW30847   0.867   2.353   2.829
 9983SOL    HW130848   0.926   2.373   2.751
 9983SOL    HW230849   0.875   2.257   2.854
 9984SOL     OW30850   1.455   0.390   0.583
 9984SOL    HW130851   1.401   0.417   0.503
 9984SOL    HW230852   1.552   0.403   0.564
 9985SOL     OW30853   2.406   0.872   2.066
 9985SOL    HW130854   2.454   0.852   1.981
 9985SOL    HW230855   2.465   0.924   2.127
 9986SOL     OW30856   4.860   4.242   6.555
 9986SOL    HW130857   4.959   4.237   6.568
 9986SOL    HW230858   4.817   4.273   6.640
 9987SOL     OW30859   6.280   2.251   2.875
 9987SOL    HW130860   6.285   2.200   2.961
 9987SOL    HW230861   6.185   2.260   2.847
 9988SOL     OW30862   0.083   5.943   4.675
 9988SOL    HW130863   0.094   5.998   4.592
 9988SOL    HW230864   0.168   5.896   4.696
 9989SOL     OW30865   6.148   4.212   3.488
 9989SOL    HW130866   6.226   4.165   3.447
 9989SOL    HW230867   6.155   4.310   3.470
 9990SOL     OW30868   2.587   6.762   2.349
 9990SOL    HW130869   2.611   6.838   2.288
 9990SOL    HW230870   2.586   6.795   2.444
 9991SOL     OW30871   2.109   3.065   4.122
 9991SOL    HW130872   2.149   3.043   4.033
 9991SOL    HW230873   2.161   3.018   4.194
 9992SOL     OW30874   4.598   3.775   0.484
 9992SOL    HW130875   4.510   3.807   0.519
 9992SOL    HW230876   4.584   3.692   0.429
 9993SOL     OW30877   3.909   0.370   1.868
 9993SOL    HW130878   3.935   0.417   1.783
 9993SOL    HW230879   3.986   0.373   1.932
 9994SOL     OW30880   6.995   4.837   4.017
 9994SOL    HW130881   0.004   4.791   4.101
 9994SOL    HW230882   0.016   4.928   4.014
 9995SOL     OW30883   3.464   0.746   2.908
 9995SOL    HW130884   3.477   0.735   2.809
 9995SOL    HW230885   3.490   0.661   2.955
 9996SOL     OW30886   2.883   3.179   2.075
 9996SOL    HW130887   2.879   3.195   2.174
 9996SOL    HW230888   2.826   3.247   2.028
 9997SOL     OW30889   3.722   1.531   1.205
 9997SOL    HW130890   3.655   1.578   1.148
 9997SOL    HW230891   3.682   1.511   1.295
 9998SOL     OW30892   5.826   4.739   1.615
 9998SOL    HW130893   5.781   4.664   1.663
 9998SOL    HW230894   5.922   4.743   1.642
 9999SOL     OW30895   6.282   3.439   4.983
 9999SOL    HW130896   6.351   3.389   4.930
 9999SOL    HW230897   6.262   3.389   5.067
10000SOL     OW30898   6.091   3.537   6.847
10000SOL    HW130899   6.174   3.542   6.791
10000SOL    HW230900   6.099   3.601   6.923
10001SOL     OW30901   5.419   0.932   1.930
10001SOL    HW130902   5.368   1.001   1.878
10001SOL    HW230903   5.435   0.965   2.023
10002SOL     OW30904   1.895   0.679   1.612
10002SOL    HW130905   1.935   0.746   1.676
10002SOL    HW230906   1.896   0.718   1.520
10003SOL     OW30907   3.772   1.690   4.231
10003SOL    HW130908   3.849   1.628   4.215
10003SOL    HW230909   3.794   1.751   4.307
10004SOL     OW30910   4.415   2.012   4.443
10004SOL    HW130911   4.452   2.035   4.533
10004SOL    HW230912   4.342   2.076   4.420
10005SOL     OW30913   4.395   0.208   3.810
10005SOL    HW130914   4.465   0.205   3.739
10005SOL    HW230915   4.396   0.297   3.855
10006SOL     OW30916   5.440   0.892   3.390
10006SOL    HW130917   5.518   0.830   3.380
10006SOL    HW230918   5.423   0.909   3.488
10007SOL     OW30919   0.526   5.292   4.837
10007SOL    HW130920   0.556   5.261   4.927
10007SOL    HW230921   0.429   5.313   4.839
10008SOL     OW30922   4.229   1.361   4.614
10008SOL    HW130923   4.253   1.414   4.695
10008SOL    HW230924   4.308   1.307   4.584
10009SOL     OW30925   2.002   3.704   1.435
10009SOL    HW130926   2.051   3.777   1.484
10009SOL    HW230927   1.954   3.743   1.357
10010SOL     OW30928   1.784   6.525   6.365
10010SOL    HW130929   1.833   6.563   6.286
10010SOL    HW230930   1.759   6.599   6.427
10011SOL     OW30931   5.694   1.649   4.796
10011SOL    HW130932   5.789   1.677   4.785
10011SOL    HW230933   5.673   1.575   4.731
10012SOL     OW30934   4.851   1.553   3.426
10012SOL    HW130935   4.755   1.526   3.434
10012SOL    HW230936   4.870   1.626   3.492
10013SOL     OW30937   1.235   1.681   3.596
10013SOL    HW130938   1.178   1.617   3.648
10013SOL    HW230939   1.330   1.648   3.597
10014SOL     OW30940   6.507   3.234   6.685
10014SOL    HW130941   6.466   3.285   6.610
10014SOL    HW230942   6.436   3.181   6.732
10015SOL     OW30943   2.572   4.275   0.469
10015SOL    HW130944   2.520   4.257   0.552
10015SOL    HW230945   2.564   4.372   0.445
10016SOL     OW30946   2.090   0.293   5.663
10016SOL    HW130947   2.105   0.262   5.757
10016SOL    HW230948   2.158   0.252   5.603
10017SOL     OW30949   2.571   2.448   2.765
10017SOL    HW130950   2.486   2.408   2.731
10017SOL    HW230951   2.629   2.472   2.687
10018SOL     OW30952   4.972   0.083   5.853
10018SOL    HW130953   5.066   0.055   5.833
10018SOL    HW230954   4.931   0.018   5.917
10019SOL     OW30955   0.512   1.734   2.897
10019SOL    HW130956   0.435   1.795   2.916
10019SOL    HW230957   0.484   1.666   2.829
10020SOL     OW30958   0.847   2.646   1.463
10020SOL    HW130959   0.842   2.595   1.549
10020SOL    HW230960   0.883   2.586   1.391
10021SOL     OW30961   0.145   2.393   0.759
10021SOL    HW130962   0.129   2.388   0.661
10021SOL    HW230963   0.059   2.413   0.806
10022SOL     OW30964   3.106   0.224   6.846
10022SOL    HW130965   3.145   0.149   6.792
10022SOL    HW230966   3.173   0.298   6.854
10023SOL     OW30967   1.075   5.175   6.148
10023SOL    HW130968   1.116   5.240   6.085
10023SOL    HW230969   1.132   5.093   6.153
10024SOL     OW30970   1.947   6.631   1.484
10024SOL    HW130971   2.037   6.598   1.510
10024SOL    HW230972   1.954   6.727   1.455
10025SOL     OW30973   1.637   1.736   1.489
10025SOL    HW130974   1.537   1.739   1.480
10025SOL    HW230975   1.675   1.671   1.423
10026SOL     OW30976   5.327   6.710   4.043
10026SOL    HW130977   5.303   6.657   3.962
10026SOL    HW230978   5.421   6.744   4.034
10027SOL     OW30979   6.552   4.173   5.346
10027SOL    HW130980   6.593   4.253   5.301
10027SOL    HW230981   6.598   4.158   5.434
10028SOL     OW30982   1.753   1.794   1.017
10028SOL    HW130983   1.761   1.696   1.000
10028SOL    HW230984   1.663   1.814   1.056
10029SOL     OW30985   3.900   2.126   4.490
10029SOL    HW130986   3.924   2.202   4.550
10029SOL    HW230987   3.803   2.106   4.499
10030SOL     OW30988   2.413   6.685   3.711
10030SOL    HW130989   2.403   6.604   3.654
10030SOL    HW230990   2.323   6.715   3.744
10031SOL     OW30991   6.156   5.231   4.117
10031SOL    HW130992   6.063   5.212   4.150
10031SOL    HW230993   6.183   5.323   4.145
10032SOL     OW30994   2.422   1.921   5.309
10032SOL    HW130995   2.335   1.942   5.264
10032SOL    HW230996   2.474   2.006   5.321
10033SOL     OW30997   5.867   1.850   3.820
10033SOL    HW130998   5.964   1.871   3.815
10033SOL    HW230999   5.818   1.902   3.750
10034SOL     OW31000   2.710   0.443   4.336
10034SOL    HW131001   2.715   0.491   4.248
10034SOL    HW231002   2.705   0.510   4.410
10035SOL     OW31003   6.364   4.338   1.901
10035SOL    HW131004   6.327   4.285   1.825
10035SOL    HW231005   6.457   4.368   1.879
10036SOL     OW31006   6.423   2.582   1.613
10036SOL    HW131007   6.390   2.623   1.528
10036SOL    HW231008   6.502   2.524   1.593
10037SOL     OW31009   6.617   0.834   0.739
10037SOL    HW131010   6.653   0.742   0.758
10037SOL    HW231011   6.518   0.829   0.732
10038SOL     OW31012   5.265   0.816   0.250
10038SOL    HW131013   5.216   0.856   0.327
10038SOL    HW231014   5.262   0.716   0.257
10039SOL     OW31015   3.202   0.430   3.083
10039SOL    HW131016   3.231   0.359   3.020
10039SOL    HW231017   3.106   0.415   3.108
10040SOL     OW31018   4.843   5.120   6.346
10040SOL    HW131019   4.901   5.072   6.280
10040SOL    HW231020   4.825   5.213   6.313
10041SOL     OW31021   4.025   6.058   6.665
10041SOL    HW131022   4.004   5.985   6.600
10041SOL    HW231023   4.029   6.146   6.617
10042SOL     OW31024   1.147   2.244   4.177
10042SOL    HW131025   1.142   2.210   4.083
10042SOL    HW231026   1.074   2.201   4.231
10043SOL     OW31027   6.211   1.249   5.198
10043SOL    HW131028   6.185   1.345   5.190
10043SOL    HW231029   6.129   1.192   5.203
10044SOL     OW31030   1.840   1.887   4.774
10044SOL    HW131031   1.756   1.934   4.748
10044SOL    HW231032   1.879   1.841   4.694
10045SOL     OW31033   3.940   0.200   2.822
10045SOL    HW131034   3.944   0.216   2.723
10045SOL    HW231035   3.985   0.114   2.844
10046SOL     OW31036   2.481   3.712   0.919
10046SOL    HW131037   2.531   3.785   0.965
10046SOL    HW231038   2.384   3.734   0.918
10047SOL     OW31039   0.771   3.292   4.686
10047SOL    HW131040   0.827   3.245   4.754
10047SOL    HW231041   0.802   3.387   4.676
10048SOL     OW31042   7.004   0.120   2.564
10048SOL    HW131043   0.019   0.176   2.639
10048SOL    HW231044   0.018   0.156   2.477
10049SOL     OW31045   1.254   1.301   6.139
10049SOL    HW131046   1.227   1.320   6.044
10049SOL    HW231047   1.349   1.273   6.141
10050SOL     OW31048   5.476   3.857   5.223
10050SOL    HW131049   5.437   3.942   5.188
10050SOL    HW231050   5.490   3.793   5.147
10051SOL     OW31051   0.224   3.849   5.225
10051SOL    HW131052   0.303   3.885   5.174
10051SOL    HW231053   0.169   3.926   5.258
10052SOL     OW31054   2.336   1.197   3.360
10052SOL    HW131055   2.279   1.259   3.307
10052SOL    HW231056   2.427   1.194   3.320
10053SOL     OW31057   4.437   5.870   4.100
10053SOL    HW131058   4.455   5.820   4.185
10053SOL    HW231059   4.502   5.944   4.090
10054SOL     OW31060   5.580   5.828   5.468
10054SOL    HW131061   5.504   5.870   5.419
10054SOL    HW231062   5.626   5.897   5.524
10055SOL     OW31063   6.121   1.514   5.274
10055SOL    HW131064   6.101   1.608   5.247
10055SOL    HW231065   6.116   1.506   5.374
10056SOL     OW31066   5.587   4.420   2.961
10056SOL    HW131067   5.681   4.423   2.926
10056SOL    HW231068   5.535   4.353   2.909
10057SOL     OW31069   4.991   3.411   5.343
10057SOL    HW131070   5.019   3.507   5.349
10057SOL    HW231071   4.893   3.406   5.321
10058SOL     OW31072   6.397   3.883   4.983
10058SOL    HW131073   6.355   3.950   5.044
10058SOL    HW231074   6.496   3.881   4.998
10059SOL     OW31075   0.247   1.486   6.899
10059SOL    HW131076   0.148   1.503   6.899
10059SOL    HW231077   0.296   1.574   6.898
10060SOL     OW31078   2.055   2.667   2.506
10060SOL    HW131079   2.139   2.673   2.453
10060SOL    HW231080   1.976   2.673   2.445
10061SOL     OW31081   4.671   1.307   3.638
10061SOL    HW131082   4.655   1.406   3.639
10061SOL    HW231083   4.626   1.266   3.558
10062SOL     OW31084   6.751   0.551   4.267
10062SOL    HW131085   6.811   0.487   4.314
10062SOL    HW231086   6.753   0.532   4.169
10063SOL     OW31087   3.390   1.037   4.687
10063SOL    HW131088   3.474   0.982   4.687
10063SOL    HW231089   3.315   0.982   4.725
10064SOL     OW31090   5.112   6.752   6.868
10064SOL    HW131091   5.065   6.665   6.886
10064SOL    HW231092   5.193   6.735   6.813
10065SOL     OW31093   2.238   1.110   1.960
10065SOL    HW131094   2.212   1.174   2.032
10065SOL    HW231095   2.275   1.027   2.001
10066SOL     OW31096   0.644   2.923   5.103
10066SOL    HW131097   0.740   2.893   5.098
10066SOL    HW231098   0.624   2.958   5.194
10067SOL     OW31099   0.001   3.202   6.340
10067SOL    HW131100   6.985   3.139   6.408
10067SOL    HW231101   0.050   3.277   6.386
10068SOL     OW31102   0.890   3.497   3.333
10068SOL    HW131103   0.983   3.513   3.299
10068SOL    HW231104   0.841   3.584   3.339
10069SOL     OW31105   3.069   5.096   1.945
10069SOL    HW131106   3.136   5.145   1.889
10069SOL    HW231107   2.994   5.157   1.969
10070SOL     OW31108   6.878   5.767   5.484
10070SOL    HW131109   6.901   5.857   5.522
10070SOL    HW231110   6.836   5.778   5.395
10071SOL     OW31111   0.932   0.200   4.231
10071SOL    HW131112   0.886   0.214   4.143
10071SOL    HW231113   0.932   0.286   4.282
10072SOL     OW31114   0.080   0.986   3.699
10072SOL    HW131115   0.008   0.936   3.747
10072SOL    HW231116   0.044   1.075   3.670
10073SOL     OW31117   0.171   4.521   3.911
10073SOL    HW131118   0.199   4.454   3.841
10073SOL    HW231119   0.109   4.588   3.870
10074SOL     OW31120   2.404   6.353   6.496
10074SOL    HW131121   2.436   6.324   6.406
10074SOL    HW231122   2.374   6.274   6.549
10075SOL     OW31123   1.290   1.644   2.068
10075SOL    HW131124   1.192   1.655   2.050
10075SOL    HW231125   1.333   1.734   2.072
10076SOL     OW31126   4.627   5.917   2.814
10076SOL    HW131127   4.707   5.883   2.864
10076SOL    HW231128   4.579   5.840   2.772
10077SOL     OW31129   4.592   2.756   1.022
10077SOL    HW131130   4.503   2.725   0.988
10077SOL    HW231131   4.637   2.679   1.068
10078SOL     OW31132   6.726   6.340   4.555
10078SOL    HW131133   6.748   6.243   4.559
10078SOL    HW231134   6.798   6.388   4.505
10079SOL     OW31135   6.372   2.827   2.421
10079SOL    HW131136   6.291   2.772   2.400
10079SOL    HW231137   6.347   2.924   2.427
10080SOL     OW31138   4.654   1.533   6.377
10080SOL    HW131139   4.636   1.618   6.327
10080SOL    HW231140   4.748   1.504   6.359
10081SOL     OW31141   0.866   1.609   7.006
10081SOL    HW131142   0.827   1.662   0.061
10081SOL    HW231143   0.862   1.512   0.009
10082SOL     OW31144   1.130   5.382   2.978
10082SOL    HW131145   1.128   5.283   2.990
10082SOL    HW231146   1.147   5.403   2.882
10083SOL     OW31147   3.104   6.951   3.855
10083SOL    HW131148   3.161   0.013   3.865
10083SOL    HW231149   3.012   6.978   3.827
10084SOL     OW31150   0.371   0.072   5.463
10084SOL    HW131151   0.327   0.160   5.449
10084SOL    HW231152   0.460   0.070   5.417
10085SOL     OW31153   3.804   0.194   0.610
10085SOL    HW131154   3.882   0.206   0.672
10085SOL    HW231155   3.760   0.106   0.629
10086SOL     OW31156   6.119   6.863   3.232
10086SOL    HW131157   6.190   6.933   3.216
10086SOL    HW231158   6.160   6.772   3.224
10087SOL     OW31159   6.490   6.410   3.859
10087SOL    HW131160   6.408   6.359   3.832
10087SOL    HW231161   6.467   6.507   3.867
10088SOL     OW31162   0.074   0.285   1.677
10088SOL    HW131163   0.016   0.364   1.657
10088SOL    HW231164   0.132   0.305   1.755
10089SOL     OW31165   3.095   1.981   2.908
10089SOL    HW131166   3.168   2.040   2.875
10089SOL    HW231167   3.081   1.906   2.844
10090SOL     OW31168   0.375   4.748   2.229
10090SOL    HW131169   0.389   4.799   2.314
10090SOL    HW231170   0.462   4.737   2.182
10091SOL     OW31171   6.700   5.974   6.967
10091SOL    HW131172   6.737   5.886   6.998
10091SOL    HW231173   6.651   5.960   6.881
10092SOL     OW31174   1.398   2.722   5.726
10092SOL    HW131175   1.460   2.740   5.650
10092SOL    HW231176   1.437   2.758   5.811
10093SOL     OW31177   4.917   3.436   4.843
10093SOL    HW131178   4.919   3.468   4.748
10093SOL    HW231179   4.899   3.513   4.904
10094SOL     OW31180   2.293   6.259   0.744
10094SOL    HW131181   2.292   6.354   0.713
10094SOL    HW231182   2.199   6.228   0.762
10095SOL     OW31183   5.385   1.754   4.138
10095SOL    HW131184   5.477   1.742   4.175
10095SOL    HW231185   5.366   1.852   4.127
10096SOL     OW31186   4.429   0.420   2.987
10096SOL    HW131187   4.449   0.387   3.079
10096SOL    HW231188   4.345   0.474   2.988
10097SOL     OW31189   2.496   2.171   6.489
10097SOL    HW131190   2.499   2.071   6.498
10097SOL    HW231191   2.451   2.210   6.569
10098SOL     OW31192   2.831   6.813   5.161
10098SOL    HW131193   2.733   6.817   5.182
10098SOL    HW231194   2.878   6.763   5.233
10099SOL     OW31195   6.643   4.448   1.864
10099SOL    HW131196   6.685   4.410   1.782
10099SOL    HW231197   6.706   4.441   1.940
10100SOL     OW31198   5.591   6.245   5.554
10100SOL    HW131199   5.651   6.285   5.485
10100SOL    HW231200   5.549   6.318   5.608
10101SOL     OW31201   6.408   2.950   1.392
10101SOL    HW131202   6.332   2.999   1.351
10101SOL    HW231203   6.400   2.952   1.492
10102SOL     OW31204   6.972   0.442   1.479
10102SOL    HW131205   6.960   0.356   1.429
10102SOL    HW231206   0.033   0.490   1.443
10103SOL     OW31207   1.520   0.456   5.206
10103SOL    HW131208   1.584   0.451   5.283
10103SOL    HW231209   1.563   0.504   5.130
10104SOL     OW31210   1.807   0.932   6.281
10104SOL    HW131211   1.796   1.022   6.237
10104SOL    HW231212   1.721   0.904   6.323
10105SOL     OW31213   1.873   0.656   5.955
10105SOL    HW131214   1.962   0.697   5.933
10105SOL    HW231215   1.801   0.725   5.949
10106SOL     OW31216   4.048   6.621   0.794
10106SOL    HW131217   4.147   6.622   0.803
10106SOL    HW231218   4.020   6.548   0.731
10107SOL     OW31219   5.650   1.641   6.047
10107SOL    HW131220   5.714   1.569   6.071
10107SOL    HW231221   5.685   1.693   5.969
10108SOL     OW31222   0.645   2.637   0.715
10108SOL    HW131223   0.659   2.736   0.718
10108SOL    HW231224   0.671   2.603   0.625
10109SOL     OW31225   0.651   1.052   0.464
10109SOL    HW131226   0.749   1.068   0.474
10109SOL    HW231227   0.636   0.973   0.404
10110SOL     OW31228   4.429   4.902   3.686
10110SOL    HW131229   4.456   4.971   3.618
10110SOL    HW231230   4.363   4.839   3.645
10111SOL     OW31231   0.071   3.420   2.988
10111SOL    HW131232   7.008   3.445   2.938
10111SOL    HW231233   0.070   3.462   3.078
10112SOL     OW31234   5.920   3.351   3.201
10112SOL    HW131235   5.954   3.258   3.219
10112SOL    HW231236   5.947   3.412   3.275
10113SOL     OW31237   4.088   0.151   0.452
10113SOL    HW131238   4.078   0.115   0.545
10113SOL    HW231239   4.175   0.201   0.445
10114SOL     OW31240   3.923   2.091   3.314
10114SOL    HW131241   3.943   2.173   3.260
10114SOL    HW231242   3.992   2.021   3.295
10115SOL     OW31243   3.697   1.834   4.803
10115SOL    HW131244   3.676   1.932   4.807
10115SOL    HW231245   3.616   1.784   4.774
10116SOL     OW31246   6.804   0.569   6.184
10116SOL    HW131247   6.897   0.605   6.179
10116SOL    HW231248   6.794   0.491   6.122
10117SOL     OW31249   6.689   6.124   5.869
10117SOL    HW131250   6.735   6.200   5.823
10117SOL    HW231251   6.675   6.050   5.803
10118SOL     OW31252   2.578   4.811   4.324
10118SOL    HW131253   2.639   4.776   4.253
10118SOL    HW231254   2.632   4.844   4.402
10119SOL     OW31255   6.278   5.418   4.587
10119SOL    HW131256   6.279   5.491   4.655
10119SOL    HW231257   6.262   5.457   4.496
10120SOL     OW31258   1.255   3.026   3.658
10120SOL    HW131259   1.191   3.099   3.634
10120SOL    HW231260   1.338   3.035   3.602
10121SOL     OW31261   6.110   4.155   1.353
10121SOL    HW131262   6.035   4.127   1.293
10121SOL    HW231263   6.085   4.239   1.401
10122SOL     OW31264   6.591   2.320   3.497
10122SOL    HW131265   6.561   2.392   3.559
10122SOL    HW231266   6.669   2.352   3.443
10123SOL     OW31267   5.634   6.684   0.810
10123SOL    HW131268   5.563   6.622   0.846
10123SOL    HW231269   5.602   6.725   0.725
10124SOL     OW31270   1.331   5.257   1.704
10124SOL    HW131271   1.358   5.257   1.608
10124SOL    HW231272   1.395   5.201   1.757
10125SOL     OW31273   2.442   1.393   1.474
10125SOL    HW131274   2.426   1.432   1.383
10125SOL    HW231275   2.460   1.466   1.540
10126SOL     OW31276   6.489   0.061   6.123
10126SOL    HW131277   6.527   0.098   6.208
10126SOL    HW231278   6.557   0.070   6.050
10127SOL     OW31279   1.480   4.232   6.403
10127SOL    HW131280   1.566   4.214   6.452
10127SOL    HW231281   1.434   4.145   6.385
10128SOL     OW31282   3.152   0.580   6.691
10128SOL    HW131283   3.225   0.646   6.668
10128SOL    HW231284   3.077   0.629   6.737
10129SOL     OW31285   0.532   1.539   2.172
10129SOL    HW131286   0.488   1.579   2.092
10129SOL    HW231287   0.610   1.483   2.143
10130SOL     OW31288   0.940   2.904   1.495
10130SOL    HW131289   1.038   2.905   1.514
10130SOL    HW231290   0.912   2.811   1.470
10131SOL     OW31291   1.492   0.424   4.402
10131SOL    HW131292   1.473   0.353   4.334
10131SOL    HW231293   1.422   0.420   4.474
10132SOL     OW31294   1.172   0.458   2.561
10132SOL    HW131295   1.106   0.478   2.633
10132SOL    HW231296   1.258   0.429   2.603
10133SOL     OW31297   4.372   6.684   0.932
10133SOL    HW131298   4.339   6.621   1.002
10133SOL    HW231299   4.457   6.649   0.893
10134SOL     OW31300   0.094   2.072   3.008
10134SOL    HW131301   0.118   2.138   3.079
10134SOL    HW231302   0.031   2.004   3.046
10135SOL     OW31303   5.458   1.745   3.217
10135SOL    HW131304   5.446   1.759   3.119
10135SOL    HW231305   5.385   1.687   3.252
10136SOL     OW31306   4.850   2.158   2.182
10136SOL    HW131307   4.866   2.184   2.277
10136SOL    HW231308   4.759   2.189   2.154
10137SOL     OW31309   0.410   4.718   6.143
10137SOL    HW131310   0.476   4.660   6.096
10137SOL    HW231311   0.325   4.666   6.157
10138SOL     OW31312   5.234   1.891   0.207
10138SOL    HW131313   5.240   1.990   0.199
10138SOL    HW231314   5.268   1.862   0.297
10139SOL     OW31315   3.963   3.319   5.010
10139SOL    HW131316   3.934   3.240   5.063
10139SOL    HW231317   3.905   3.398   5.031
10140SOL     OW31318   6.856   6.501   6.465
10140SOL    HW131319   6.854   6.464   6.372
10140SOL    HW231320   6.768   6.543   6.487
10141SOL     OW31321   4.362   0.893   3.439
10141SOL    HW131322   4.448   0.931   3.406
10141SOL    HW231323   4.313   0.963   3.492
10142SOL     OW31324   5.941   6.764   5.261
10142SOL    HW131325   6.005   6.719   5.324
10142SOL    HW231326   5.931   6.708   5.178
10143SOL     OW31327   5.694   3.061   0.180
10143SOL    HW131328   5.635   3.028   0.255
10143SOL    HW231329   5.771   2.999   0.169
10144SOL     OW31330   4.247   6.874   5.461
10144SOL    HW131331   4.219   6.967   5.439
10144SOL    HW231332   4.317   6.844   5.397
10145SOL     OW31333   4.187   6.168   2.830
10145SOL    HW131334   4.139   6.241   2.783
10145SOL    HW231335   4.284   6.171   2.805
10146SOL     OW31336   6.992   4.330   4.509
10146SOL    HW131337   0.019   4.318   4.421
10146SOL    HW231338   6.968   4.241   4.547
10147SOL     OW31339   5.023   4.801   0.231
10147SOL    HW131340   5.103   4.750   0.263
10147SOL    HW231341   5.042   4.842   0.143
10148SOL     OW31342   5.988   4.172   1.670
10148SOL    HW131343   5.938   4.189   1.755
10148SOL    HW231344   6.086   4.188   1.685
10149SOL     OW31345   4.932   5.083   1.383
10149SOL    HW131346   4.840   5.045   1.393
10149SOL    HW231347   4.930   5.156   1.314
10150SOL     OW31348   5.352   3.365   1.831
10150SOL    HW131349   5.397   3.422   1.761
10150SOL    HW231350   5.280   3.311   1.788
10151SOL     OW31351   0.795   6.942   5.524
10151SOL    HW131352   0.743   7.010   5.471
10151SOL    HW231353   0.776   6.851   5.489
10152SOL     OW31354   6.408   5.847   3.425
10152SOL    HW131355   6.487   5.903   3.452
10152SOL    HW231356   6.381   5.788   3.501
10153SOL     OW31357   4.208   6.114   3.773
10153SOL    HW131358   4.281   6.087   3.711
10153SOL    HW231359   4.239   6.102   3.868
10154SOL     OW31360   4.021   5.427   6.033
10154SOL    HW131361   4.024   5.439   5.933
10154SOL    HW231362   4.026   5.329   6.054
10155SOL     OW31363   5.153   2.099   5.936
10155SOL    HW131364   5.174   2.188   5.976
10155SOL    HW231365   5.204   2.088   5.851
10156SOL     OW31366   4.571   0.263   1.045
10156SOL    HW131367   4.665   0.285   1.070
10156SOL    HW231368   4.523   0.348   1.020
10157SOL     OW31369   0.288   2.078   0.321
10157SOL    HW131370   0.190   2.097   0.310
10157SOL    HW231371   0.304   2.042   0.413
10158SOL     OW31372   6.012   6.693   2.598
10158SOL    HW131373   5.978   6.614   2.547
10158SOL    HW231374   6.099   6.670   2.641
10159SOL     OW31375   3.830   3.475   3.369
10159SOL    HW131376   3.876   3.399   3.323
10159SOL    HW231377   3.745   3.443   3.410
10160SOL     OW31378   2.056   4.549   3.079
10160SOL    HW131379   2.063   4.645   3.105
10160SOL    HW231380   1.996   4.501   3.143
10161SOL     OW31381   3.838   4.629   6.622
10161SOL    HW131382   3.853   4.651   6.526
10161SOL    HW231383   3.917   4.659   6.675
10162SOL     OW31384   2.370   4.632   1.309
10162SOL    HW131385   2.306   4.697   1.268
10162SOL    HW231386   2.372   4.548   1.254
10163SOL     OW31387   0.713   5.491   6.096
10163SOL    HW131388   0.701   5.520   6.191
10163SOL    HW231389   0.723   5.571   6.038
10164SOL     OW31390   6.236   3.453   3.813
10164SOL    HW131391   6.269   3.365   3.845
10164SOL    HW231392   6.138   3.460   3.830
10165SOL     OW31393   6.324   2.229   3.446
10165SOL    HW131394   6.270   2.297   3.397
10165SOL    HW231395   6.412   2.268   3.472
10166SOL     OW31396   1.939   3.155   0.815
10166SOL    HW131397   1.877   3.192   0.745
10166SOL    HW231398   1.965   3.061   0.790
10167SOL     OW31399   0.187   4.891   0.252
10167SOL    HW131400   0.099   4.919   0.290
10167SOL    HW231401   0.172   4.826   0.178
10168SOL     OW31402   6.123   1.074   5.976
10168SOL    HW131403   6.178   1.125   6.042
10168SOL    HW231404   6.179   1.051   5.896
10169SOL     OW31405   6.671   3.699   3.086
10169SOL    HW131406   6.688   3.656   2.998
10169SOL    HW231407   6.573   3.704   3.103
10170SOL     OW31408   6.335   5.192   6.615
10170SOL    HW131409   6.431   5.196   6.588
10170SOL    HW231410   6.290   5.277   6.587
10171SOL     OW31411   1.053   2.290   5.807
10171SOL    HW131412   1.033   2.288   5.709
10171SOL    HW231413   1.141   2.335   5.823
10172SOL     OW31414   0.355   0.248   4.367
10172SOL    HW131415   0.295   0.324   4.391
10172SOL    HW231416   0.447   0.283   4.350
10173SOL     OW31417   2.883   3.903   0.099
10173SOL    HW131418   2.931   3.821   0.070
10173SOL    HW231419   2.872   3.904   0.198
10174SOL     OW31420   4.883   5.224   3.666
10174SOL    HW131421   4.859   5.270   3.751
10174SOL    HW231422   4.864   5.126   3.675
10175SOL     OW31423   6.741   1.631   3.395
10175SOL    HW131424   6.800   1.709   3.415
10175SOL    HW231425   6.796   1.550   3.380
10176SOL     OW31426   6.493   3.861   5.375
10176SOL    HW131427   6.517   3.764   5.376
10176SOL    HW231428   6.569   3.914   5.337
10177SOL     OW31429   2.037   0.326   0.817
10177SOL    HW131430   1.966   0.386   0.780
10177SOL    HW231431   2.023   0.315   0.915
10178SOL     OW31432   1.373   0.896   0.819
10178SOL    HW131433   1.471   0.893   0.840
10178SOL    HW231434   1.323   0.840   0.885
10179SOL     OW31435   6.977   4.064   6.811
10179SOL    HW131436   0.046   4.105   6.828
10179SOL    HW231437   6.959   4.062   6.712
10180SOL     OW31438   4.244   0.567   0.443
10180SOL    HW131439   4.180   0.643   0.455
10180SOL    HW231440   4.337   0.603   0.432
10181SOL     OW31441   0.080   3.033   1.139
10181SOL    HW131442   0.114   3.018   1.046
10181SOL    HW231443   0.087   3.130   1.162
10182SOL     OW31444   4.921   1.285   0.298
10182SOL    HW131445   4.963   1.280   0.389
10182SOL    HW231446   4.977   1.233   0.233
10183SOL     OW31447   5.830   3.199   5.972
10183SOL    HW131448   5.851   3.148   5.889
10183SOL    HW231449   5.844   3.140   6.052
10184SOL     OW31450   5.820   3.173   6.518
10184SOL    HW131451   5.875   3.246   6.478
10184SOL    HW231452   5.729   3.207   6.540
10185SOL     OW31453   4.913   6.103   2.597
10185SOL    HW131454   4.993   6.154   2.566
10185SOL    HW231455   4.832   6.161   2.594
10186SOL     OW31456   4.920   3.882   4.925
10186SOL    HW131457   4.896   3.787   4.948
10186SOL    HW231458   4.939   3.933   5.009
10187SOL     OW31459   2.084   3.936   5.469
10187SOL    HW131460   2.153   3.988   5.418
10187SOL    HW231461   1.997   3.986   5.467
10188SOL     OW31462   3.395   5.636   0.006
10188SOL    HW131463   3.444   5.591   6.951
10188SOL    HW231464   3.337   5.709   6.989
10189SOL     OW31465   1.542   0.660   6.709
10189SOL    HW131466   1.581   0.686   6.797
10189SOL    HW231467   1.445   0.638   6.721
10190SOL     OW31468   3.540   3.104   1.605
10190SOL    HW131469   3.585   3.055   1.680
10190SOL    HW231470   3.444   3.121   1.629
10191SOL     OW31471   5.896   5.869   1.685
10191SOL    HW131472   5.813   5.923   1.669
10191SOL    HW231473   5.961   5.922   1.739
10192SOL     OW31474   2.656   1.713   4.681
10192SOL    HW131475   2.646   1.758   4.770
10192SOL    HW231476   2.579   1.737   4.622
10193SOL     OW31477   2.959   3.781   2.747
10193SOL    HW131478   2.918   3.706   2.696
10193SOL    HW231479   2.988   3.853   2.683
10194SOL     OW31480   3.938   6.993   5.144
10194SOL    HW131481   3.910   0.011   5.056
10194SOL    HW231482   3.858   6.980   5.202
10195SOL     OW31483   6.664   0.140   1.361
10195SOL    HW131484   6.731   0.075   1.327
10195SOL    HW231485   6.583   0.090   1.394
10196SOL     OW31486   5.908   2.448   3.628
10196SOL    HW131487   5.986   2.389   3.649
10196SOL    HW231488   5.870   2.422   3.539
10197SOL     OW31489   5.514   0.939   4.435
10197SOL    HW131490   5.490   0.848   4.402
10197SOL    HW231491   5.507   1.005   4.360
10198SOL     OW31492   3.350   6.473   0.719
10198SOL    HW131493   3.323   6.569   0.728
10198SOL    HW231494   3.332   6.425   0.805
10199SOL     OW31495   0.771   1.192   6.610
10199SOL    HW131496   0.748   1.288   6.594
10199SOL    HW231497   0.750   1.139   6.528
10200SOL     OW31498   5.030   2.804   5.352
10200SOL    HW131499   4.943   2.756   5.363
10200SOL    HW231500   5.057   2.844   5.440
10201SOL     OW31501   0.679   6.100   1.283
10201SOL    HW131502   0.718   6.192   1.272
10201SOL    HW231503   0.582   6.103   1.259
10202SOL     OW31504   1.242   3.669   0.391
10202SOL    HW131505   1.271   3.591   0.335
10202SOL    HW231506   1.265   3.651   0.487
10203SOL     OW31507   1.515   3.115   1.524
10203SOL    HW131508   1.479   3.168   1.601
10203SOL    HW231509   1.571   3.040   1.558
10204SOL     OW31510   3.819   5.179   6.231
10204SOL    HW131511   3.728   5.219   6.243
10204SOL    HW231512   3.849   5.192   6.137
10205SOL     OW31513   3.944   1.029   3.034
10205SOL    HW131514   3.926   1.083   2.952
10205SOL    HW231515   3.907   1.076   3.115
10206SOL     OW31516   5.015   6.458   6.176
10206SOL    HW131517   5.076   6.436   6.252
10206SOL    HW231518   5.066   6.508   6.106
10207SOL     OW31519   1.778   0.771   0.804
10207SOL    HW131520   1.748   0.861   0.835
10207SOL    HW231521   1.792   0.711   0.883
10208SOL     OW31522   6.448   4.911   4.577
10208SOL    HW131523   6.493   4.998   4.601
10208SOL    HW231524   6.366   4.930   4.523
10209SOL     OW31525   0.619   1.013   5.637
10209SOL    HW131526   0.521   1.004   5.658
10209SOL    HW231527   0.664   0.925   5.651
10210SOL     OW31528   4.913   0.219   1.598
10210SOL    HW131529   4.890   0.307   1.555
10210SOL    HW231530   4.883   0.220   1.694
10211SOL     OW31531   4.418   6.587   5.796
10211SOL    HW131532   4.338   6.541   5.756
10211SOL    HW231533   4.497   6.572   5.737
10212SOL     OW31534   0.421   1.490   4.447
10212SOL    HW131535   0.394   1.430   4.371
10212SOL    HW231536   0.364   1.470   4.527
10213SOL     OW31537   6.249   1.777   2.327
10213SOL    HW131538   6.216   1.870   2.311
10213SOL    HW231539   6.346   1.772   2.306
10214SOL     OW31540   0.776   1.411   2.095
10214SOL    HW131541   0.819   1.371   2.015
10214SOL    HW231542   0.743   1.338   2.155
10215SOL     OW31543   3.217   2.926   4.873
10215SOL    HW131544   3.207   2.984   4.954
10215SOL    HW231545   3.197   2.831   4.898
10216SOL     OW31546   6.935   6.984   0.755
10216SOL    HW131547   6.868   6.999   0.827
10216SOL    HW231548   0.007   6.985   0.794
10217SOL     OW31549   2.630   1.133   3.658
10217SOL    HW131550   2.622   1.092   3.749
10217SOL    HW231551   2.539   1.152   3.622
10218SOL     OW31552   1.168   1.085   0.921
10218SOL    HW131553   1.262   1.072   0.891
10218SOL    HW231554   1.167   1.131   1.010
10219SOL     OW31555   0.389   2.979   1.772
10219SOL    HW131556   0.487   2.991   1.792
10219SOL    HW231557   0.336   2.989   1.856
10220SOL     OW31558   3.869   1.500   2.331
10220SOL    HW131559   3.866   1.444   2.415
10220SOL    HW231560   3.866   1.597   2.356
10221SOL     OW31561   1.597   2.186   3.537
10221SOL    HW131562   1.642   2.243   3.468
10221SOL    HW231563   1.522   2.135   3.494
10222SOL     OW31564   1.293   3.350   5.736
10222SOL    HW131565   1.335   3.418   5.676
10222SOL    HW231566   1.241   3.396   5.808
10223SOL     OW31567   1.689   5.832   6.614
10223SOL    HW131568   1.684   5.931   6.603
10223SOL    HW231569   1.660   5.787   6.529
10224SOL     OW31570   0.055   1.002   4.999
10224SOL    HW131571   0.046   1.095   4.962
10224SOL    HW231572   0.000   0.994   5.082
10225SOL     OW31573   1.582   6.503   5.526
10225SOL    HW131574   1.523   6.430   5.493
10225SOL    HW231575   1.557   6.527   5.620
10226SOL     OW31576   2.623   7.017   0.112
10226SOL    HW131577   2.685   0.069   0.144
10226SOL    HW231578   2.654   6.928   0.145
10227SOL     OW31579   4.770   4.497   0.686
10227SOL    HW131580   4.735   4.439   0.759
10227SOL    HW231581   4.829   4.568   0.724
10228SOL     OW31582   0.965   5.724   2.402
10228SOL    HW131583   1.007   5.737   2.312
10228SOL    HW231584   0.989   5.634   2.437
10229SOL     OW31585   1.175   1.213   4.386
10229SOL    HW131586   1.163   1.305   4.423
10229SOL    HW231587   1.089   1.181   4.347
10230SOL     OW31588   6.433   6.918   3.556
10230SOL    HW131589   6.472   6.968   3.478
10230SOL    HW231590   6.333   6.924   3.552
10231SOL     OW31591   6.982   6.220   6.249
10231SOL    HW131592   6.933   6.306   6.230
10231SOL    HW231593   6.929   6.143   6.213
10232SOL     OW31594   2.768   0.681   4.186
10232SOL    HW131595   2.707   0.728   4.122
10232SOL    HW231596   2.770   0.731   4.272
10233SOL     OW31597   5.334   3.394   5.127
10233SOL    HW131598   5.291   3.484   5.135
10233SOL    HW231599   5.315   3.340   5.209
10234SOL     OW31600   5.662   0.843   1.219
10234SOL    HW131601   5.710   0.846   1.131
10234SOL    HW231602   5.570   0.880   1.208
10235SOL     OW31603   4.517   2.096   0.607
10235SOL    HW131604   4.424   2.124   0.629
10235SOL    HW231605   4.526   1.998   0.619
10236SOL     OW31606   1.266   6.497   2.200
10236SOL    HW131607   1.197   6.466   2.135
10236SOL    HW231608   1.269   6.435   2.278
10237SOL     OW31609   5.915   3.945   1.231
10237SOL    HW131610   5.936   3.849   1.214
10237SOL    HW231611   5.872   3.955   1.320
10238SOL     OW31612   3.425   4.143   4.183
10238SOL    HW131613   3.356   4.181   4.121
10238SOL    HW231614   3.380   4.105   4.263
10239SOL     OW31615   1.499   3.979   5.318
10239SOL    HW131616   1.475   3.920   5.241
10239SOL    HW231617   1.434   3.966   5.392
10240SOL     OW31618   1.950   4.829   3.064
10240SOL    HW131619   1.864   4.878   3.051
10240SOL    HW231620   1.990   4.809   2.975
10241SOL     OW31621   0.253   0.386   1.901
10241SOL    HW131622   0.223   0.418   1.991
10241SOL    HW231623   0.263   0.286   1.903
10242SOL     OW31624   6.761   1.645   6.788
10242SOL    HW131625   6.722   1.728   6.748
10242SOL    HW231626   6.860   1.644   6.774
10243SOL     OW31627   0.724   5.505   0.781
10243SOL    HW131628   0.777   5.588   0.797
10243SOL    HW231629   0.629   5.521   0.809
10244SOL     OW31630   2.087   5.102   6.999
10244SOL    HW131631   2.006   5.160   7.006
10244SOL    HW231632   2.059   5.006   6.987
10245SOL     OW31633   3.235   4.561   0.006
10245SOL    HW131634   3.204   4.656   0.011
10245SOL    HW231635   3.193   4.508   0.080
10246SOL     OW31636   2.880   3.671   4.111
10246SOL    HW131637   2.934   3.623   4.042
10246SOL    HW231638   2.884   3.770   4.094
10247SOL     OW31639   0.068   5.368   4.935
10247SOL    HW131640   7.005   5.367   4.878
10247SOL    HW231641   0.043   5.377   5.031
10248SOL     OW31642   2.936   6.516   1.840
10248SOL    HW131643   2.984   6.574   1.774
10248SOL    HW231644   2.918   6.427   1.798
10249SOL     OW31645   3.289   0.858   5.802
10249SOL    HW131646   3.313   0.929   5.736
10249SOL    HW231647   3.252   0.901   5.885
10250SOL     OW31648   6.615   1.734   1.429
10250SOL    HW131649   6.553   1.661   1.401
10250SOL    HW231650   6.700   1.727   1.377
10251SOL     OW31651   2.459   2.288   5.287
10251SOL    HW131652   2.497   2.253   5.202
10251SOL    HW231653   2.519   2.262   5.364
10252SOL     OW31654   6.776   5.780   0.584
10252SOL    HW131655   6.809   5.686   0.575
10252SOL    HW231656   6.843   5.834   0.635
10253SOL     OW31657   5.340   5.929   0.756
10253SOL    HW131658   5.438   5.945   0.754
10253SOL    HW231659   5.320   5.852   0.818
10254SOL     OW31660   4.325   2.063   5.194
10254SOL    HW131661   4.425   2.060   5.196
10254SOL    HW231662   4.293   2.069   5.099
10255SOL     OW31663   2.218   5.322   1.571
10255SOL    HW131664   2.127   5.358   1.552
10255SOL    HW231665   2.270   5.389   1.625
10256SOL     OW31666   5.694   0.704   1.710
10256SOL    HW131667   5.597   0.679   1.711
10256SOL    HW231668   5.744   0.646   1.776
10257SOL     OW31669   2.095   5.075   4.166
10257SOL    HW131670   2.113   5.086   4.264
10257SOL    HW231671   2.003   5.040   4.152
10258SOL     OW31672   4.644   0.387   3.990
10258SOL    HW131673   4.709   0.463   3.985
10258SOL    HW231674   4.551   0.424   4.001
10259SOL     OW31675   0.918   5.211   3.393
10259SOL    HW131676   0.884   5.186   3.484
10259SOL    HW231677   0.840   5.233   3.334
10260SOL     OW31678   0.527   0.086   3.249
10260SOL    HW131679   0.599   0.142   3.290
10260SOL    HW231680   0.446   0.088   3.308
10261SOL     OW31681   6.970   5.997   2.645
10261SOL    HW131682   6.949   6.064   2.716
10261SOL    HW231683   6.965   5.905   2.685
10262SOL     OW31684   2.609   6.243   4.567
10262SOL    HW131685   2.587   6.147   4.550
10262SOL    HW231686   2.619   6.291   4.480
10263SOL     OW31687   4.624   1.440   6.644
10263SOL    HW131688   4.669   1.356   6.674
10263SOL    HW231689   4.647   1.457   6.548
10264SOL     OW31690   5.554   2.181   6.744
10264SOL    HW131691   5.522   2.151   6.655
10264SOL    HW231692   5.639   2.232   6.734
10265SOL     OW31693   3.328   2.117   2.726
10265SOL    HW131694   3.385   2.042   2.693
10265SOL    HW231695   3.256   2.137   2.659
10266SOL     OW31696   3.526   2.715   5.352
10266SOL    HW131697   3.563   2.636   5.402
10266SOL    HW231698   3.426   2.711   5.352
10267SOL     OW31699   5.897   1.907   6.104
10267SOL    HW131700   5.981   1.887   6.053
10267SOL    HW231701   5.875   1.830   6.164
10268SOL     OW31702   3.787   5.746   1.872
10268SOL    HW131703   3.691   5.772   1.870
10268SOL    HW231704   3.823   5.746   1.779
10269SOL     OW31705   1.623   1.887   5.454
10269SOL    HW131706   1.575   1.867   5.539
10269SOL    HW231707   1.614   1.984   5.431
10270SOL     OW31708   2.455   5.368   2.965
10270SOL    HW131709   2.524   5.427   2.925
10270SOL    HW231710   2.429   5.297   2.899
10271SOL     OW31711   4.134   2.994   0.468
10271SOL    HW131712   4.076   3.071   0.442
10271SOL    HW231713   4.077   2.922   0.508
10272SOL     OW31714   0.586   0.484   4.348
10272SOL    HW131715   0.564   0.444   4.438
10272SOL    HW231716   0.683   0.472   4.329
10273SOL     OW31717   4.659   5.285   3.241
10273SOL    HW131718   4.676   5.286   3.143
10273SOL    HW231719   4.566   5.318   3.260
10274SOL     OW31720   1.193   4.306   4.796
10274SOL    HW131721   1.261   4.351   4.738
10274SOL    HW231722   1.131   4.375   4.834
10275SOL     OW31723   0.583   6.604   2.276
10275SOL    HW131724   0.675   6.623   2.309
10275SOL    HW231725   0.559   6.670   2.204
10276SOL     OW31726   5.905   5.718   5.857
10276SOL    HW131727   5.938   5.718   5.952
10276SOL    HW231728   5.904   5.812   5.822
10277SOL     OW31729   2.656   5.951   4.254
10277SOL    HW131730   2.744   5.971   4.297
10277SOL    HW231731   2.663   5.865   4.203
10278SOL     OW31732   5.590   1.017   4.846
10278SOL    HW131733   5.662   0.957   4.812
10278SOL    HW231734   5.510   0.962   4.869
10279SOL     OW31735   2.171   6.428   4.134
10279SOL    HW131736   2.196   6.369   4.211
10279SOL    HW231737   2.159   6.372   4.052
10280SOL     OW31738   2.194   3.696   1.191
10280SOL    HW131739   2.238   3.640   1.261
10280SOL    HW231740   2.123   3.644   1.145
10281SOL     OW31741   6.576   2.323   2.433
10281SOL    HW131742   6.500   2.386   2.417
10281SOL    HW231743   6.586   2.262   2.354
10282SOL     OW31744   6.690   4.342   4.402
10282SOL    HW131745   6.666   4.290   4.320
10282SOL    HW231746   6.664   4.289   4.483
10283SOL     OW31747   0.787   3.468   0.585
10283SOL    HW131748   0.783   3.369   0.573
10283SOL    HW231749   0.746   3.493   0.672
10284SOL     OW31750   5.052   4.214   5.330
10284SOL    HW131751   4.980   4.277   5.358
10284SOL    HW231752   5.121   4.207   5.402
10285SOL     OW31753   4.615   0.409   0.570
10285SOL    HW131754   4.579   0.478   0.507
10285SOL    HW231755   4.648   0.330   0.518
10286SOL     OW31756   3.325   2.018   4.008
10286SOL    HW131757   3.226   2.028   3.995
10286SOL    HW231758   3.342   1.972   4.095
10287SOL     OW31759   1.839   6.575   1.733
10287SOL    HW131760   1.875   6.617   1.650
10287SOL    HW231761   1.828   6.477   1.719
10288SOL     OW31762   5.249   6.397   2.210
10288SOL    HW131763   5.245   6.298   2.230
10288SOL    HW231764   5.160   6.427   2.176
10289SOL     OW31765   3.804   0.649   2.670
10289SOL    HW131766   3.854   0.711   2.731
10289SOL    HW231767   3.715   0.628   2.709
10290SOL     OW31768   4.084   3.847   2.472
10290SOL    HW131769   4.046   3.901   2.398
10290SOL    HW231770   4.090   3.751   2.443
10291SOL     OW31771   3.917   0.923   4.026
10291SOL    HW131772   3.904   1.001   4.086
10291SOL    HW231773   3.833   0.907   3.974
10292SOL     OW31774   1.074   1.357   4.825
10292SOL    HW131775   1.077   1.447   4.782
10292SOL    HW231776   1.033   1.364   4.915
10293SOL     OW31777   1.967   5.877   3.358
10293SOL    HW131778   1.998   5.882   3.453
10293SOL    HW231779   1.901   5.949   3.340
10294SOL     OW31780   4.925   3.642   2.995
10294SOL    HW131781   4.882   3.553   2.981
10294SOL    HW231782   4.986   3.637   3.074
10295SOL     OW31783   6.229   5.503   6.061
10295SOL    HW131784   6.306   5.530   6.003
10295SOL    HW231785   6.217   5.404   6.057
10296SOL     OW31786   5.050   2.855   6.438
10296SOL    HW131787   5.017   2.839   6.531
10296SOL    HW231788   5.014   2.941   6.404
10297SOL     OW31789   1.995   6.405   5.237
10297SOL    HW131790   1.901   6.425   5.265
10297SOL    HW231791   2.000   6.312   5.201
10298SOL     OW31792   4.032   4.841   2.663
10298SOL    HW131793   4.092   4.826   2.585
10298SOL    HW231794   4.066   4.790   2.742
10299SOL     OW31795   4.683   4.418   2.749
10299SOL    HW131796   4.733   4.339   2.783
10299SOL    HW231797   4.740   4.470   2.685
10300SOL     OW31798   2.044   4.646   2.833
10300SOL    HW131799   2.069   4.589   2.912
10300SOL    HW231800   1.960   4.612   2.792
10301SOL     OW31801   6.016   2.339   2.762
10301SOL    HW131802   5.922   2.330   2.729
10301SOL    HW231803   6.039   2.436   2.772
10302SOL     OW31804   0.780   6.412   4.241
10302SOL    HW131805   0.801   6.495   4.189
10302SOL    HW231806   0.787   6.332   4.181
10303SOL     OW31807   3.099   5.459   1.121
10303SOL    HW131808   3.134   5.449   1.028
10303SOL    HW231809   3.164   5.512   1.175
10304SOL     OW31810   5.430   0.652   2.865
10304SOL    HW131811   5.458   0.646   2.770
10304SOL    HW231812   5.472   0.733   2.907
10305SOL     OW31813   0.245   5.333   6.875
10305SOL    HW131814   0.231   5.352   6.778
10305SOL    HW231815   0.171   5.374   6.928
10306SOL     OW31816   4.666   6.464   6.585
10306SOL    HW131817   4.684   6.407   6.505
10306SOL    HW231818   4.699   6.418   6.667
10307SOL     OW31819   2.098   1.914   4.506
10307SOL    HW131820   2.135   1.927   4.414
10307SOL    HW231821   2.112   1.998   4.560
10308SOL     OW31822   2.697   5.011   4.015
10308SOL    HW131823   2.614   4.977   4.059
10308SOL    HW231824   2.740   4.937   3.964
10309SOL     OW31825   6.508   0.535   3.642
10309SOL    HW131826   6.498   0.490   3.731
10309SOL    HW231827   6.417   0.549   3.602
10310SOL     OW31828   3.812   2.716   1.619
10310SOL    HW131829   3.806   2.733   1.521
10310SOL    HW231830   3.731   2.665   1.649
10311SOL     OW31831   0.680   5.874   0.766
10311SOL    HW131832   0.582   5.859   0.762
10311SOL    HW231833   0.699   5.972   0.773
10312SOL     OW31834   3.035   5.744   1.153
10312SOL    HW131835   2.948   5.701   1.131
10312SOL    HW231836   3.028   5.843   1.140
10313SOL     OW31837   3.788   6.992   2.115
10313SOL    HW131838   3.740   6.917   2.160
10313SOL    HW231839   3.887   6.978   2.125
10314SOL     OW31840   6.028   0.888   1.745
10314SOL    HW131841   6.028   0.874   1.646
10314SOL    HW231842   6.116   0.859   1.783
10315SOL     OW31843   6.075   5.755   4.604
10315SOL    HW131844   6.082   5.679   4.540
10315SOL    HW231845   6.152   5.753   4.668
10316SOL     OW31846   6.596   3.585   4.947
10316SOL    HW131847   6.515   3.565   4.891
10316SOL    HW231848   6.637   3.672   4.917
10317SOL     OW31849   3.820   4.722   5.808
10317SOL    HW131850   3.783   4.811   5.834
10317SOL    HW231851   3.745   4.661   5.783
10318SOL     OW31852   6.320   5.393   1.293
10318SOL    HW131853   6.256   5.318   1.279
10318SOL    HW231854   6.412   5.357   1.302
10319SOL     OW31855   1.336   3.219   5.477
10319SOL    HW131856   1.326   3.236   5.575
10319SOL    HW231857   1.355   3.122   5.461
10320SOL     OW31858   0.737   0.664   0.798
10320SOL    HW131859   0.683   0.635   0.877
10320SOL    HW231860   0.707   0.756   0.770
10321SOL     OW31861   4.109   0.759   4.807
10321SOL    HW131862   4.189   0.809   4.772
10321SOL    HW231863   4.080   0.799   4.894
10322SOL     OW31864   5.917   5.336   0.146
10322SOL    HW131865   5.902   5.413   0.208
10322SOL    HW231866   6.015   5.316   0.140
10323SOL     OW31867   6.351   3.999   6.044
10323SOL    HW131868   6.350   3.954   5.955
10323SOL    HW231869   6.259   3.997   6.083
10324SOL     OW31870   3.378   2.925   3.113
10324SOL    HW131871   3.430   2.875   3.043
10324SOL    HW231872   3.437   2.942   3.192
10325SOL     OW31873   6.807   4.564   3.485
10325SOL    HW131874   6.857   4.648   3.465
10325SOL    HW231875   6.729   4.585   3.545
10326SOL     OW31876   4.748   2.528   0.275
10326SOL    HW131877   4.770   2.447   0.330
10326SOL    HW231878   4.657   2.519   0.235
10327SOL     OW31879   2.972   1.481   2.386
10327SOL    HW131880   2.926   1.516   2.467
10327SOL    HW231881   2.990   1.557   2.323
10328SOL     OW31882   6.136   3.232   1.480
10328SOL    HW131883   6.191   3.233   1.397
10328SOL    HW231884   6.104   3.139   1.499
10329SOL     OW31885   3.118   0.204   4.849
10329SOL    HW131886   3.099   0.173   4.942
10329SOL    HW231887   3.170   0.133   4.800
10330SOL     OW31888   3.301   5.664   3.005
10330SOL    HW131889   3.321   5.566   3.007
10330SOL    HW231890   3.262   5.688   2.917
10331SOL     OW31891   5.972   0.825   3.025
10331SOL    HW131892   5.977   0.726   3.033
10331SOL    HW231893   6.033   0.856   2.953
10332SOL     OW31894   6.220   1.408   0.692
10332SOL    HW131895   6.126   1.441   0.697
10332SOL    HW231896   6.239   1.378   0.598
10333SOL     OW31897   6.168   4.313   4.681
10333SOL    HW131898   6.141   4.241   4.745
10333SOL    HW231899   6.225   4.273   4.609
10334SOL     OW31900   2.162   5.576   3.073
10334SOL    HW131901   2.161   5.503   3.141
10334SOL    HW231902   2.256   5.600   3.051
10335SOL     OW31903   2.039   4.484   6.823
10335SOL    HW131904   2.050   4.560   6.887
10335SOL    HW231905   1.975   4.417   6.861
10336SOL     OW31906   5.149   6.596   3.498
10336SOL    HW131907   5.119   6.596   3.403
10336SOL    HW231908   5.124   6.510   3.541
10337SOL     OW31909   6.587   5.802   5.736
10337SOL    HW131910   6.508   5.855   5.765
10337SOL    HW231911   6.642   5.856   5.672
10338SOL     OW31912   3.353   6.683   0.942
10338SOL    HW131913   3.370   6.779   0.965
10338SOL    HW231914   3.391   6.624   1.014
10339SOL     OW31915   3.769   4.605   0.747
10339SOL    HW131916   3.788   4.549   0.666
10339SOL    HW231917   3.818   4.567   0.825
10340SOL     OW31918   1.095   5.497   0.020
10340SOL    HW131919   1.072   5.561   6.966
10340SOL    HW231920   1.115   5.549   0.103
10341SOL     OW31921   2.361   3.024   1.593
10341SOL    HW131922   2.316   3.006   1.681
10341SOL    HW231923   2.436   3.089   1.607
10342SOL     OW31924   2.467   5.721   5.453
10342SOL    HW131925   2.565   5.739   5.458
10342SOL    HW231926   2.416   5.807   5.460
10343SOL     OW31927   2.433   3.892   0.264
10343SOL    HW131928   2.372   3.968   0.243
10343SOL    HW231929   2.513   3.926   0.313
10344SOL     OW31930   4.096   3.778   3.454
10344SOL    HW131931   4.001   3.770   3.424
10344SOL    HW231932   4.153   3.806   3.377
10345SOL     OW31933   1.658   0.228   6.187
10345SOL    HW131934   1.571   0.214   6.139
10345SOL    HW231935   1.642   0.282   6.270
10346SOL     OW31936   6.022   0.850   1.473
10346SOL    HW131937   6.049   0.908   1.396
10346SOL    HW231938   5.931   0.812   1.456
10347SOL     OW31939   4.971   2.808   1.667
10347SOL    HW131940   4.929   2.818   1.758
10347SOL    HW231941   4.915   2.747   1.611
10348SOL     OW31942   6.791   1.096   6.347
10348SOL    HW131943   6.700   1.123   6.378
10348SOL    HW231944   6.791   1.000   6.322
10349SOL     OW31945   6.731   0.594   0.809
10349SOL    HW131946   6.708   0.630   0.899
10349SOL    HW231947   6.700   0.499   0.802
10350SOL     OW31948   3.210   6.373   4.843
10350SOL    HW131949   3.141   6.316   4.888
10350SOL    HW231950   3.276   6.406   4.911
10351SOL     OW31951   6.213   5.443   5.514
10351SOL    HW131952   6.300   5.481   5.545
10351SOL    HW231953   6.154   5.425   5.592
10352SOL     OW31954   5.609   2.222   6.176
10352SOL    HW131955   5.626   2.320   6.176
10352SOL    HW231956   5.529   2.202   6.233
10353SOL     OW31957   6.625   3.475   4.180
10353SOL    HW131958   6.723   3.494   4.170
10353SOL    HW231959   6.600   3.396   4.124
10354SOL     OW31960   0.734   3.496   0.845
10354SOL    HW131961   0.716   3.400   0.867
10354SOL    HW231962   0.700   3.555   0.918
10355SOL     OW31963   0.942   0.901   0.928
10355SOL    HW131964   0.971   0.893   0.833
10355SOL    HW231965   1.005   0.963   0.976
10356SOL     OW31966   6.800   3.350   6.290
10356SOL    HW131967   6.771   3.331   6.196
10356SOL    HW231968   6.881   3.296   6.311
10357SOL     OW31969   3.272   2.121   5.768
10357SOL    HW131970   3.341   2.051   5.787
10357SOL    HW231971   3.236   2.156   5.854
10358SOL     OW31972   1.018   2.832   3.455
10358SOL    HW131973   0.987   2.865   3.544
10358SOL    HW231974   1.060   2.908   3.405
10359SOL     OW31975   4.593   2.179   2.079
10359SOL    HW131976   4.569   2.218   1.990
10359SOL    HW231977   4.519   2.119   2.110
10360SOL     OW31978   5.278   5.395   2.591
10360SOL    HW131979   5.376   5.404   2.573
10360SOL    HW231980   5.226   5.433   2.514
10361SOL     OW31981   2.511   0.213   2.455
10361SOL    HW131982   2.564   0.290   2.490
10361SOL    HW231983   2.469   0.164   2.532
10362SOL     OW31984   0.707   4.906   2.657
10362SOL    HW131985   0.785   4.843   2.648
10362SOL    HW231986   0.705   4.967   2.578
10363SOL     OW31987   4.882   2.596   0.950
10363SOL    HW131988   4.830   2.584   0.865
10363SOL    HW231989   4.910   2.692   0.959
10364SOL     OW31990   4.763   4.704   1.827
10364SOL    HW131991   4.698   4.734   1.896
10364SOL    HW231992   4.759   4.604   1.818
10365SOL     OW31993   5.637   4.427   0.658
10365SOL    HW131994   5.559   4.404   0.717
10365SOL    HW231995   5.603   4.457   0.569
10366SOL     OW31996   3.985   6.803   3.499
10366SOL    HW131997   3.936   6.716   3.490
10366SOL    HW231998   3.928   6.877   3.462
10367SOL     OW31999   0.183   1.624   2.234
10367SOL    HW132000   0.224   1.700   2.184
10367SOL    HW232001   0.209   1.537   2.191
10368SOL     OW32002   1.904   1.005   2.428
10368SOL    HW132003   1.834   0.935   2.440
10368SOL    HW232004   1.871   1.075   2.364
10369SOL     OW32005   2.471   6.299   6.241
10369SOL    HW132006   2.555   6.339   6.277
10369SOL    HW232007   2.472   6.304   6.141
10370SOL     OW32008   5.835   1.475   5.040
10370SOL    HW132009   5.776   1.539   4.992
10370SOL    HW232010   5.889   1.524   5.109
10371SOL     OW32011   2.374   6.788   4.160
10371SOL    HW132012   2.422   6.741   4.087
10371SOL    HW232013   2.286   6.743   4.178
10372SOL     OW32014   3.078   1.050   1.148
10372SOL    HW132015   3.068   1.122   1.216
10372SOL    HW232016   3.031   1.076   1.063
10373SOL     OW32017   0.542   6.835   4.986
10373SOL    HW132018   0.580   6.756   4.938
10373SOL    HW232019   0.496   6.895   4.920
10374SOL     OW32020   3.123   0.257   4.212
10374SOL    HW132021   3.047   0.230   4.270
10374SOL    HW232022   3.098   0.340   4.161
10375SOL     OW32023   2.788   2.055   5.884
10375SOL    HW132024   2.751   2.145   5.906
10375SOL    HW232025   2.866   2.065   5.822
10376SOL     OW32026   0.902   6.384   3.904
10376SOL    HW132027   0.933   6.294   3.931
10376SOL    HW232028   0.819   6.376   3.848
10377SOL     OW32029   0.485   1.679   1.488
10377SOL    HW132030   0.556   1.610   1.475
10377SOL    HW232031   0.404   1.636   1.527
10378SOL     OW32032   5.987   5.651   6.126
10378SOL    HW132033   6.009   5.735   6.175
10378SOL    HW232034   6.071   5.607   6.094
10379SOL     OW32035   3.371   5.538   3.916
10379SOL    HW132036   3.431   5.618   3.926
10379SOL    HW232037   3.372   5.485   4.001
10380SOL     OW32038   0.690   2.532   5.027
10380SOL    HW132039   0.782   2.508   5.055
10380SOL    HW232040   0.624   2.486   5.086
10381SOL     OW32041   4.277   3.863   0.470
10381SOL    HW132042   4.309   3.955   0.495
10381SOL    HW232043   4.179   3.856   0.488
10382SOL     OW32044   2.781   6.059   1.838
10382SOL    HW132045   2.726   6.015   1.909
10382SOL    HW232046   2.793   5.995   1.762
10383SOL     OW32047   1.895   3.759   0.663
10383SOL    HW132048   1.871   3.772   0.567
10383SOL    HW232049   1.907   3.849   0.707
10384SOL     OW32050   6.579   6.714   0.499
10384SOL    HW132051   6.667   6.719   0.546
10384SOL    HW232052   6.517   6.654   0.550
10385SOL     OW32053   3.969   5.950   6.418
10385SOL    HW132054   4.001   5.857   6.405
10385SOL    HW232055   4.040   6.014   6.389
10386SOL     OW32056   0.756   0.775   5.651
10386SOL    HW132057   0.850   0.793   5.681
10386SOL    HW232058   0.719   0.697   5.701
10387SOL     OW32059   4.934   2.458   2.771
10387SOL    HW132060   4.871   2.382   2.786
10387SOL    HW232061   4.997   2.464   2.849
10388SOL     OW32062   1.641   6.614   0.949
10388SOL    HW132063   1.696   6.590   0.870
10388SOL    HW232064   1.561   6.667   0.920
10389SOL     OW32065   5.558   3.950   1.212
10389SOL    HW132066   5.586   4.041   1.245
10389SOL    HW232067   5.461   3.936   1.233
10390SOL     OW32068   1.555   2.946   6.724
10390SOL    HW132069   1.655   2.947   6.723
10390SOL    HW232070   1.520   2.960   6.632
10391SOL     OW32071   0.689   6.180   4.134
10391SOL    HW132072   0.614   6.163   4.069
10391SOL    HW232073   0.753   6.104   4.132
10392SOL     OW32074   5.833   5.492   5.303
10392SOL    HW132075   5.873   5.403   5.320
10392SOL    HW232076   5.819   5.540   5.389
10393SOL     OW32077   2.147   3.875   3.851
10393SOL    HW132078   2.138   3.858   3.753
10393SOL    HW232079   2.155   3.788   3.899
10394SOL     OW32080   2.487   5.387   4.864
10394SOL    HW132081   2.479   5.432   4.775
10394SOL    HW232082   2.399   5.348   4.889
10395SOL     OW32083   0.380   0.074   1.373
10395SOL    HW132084   0.449   0.006   1.346
10395SOL    HW232085   0.339   0.114   1.291
10396SOL     OW32086   3.393   1.650   3.940
10396SOL    HW132087   3.321   1.692   3.885
10396SOL    HW232088   3.482   1.681   3.907
10397SOL     OW32089   3.458   1.272   4.361
10397SOL    HW132090   3.484   1.290   4.456
10397SOL    HW232091   3.369   1.227   4.359
10398SOL     OW32092   6.333   2.840   0.373
10398SOL    HW132093   6.388   2.839   0.290
10398SOL    HW232094   6.315   2.935   0.400
10399SOL     OW32095   5.268   2.385   3.181
10399SOL    HW132096   5.259   2.475   3.224
10399SOL    HW232097   5.206   2.379   3.103
10400SOL     OW32098   4.419   5.841   0.004
10400SOL    HW132099   4.406   5.794   0.091
10400SOL    HW232100   4.410   5.939   0.016
10401SOL     OW32101   0.149   6.261   2.391
10401SOL    HW132102   0.055   6.239   2.416
10401SOL    HW232103   0.197   6.178   2.362
10402SOL     OW32104   6.363   1.821   5.492
10402SOL    HW132105   6.424   1.743   5.475
10402SOL    HW232106   6.287   1.792   5.550
10403SOL     OW32107   4.656   2.357   3.424
10403SOL    HW132108   4.643   2.452   3.396
10403SOL    HW232109   4.643   2.297   3.345
10404SOL     OW32110   5.751   6.291   4.591
10404SOL    HW132111   5.732   6.198   4.561
10404SOL    HW232112   5.807   6.337   4.523
10405SOL     OW32113   1.040   7.007   4.407
10405SOL    HW132114   1.044   7.015   4.506
10405SOL    HW232115   1.017   0.075   4.367
10406SOL     OW32116   1.893   4.075   3.748
10406SOL    HW132117   1.984   4.090   3.786
10406SOL    HW232118   1.832   4.045   3.822
10407SOL     OW32119   2.541   6.806   6.251
10407SOL    HW132120   2.463   6.764   6.298
10407SOL    HW232121   2.616   6.816   6.316
10408SOL     OW32122   4.439   0.172   1.264
10408SOL    HW132123   4.508   0.131   1.324
10408SOL    HW232124   4.485   0.220   1.189
10409SOL     OW32125   0.512   5.072   1.233
10409SOL    HW132126   0.565   5.033   1.158
10409SOL    HW232127   0.436   5.125   1.196
10410SOL     OW32128   5.095   2.268   1.741
10410SOL    HW132129   5.143   2.211   1.807
10410SOL    HW232130   5.044   2.340   1.789
10411SOL     OW32131   3.605   6.730   3.384
10411SOL    HW132132   3.541   6.768   3.317
10411SOL    HW232133   3.655   6.804   3.429
10412SOL     OW32134   0.247   1.058   6.773
10412SOL    HW132135   0.162   1.022   6.811
10412SOL    HW232136   0.228   1.104   6.686
10413SOL     OW32137   0.157   2.847   0.002
10413SOL    HW132138   0.209   2.838   0.087
10413SOL    HW232139   0.205   2.799   6.948
10414SOL     OW32140   4.232   5.675   5.778
10414SOL    HW132141   4.306   5.613   5.803
10414SOL    HW232142   4.219   5.743   5.851
10415SOL     OW32143   1.746   3.711   5.474
10415SOL    HW132144   1.776   3.802   5.443
10415SOL    HW232145   1.821   3.646   5.462
10416SOL     OW32146   6.005   0.358   5.273
10416SOL    HW132147   5.920   0.306   5.280
10416SOL    HW232148   6.067   0.332   5.348
10417SOL     OW32149   3.041   5.169   3.798
10417SOL    HW132150   3.024   5.080   3.756
10417SOL    HW232151   2.985   5.178   3.881
10418SOL     OW32152   6.582   3.988   6.212
10418SOL    HW132153   6.498   3.979   6.159
10418SOL    HW232154   6.630   3.900   6.215
10419SOL     OW32155   2.703   6.819   5.838
10419SOL    HW132156   2.746   6.907   5.860
10419SOL    HW232157   2.720   6.796   5.742
10420SOL     OW32158   0.452   3.807   3.706
10420SOL    HW132159   0.510   3.756   3.642
10420SOL    HW232160   0.439   3.752   3.789
10421SOL     OW32161   0.925   2.360   3.506
10421SOL    HW132162   1.005   2.362   3.445
10421SOL    HW232163   0.946   2.411   3.589
10422SOL     OW32164   5.930   3.602   5.102
10422SOL    HW132165   6.024   3.634   5.111
10422SOL    HW232166   5.917   3.520   5.158
10423SOL     OW32167   5.892   5.158   5.594
10423SOL    HW132168   5.825   5.112   5.653
10423SOL    HW232169   5.983   5.144   5.632
10424SOL     OW32170   5.028   2.673   0.284
10424SOL    HW132171   4.990   2.741   0.346
10424SOL    HW232172   4.957   2.642   0.221
10425SOL     OW32173   0.916   6.844   1.848
10425SOL    HW132174   0.974   6.898   1.787
10425SOL    HW232175   0.851   6.792   1.793
10426SOL     OW32176   5.540   5.143   0.626
10426SOL    HW132177   5.442   5.156   0.639
10426SOL    HW232178   5.589   5.223   0.661
10427SOL     OW32179   3.829   1.021   6.413
10427SOL    HW132180   3.847   0.934   6.367
10427SOL    HW232181   3.915   1.062   6.443
10428SOL     OW32182   3.410   0.550   4.042
10428SOL    HW132183   3.356   0.484   3.990
10428SOL    HW232184   3.505   0.522   4.044
10429SOL     OW32185   0.047   4.123   1.152
10429SOL    HW132186   6.992   4.057   1.160
10429SOL    HW232187   0.009   4.216   1.152
10430SOL     OW32188   4.793   0.345   4.872
10430SOL    HW132189   4.839   0.313   4.789
10430SOL    HW232190   4.848   0.417   4.915
10431SOL     OW32191   2.648   5.735   4.682
10431SOL    HW132192   2.708   5.681   4.741
10431SOL    HW232193   2.691   5.824   4.664
10432SOL     OW32194   5.262   0.004   5.057
10432SOL    HW132195   5.352   0.019   5.016
10432SOL    HW232196   5.197   6.996   4.987
10433SOL     OW32197   1.042   5.850   1.644
10433SOL    HW132198   1.097   5.766   1.643
10433SOL    HW232199   1.090   5.922   1.593
10434SOL     OW32200   4.067   5.988   3.293
10434SOL    HW132201   3.975   5.952   3.308
10434SOL    HW232202   4.063   6.088   3.288
10435SOL     OW32203   6.603   1.099   5.470
10435SOL    HW132204   6.588   1.197   5.483
10435SOL    HW232205   6.610   1.080   5.372
10436SOL     OW32206   0.144   4.963   5.721
10436SOL    HW132207   0.216   4.894   5.718
10436SOL    HW232208   0.118   4.981   5.816
10437SOL     OW32209   4.838   4.048   5.654
10437SOL    HW132210   4.918   3.993   5.629
10437SOL    HW232211   4.797   4.085   5.571
10438SOL     OW32212   5.851   6.811   0.269
10438SOL    HW132213   5.801   6.775   0.348
10438SOL    HW232214   5.864   6.738   0.202
10439SOL     OW32215   3.912   1.131   5.635
10439SOL    HW132216   3.883   1.156   5.728
10439SOL    HW232217   3.990   1.188   5.608
10440SOL     OW32218   1.289   0.208   0.332
10440SOL    HW132219   1.370   0.266   0.324
10440SOL    HW232220   1.207   0.266   0.338
10441SOL     OW32221   3.569   1.053   1.645
10441SOL    HW132222   3.483   1.090   1.681
10441SOL    HW232223   3.563   1.045   1.546
10442SOL     OW32224   3.637   6.578   5.958
10442SOL    HW132225   3.573   6.505   5.984
10442SOL    HW232226   3.682   6.613   6.039
10443SOL     OW32227   4.691   4.184   3.939
10443SOL    HW132228   4.657   4.118   4.007
10443SOL    HW232229   4.709   4.271   3.984
10444SOL     OW32230   4.177   6.293   4.240
10444SOL    HW132231   4.192   6.199   4.211
10444SOL    HW232232   4.262   6.344   4.235
10445SOL     OW32233   0.611   5.160   4.615
10445SOL    HW132234   0.585   5.224   4.687
10445SOL    HW232235   0.582   5.195   4.526
10446SOL     OW32236   1.347   2.950   5.512
10446SOL    HW132237   1.429   2.941   5.456
10446SOL    HW232238   1.321   2.861   5.548
10447SOL     OW32239   0.161   1.299   1.625
10447SOL    HW132240   0.255   1.314   1.594
10447SOL    HW232241   0.107   1.262   1.549
10448SOL     OW32242   4.683   0.653   2.540
10448SOL    HW132243   4.583   0.649   2.542
10448SOL    HW232244   4.711   0.742   2.503
10449SOL     OW32245   2.861   5.226   4.649
10449SOL    HW132246   2.787   5.185   4.596
10449SOL    HW232247   2.832   5.234   4.745
10450SOL     OW32248   1.048   2.096   0.576
10450SOL    HW132249   1.057   2.107   0.477
10450SOL    HW232250   0.986   2.020   0.596
10451SOL     OW32251   1.312   5.574   2.385
10451SOL    HW132252   1.299   5.479   2.356
10451SOL    HW232253   1.376   5.577   2.461
10452SOL     OW32254   6.404   3.116   2.071
10452SOL    HW132255   6.322   3.073   2.110
10452SOL    HW232256   6.399   3.215   2.084
10453SOL     OW32257   3.818   6.497   1.329
10453SOL    HW132258   3.749   6.512   1.400
10453SOL    HW232259   3.803   6.562   1.254
10454SOL     OW32260   4.234   3.328   0.320
10454SOL    HW132261   4.315   3.271   0.330
10454SOL    HW232262   4.152   3.271   0.326
10455SOL     OW32263   6.533   6.485   3.452
10455SOL    HW132264   6.468   6.533   3.511
10455SOL    HW232265   6.625   6.522   3.465
10456SOL     OW32266   2.861   6.672   0.827
10456SOL    HW132267   2.930   6.640   0.892
10456SOL    HW232268   2.902   6.739   0.765
10457SOL     OW32269   2.864   3.562   2.264
10457SOL    HW132270   2.895   3.545   2.171
10457SOL    HW232271   2.818   3.651   2.269
10458SOL     OW32272   6.953   1.767   6.221
10458SOL    HW132273   6.978   1.684   6.271
10458SOL    HW232274   6.882   1.746   6.154
10459SOL     OW32275   4.959   5.758   1.577
10459SOL    HW132276   5.028   5.755   1.649
10459SOL    HW232277   5.001   5.790   1.492
10460SOL     OW32278   0.968   4.178   1.982
10460SOL    HW132279   1.064   4.152   1.996
10460SOL    HW232280   0.913   4.096   1.965
10461SOL     OW32281   0.690   5.184   5.400
10461SOL    HW132282   0.724   5.209   5.491
10461SOL    HW232283   0.596   5.215   5.390
10462SOL     OW32284   6.299   1.834   3.546
10462SOL    HW132285   6.207   1.794   3.544
10462SOL    HW232286   6.367   1.760   3.547
10463SOL     OW32287   3.986   3.026   5.661
10463SOL    HW132288   4.031   3.112   5.637
10463SOL    HW232289   4.054   2.953   5.668
10464SOL     OW32290   6.511   6.929   1.209
10464SOL    HW132291   6.567   6.853   1.176
10464SOL    HW232292   6.527   7.010   1.152
10465SOL     OW32293   6.603   5.536   1.531
10465SOL    HW132294   6.578   5.610   1.469
10465SOL    HW232295   6.576   5.560   1.624
10466SOL     OW32296   4.389   5.439   6.407
10466SOL    HW132297   4.423   5.500   6.479
10466SOL    HW232298   4.403   5.482   6.318
10467SOL     OW32299   1.924   2.071   6.174
10467SOL    HW132300   1.873   2.132   6.235
10467SOL    HW232301   1.951   1.989   6.224
10468SOL     OW32302   3.592   5.154   3.102
10468SOL    HW132303   3.499   5.118   3.098
10468SOL    HW232304   3.618   5.167   3.198
10469SOL     OW32305   3.733   3.576   5.698
10469SOL    HW132306   3.735   3.652   5.633
10469SOL    HW232307   3.695   3.495   5.654
10470SOL     OW32308   2.851   2.257   3.670
10470SOL    HW132309   2.798   2.175   3.690
10470SOL    HW232310   2.802   2.337   3.704
10471SOL     OW32311   2.580   1.854   0.975
10471SOL    HW132312   2.514   1.832   0.903
10471SOL    HW232313   2.657   1.903   0.936
10472SOL     OW32314   3.802   5.612   0.273
10472SOL    HW132315   3.702   5.615   0.269
10472SOL    HW232316   3.840   5.665   0.198
10473SOL     OW32317   6.991   0.780   6.672
10473SOL    HW132318   0.017   0.803   6.586
10473SOL    HW232319   6.957   0.686   6.667
10474SOL     OW32320   4.907   1.694   4.546
10474SOL    HW132321   4.849   1.674   4.467
10474SOL    HW232322   5.000   1.712   4.514
10475SOL     OW32323   4.977   6.759   2.175
10475SOL    HW132324   4.910   6.827   2.147
10475SOL    HW232325   5.068   6.800   2.175
10476SOL     OW32326   6.980   6.488   6.800
10476SOL    HW132327   0.039   6.428   6.787
10476SOL    HW232328   6.995   6.574   6.751
10477SOL     OW32329   6.750   1.903   3.952
10477SOL    HW132330   6.669   1.952   3.920
10477SOL    HW232331   6.730   1.806   3.959
10478SOL     OW32332   0.260   0.580   0.876
10478SOL    HW132333   0.195   0.515   0.836
10478SOL    HW232334   0.212   0.639   0.941
10479SOL     OW32335   0.257   2.557   1.212
10479SOL    HW132336   0.327   2.548   1.283
10479SOL    HW232337   0.181   2.611   1.247
10480SOL     OW32338   6.255   0.563   1.854
10480SOL    HW132339   6.190   0.528   1.920
10480SOL    HW232340   6.336   0.504   1.852
10481SOL     OW32341   2.477   6.812   4.647
10481SOL    HW132342   2.551   6.879   4.654
10481SOL    HW232343   2.393   6.850   4.685
10482SOL     OW32344   6.763   6.064   4.839
10482SOL    HW132345   6.759   6.154   4.882
10482SOL    HW232346   6.821   6.004   4.893
10483SOL     OW32347   6.941   5.379   0.534
10483SOL    HW132348   6.845   5.350   0.538
10483SOL    HW232349   6.951   5.451   0.466
10484SOL     OW32350   6.011   1.453   1.522
10484SOL    HW132351   6.051   1.361   1.521
10484SOL    HW232352   6.047   1.503   1.601
10485SOL     OW32353   3.361   4.111   1.843
10485SOL    HW132354   3.296   4.185   1.828
10485SOL    HW232355   3.377   4.101   1.942
10486SOL     OW32356   6.370   0.829   6.005
10486SOL    HW132357   6.318   0.843   6.088
10486SOL    HW232358   6.454   0.778   6.025
10487SOL     OW32359   4.311   2.105   1.985
10487SOL    HW132360   4.343   2.161   1.909
10487SOL    HW232361   4.284   2.164   2.062
10488SOL     OW32362   2.285   1.558   6.039
10488SOL    HW132363   2.289   1.459   6.057
10488SOL    HW232364   2.373   1.589   6.002
10489SOL     OW32365   6.129   6.704   4.385
10489SOL    HW132366   6.165   6.760   4.311
10489SOL    HW232367   6.178   6.724   4.470
10490SOL     OW32368   5.973   1.766   0.736
10490SOL    HW132369   6.036   1.762   0.659
10490SOL    HW232370   5.901   1.833   0.716
10491SOL     OW32371   2.695   1.825   5.194
10491SOL    HW132372   2.635   1.826   5.274
10491SOL    HW232373   2.774   1.884   5.211
10492SOL     OW32374   5.223   6.176   1.654
10492SOL    HW132375   5.244   6.247   1.586
10492SOL    HW232376   5.272   6.195   1.739
10493SOL     OW32377   2.603   6.406   2.108
10493SOL    HW132378   2.557   6.458   2.180
10493SOL    HW232379   2.671   6.464   2.063
10494SOL     OW32380   5.461   4.513   6.348
10494SOL    HW132381   5.465   4.600   6.298
10494SOL    HW232382   5.404   4.448   6.297
10495SOL     OW32383   0.188   0.275   0.738
10495SOL    HW132384   0.265   0.303   0.681
10495SOL    HW232385   0.105   0.322   0.707
10496SOL     OW32386   6.055   4.391   6.271
10496SOL    HW132387   6.141   4.387   6.322
10496SOL    HW232388   6.015   4.482   6.281
10497SOL     OW32389   1.007   6.564   1.890
10497SOL    HW132390   1.099   6.529   1.908
10497SOL    HW232391   1.013   6.658   1.856
10498SOL     OW32392   5.726   5.621   0.664
10498SOL    HW132393   5.806   5.626   0.604
10498SOL    HW232394   5.712   5.526   0.693
10499SOL     OW32395   4.989   0.745   1.976
10499SOL    HW132396   5.012   0.747   2.073
10499SOL    HW232397   5.016   0.831   1.933
10500SOL     OW32398   5.869   1.809   5.587
10500SOL    HW132399   5.876   1.714   5.556
10500SOL    HW232400   5.816   1.862   5.521
10501SOL     OW32401   2.571   5.255   1.955
10501SOL    HW132402   2.540   5.300   1.872
10501SOL    HW232403   2.497   5.200   1.993
10502SOL     OW32404   3.182   3.293   1.322
10502SOL    HW132405   3.197   3.370   1.259
10502SOL    HW232406   3.265   3.237   1.326
10503SOL     OW32407   5.762   3.439   0.399
10503SOL    HW132408   5.775   3.359   0.457
10503SOL    HW232409   5.733   3.409   0.308
10504SOL     OW32410   0.186   3.323   5.456
10504SOL    HW132411   0.174   3.421   5.470
10504SOL    HW232412   0.250   3.308   5.381
10505SOL     OW32413   5.901   5.554   1.075
10505SOL    HW132414   5.962   5.575   0.998
10505SOL    HW232415   5.942   5.587   1.160
10506SOL     OW32416   1.033   3.700   6.904
10506SOL    HW132417   0.978   3.724   6.824
10506SOL    HW232418   0.975   3.659   6.974
10507SOL     OW32419   1.829   5.413   0.169
10507SOL    HW132420   1.854   5.371   0.257
10507SOL    HW232421   1.798   5.506   0.184
10508SOL     OW32422   6.959   5.781   4.870
10508SOL    HW132423   6.938   5.697   4.821
10508SOL    HW232424   7.011   5.843   4.812
10509SOL     OW32425   6.379   4.538   4.933
10509SOL    HW132426   6.337   4.627   4.913
10509SOL    HW232427   6.470   4.534   4.890
10510SOL     OW32428   4.598   6.417   0.282
10510SOL    HW132429   4.595   6.467   0.196
10510SOL    HW232430   4.598   6.483   0.358
10511SOL     OW32431   3.089   0.880   2.488
10511SOL    HW132432   3.124   0.812   2.553
10511SOL    HW232433   3.164   0.940   2.459
10512SOL     OW32434   3.163   0.970   6.018
10512SOL    HW132435   3.145   1.064   6.046
10512SOL    HW232436   3.080   0.929   5.982
10513SOL     OW32437   6.846   2.960   3.210
10513SOL    HW132438   6.893   3.024   3.150
10513SOL    HW232439   6.747   2.966   3.195
10514SOL     OW32440   0.795   2.513   1.705
10514SOL    HW132441   0.863   2.443   1.727
10514SOL    HW232442   0.784   2.575   1.783
10515SOL     OW32443   1.570   3.659   4.527
10515SOL    HW132444   1.655   3.694   4.488
10515SOL    HW232445   1.502   3.647   4.455
10516SOL     OW32446   2.908   1.536   0.418
10516SOL    HW132447   2.905   1.531   0.318
10516SOL    HW232448   2.982   1.596   0.447
10517SOL     OW32449   0.933   3.633   1.709
10517SOL    HW132450   0.927   3.549   1.656
10517SOL    HW232451   0.973   3.614   1.799
10518SOL     OW32452   6.858   6.218   1.706
10518SOL    HW132453   6.875   6.315   1.721
10518SOL    HW232454   6.874   6.196   1.609
10519SOL     OW32455   2.983   3.730   0.672
10519SOL    HW132456   3.055   3.670   0.706
10519SOL    HW232457   2.937   3.688   0.594
10520SOL     OW32458   0.569   2.834   5.741
10520SOL    HW132459   0.493   2.784   5.782
10520SOL    HW232460   0.572   2.817   5.643
10521SOL     OW32461   0.099   5.585   1.202
10521SOL    HW132462   0.081   5.488   1.188
10521SOL    HW232463   0.192   5.597   1.239
10522SOL     OW32464   0.033   2.297   3.939
10522SOL    HW132465   0.098   2.338   3.875
10522SOL    HW232466   0.021   2.200   3.917
10523SOL     OW32467   0.940   4.761   2.861
10523SOL    HW132468   0.870   4.829   2.884
10523SOL    HW232469   0.939   4.747   2.762
10524SOL     OW32470   6.884   6.442   4.378
10524SOL    HW132471   6.973   6.481   4.355
10524SOL    HW232472   6.832   6.426   4.295
10525SOL     OW32473   3.569   0.940   5.114
10525SOL    HW132474   3.557   0.873   5.041
10525SOL    HW232475   3.540   1.030   5.082
10526SOL     OW32476   1.192   0.062   1.634
10526SOL    HW132477   1.259   0.014   1.691
10526SOL    HW232478   1.224   0.155   1.617
10527SOL     OW32479   1.400   0.958   5.955
10527SOL    HW132480   1.431   0.897   6.028
10527SOL    HW232481   1.393   0.908   5.870
10528SOL     OW32482   1.315   4.428   6.333
10528SOL    HW132483   1.321   4.504   6.399
10528SOL    HW232484   1.357   4.347   6.373
10529SOL     OW32485   2.292   5.927   4.249
10529SOL    HW132486   2.342   5.978   4.179
10529SOL    HW232487   2.291   5.979   4.334
10530SOL     OW32488   1.449   6.848   6.190
10530SOL    HW132489   1.363   6.803   6.213
10530SOL    HW232490   1.470   6.917   6.259
10531SOL     OW32491   2.341   1.995   4.381
10531SOL    HW132492   2.327   1.912   4.327
10531SOL    HW232493   2.431   1.991   4.426
10532SOL     OW32494   0.384   6.883   6.148
10532SOL    HW132495   0.348   6.812   6.088
10532SOL    HW232496   0.472   6.915   6.114
10533SOL     OW32497   3.006   6.238   3.485
10533SOL    HW132498   3.090   6.192   3.457
10533SOL    HW232499   2.938   6.169   3.511
10534SOL     OW32500   6.496   4.674   2.109
10534SOL    HW132501   6.562   4.644   2.179
10534SOL    HW232502   6.542   4.678   2.020
10535SOL     OW32503   2.324   1.602   2.555
10535SOL    HW132504   2.284   1.694   2.559
10535SOL    HW232505   2.421   1.607   2.579
10536SOL     OW32506   4.416   1.130   4.330
10536SOL    HW132507   4.445   1.196   4.400
10536SOL    HW232508   4.436   1.167   4.240
10537SOL     OW32509   4.810   6.593   4.146
10537SOL    HW132510   4.774   6.610   4.055
10537SOL    HW232511   4.752   6.638   4.214
10538SOL     OW32512   6.679   3.243   0.406
10538SOL    HW132513   6.623   3.249   0.489
10538SOL    HW232514   6.697   3.334   0.371
10539SOL     OW32515   6.344   5.873   1.086
10539SOL    HW132516   6.326   5.911   1.176
10539SOL    HW232517   6.366   5.775   1.095
10540SOL     OW32518   2.087   2.682   5.519
10540SOL    HW132519   2.058   2.661   5.613
10540SOL    HW232520   2.048   2.770   5.492
10541SOL     OW32521   4.079   3.628   2.866
10541SOL    HW132522   4.126   3.586   2.789
10541SOL    HW232523   4.147   3.659   2.934
10542SOL     OW32524   6.938   0.929   5.225
10542SOL    HW132525   6.899   0.843   5.256
10542SOL    HW232526   7.000   0.964   5.295
10543SOL     OW32527   1.401   1.580   4.316
10543SOL    HW132528   1.406   1.612   4.221
10543SOL    HW232529   1.431   1.652   4.377
10544SOL     OW32530   2.174   6.560   1.647
10544SOL    HW132531   2.134   6.491   1.707
10544SOL    HW232532   2.267   6.581   1.678
10545SOL     OW32533   1.166   2.662   1.558
10545SOL    HW132534   1.212   2.747   1.533
10545SOL    HW232535   1.127   2.671   1.650
10546SOL     OW32536   3.008   6.172   0.244
10546SOL    HW132537   2.912   6.182   0.216
10546SOL    HW232538   3.024   6.078   0.275
10547SOL     OW32539   5.477   2.893   3.758
10547SOL    HW132540   5.430   2.956   3.695
10547SOL    HW232541   5.410   2.832   3.799
10548SOL     OW32542   0.111   4.747   4.277
10548SOL    HW132543   0.091   4.709   4.368
10548SOL    HW232544   0.205   4.781   4.276
10549SOL     OW32545   0.805   1.425   0.991
10549SOL    HW132546   0.722   1.393   0.945
10549SOL    HW232547   0.885   1.392   0.941
10550SOL     OW32548   4.828   6.242   3.653
10550SOL    HW132549   4.851   6.150   3.683
10550SOL    HW232550   4.794   6.295   3.731
10551SOL     OW32551   1.567   1.991   0.018
10551SOL    HW132552   1.474   2.021   0.042
10551SOL    HW232553   1.604   1.937   0.093
10552SOL     OW32554   1.846   0.679   5.430
10552SOL    HW132555   1.806   0.591   5.407
10552SOL    HW232556   1.898   0.670   5.515
10553SOL     OW32557   0.747   4.456   1.279
10553SOL    HW132558   0.659   4.498   1.300
10553SOL    HW232559   0.732   4.361   1.251
10554SOL     OW32560   5.057   5.414   1.475
10554SOL    HW132561   5.112   5.339   1.511
10554SOL    HW232562   4.962   5.401   1.502
10555SOL     OW32563   2.509   2.822   0.829
10555SOL    HW132564   2.475   2.851   0.918
10555SOL    HW232565   2.585   2.758   0.841
10556SOL     OW32566   2.157   0.967   3.784
10556SOL    HW132567   2.077   0.942   3.839
10556SOL    HW232568   2.130   0.976   3.688
10557SOL     OW32569   2.037   2.938   3.586
10557SOL    HW132570   2.066   3.001   3.514
10557SOL    HW232571   1.959   2.885   3.555
10558SOL     OW32572   4.011   6.087   5.517
10558SOL    HW132573   4.017   6.077   5.417
10558SOL    HW232574   3.966   6.007   5.555
10559SOL     OW32575   4.172   0.312   1.697
10559SOL    HW132576   4.117   0.237   1.734
10559SOL    HW232577   4.188   0.297   1.599
10560SOL     OW32578   4.753   0.124   3.143
10560SOL    HW132579   4.730   0.115   3.046
10560SOL    HW232580   4.770   0.033   3.182
10561SOL     OW32581   3.657   4.430   1.725
10561SOL    HW132582   3.739   4.462   1.678
10561SOL    HW232583   3.608   4.508   1.764
10562SOL     OW32584   4.236   5.480   0.183
10562SOL    HW132585   4.194   5.560   0.141
10562SOL    HW232586   4.328   5.503   0.215
10563SOL     OW32587   0.834   0.927   2.353
10563SOL    HW132588   0.799   0.986   2.425
10563SOL    HW232589   0.917   0.966   2.315
10564SOL     OW32590   5.476   6.459   3.778
10564SOL    HW132591   5.447   6.415   3.862
10564SOL    HW232592   5.572   6.438   3.760
10565SOL     OW32593   6.814   6.315   5.737
10565SOL    HW132594   6.744   6.344   5.673
10565SOL    HW232595   6.889   6.271   5.688
10566SOL     OW32596   3.714   1.803   6.266
10566SOL    HW132597   3.762   1.717   6.284
10566SOL    HW232598   3.648   1.791   6.192
10567SOL     OW32599   2.003   2.549   5.755
10567SOL    HW132600   1.940   2.539   5.832
10567SOL    HW232601   2.050   2.462   5.739
10568SOL     OW32602   6.396   3.096   0.545
10568SOL    HW132603   6.385   3.037   0.625
10568SOL    HW232604   6.330   3.171   0.550
10569SOL     OW32605   5.778   0.952   2.322
10569SOL    HW132606   5.762   0.924   2.228
10569SOL    HW232607   5.835   0.884   2.368
10570SOL     OW32608   1.581   4.538   3.578
10570SOL    HW132609   1.647   4.493   3.638
10570SOL    HW232610   1.537   4.469   3.519
10571SOL     OW32611   0.047   4.734   5.080
10571SOL    HW132612   0.049   4.678   4.997
10571SOL    HW232613   0.077   4.678   5.158
10572SOL     OW32614   6.707   4.480   2.528
10572SOL    HW132615   6.619   4.448   2.494
10572SOL    HW232616   6.694   4.567   2.575
10573SOL     OW32617   5.202   0.662   4.974
10573SOL    HW132618   5.278   0.644   4.912
10573SOL    HW232619   5.181   0.760   4.973
10574SOL     OW32620   0.979   1.527   4.075
10574SOL    HW132621   0.983   1.562   4.169
10574SOL    HW232622   0.966   1.428   4.078
10575SOL     OW32623   0.063   0.690   3.865
10575SOL    HW132624   0.029   0.597   3.853
10575SOL    HW232625   7.014   0.756   3.835
10576SOL     OW32626   0.824   5.957   4.183
10576SOL    HW132627   0.890   5.946   4.256
10576SOL    HW232628   0.803   5.867   4.143
10577SOL     OW32629   1.897   4.482   0.429
10577SOL    HW132630   1.932   4.390   0.442
10577SOL    HW232631   1.870   4.521   0.517
10578SOL     OW32632   3.885   1.451   3.168
10578SOL    HW132633   3.858   1.385   3.098
10578SOL    HW232634   3.853   1.420   3.257
10579SOL     OW32635   4.053   2.804   1.688
10579SOL    HW132636   3.956   2.779   1.690
10579SOL    HW232637   4.107   2.726   1.654
10580SOL     OW32638   6.547   6.711   6.286
10580SOL    HW132639   6.503   6.790   6.328
10580SOL    HW232640   6.502   6.627   6.317
10581SOL     OW32641   5.834   0.411   3.381
10581SOL    HW132642   5.763   0.361   3.332
10581SOL    HW232643   5.918   0.413   3.327
10582SOL     OW32644   4.313   5.103   6.118
10582SOL    HW132645   4.322   5.078   6.214
10582SOL    HW232646   4.373   5.046   6.063
10583SOL     OW32647   4.587   0.988   3.874
10583SOL    HW132648   4.661   0.955   3.933
10583SOL    HW232649   4.544   1.067   3.917
10584SOL     OW32650   6.272   0.220   0.423
10584SOL    HW132651   6.253   0.240   0.519
10584SOL    HW232652   6.328   0.137   0.417
10585SOL     OW32653   2.904   1.809   5.426
10585SOL    HW132654   2.974   1.817   5.355
10585SOL    HW232655   2.944   1.764   5.506
10586SOL     OW32656   5.524   4.853   5.720
10586SOL    HW132657   5.449   4.792   5.693
10586SOL    HW232658   5.611   4.804   5.715
10587SOL     OW32659   6.922   5.419   6.669
10587SOL    HW132660   6.987   5.493   6.654
10587SOL    HW232661   6.829   5.455   6.669
10588SOL     OW32662   1.642   2.079   5.006
10588SOL    HW132663   1.652   2.107   4.911
10588SOL    HW232664   1.730   2.045   5.040
10589SOL     OW32665   5.269   0.883   4.588
10589SOL    HW132666   5.238   0.939   4.664
10589SOL    HW232667   5.338   0.932   4.535
10590SOL     OW32668   0.349   0.242   0.369
10590SOL    HW132669   0.278   0.175   0.391
10590SOL    HW232670   0.383   0.283   0.454
10591SOL     OW32671   2.555   2.198   0.061
10591SOL    HW132672   2.617   2.268   0.095
10591SOL    HW232673   2.602   2.110   0.056
10592SOL     OW32674   5.577   3.762   3.817
10592SOL    HW132675   5.610   3.849   3.854
10592SOL    HW232676   5.651   3.695   3.820
10593SOL     OW32677   2.969   6.021   1.070
10593SOL    HW132678   2.889   5.966   1.043
10593SOL    HW232679   2.991   6.085   0.997
10594SOL     OW32680   4.785   1.817   2.251
10594SOL    HW132681   4.774   1.765   2.166
10594SOL    HW232682   4.882   1.838   2.264
10595SOL     OW32683   5.742   0.008   0.144
10595SOL    HW132684   5.789   6.946   0.175
10595SOL    HW232685   5.692   0.049   0.220
10596SOL     OW32686   4.117   0.910   0.261
10596SOL    HW132687   4.122   0.842   0.189
10596SOL    HW232688   4.116   1.002   0.220
10597SOL     OW32689   3.551   1.328   5.695
10597SOL    HW132690   3.502   1.336   5.782
10597SOL    HW232691   3.489   1.347   5.620
10598SOL     OW32692   3.543   2.726   0.038
10598SOL    HW132693   3.547   2.820   0.070
10598SOL    HW232694   3.624   2.677   0.068
10599SOL     OW32695   5.497   3.490   6.496
10599SOL    HW132696   5.556   3.558   6.453
10599SOL    HW232697   5.425   3.536   6.547
10600SOL     OW32698   3.265   2.565   1.690
10600SOL    HW132699   3.195   2.566   1.619
10600SOL    HW232700   3.307   2.474   1.695
10601SOL     OW32701   1.333   4.717   5.781
10601SOL    HW132702   1.391   4.642   5.815
10601SOL    HW232703   1.373   4.804   5.809
10602SOL     OW32704   1.133   1.230   1.184
10602SOL    HW132705   1.090   1.291   1.118
10602SOL    HW232706   1.212   1.276   1.225
10603SOL     OW32707   4.399   6.988   3.201
10603SOL    HW132708   4.450   6.936   3.270
10603SOL    HW232709   4.388   0.062   3.232
10604SOL     OW32710   6.053   4.988   5.321
10604SOL    HW132711   6.121   5.047   5.277
10604SOL    HW232712   5.961   5.023   5.302
10605SOL     OW32713   2.218   6.192   0.095
10605SOL    HW132714   2.141   6.152   0.046
10605SOL    HW232715   2.289   6.123   0.107
10606SOL     OW32716   0.386   0.566   0.634
10606SOL    HW132717   0.321   0.627   0.589
10606SOL    HW232718   0.376   0.575   0.733
10607SOL     OW32719   4.218   4.593   6.867
10607SOL    HW132720   4.265   4.637   6.943
10607SOL    HW232721   4.256   4.501   6.854
10608SOL     OW32722   0.145   4.088   4.405
10608SOL    HW132723   0.201   4.170   4.402
10608SOL    HW232724   0.177   4.028   4.478
10609SOL     OW32725   3.116   6.957   6.778
10609SOL    HW132726   3.045   7.019   6.745
10609SOL    HW232727   3.074   6.886   6.834
10610SOL     OW32728   0.569   2.251   3.719
10610SOL    HW132729   0.588   2.190   3.642
10610SOL    HW232730   0.496   2.212   3.776
10611SOL     OW32731   2.767   4.374   6.478
10611SOL    HW132732   2.766   4.299   6.412
10611SOL    HW232733   2.852   4.371   6.531
10612SOL     OW32734   4.613   1.917   4.264
10612SOL    HW132735   4.565   1.941   4.348
10612SOL    HW232736   4.698   1.869   4.286
10613SOL     OW32737   5.967   5.977   5.796
10613SOL    HW132738   6.057   6.005   5.828
10613SOL    HW232739   5.963   5.984   5.697
10614SOL     OW32740   4.782   1.465   4.098
10614SOL    HW132741   4.872   1.464   4.141
10614SOL    HW232742   4.780   1.397   4.024
10615SOL     OW32743   3.411   1.025   6.293
10615SOL    HW132744   3.451   1.083   6.364
10615SOL    HW232745   3.364   0.948   6.335
10616SOL     OW32746   2.520   6.602   6.748
10616SOL    HW132747   2.527   6.702   6.750
10616SOL    HW232748   2.430   6.575   6.781
10617SOL     OW32749   3.191   4.029   1.482
10617SOL    HW132750   3.119   4.097   1.469
10617SOL    HW232751   3.174   3.951   1.422
10618SOL     OW32752   1.309   4.380   5.929
10618SOL    HW132753   1.392   4.434   5.935
10618SOL    HW232754   1.231   4.439   5.908
10619SOL     OW32755   0.119   2.708   3.562
10619SOL    HW132756   0.071   2.620   3.562
10619SOL    HW232757   0.073   2.771   3.499
10620SOL     OW32758   1.097   0.027   4.698
10620SOL    HW132759   1.003   0.020   4.732
10620SOL    HW232760   1.154   6.979   4.744
10621SOL     OW32761   0.942   4.813   1.746
10621SOL    HW132762   1.008   4.849   1.812
10621SOL    HW232763   0.989   4.793   1.660
10622SOL     OW32764   4.624   1.809   2.467
10622SOL    HW132765   4.687   1.818   2.390
10622SOL    HW232766   4.666   1.753   2.538
10623SOL     OW32767   6.887   5.290   6.109
10623SOL    HW132768   6.837   5.373   6.086
10623SOL    HW232769   6.843   5.211   6.066
10624SOL     OW32770   0.444   2.746   5.499
10624SOL    HW132771   0.429   2.800   5.416
10624SOL    HW232772   0.363   2.691   5.519
10625SOL     OW32773   0.941   4.230   1.229
10625SOL    HW132774   0.851   4.196   1.203
10625SOL    HW232775   0.962   4.203   1.323
10626SOL     OW32776   3.643   2.826   0.837
10626SOL    HW132777   3.654   2.798   0.741
10626SOL    HW232778   3.598   2.753   0.888
10627SOL     OW32779   5.713   1.918   0.103
10627SOL    HW132780   5.674   2.002   0.065
10627SOL    HW232781   5.763   1.869   0.031
10628SOL     OW32782   4.689   6.419   0.981
10628SOL    HW132783   4.701   6.370   0.894
10628SOL    HW232784   4.592   6.437   0.996
10629SOL     OW32785   2.711   5.091   4.453
10629SOL    HW132786   2.613   5.072   4.450
10629SOL    HW232787   2.760   5.023   4.399
10630SOL     OW32788   6.768   1.981   2.780
10630SOL    HW132789   6.727   2.060   2.735
10630SOL    HW232790   6.723   1.897   2.748
10631SOL     OW32791   4.004   4.869   4.934
10631SOL    HW132792   4.010   4.831   5.026
10631SOL    HW232793   3.915   4.912   4.921
10632SOL     OW32794   5.593   6.517   3.073
10632SOL    HW132795   5.666   6.464   3.116
10632SOL    HW232796   5.542   6.566   3.144
10633SOL     OW32797   2.703   2.537   1.502
10633SOL    HW132798   2.642   2.547   1.580
10633SOL    HW232799   2.707   2.441   1.473
10634SOL     OW32800   2.364   4.599   0.576
10634SOL    HW132801   2.328   4.582   0.668
10634SOL    HW232802   2.376   4.697   0.562
10635SOL     OW32803   1.994   3.699   6.965
10635SOL    HW132804   2.048   3.721   6.884
10635SOL    HW232805   1.913   3.647   6.939
10636SOL     OW32806   0.583   1.943   0.849
10636SOL    HW132807   0.600   1.992   0.764
10636SOL    HW232808   0.670   1.924   0.894
10637SOL     OW32809   0.828   4.855   5.910
10637SOL    HW132810   0.805   4.767   5.868
10637SOL    HW232811   0.805   4.929   5.847
10638SOL     OW32812   5.632   5.871   2.839
10638SOL    HW132813   5.645   5.963   2.802
10638SOL    HW232814   5.540   5.863   2.877
10639SOL     OW32815   1.054   3.885   3.137
10639SOL    HW132816   1.070   3.921   3.229
10639SOL    HW232817   1.134   3.903   3.080
10640SOL     OW32818   4.840   0.119   3.606
10640SOL    HW132819   4.892   0.179   3.668
10640SOL    HW232820   4.898   0.044   3.576
10641SOL     OW32821   2.501   1.766   2.338
10641SOL    HW132822   2.408   1.749   2.307
10641SOL    HW232823   2.506   1.752   2.437
10642SOL     OW32824   6.516   1.786   0.774
10642SOL    HW132825   6.603   1.833   0.788
10642SOL    HW232826   6.467   1.779   0.861
10643SOL     OW32827   2.356   5.677   4.367
10643SOL    HW132828   2.303   5.751   4.326
10643SOL    HW232829   2.319   5.656   4.458
10644SOL     OW32830   5.810   2.818   1.237
10644SOL    HW132831   5.722   2.865   1.246
10644SOL    HW232832   5.820   2.752   1.311
10645SOL     OW32833   1.942   2.461   4.445
10645SOL    HW132834   1.919   2.449   4.349
10645SOL    HW232835   2.041   2.465   4.456
10646SOL     OW32836   0.279   6.721   5.769
10646SOL    HW132837   0.348   6.660   5.806
10646SOL    HW232838   0.307   6.753   5.678
10647SOL     OW32839   3.185   5.689   4.498
10647SOL    HW132840   3.087   5.689   4.477
10647SOL    HW232841   3.237   5.687   4.413
10648SOL     OW32842   5.789   4.683   6.212
10648SOL    HW132843   5.702   4.665   6.259
10648SOL    HW232844   5.863   4.685   6.279
10649SOL     OW32845   0.739   4.268   2.812
10649SOL    HW132846   0.793   4.220   2.881
10649SOL    HW232847   0.698   4.350   2.853
10650SOL     OW32848   0.807   0.218   3.982
10650SOL    HW132849   0.871   0.145   3.960
10650SOL    HW232850   0.754   0.241   3.900
10651SOL     OW32851   6.071   6.716   6.952
10651SOL    HW132852   6.013   6.679   0.005
10651SOL    HW232853   6.160   6.672   6.955
10652SOL     OW32854   3.007   6.220   5.786
10652SOL    HW132855   2.975   6.126   5.793
10652SOL    HW232856   2.954   6.278   5.849
10653SOL     OW32857   4.415   5.794   4.737
10653SOL    HW132858   4.415   5.773   4.835
10653SOL    HW232859   4.500   5.839   4.712
10654SOL     OW32860   4.983   0.501   6.893
10654SOL    HW132861   5.046   0.423   6.904
10654SOL    HW232862   4.895   0.468   6.859
10655SOL     OW32863   2.115   5.653   0.227
10655SOL    HW132864   2.046   5.654   0.299
10655SOL    HW232865   2.080   5.701   0.146
10656SOL     OW32866   0.347   1.755   2.446
10656SOL    HW132867   0.373   1.695   2.371
10656SOL    HW232868   0.280   1.822   2.413
10657SOL     OW32869   5.801   0.170   5.310
10657SOL    HW132870   5.720   0.176   5.252
10657SOL    HW232871   5.777   0.194   5.404
10658SOL     OW32872   6.764   4.827   4.610
10658SOL    HW132873   6.764   4.745   4.554
10658SOL    HW232874   6.670   4.847   4.640
10659SOL     OW32875   0.794   5.727   0.966
10659SOL    HW132876   0.733   5.781   0.908
10659SOL    HW232877   0.880   5.777   0.979
10660SOL     OW32878   5.119   3.962   6.411
10660SOL    HW132879   5.107   4.039   6.349
10660SOL    HW232880   5.033   3.911   6.418
10661SOL     OW32881   0.959   6.947   1.547
10661SOL    HW132882   1.024   7.008   1.591
10661SOL    HW232883   0.912   6.996   1.473
10662SOL     OW32884   5.031   0.771   2.236
10662SOL    HW132885   4.951   0.721   2.269
10662SOL    HW232886   5.109   0.753   2.296
10663SOL     OW32887   0.704   1.825   2.520
10663SOL    HW132888   0.696   1.772   2.436
10663SOL    HW232889   0.705   1.763   2.599
10664SOL     OW32890   5.957   4.082   5.016
10664SOL    HW132891   5.929   3.986   5.027
10664SOL    HW232892   5.877   4.141   5.022
10665SOL     OW32893   0.984   1.940   0.119
10665SOL    HW132894   1.077   1.907   0.136
10665SOL    HW232895   0.922   1.862   0.115
10666SOL     OW32896   3.566   3.482   1.792
10666SOL    HW132897   3.569   3.550   1.865
10666SOL    HW232898   3.490   3.419   1.807
10667SOL     OW32899   4.789   2.789   3.972
10667SOL    HW132900   4.767   2.740   3.887
10667SOL    HW232901   4.719   2.769   4.040
10668SOL     OW32902   2.680   1.016   5.296
10668SOL    HW132903   2.738   0.940   5.326
10668SOL    HW232904   2.685   1.026   5.197
10669SOL     OW32905   5.563   0.373   1.617
10669SOL    HW132906   5.521   0.463   1.620
10669SOL    HW232907   5.556   0.330   1.707
10670SOL     OW32908   5.696   4.885   5.182
10670SOL    HW132909   5.730   4.952   5.116
10670SOL    HW232910   5.632   4.931   5.244
10671SOL     OW32911   2.418   2.016   3.631
10671SOL    HW132912   2.516   2.032   3.647
10671SOL    HW232913   2.368   2.102   3.645
10672SOL     OW32914   6.723   3.862   1.398
10672SOL    HW132915   6.624   3.859   1.413
10672SOL    HW232916   6.769   3.866   1.487
10673SOL     OW32917   0.685   0.552   6.719
10673SOL    HW132918   0.728   0.618   6.657
10673SOL    HW232919   0.647   0.601   6.798
10674SOL     OW32920   4.027   3.879   2.755
10674SOL    HW132921   4.073   3.899   2.668
10674SOL    HW232922   4.047   3.785   2.782
10675SOL     OW32923   1.793   6.741   6.954
10675SOL    HW132924   1.885   6.702   6.954
10675SOL    HW232925   1.735   6.689   7.017
10676SOL     OW32926   6.325   5.886   5.770
10676SOL    HW132927   6.262   5.847   5.703
10676SOL    HW232928   6.273   5.931   5.843
10677SOL     OW32929   1.777   1.118   1.154
10677SOL    HW132930   1.858   1.165   1.188
10677SOL    HW232931   1.707   1.115   1.226
10678SOL     OW32932   4.489   5.277   3.966
10678SOL    HW132933   4.585   5.302   3.955
10678SOL    HW232934   4.482   5.192   4.019
10679SOL     OW32935   4.518   5.642   6.581
10679SOL    HW132936   4.607   5.665   6.621
10679SOL    HW232937   4.450   5.630   6.653
10680SOL     OW32938   3.948   1.615   4.438
10680SOL    HW132939   3.971   1.590   4.532
10680SOL    HW232940   3.966   1.713   4.424
10681SOL     OW32941   0.874   3.814   0.881
10681SOL    HW132942   0.784   3.776   0.902
10681SOL    HW232943   0.911   3.768   0.800
10682SOL     OW32944   0.486   1.174   5.442
10682SOL    HW132945   0.397   1.203   5.478
10682SOL    HW232946   0.534   1.121   5.512
10683SOL     OW32947   4.033   1.871   4.125
10683SOL    HW132948   4.002   1.840   4.035
10683SOL    HW232949   4.043   1.970   4.125
10684SOL     OW32950   5.145   4.949   3.047
10684SOL    HW132951   5.139   4.856   3.013
10684SOL    HW232952   5.093   5.010   2.988
10685SOL     OW32953   0.902   5.646   1.927
10685SOL    HW132954   0.893   5.702   2.009
10685SOL    HW232955   0.819   5.592   1.914
10686SOL     OW32956   0.727   4.638   5.789
10686SOL    HW132957   0.772   4.549   5.793
10686SOL    HW232958   0.630   4.626   5.765
10687SOL     OW32959   5.470   5.885   3.586
10687SOL    HW132960   5.515   5.797   3.601
10687SOL    HW232961   5.375   5.870   3.559
10688SOL     OW32962   6.116   3.733   2.172
10688SOL    HW132963   6.121   3.809   2.238
10688SOL    HW232964   6.203   3.725   2.124
10689SOL     OW32965   0.074   6.125   3.533
10689SOL    HW132966   0.070   6.156   3.438
10689SOL    HW232967   7.002   6.101   3.564
10690SOL     OW32968   6.750   5.798   4.235
10690SOL    HW132969   6.783   5.763   4.148
10690SOL    HW232970   6.793   5.887   4.253
10691SOL     OW32971   0.760   2.512   2.166
10691SOL    HW132972   0.665   2.497   2.192
10691SOL    HW232973   0.820   2.483   2.241
10692SOL     OW32974   3.316   6.153   3.454
10692SOL    HW132975   3.357   6.105   3.377
10692SOL    HW232976   3.386   6.204   3.503
10693SOL     OW32977   1.966   6.047   0.025
10693SOL    HW132978   2.028   5.969   0.018
10693SOL    HW232979   1.898   6.031   0.096
10694SOL     OW32980   5.462   0.079   1.725
10694SOL    HW132981   5.442   7.006   1.694
10694SOL    HW232982   5.379   0.135   1.721
10695SOL     OW32983   0.362   2.456   2.343
10695SOL    HW132984   0.397   2.549   2.351
10695SOL    HW232985   0.262   2.457   2.348
10696SOL     OW32986   0.610   4.049   3.756
10696SOL    HW132987   0.698   4.013   3.787
10696SOL    HW232988   0.540   3.978   3.767
10697SOL     OW32989   6.644   5.736   5.058
10697SOL    HW132990   6.672   5.643   5.082
10697SOL    HW232991   6.707   5.802   5.098
10698SOL     OW32992   5.067   4.606   6.529
10698SOL    HW132993   5.126   4.529   6.555
10698SOL    HW232994   5.038   4.655   6.612
10699SOL     OW32995   4.089   3.900   1.859
10699SOL    HW132996   3.998   3.931   1.887
10699SOL    HW232997   4.139   3.976   1.818
10700SOL     OW32998   6.635   6.591   0.903
10700SOL    HW132999   6.568   6.560   0.970
10700SOL    HW233000   6.599   6.578   0.811
10701SOL     OW33001   3.467   6.382   0.172
10701SOL    HW133002   3.527   6.456   0.142
10701SOL    HW233003   3.409   6.353   0.096
10702SOL     OW33004   5.641   2.520   1.501
10702SOL    HW133005   5.716   2.584   1.487
10702SOL    HW233006   5.634   2.458   1.423
10703SOL     OW33007   3.089   3.110   5.096
10703SOL    HW133008   3.170   3.113   5.155
10703SOL    HW233009   3.015   3.163   5.138
10704SOL     OW33010   6.134   6.039   1.794
10704SOL    HW133011   6.176   5.951   1.772
10704SOL    HW233012   6.198   6.095   1.846
10705SOL     OW33013   5.979   4.388   2.350
10705SOL    HW133014   5.964   4.298   2.310
10705SOL    HW233015   5.892   4.435   2.362
10706SOL     OW33016   5.252   6.940   1.914
10706SOL    HW133017   5.215   7.010   1.976
10706SOL    HW233018   5.177   6.894   1.867
10707SOL     OW33019   0.170   6.814   4.463
10707SOL    HW133020   0.225   6.736   4.434
10707SOL    HW233021   0.105   6.838   4.391
10708SOL     OW33022   4.098   0.620   2.196
10708SOL    HW133023   4.030   0.652   2.131
10708SOL    HW233024   4.065   0.636   2.289
10709SOL     OW33025   5.948   6.232   5.490
10709SOL    HW133026   6.011   6.287   5.436
10709SOL    HW233027   5.912   6.288   5.565
10710SOL     OW33028   0.027   0.123   4.442
10710SOL    HW133029   0.040   0.058   4.367
10710SOL    HW233030   6.984   0.084   4.509
10711SOL     OW33031   1.619   6.258   4.054
10711SOL    HW133032   1.598   6.302   3.967
10711SOL    HW233033   1.536   6.216   4.091
10712SOL     OW33034   3.284   0.886   1.706
10712SOL    HW133035   3.192   0.905   1.674
10712SOL    HW233036   3.291   0.791   1.736
10713SOL     OW33037   0.307   3.525   1.507
10713SOL    HW133038   0.351   3.444   1.468
10713SOL    HW233039   0.309   3.519   1.606
10714SOL     OW33040   6.176   4.382   5.086
10714SOL    HW133041   6.249   4.419   5.029
10714SOL    HW233042   6.088   4.415   5.053
10715SOL     OW33043   5.261   0.903   2.521
10715SOL    HW133044   5.249   0.825   2.460
10715SOL    HW233045   5.217   0.883   2.609
10716SOL     OW33046   5.856   2.404   4.109
10716SOL    HW133047   5.884   2.357   4.025
10716SOL    HW233048   5.831   2.498   4.088
10717SOL     OW33049   0.937   2.155   1.020
10717SOL    HW133050   0.875   2.233   1.025
10717SOL    HW233051   0.884   2.070   1.020
10718SOL     OW33052   1.396   2.902   6.421
10718SOL    HW133053   1.418   2.955   6.339
10718SOL    HW233054   1.440   2.812   6.415
10719SOL     OW33055   6.245   5.823   2.233
10719SOL    HW133056   6.302   5.893   2.275
10719SOL    HW233057   6.175   5.794   2.298
10720SOL     OW33058   0.379   4.359   4.663
10720SOL    HW133059   0.347   4.418   4.737
10720SOL    HW233060   0.342   4.267   4.676
10721SOL     OW33061   5.560   4.256   4.491
10721SOL    HW133062   5.508   4.239   4.407
10721SOL    HW233063   5.506   4.229   4.570
10722SOL     OW33064   1.307   4.948   0.781
10722SOL    HW133065   1.256   5.033   0.769
10722SOL    HW233066   1.284   4.884   0.707
10723SOL     OW33067   0.739   3.957   6.436
10723SOL    HW133068   0.820   4.015   6.443
10723SOL    HW233069   0.754   3.872   6.487
10724SOL     OW33070   5.565   1.224   6.898
10724SOL    HW133071   5.623   1.183   6.828
10724SOL    HW233072   5.570   1.170   6.982
10725SOL     OW33073   0.919   4.934   4.938
10725SOL    HW133074   0.934   5.025   4.901
10725SOL    HW233075   0.851   4.938   5.011
10726SOL     OW33076   5.046   0.478   5.449
10726SOL    HW133077   5.114   0.535   5.403
10726SOL    HW233078   4.961   0.478   5.396
10727SOL     OW33079   0.074   5.116   4.778
10727SOL    HW133080   0.076   5.058   4.860
10727SOL    HW233081   0.111   5.206   4.800
10728SOL     OW33082   6.922   6.329   0.569
10728SOL    HW133083   6.919   6.262   0.495
10728SOL    HW233084   6.840   6.386   0.565
10729SOL     OW33085   5.263   1.592   2.024
10729SOL    HW133086   5.299   1.571   1.932
10729SOL    HW233087   5.337   1.582   2.091
10730SOL     OW33088   1.989   0.241   1.860
10730SOL    HW133089   1.952   0.176   1.926
10730SOL    HW233090   1.982   0.334   1.896
10731SOL     OW33091   3.282   6.307   0.509
10731SOL    HW133092   3.312   6.375   0.576
10731SOL    HW233093   3.200   6.261   0.543
10732SOL     OW33094   5.144   4.565   3.284
10732SOL    HW133095   5.115   4.625   3.358
10732SOL    HW233096   5.182   4.481   3.322
10733SOL     OW33097   6.076   2.632   6.690
10733SOL    HW133098   6.117   2.673   6.771
10733SOL    HW233099   5.996   2.685   6.663
10734SOL     OW33100   1.148   0.544   6.461
10734SOL    HW133101   1.068   0.604   6.455
10734SOL    HW233102   1.126   0.456   6.419
10735SOL     OW33103   1.509   3.626   2.732
10735SOL    HW133104   1.493   3.550   2.670
10735SOL    HW233105   1.440   3.626   2.804
10736SOL     OW33106   0.818   6.982   3.476
10736SOL    HW133107   0.830   6.902   3.419
10736SOL    HW233108   0.814   6.955   3.572
10737SOL     OW33109   1.818   2.083   6.936
10737SOL    HW133110   1.785   2.171   6.903
10737SOL    HW233111   1.753   2.045   7.002
10738SOL     OW33112   2.494   0.447   3.753
10738SOL    HW133113   2.428   0.423   3.825
10738SOL    HW233114   2.531   0.363   3.713
10739SOL     OW33115   0.566   1.408   0.835
10739SOL    HW133116   0.559   1.315   0.800
10739SOL    HW233117   0.576   1.472   0.759
10740SOL     OW33118   0.366   5.010   5.355
10740SOL    HW133119   0.299   5.085   5.362
10740SOL    HW233120   0.322   4.929   5.318
10741SOL     OW33121   0.169   6.917   2.379
10741SOL    HW133122   0.196   6.828   2.344
10741SOL    HW233123   0.173   6.916   2.479
10742SOL     OW33124   6.082   0.992   2.002
10742SOL    HW133125   6.158   0.947   1.956
10742SOL    HW233126   5.997   0.971   1.955
10743SOL     OW33127   3.240   2.194   5.403
10743SOL    HW133128   3.333   2.214   5.433
10743SOL    HW233129   3.225   2.233   5.312
10744SOL     OW33130   3.616   0.550   1.842
10744SOL    HW133131   3.677   0.580   1.916
10744SOL    HW233132   3.659   0.572   1.754
10745SOL     OW33133   0.861   5.082   0.505
10745SOL    HW133134   0.813   5.163   0.539
10745SOL    HW233135   0.851   5.076   0.406
10746SOL     OW33136   1.843   3.764   1.228
10746SOL    HW133137   1.826   3.692   1.161
10746SOL    HW233138   1.798   3.848   1.198
10747SOL     OW33139   4.403   0.808   3.110
10747SOL    HW133140   4.371   0.718   3.140
10747SOL    HW233141   4.502   0.813   3.121
10748SOL     OW33142   3.976   0.830   1.692
10748SOL    HW133143   3.892   0.804   1.645
10748SOL    HW233144   4.049   0.765   1.667
10749SOL     OW33145   6.694   4.962   3.429
10749SOL    HW133146   6.648   5.041   3.468
10749SOL    HW233147   6.768   4.992   3.368
10750SOL     OW33148   4.604   5.987   4.610
10750SOL    HW133149   4.657   5.911   4.573
10750SOL    HW233150   4.659   6.038   4.676
10751SOL     OW33151   1.332   4.676   4.195
10751SOL    HW133152   1.417   4.625   4.189
10751SOL    HW233153   1.255   4.616   4.174
10752SOL     OW33154   5.850   4.276   6.404
10752SOL    HW133155   5.909   4.315   6.334
10752SOL    HW233156   5.819   4.185   6.375
10753SOL     OW33157   4.171   6.601   4.016
10753SOL    HW133158   4.137   6.652   3.937
10753SOL    HW233159   4.267   6.624   4.032
10754SOL     OW33160   1.473   1.575   3.555
10754SOL    HW133161   1.554   1.633   3.554
10754SOL    HW233162   1.501   1.479   3.559
10755SOL     OW33163   0.387   1.440   6.652
10755SOL    HW133164   0.337   1.474   6.731
10755SOL    HW233165   0.383   1.507   6.578
10756SOL     OW33166   6.758   3.747   0.473
10756SOL    HW133167   6.754   3.812   0.549
10756SOL    HW233168   6.749   3.654   0.508
10757SOL     OW33169   1.184   2.857   0.474
10757SOL    HW133170   1.141   2.947   0.483
10757SOL    HW233171   1.247   2.857   0.396
10758SOL     OW33172   0.853   6.747   4.652
10758SOL    HW133173   0.829   6.805   4.574
10758SOL    HW233174   0.772   6.732   4.708
10759SOL     OW33175   1.661   3.094   6.932
10759SOL    HW133176   1.603   3.156   6.985
10759SOL    HW233177   1.613   3.065   6.849
10760SOL     OW33178   6.113   1.868   0.951
10760SOL    HW133179   6.062   1.816   1.019
10760SOL    HW233180   6.070   1.859   0.861
10761SOL     OW33181   0.739   1.657   6.126
10761SOL    HW133182   0.824   1.642   6.176
10761SOL    HW233183   0.719   1.578   6.069
10762SOL     OW33184   4.146   2.244   4.728
10762SOL    HW133185   4.089   2.318   4.765
10762SOL    HW233186   4.101   2.156   4.745
10763SOL     OW33187   4.585   6.474   1.823
10763SOL    HW133188   4.495   6.507   1.851
10763SOL    HW233189   4.623   6.537   1.754
10764SOL     OW33190   5.464   1.986   5.942
10764SOL    HW133191   5.406   1.906   5.928
10764SOL    HW233192   5.480   1.999   6.040
10765SOL     OW33193   5.659   2.913   0.602
10765SOL    HW133194   5.638   2.823   0.640
10765SOL    HW233195   5.596   2.981   0.639
10766SOL     OW33196   4.943   3.155   1.087
10766SOL    HW133197   5.023   3.095   1.092
10766SOL    HW233198   4.863   3.102   1.059
10767SOL     OW33199   0.777   0.498   0.314
10767SOL    HW133200   0.800   0.583   0.267
10767SOL    HW233201   0.736   0.520   0.403
10768SOL     OW33202   4.549   4.246   0.891
10768SOL    HW133203   4.479   4.293   0.838
10768SOL    HW233204   4.600   4.183   0.832
10769SOL     OW33205   2.511   4.708   4.686
10769SOL    HW133206   2.605   4.723   4.656
10769SOL    HW233207   2.458   4.669   4.612
10770SOL     OW33208   5.596   0.181   5.140
10770SOL    HW133209   5.547   0.268   5.126
10770SOL    HW233210   5.585   0.123   5.059
10771SOL     OW33211   4.951   1.089   3.038
10771SOL    HW133212   4.994   1.062   3.125
10771SOL    HW233213   4.993   1.174   3.005
10772SOL     OW33214   0.156   0.234   4.706
10772SOL    HW133215   0.230   0.296   4.729
10772SOL    HW233216   0.162   0.209   4.609
10773SOL     OW33217   6.810   5.732   0.070
10773SOL    HW133218   6.866   5.720   7.008
10773SOL    HW233219   6.782   5.643   0.106
10774SOL     OW33220   1.334   1.195   6.780
10774SOL    HW133221   1.348   1.252   6.861
10774SOL    HW233222   1.380   1.237   6.702
10775SOL     OW33223   0.652   3.715   0.991
10775SOL    HW133224   0.579   3.760   0.938
10775SOL    HW233225   0.619   3.696   1.083
10776SOL     OW33226   1.373   6.164   6.447
10776SOL    HW133227   1.344   6.230   6.516
10776SOL    HW233228   1.371   6.207   6.357
10777SOL     OW33229   3.780   6.008   2.865
10777SOL    HW133230   3.775   6.101   2.828
10777SOL    HW233231   3.697   5.988   2.917
10778SOL     OW33232   5.499   6.669   5.005
10778SOL    HW133233   5.400   6.664   5.016
10778SOL    HW233234   5.526   6.621   4.922
10779SOL     OW33235   6.438   4.996   3.477
10779SOL    HW133236   6.410   4.940   3.554
10779SOL    HW233237   6.505   4.946   3.422
10780SOL     OW33238   1.508   0.413   3.647
10780SOL    HW133239   1.419   0.442   3.610
10780SOL    HW233240   1.557   0.361   3.577
10781SOL     OW33241   4.096   0.664   3.437
10781SOL    HW133242   4.166   0.713   3.489
10781SOL    HW233243   4.119   0.567   3.434
10782SOL     OW33244   6.093   2.360   2.515
10782SOL    HW133245   6.093   2.334   2.612
10782SOL    HW233246   6.004   2.341   2.475
10783SOL     OW33247   0.767   3.316   3.143
10783SOL    HW133248   0.814   3.391   3.190
10783SOL    HW233249   0.826   3.279   3.071
10784SOL     OW33250   3.549   0.845   4.126
10784SOL    HW133251   3.562   0.747   4.109
10784SOL    HW233252   3.537   0.861   4.224
10785SOL     OW33253   6.948   5.433   1.946
10785SOL    HW133254   7.003   5.350   1.955
10785SOL    HW233255   6.977   5.483   1.864
10786SOL     OW33256   5.085   4.677   2.763
10786SOL    HW133257   5.102   4.670   2.861
10786SOL    HW233258   5.131   4.758   2.727
10787SOL     OW33259   2.388   1.741   4.579
10787SOL    HW133260   2.320   1.814   4.582
10787SOL    HW233261   2.362   1.667   4.641
10788SOL     OW33262   2.276   5.416   6.226
10788SOL    HW133263   2.362   5.366   6.218
10788SOL    HW233264   2.221   5.377   6.299
10789SOL     OW33265   6.266   2.773   6.539
10789SOL    HW133266   6.294   2.854   6.591
10789SOL    HW233267   6.215   2.711   6.598
10790SOL     OW33268   1.375   1.162   2.185
10790SOL    HW133269   1.438   1.220   2.238
10790SOL    HW233270   1.376   1.069   2.222
10791SOL     OW33271   0.719   6.768   6.922
10791SOL    HW133272   0.688   6.831   6.992
10791SOL    HW233273   0.640   6.725   6.878
10792SOL     OW33274   3.405   3.321   3.494
10792SOL    HW133275   3.397   3.418   3.518
10792SOL    HW233276   3.498   3.290   3.512
10793SOL     OW33277   5.862   3.491   4.352
10793SOL    HW133278   5.847   3.586   4.380
10793SOL    HW233279   5.783   3.460   4.298
10794SOL     OW33280   3.080   3.748   3.780
10794SOL    HW133281   3.082   3.842   3.816
10794SOL    HW233282   3.070   3.684   3.856
10795SOL     OW33283   6.761   4.128   2.515
10795SOL    HW133284   6.824   4.139   2.593
10795SOL    HW233285   6.712   4.214   2.500
10796SOL     OW33286   5.526   6.817   0.592
10796SOL    HW133287   5.469   6.832   0.511
10796SOL    HW233288   5.532   6.901   0.645
10797SOL     OW33289   4.096   1.860   1.536
10797SOL    HW133290   4.022   1.830   1.476
10797SOL    HW233291   4.089   1.959   1.551
10798SOL     OW33292   2.782   6.479   0.285
10798SOL    HW133293   2.716   6.494   0.359
10798SOL    HW233294   2.873   6.468   0.323
10799SOL     OW33295   4.000   0.623   2.486
10799SOL    HW133296   3.905   0.637   2.516
10799SOL    HW233297   4.062   0.660   2.555
10800SOL     OW33298   0.539   6.624   6.376
10800SOL    HW133299   0.545   6.719   6.344
10800SOL    HW233300   0.589   6.615   6.462
10801SOL     OW33301   0.234   6.144   6.354
10801SOL    HW133302   0.253   6.046   6.353
10801SOL    HW233303   0.142   6.161   6.321
10802SOL     OW33304   0.728   2.262   3.170
10802SOL    HW133305   0.825   2.285   3.172
10802SOL    HW233306   0.716   2.164   3.187
10803SOL     OW33307   3.080   4.159   5.756
10803SOL    HW133308   2.994   4.198   5.724
10803SOL    HW233309   3.079   4.152   5.856
10804SOL     OW33310   5.616   3.669   1.985
10804SOL    HW133311   5.559   3.595   2.021
10804SOL    HW233312   5.706   3.666   2.029
10805SOL     OW33313   3.956   0.289   7.014
10805SOL    HW133314   3.859   0.281   0.014
10805SOL    HW233315   3.983   0.220   6.948
10806SOL     OW33316   4.571   3.652   6.441
10806SOL    HW133317   4.636   3.580   6.415
10806SOL    HW233318   4.601   3.694   6.526
10807SOL     OW33319   1.138   6.740   2.254
10807SOL    HW133320   1.195   6.814   2.287
10807SOL    HW233321   1.184   6.652   2.270
10808SOL     OW33322   6.599   3.184   6.364
10808SOL    HW133323   6.671   3.244   6.331
10808SOL    HW233324   6.566   3.127   6.289
10809SOL     OW33325   3.076   5.871   3.828
10809SOL    HW133326   3.087   5.807   3.752
10809SOL    HW233327   3.109   5.962   3.801
10810SOL     OW33328   1.753   0.452   4.934
10810SOL    HW133329   1.752   0.368   4.988
10810SOL    HW233330   1.744   0.429   4.837
10811SOL     OW33331   4.048   4.336   5.711
10811SOL    HW133332   4.042   4.419   5.655
10811SOL    HW233333   4.123   4.278   5.678
10812SOL     OW33334   0.995   3.402   1.532
10812SOL    HW133335   0.909   3.400   1.481
10812SOL    HW233336   1.068   3.363   1.476
10813SOL     OW33337   1.980   5.085   6.695
10813SOL    HW133338   1.963   5.103   6.598
10813SOL    HW233339   2.033   5.160   6.734
10814SOL     OW33340   1.499   6.597   6.281
10814SOL    HW133341   1.485   6.693   6.257
10814SOL    HW233342   1.593   6.570   6.260
10815SOL     OW33343   4.210   4.747   3.605
10815SOL    HW133344   4.160   4.765   3.520
10815SOL    HW233345   4.249   4.654   3.602
10816SOL     OW33346   2.983   3.088   1.270
10816SOL    HW133347   3.038   3.171   1.279
10816SOL    HW233348   2.921   3.079   1.348
10817SOL     OW33349   4.820   6.596   2.853
10817SOL    HW133350   4.788   6.642   2.770
10817SOL    HW233351   4.913   6.625   2.874
10818SOL     OW33352   4.233   4.829   5.222
10818SOL    HW133353   4.238   4.921   5.183
10818SOL    HW233354   4.139   4.796   5.217
10819SOL     OW33355   6.380   4.575   6.968
10819SOL    HW133356   6.328   4.517   0.011
10819SOL    HW233357   6.324   4.599   6.889
10820SOL     OW33358   6.018   5.948   4.191
10820SOL    HW133359   5.983   5.944   4.284
10820SOL    HW233360   5.963   6.012   4.138
10821SOL     OW33361   5.675   0.288   2.039
10821SOL    HW133362   5.739   0.296   1.962
10821SOL    HW233363   5.585   0.319   2.010
10822SOL     OW33364   0.224   3.016   3.121
10822SOL    HW133365   0.148   3.059   3.073
10822SOL    HW233366   0.207   2.917   3.128
10823SOL     OW33367   1.457   6.223   1.401
10823SOL    HW133368   1.425   6.129   1.412
10823SOL    HW233369   1.393   6.286   1.444
10824SOL     OW33370   6.895   0.405   3.435
10824SOL    HW133371   6.871   0.317   3.476
10824SOL    HW233372   6.812   0.452   3.405
10825SOL     OW33373   2.442   0.913   6.860
10825SOL    HW133374   2.356   0.884   6.817
10825SOL    HW233375   2.423   0.990   6.921
10826SOL     OW33376   1.777   2.526   3.623
10826SOL    HW133377   1.760   2.580   3.540
10826SOL    HW233378   1.699   2.535   3.685
10827SOL     OW33379   6.297   3.803   4.570
10827SOL    HW133380   6.198   3.789   4.577
10827SOL    HW233381   6.328   3.774   4.480
10828SOL     OW33382   1.044   5.631   1.258
10828SOL    HW133383   0.977   5.570   1.215
10828SOL    HW233384   1.028   5.725   1.228
10829SOL     OW33385   3.899   2.023   1.316
10829SOL    HW133386   3.801   2.017   1.300
10829SOL    HW233387   3.946   2.039   1.229
10830SOL     OW33388   5.748   2.361   2.936
10830SOL    HW133389   5.724   2.443   2.987
10830SOL    HW233390   5.733   2.281   2.994
10831SOL     OW33391   3.337   5.662   2.271
10831SOL    HW133392   3.260   5.713   2.233
10831SOL    HW233393   3.379   5.715   2.344
10832SOL     OW33394   0.947   2.793   6.989
10832SOL    HW133395   1.024   2.755   0.019
10832SOL    HW233396   0.935   2.742   6.903
10833SOL     OW33397   1.728   1.061   1.986
10833SOL    HW133398   1.665   0.984   1.995
10833SOL    HW233399   1.733   1.089   1.890
10834SOL     OW33400   0.791   2.326   6.950
10834SOL    HW133401   0.813   2.234   6.919
10834SOL    HW233402   0.876   2.378   6.961
10835SOL     OW33403   6.206   1.941   6.809
10835SOL    HW133404   6.303   1.960   6.821
10835SOL    HW233405   6.154   2.025   6.822
10836SOL     OW33406   6.741   1.684   4.802
10836SOL    HW133407   6.754   1.783   4.797
10836SOL    HW233408   6.741   1.655   4.897
10837SOL     OW33409   6.814   5.122   1.169
10837SOL    HW133410   6.744   5.178   1.124
10837SOL    HW233411   6.777   5.084   1.254
10838SOL     OW33412   5.386   6.313   4.777
10838SOL    HW133413   5.365   6.348   4.869
10838SOL    HW233414   5.470   6.258   4.781
10839SOL     OW33415   4.398   3.170   1.740
10839SOL    HW133416   4.400   3.238   1.813
10839SOL    HW233417   4.476   3.108   1.749
10840SOL     OW33418   3.269   5.485   2.530
10840SOL    HW133419   3.259   5.536   2.445
10840SOL    HW233420   3.230   5.393   2.518
10841SOL     OW33421   5.586   5.364   6.987
10841SOL    HW133422   5.588   5.300   0.045
10841SOL    HW233423   5.491   5.384   6.963
10842SOL     OW33424   4.590   2.624   1.599
10842SOL    HW133425   4.676   2.608   1.551
10842SOL    HW233426   4.513   2.615   1.535
10843SOL     OW33427   1.402   2.887   1.282
10843SOL    HW133428   1.474   2.931   1.229
10843SOL    HW233429   1.433   2.797   1.314
10844SOL     OW33430   0.197   6.932   3.424
10844SOL    HW133431   0.262   6.903   3.353
10844SOL    HW233432   0.209   0.010   3.442
10845SOL     OW33433   3.542   0.202   5.251
10845SOL    HW133434   3.473   0.195   5.179
10845SOL    HW233435   3.560   0.299   5.271
10846SOL     OW33436   4.519   1.831   0.601
10846SOL    HW133437   4.473   1.768   0.663
10846SOL    HW233438   4.587   1.782   0.547
10847SOL     OW33439   3.486   3.061   6.809
10847SOL    HW133440   3.432   3.006   6.873
10847SOL    HW233441   3.466   3.032   6.715
10848SOL     OW33442   3.329   3.460   6.865
10848SOL    HW133443   3.270   3.488   6.790
10848SOL    HW233444   3.400   3.399   6.831
10849SOL     OW33445   2.307   6.125   2.542
10849SOL    HW133446   2.223   6.092   2.585
10849SOL    HW233447   2.285   6.202   2.482
10850SOL     OW33448   3.268   4.821   6.262
10850SOL    HW133449   3.192   4.810   6.326
10850SOL    HW233450   3.249   4.770   6.179
10851SOL     OW33451   2.105   3.164   6.753
10851SOL    HW133452   2.051   3.194   6.675
10851SOL    HW233453   2.200   3.152   6.725
10852SOL     OW33454   1.276   0.526   6.705
10852SOL    HW133455   1.296   0.428   6.695
10852SOL    HW233456   1.204   0.552   6.641
10853SOL     OW33457   2.325   1.902   5.843
10853SOL    HW133458   2.227   1.923   5.843
10853SOL    HW233459   2.340   1.814   5.798
10854SOL     OW33460   4.408   5.468   5.329
10854SOL    HW133461   4.337   5.434   5.391
10854SOL    HW233462   4.381   5.557   5.293
10855SOL     OW33463   2.974   6.909   0.649
10855SOL    HW133464   3.021   6.943   0.730
10855SOL    HW233465   3.041   6.894   0.576
10856SOL     OW33466   5.809   1.957   0.669
10856SOL    HW133467   5.831   2.040   0.617
10856SOL    HW233468   5.733   1.976   0.732
10857SOL     OW33469   6.920   2.756   1.924
10857SOL    HW133470   6.905   2.673   1.870
10857SOL    HW233471   6.832   2.798   1.944
10858SOL     OW33472   0.450   2.188   6.019
10858SOL    HW133473   0.519   2.254   5.989
10858SOL    HW233474   0.377   2.237   6.066
10859SOL     OW33475   2.124   3.354   4.072
10859SOL    HW133476   2.074   3.392   4.150
10859SOL    HW233477   2.123   3.254   4.077
10860SOL     OW33478   6.779   1.887   5.546
10860SOL    HW133479   6.753   1.984   5.548
10860SOL    HW233480   6.854   1.874   5.482
10861SOL     OW33481   3.819   3.667   2.805
10861SOL    HW133482   3.818   3.711   2.715
10861SOL    HW233483   3.903   3.690   2.853
10862SOL     OW33484   2.406   1.889   6.401
10862SOL    HW133485   2.491   1.839   6.419
10862SOL    HW233486   2.368   1.860   6.313
10863SOL     OW33487   3.668   0.581   3.755
10863SOL    HW133488   3.739   0.554   3.820
10863SOL    HW233489   3.693   0.550   3.663
10864SOL     OW33490   2.916   5.043   0.548
10864SOL    HW133491   2.942   4.954   0.511
10864SOL    HW233492   2.997   5.089   0.584
10865SOL     OW33493   6.696   1.721   2.656
10865SOL    HW133494   6.601   1.694   2.672
10865SOL    HW233495   6.751   1.639   2.639
10866SOL     OW33496   5.190   4.945   0.043
10866SOL    HW133497   5.150   5.033   0.020
10866SOL    HW233498   5.248   4.913   6.988
10867SOL     OW33499   3.720   3.542   0.575
10867SOL    HW133500   3.633   3.510   0.611
10867SOL    HW233501   3.729   3.640   0.590
10868SOL     OW33502   3.618   2.021   3.942
10868SOL    HW133503   3.519   2.031   3.945
10868SOL    HW233504   3.643   1.927   3.964
10869NA      NA33505   0.233   2.176   5.534
10870NA      NA33506   4.424   4.661   5.221
10871NA      NA33507   1.832   3.929   2.549
10872NA      NA33508   4.922   4.084   4.007
10873NA      NA33509   4.364   2.497   5.256
10874NA      NA33510   3.117   4.885   1.850
10875NA      NA33511   0.139   4.281   0.439
10876NA      NA33512   3.189   3.238   3.414
10877NA      NA33513   5.064   5.461   1.237
10878NA      NA33514   3.828   6.465   5.348
10879NA      NA33515   6.109   5.411   1.752
10880NA      NA33516   2.058   0.878   4.741
10881NA      NA33517   3.914   5.112   1.836
10882NA      NA33518   4.015   3.477   1.631
   7.01996   7.01996   7.01996
